Membrane in water
40344
    1TMC1    C1    1   2.828   1.211  11.481 -0.0105  0.1348 -0.1804
    1TMC1    C2    2   2.953   1.171  11.523 -0.0952 -0.1820 -0.1972
    1TMC1    C3    3   3.032   1.274  11.576 -0.3728 -0.5969 -0.0482
    1TMC1    C4    4   2.775   1.338  11.498  0.5364  0.5817  0.3953
    1TMC1    C5    5   2.857   1.431  11.554 -0.5519  0.4528  0.2200
    1TMC1    C6    6   2.984   1.401  11.593 -0.7120  0.2812  0.1181
    1TMC1     C    7   2.726   1.104  11.484 -0.3024  0.2243 -0.6536
    1TMC1     O    8   2.607   1.127  11.511 -0.2038  0.1320  0.1808
    1TMC1     H    9   2.984   1.067  11.529 -1.0689 -0.4416  0.2471
    1TMC1    H1   10   2.674   1.355  11.461  0.6277  1.2844  0.4696
    1TMC1    H2   11   3.051   1.472  11.641 -0.7722  0.9022 -0.7082
    1TMC1    C7   12   2.813   1.566  11.538  1.2278  0.2480  0.4938
    1TMC1    C8   13   3.134   1.246  11.674  0.0432 -0.2243  0.3821
    1TMC1    O1   14   2.775   1.603  11.428 -0.0216  0.0922 -0.0433
    1TMC1    O2   15   3.150   1.302  11.779 -0.7099 -0.3068  0.3150
    1TMC1    O3   16   2.733   1.584  11.652 -0.4427  0.5325 -0.1358
    1TMC1    H3   17   2.780   1.538  11.725 -0.5172  0.6821  0.0071
    1TMC1    O5   18   3.203   1.141  11.634 -0.1759 -0.4879  0.1881
    1TMC1    H5   19   3.195   1.126  11.538 -0.8485 -0.7640  0.2907
    2MPD2     C   20   2.564   0.610  11.534 -0.6927  0.1310 -0.3191
    2MPD2    C1   21   2.518   0.726  11.601  0.3228  0.3500  0.2393
    2MPD2    C2   22   2.575   0.848  11.564  0.1118  0.2229 -0.4437
    2MPD2    C3   23   2.696   0.852  11.491  0.0100 -0.0449 -0.1858
    2MPD2    C4   24   2.743   0.736  11.433 -0.1834  0.7175 -0.6523
    2MPD2    C5   25   2.678   0.616  11.461  0.4134 -0.4130  0.2684
    2MPD2     H   26   2.543   0.937  11.617  3.3207 -0.0907  2.0195
    2MPD2    H1   27   2.839   0.724  11.385  0.9729 -1.1586  2.0800
    2MPD2    H2   28   2.530   0.507  11.544 -1.4950  0.3714 -0.6003
    2MPD2    H3   29   2.705   0.523  11.412 -0.9083 -0.9051  0.4759
    2MPD2     N   30   2.768   0.975  11.461 -0.0724 -0.7738 -0.0163
    2MPD2    H5   31   2.846   0.968  11.397  0.7328  3.0476  0.5557
    2MPD2    N1   32   2.411   0.728  11.692  0.6694  0.2571  0.9645
    2MPD2    H7   33   2.395   0.823  11.724 -1.2615 -0.7541  2.9950
    3TMC1    C1   34   1.974   1.836  11.018  0.4448  0.0637 -0.2896
    3TMC1    C2   35   2.104   1.794  11.023 -0.1024  0.2975 -0.1035
    3TMC1    C3   36   2.200   1.876  10.979 -0.1572  1.1354 -0.1758
    3TMC1    C4   37   1.939   1.962  10.969 -0.0383  0.4096  0.4252
    3TMC1    C5   38   2.042   2.035  10.916  0.2704  0.0191 -0.1759
    3TMC1    C6   39   2.171   1.990  10.917 -0.0361 -0.3281  0.7065
    3TMC1     C   40   1.863   1.760  11.063 -0.5437  0.3694  0.6770
    3TMC1     O   41   1.888   1.666  11.142 -0.0440 -0.5943  0.3062
    3TMC1     H   42   2.130   1.694  11.057 -1.3917  0.0155  0.0635
    3TMC1    H1   43   1.846   2.015  10.988 -0.7682 -0.5866 -0.3802
    3TMC1    H2   44   2.251   2.063  10.904 -0.1108 -0.1530  1.2578
    3TMC1    C7   45   2.026   2.180  10.903  0.2098  0.2449  0.2330
    3TMC1    C8   46   2.329   1.815  10.951 -0.0781 -0.0635 -0.1553
    3TMC1    O1   47   2.118   2.260  10.911  0.2251  0.0812 -0.5439
    3TMC1    O2   48   2.349   1.705  11.000  0.2384  0.1201  1.0301
    3TMC1    O3   49   1.910   2.210  10.841  0.3527  0.2322  0.3298
    3TMC1    H3   50   1.857   2.132  10.815 -1.3074  0.7205  2.2093
    3TMC1    O5   51   2.371   1.853  10.825  0.3758  0.2519 -0.0539
    3TMC1    H5   52   2.324   1.928  10.782 -2.9949 -0.1726  2.8268
    4MPD2     C   53   1.358   1.698  11.127 -0.6466 -0.0515  0.3033
    4MPD2    C1   54   1.381   1.799  11.037  0.0909 -0.3289  0.5372
    4MPD2    C2   55   1.509   1.836  10.998 -0.2765 -0.8140  0.3794
    4MPD2    C3   56   1.622   1.760  11.039  0.3317  0.3041  0.0914
    4MPD2    C4   57   1.594   1.653  11.118  0.1673  0.7771 -0.0177
    4MPD2    C5   58   1.469   1.627  11.160 -0.0984 -0.3254 -0.3253
    4MPD2     H   59   1.518   1.923  10.935 -1.7073 -2.7120 -2.4582
    4MPD2    H1   60   1.671   1.591  11.163  0.1675  0.7504 -0.0548
    4MPD2    H2   61   1.264   1.670  11.172  0.7917 -1.2565  2.5622
    4MPD2    H3   62   1.469   1.542  11.228  3.6600  0.2810  0.4127
    4MPD2     N   63   1.749   1.811  11.011 -0.0864 -0.1720 -0.0277
    4MPD2    H5   64   1.751   1.886  10.943 -0.5115 -0.2807 -0.1566
    4MPD2    N1   65   1.278   1.894  10.988 -0.0212  0.2415 -0.3128
    4MPD2    H7   66   1.321   1.966  10.931  1.5663  0.5628  1.3121
    5TCq1    O1   67   3.477   3.294  12.298 -0.4973  0.4493  0.4996
    5TCq1    C1   68   3.429   3.323  12.176  0.3062  0.6630  0.2941
    5TCq1    O2   69   3.444   3.248  12.085  0.6041 -0.1153  0.2252
    5TCq1    C2   70   3.308   3.402  12.195 -1.1860  0.4798 -0.5312
    5TCq1    C3   71   3.317   3.528  12.241 -0.0602 -0.2352 -0.1643
    5TCq1    C4   72   3.212   3.611  12.213  0.0086  0.2586  0.1954
    5TCq1    C5   73   3.098   3.564  12.164 -0.0599  0.5958  0.0214
    5TCq1    C6   74   3.082   3.433  12.144  0.6339  0.1414 -0.3451
    5TCq1    C7   75   3.189   3.348  12.149 -1.1612  0.0557  0.1459
    5TCq1    C8   76   2.970   3.382  12.066  0.1509  0.1525  0.3150
    5TCq1    O4   77   2.983   3.281  11.998  0.3511 -0.1137 -0.1047
    5TCq1    C9   78   3.228   3.755  12.217 -0.2528 -0.0585 -0.5238
    5TCq1    O5   79   3.326   3.789  12.292  0.0651 -0.8028 -0.0443
    5TCq1    O6   80   3.154   3.818  12.142  0.1232 -0.0150 -0.2720
    5TCq1    H1   81   3.461   3.357  12.371  0.1882  0.0541  0.9851
    5TCq1    H2   82   3.406   3.570  12.285  0.8794 -0.4106 -1.9175
    5TCq1    H3   83   3.021   3.638  12.143 -1.1383 -1.2605 -2.5712
    5TCq1    H4   84   3.185   3.241  12.134  2.1933 -0.0298 -0.0450
    6MPD2     C   85   2.626   3.524  12.050  0.1924 -0.7876  0.6117
    6MPD2    C1   86   2.742   3.465  12.002  0.1227 -0.5977  0.3353
    6MPD2    C2   87   2.749   3.410  11.877  0.0143 -0.0006  0.3604
    6MPD2    C3   88   2.642   3.417  11.793  0.5395  0.3103 -0.4510
    6MPD2    C4   89   2.523   3.480  11.838 -0.7111  0.0908  0.4958
    6MPD2    C5   90   2.520   3.532  11.965  0.4216 -0.0810  0.4450
    6MPD2     H   91   2.833   3.350  11.843 -0.2280 -0.1770  0.0796
    6MPD2    H1   92   2.434   3.496  11.778 -1.3281  2.1255  1.9506
    6MPD2    H2   93   2.609   3.559  12.151  1.5592  1.6965 -0.0277
    6MPD2    H3   94   2.430   3.577  12.006 -0.0860  0.5780 -1.3616
    6MPD2     N   95   2.661   3.368  11.662  0.0965 -0.4794  0.1016
    6MPD2    H5   96   2.744   3.313  11.642  2.7370  2.8058  2.1204
    6MPD2    N1   97   2.855   3.458  12.087 -0.1601 -0.2212 -0.1812
    6MPD2    H7   98   2.843   3.516  12.169  0.3788 -3.4836  2.2555
    7TCq1    O1   99   4.547   3.789  13.653  0.0391 -0.2786  0.2615
    7TCq1    C1  100   4.640   3.702  13.703  0.1233 -0.2950  0.1584
    7TCq1    O2  101   4.645   3.658  13.818 -0.4642  0.0360 -0.2641
    7TCq1    C2  102   4.705   3.642  13.585 -0.4411  0.0190 -0.2931
    7TCq1    C3  103   0.037   3.722  13.504  0.4141  0.2698 -0.0850
    7TCq1    C4  104   0.116   3.660  13.414 -0.9704 -1.0987  0.0858
    7TCq1    C5  105   0.139   3.525  13.410  0.3173 -0.4447  0.1891
    7TCq1    C6  106   0.060   3.450  13.486 -0.0379  0.7633 -0.7359
    7TCq1    C7  107   4.716   3.503  13.580  0.9572  0.2358 -0.4942
    7TCq1    C8  108   0.086   3.302  13.495 -0.2325  0.3502  0.0651
    7TCq1    O4  109   4.734   3.235  13.543 -0.2810 -0.3032 -0.6741
    7TCq1    C9  110   0.187   3.742  13.318  0.7001 -0.4731 -0.3609
    7TCq1    O5  111   0.229   3.689  13.214  0.2384  0.1002  0.0962
    7TCq1    O6  112   0.193   3.862  13.352  0.2485  0.0722 -0.3138
    7TCq1    H1  113   4.546   3.791  13.555 -1.7801  1.6064  0.3175
    7TCq1    H2  114   0.040   3.830  13.518 -2.7266  0.3840 -0.4115
    7TCq1    H3  115   0.204   3.488  13.331 -0.8033 -2.5022  0.2274
    7TCq1    H4  116   4.654   3.437  13.640 -1.9186  1.7949 -1.7332
    8MPD2     C  117   0.361   2.885  13.418 -0.0286  0.5447  0.2332
    8MPD2    C1  118   0.230   2.907  13.439  1.0537  0.3149 -0.8287
    8MPD2    C2  119   0.176   3.033  13.439  0.1552  0.5816 -0.0575
    8MPD2    C3  120   0.260   3.139  13.454 -0.4944 -0.7779 -0.8566
    8MPD2    C4  121   0.394   3.123  13.440 -0.4937 -0.0894  0.1404
    8MPD2    C5  122   0.442   2.994  13.414  0.7243 -0.0982  0.0176
    8MPD2     H  123   0.068   3.033  13.452  0.0362 -1.4194 -1.1053
    8MPD2    H1  124   0.461   3.208  13.447  1.0489 -1.5313  2.7429
    8MPD2    H2  125   0.405   2.787  13.406 -1.0851  0.3931 -2.5404
    8MPD2    H3  126   0.548   2.973  13.401  1.1672  1.2247  1.3408
    8MPD2     N  127   0.219   3.267  13.482 -0.0962  0.4130 -0.0543
    8MPD2    H5  128   0.290   3.339  13.474 -1.9046  2.2654  0.2893
    8MPD2    N1  129   0.139   2.803  13.452  0.0792 -0.2418  0.3441
    8MPD2    H7  130   0.039   2.820  13.457  0.3330  1.6553 -0.8648
    9TMC1    C1  131   2.282   2.698  11.535 -0.2146 -0.1167  0.0653
    9TMC1    C2  132   2.280   2.836  11.539 -0.5347  0.0784 -0.7169
    9TMC1    C3  133   2.404   2.895  11.542  1.2745 -0.3039 -0.2881
    9TMC1    C4  134   2.398   2.623  11.531  0.4722 -0.6041  0.0511
    9TMC1    C5  135   2.519   2.691  11.528  0.5239 -0.1251  0.6148
    9TMC1    C6  136   2.522   2.829  11.539  0.2778 -0.6205 -0.2215
    9TMC1     C  137   2.163   2.628  11.503  0.0942  0.6291  0.3020
    9TMC1     O  138   2.059   2.689  11.467 -0.9078 -0.4932  0.6964
    9TMC1     H  139   2.189   2.895  11.539  0.5705  1.7709  1.2664
    9TMC1    H1  140   2.399   2.519  11.500 -0.3958 -0.6791  0.2686
    9TMC1    H2  141   2.618   2.880  11.542  1.2134 -2.3496 -0.5426
    9TMC1    C7  142   2.642   2.616  11.496  0.7403  0.6558  0.3758
    9TMC1    C8  143   2.408   3.042  11.548 -0.2740 -0.3856  0.4140
    9TMC1    O1  144   2.732   2.670  11.436 -0.7428 -0.6237  0.0468
    9TMC1    O2  145   2.310   3.112  11.526 -0.4492  0.4216  0.6096
    9TMC1    O3  146   2.666   2.556  11.611 -0.2652  0.0660 -0.2443
    9TMC1    H3  147   2.582   2.525  11.652  0.1361  0.5360  0.9260
    9TMC1    O5  148   2.496   3.066  11.645  0.5498  0.2725  0.2084
    9TMC1    H5  149   2.549   2.990  11.676 -2.8853 -2.6097 -1.0207
   10MPD2     C  150   1.939   2.432  11.511 -0.2599 -0.3380 -0.0187
   10MPD2    C1  151   2.061   2.412  11.571  0.6500 -0.3625 -0.1863
   10MPD2    C2  152   2.072   2.305  11.655  1.0999  0.3133 -0.5554
   10MPD2    C3  153   1.972   2.202  11.655 -0.0909  0.0401  0.2693
   10MPD2    C4  154   1.847   2.233  11.601  0.4247  0.8933 -0.3256
   10MPD2    C5  155   1.835   2.348  11.526  1.1525 -0.5271  0.8479
   10MPD2     H  156   2.160   2.295  11.717 -0.8334  1.5544  2.3876
   10MPD2    H1  157   1.763   2.164  11.604  1.1578  0.0308  0.5472
   10MPD2    H2  158   1.920   2.518  11.447  0.6388 -0.4582 -0.4489
   10MPD2    H3  159   1.741   2.373  11.478  0.6082  1.0272  2.7234
   10MPD2     N  160   1.984   2.081  11.727 -1.4485 -0.1240 -0.5524
   10MPD2    H5  161   1.899   2.025  11.722 -1.8418  0.3552  1.0081
   10MPD2    N1  162   2.171   2.501  11.556  0.2598  0.0397 -0.5296
   10MPD2    H7  163   2.251   2.485  11.616  0.3065  1.7267 -0.1383
   11TCq1    O1  164   2.804   2.377  13.810 -0.5068 -0.3662 -0.0246
   11TCq1    C1  165   2.720   2.285  13.756  0.0718  0.2244  0.3826
   11TCq1    O2  166   2.629   2.309  13.682  0.3846  0.2334 -0.3924
   11TCq1    C2  167   2.801   2.161  13.756 -1.0187 -0.4385  0.0889
   11TCq1    C3  168   2.917   2.129  13.827 -0.0602  0.9003 -0.0202
   11TCq1    C4  169   2.975   2.008  13.813  0.3172  0.4233 -0.0976
   11TCq1    C5  170   2.919   1.914  13.727 -0.5888 -0.3326 -0.5252
   11TCq1    C6  171   2.809   1.947  13.657  0.0531 -0.7232 -0.6980
   11TCq1    C7  172   2.756   2.072  13.665  0.2283  0.3966  0.3540
   11TCq1    C8  173   2.722   1.844  13.604 -0.0429  0.3772  0.1014
   11TCq1    O4  174   2.619   1.889  13.556  0.1215  0.0240  0.8054
   11TCq1    C9  175   3.102   1.994  13.878  0.0866  0.1272 -0.2723
   11TCq1    O5  176   3.167   2.099  13.917  0.3341  0.0144 -0.0403
   11TCq1    O6  177   3.135   1.874  13.905 -0.2087  0.3284  0.3045
   11TCq1    H1  178   2.877   2.340  13.864  0.8980  0.0884 -1.6327
   11TCq1    H2  179   2.959   2.188  13.907 -0.6249  0.3964  0.6460
   11TCq1    H3  180   2.972   1.819  13.724  1.6753  1.0536 -3.7975
   11TCq1    H4  181   2.670   2.086  13.602  0.8511 -0.2125 -0.6257
   12MPD2     C  182   2.581   1.594  13.522  0.8523 -0.1159  0.0519
   12MPD2    C1  183   2.710   1.598  13.566  1.1053 -0.8589 -0.2808
   12MPD2    C2  184   2.793   1.487  13.560  0.6789  0.0340 -0.2697
   12MPD2    C3  185   2.739   1.366  13.506 -0.4667 -0.5119 -0.4102
   12MPD2    C4  186   2.607   1.373  13.456 -0.2641  0.2963  1.3468
   12MPD2    C5  187   2.529   1.482  13.475  0.9113  0.3852  0.1762
   12MPD2     H  188   2.896   1.483  13.594  0.6114  0.5349 -0.0142
   12MPD2    H1  189   2.570   1.289  13.398 -1.8396  1.7196  0.2996
   12MPD2    H2  190   2.511   1.677  13.531 -0.9262 -1.6367  0.0805
   12MPD2    H3  191   2.425   1.484  13.442  0.2556 -1.3871  2.1120
   12MPD2     N  192   2.809   1.245  13.502  0.2144 -0.0934 -0.0038
   12MPD2    H5  193   2.762   1.161  13.469  0.5628 -0.2789 -0.0341
   12MPD2    N1  194   2.771   1.715  13.613 -0.2139 -0.2672  0.2851
   12MPD2    H7  195   2.865   1.704  13.649  0.3490  0.7767 -0.8761
   13TCq1    O1  196   2.434   2.207  11.858  0.0754  0.0869 -0.2043
   13TCq1    C1  197   2.523   2.140  11.940 -0.1033 -0.4976  0.1632
   13TCq1    O2  198   2.588   2.192  12.027  0.5682  0.6896  0.3610
   13TCq1    C2  199   2.548   2.005  11.903  0.5675 -0.8929 -0.7751
   13TCq1    C3  200   2.635   1.936  11.986 -0.0196 -0.3789 -0.2580
   13TCq1    C4  201   2.637   1.799  11.985 -0.2249 -0.3493  0.2615
   13TCq1    C5  202   2.572   1.726  11.892 -0.5429  0.1053 -0.2996
   13TCq1    C6  203   2.485   1.799  11.808  0.1844 -0.0246  0.4367
   13TCq1    C7  204   2.478   1.937  11.812 -0.1586 -0.6115 -1.0599
   13TCq1    C8  205   2.392   1.729  11.720  0.2655  1.1088 -0.4539
   13TCq1    O4  206   2.308   1.802  11.668  0.6104  0.5368  0.0451
   13TCq1    C9  207   2.712   1.727  12.091 -0.0626  0.1867 -0.5149
   13TCq1    O5  208   2.726   1.788  12.204  0.1656  0.4601  0.2372
   13TCq1    O6  209   2.734   1.605  12.062  0.3919 -0.1145  0.2069
   13TCq1    H1  210   2.382   2.149  11.799  1.8413 -0.0627 -1.6093
   13TCq1    H2  211   2.695   1.985  12.062 -1.8114 -0.5156  1.2547
   13TCq1    H3  212   2.579   1.618  11.892 -0.3008  0.1266  1.2078
   13TCq1    H4  213   2.412   1.983  11.740  0.3464  1.3187 -0.2821
   14MPD2     C  214   2.378   1.366  11.682  0.2117  0.4004 -0.8573
   14MPD2    C1  215   2.331   1.495  11.673 -0.1782 -0.4161  0.5934
   14MPD2    C2  216   2.207   1.520  11.630 -0.0276  0.3455 -0.1982
   14MPD2    C3  217   2.117   1.417  11.616 -0.3336 -0.1649 -0.0667
   14MPD2    C4  218   2.154   1.287  11.627  0.2896 -0.3951 -0.6625
   14MPD2    C5  219   2.285   1.264  11.652  0.0156 -0.2024  0.6506
   14MPD2     H  220   2.170   1.621  11.623 -2.2246 -0.2573  2.4839
   14MPD2    H1  221   2.080   1.210  11.611 -0.6303  0.5063 -0.7438
   14MPD2    H2  222   2.484   1.343  11.693  0.5023  1.3522 -1.6581
   14MPD2    H3  223   2.318   1.161  11.645 -0.8103 -0.4503  0.4239
   14MPD2     N  224   1.987   1.455  11.576  0.0137  0.7198  0.6313
   14MPD2    H5  225   1.968   1.555  11.576 -0.6231  0.6018  0.3717
   14MPD2    N1  226   2.420   1.596  11.721  0.2582 -0.1976 -0.1358
   14MPD2    H7  227   2.514   1.564  11.742 -0.8660 -2.6173  1.1837
   15TCq1    O1  228   0.270   0.793   1.998  0.0120 -0.3319 -0.0566
   15TCq1    C1  229   0.274   0.882   1.896  0.0276  0.2235  0.1910
   15TCq1    O2  230   0.359   0.964   1.872 -0.1246 -0.4530 -0.8358
   15TCq1    C2  231   0.133   0.920   1.899 -0.1228 -0.1033  0.4221
   15TCq1    C3  232   0.100   1.043   1.952  0.0403  0.3360  0.2453
   15TCq1    C4  233   4.708   1.069   1.975  0.1676  0.1731  0.3428
   15TCq1    C5  234   4.612   0.985   1.925  0.1950 -1.0543 -0.1553
   15TCq1    C6  235   4.650   0.868   1.868  0.1749  0.9085  0.0961
   15TCq1    C7  236   0.043   0.828   1.858  0.1735 -0.3234  0.0648
   15TCq1    C8  237   4.555   0.756   1.839  0.0692 -0.4032 -0.7272
   15TCq1    O4  238   4.604   0.647   1.815 -0.1539 -0.1482  0.0085
   15TCq1    C9  239   4.668   1.182   2.056 -0.1178  0.2458 -0.6775
   15TCq1    O5  240   0.028   1.227   2.123 -0.2155  0.4850 -0.1601
   15TCq1    O6  241   4.548   1.192   2.083 -0.5918  0.7721  0.7054
   15TCq1    H1  242   0.187   0.760   2.038 -0.5959  1.1255 -0.1249
   15TCq1    H2  243   0.185   1.098   1.991 -0.7206  2.0542 -0.5223
   15TCq1    H3  244   4.506   1.001   1.941  0.0102 -1.5228 -0.9005
   15TCq1    H4  245   0.073   0.733   1.816 -1.5862 -0.1150 -1.6938
   16MPD2     C  246   4.198   0.765   1.741 -0.4782 -0.0965 -0.1013
   16MPD2    C1  247   4.329   0.716   1.744 -0.0633  0.8018  0.4913
   16MPD2    C2  248   4.356   0.595   1.688  0.0003  0.2492  0.4182
   16MPD2    C3  249   4.256   0.528   1.615  0.3433 -0.2847 -0.6623
   16MPD2    C4  250   4.123   0.576   1.608 -0.4866 -0.2265  0.8475
   16MPD2    C5  251   4.098   0.690   1.682 -0.7205  0.1887 -0.2047
   16MPD2     H  252   4.459   0.563   1.678 -0.8417 -1.9390 -1.2704
   16MPD2    H1  253   4.042   0.523   1.558 -0.0598  0.6947 -0.8392
   16MPD2    H2  254   4.177   0.862   1.784 -1.0737  0.2376 -1.1642
   16MPD2    H3  255   3.997   0.726   1.694 -0.6780 -0.3215  1.6557
   16MPD2     N  256   4.287   0.409   1.549 -0.1486  0.0196 -0.5665
   16MPD2    H5  257   4.361   0.350   1.586  0.0500 -0.2488 -1.3906
   16MPD2    N1  258   4.428   0.803   1.801  0.1574  0.3366 -0.0034
   16MPD2    H7  259   4.411   0.902   1.817 -1.4687 -0.3422  2.4896
   17TMC1    C1  260   1.676   0.167  10.446  1.4226 -0.0555 -0.2310
   17TMC1    C2  261   1.605   0.046  10.436 -0.0266  0.1374 -0.2150
   17TMC1    C3  262   1.562   0.007  10.309  0.1649 -0.3113 -0.6148
   17TMC1    C4  263   1.690   0.250  10.344  0.1584  0.3073 -0.0230
   17TMC1    C5  264   1.637   0.212  10.225  0.1756  0.8754  0.5178
   17TMC1    C6  265   1.582   0.092  10.199 -0.6644  0.3813  0.4797
   17TMC1     C  266   1.729   0.215  10.574  0.5586  0.3567 -0.1908
   17TMC1     O  267   1.694   0.158  10.676 -0.1608  0.2582  0.4506
   17TMC1     H  268   1.601   4.722  10.523 -1.1097 -0.6561 -0.8522
   17TMC1    H1  269   1.709   0.355  10.364 -0.4458  0.3797  0.1656
   17TMC1    H2  270   1.542   0.072  10.100  2.8465  0.3604 -0.9284
   17TMC1    C7  271   1.601   0.315  10.139  0.4831  0.5916 -0.6676
   17TMC1    C8  272   1.493   4.621  10.279 -0.5030  1.0180  0.8195
   17TMC1    O1  273   1.520   0.294  10.050 -0.1876  0.1766  0.2724
   17TMC1    O2  274   1.457   4.600  10.162  0.6692 -0.3220  0.0385
   17TMC1    O3  275   1.712   0.394  10.121  0.8193  0.4313  0.0396
   17TMC1    H3  276   1.786   0.376  10.184  2.3740 -0.1337 -1.9516
   17TMC1    O5  277   1.517   4.525  10.374 -0.8796 -0.1249  0.0919
   17TMC1    H5  278   1.571   4.548  10.452 -0.7155  0.0736 -0.0789
   18MPD2     C  279   1.899   0.333  10.793  0.6289 -0.6027  0.0488
   18MPD2    C1  280   1.923   0.346  10.660 -0.4836  0.1862  0.2458
   18MPD2    C2  281   2.033   0.414  10.631 -0.1421 -0.3556 -0.6058
   18MPD2    C3  282   2.115   0.477  10.719  0.0357  0.2048 -0.0383
   18MPD2    C4  283   2.086   0.460  10.850  0.9650 -0.1685 -0.7868
   18MPD2    C5  284   1.976   0.393  10.884 -0.4864  1.1036  0.1692
   18MPD2     H  285   2.057   0.432  10.527 -3.7400  1.0657 -1.1927
   18MPD2    H1  286   2.156   0.505  10.919  1.3350 -0.8942 -0.6965
   18MPD2    H2  287   1.818   0.269  10.825 -0.9695  1.0583 -0.6475
   18MPD2    H3  288   1.954   0.381  10.990 -0.2312  2.1359  0.3285
   18MPD2     N  289   2.233   0.546  10.689  0.1834  0.1479  0.0169
   18MPD2    H5  290   2.282   0.586  10.769  0.2012 -1.2080  0.6819
   18MPD2    N1  291   1.836   0.304  10.558  0.0867  0.3172  0.3947
   18MPD2    H7  292   1.862   0.329  10.464  0.3136  1.8448  0.8647
   19TMC2    C1  293   3.539   1.914  14.603 -0.6245 -1.3931  0.5061
   19TMC2    C2  294   3.443   2.007  14.563  0.0668 -1.1533 -0.2049
   19TMC2    C3  295   3.357   1.981  14.458  0.2003 -0.6382  0.0387
   19TMC2    C4  296   3.553   1.794  14.540 -0.2558 -0.6215 -0.4823
   19TMC2    C5  297   3.472   1.771  14.427  0.3055 -0.0057  0.4355
   19TMC2    C6  298   3.374   1.863  14.387 -0.1023  0.2515  0.0786
   19TMC2     C  299   3.647   1.969  14.682 -1.2378  0.4080  1.1032
   19TMC2     O  300   3.633   2.080  14.729  0.2658  0.2976  0.1201
   19TMC2     H  301   3.438   2.103  14.614  0.7043  0.8489 -3.9441
   19TMC2    H1  302   3.634   1.724  14.557 -0.8824 -1.0883  0.5631
   19TMC2    H2  303   3.314   1.866  14.297 -2.1446 -3.5253  1.3195
   19TMC2    C7  304   3.509   1.655  14.340  0.4533  0.4412 -0.3359
   19TMC2    C8  305   3.275   2.082  14.395  0.6567 -0.7675 -0.3686
   19TMC2    O1  306   3.593   1.579  14.394 -0.0788 -0.2766 -0.5379
   19TMC2    O2  307   3.236   2.063  14.280  0.1004 -0.1710 -0.5413
   19TMC2    O5  308   3.278   2.197  14.466 -0.7188 -0.0189 -0.4471
   19TMC2    H5  309   3.256   2.171  14.558  2.0043 -1.5014 -0.2288
   20MPD2     C  310   3.923   2.049  14.776 -0.3936 -0.2083  0.3381
   20MPD2    C1  311   3.896   1.942  14.694 -0.2763 -1.5227  0.6454
   20MPD2    C2  312   3.999   1.860  14.643  0.5782  0.7943  0.3043
   20MPD2    C3  313   4.132   1.888  14.674 -0.0158 -0.4600 -0.2101
   20MPD2    C4  314   4.159   2.004  14.746 -0.5802 -0.0922 -0.4552
   20MPD2    C5  315   4.055   2.084  14.793  0.7095 -0.0514 -0.1123
   20MPD2     H  316   3.988   1.785  14.566 -1.9782  0.8961  0.5870
   20MPD2    H1  317   4.260   2.027  14.777 -0.9731  1.3762 -0.2274
   20MPD2    H2  318   3.846   2.102  14.831  0.4131 -2.0624  3.2394
   20MPD2    H3  319   4.090   2.171  14.845 -2.1370  1.3252 -0.4670
   20MPD2     N  320   4.249   1.811  14.634  0.0608 -0.4081 -0.0428
   20MPD2    H5  321   4.337   1.835  14.678  0.8412 -4.1054  0.4519
   20MPD2    N1  322   3.761   1.899  14.659  0.1885  0.2137  0.4664
   20MPD2    H7  323   3.751   1.804  14.625  1.0333  0.4980 -0.5540
   21TMC2    C1  324   1.978   2.198  14.400  0.4473  0.8113  0.3293
   21TMC2    C2  325   1.928   2.125  14.299 -0.1214  0.3200 -0.0577
   21TMC2    C3  326   1.797   2.122  14.280 -0.4346  0.0713  0.4903
   21TMC2    C4  327   1.891   2.267  14.488  0.4065 -0.2816  0.7091
   21TMC2    C5  328   1.755   2.259  14.464 -0.3772 -0.1685  0.4842
   21TMC2    C6  329   1.707   2.186  14.359  0.4071  0.7424 -0.2545
   21TMC2     C  330   2.117   2.191  14.436  0.1036  0.2476 -0.2117
   21TMC2     O  331   2.176   2.087  14.409  0.1395 -0.6917 -0.3778
   21TMC2     H  332   2.001   2.069  14.242 -1.1336 -1.0676 -0.0100
   21TMC2    H1  333   1.919   2.330  14.572 -0.9409 -0.0641  0.9941
   21TMC2    H2  334   1.604   2.154  14.352  1.0128 -1.6182  1.4125
   21TMC2    C7  335   1.658   2.318  14.559  0.1651 -0.0441  0.3636
   21TMC2    C8  336   1.745   2.021  14.198 -0.0835  0.4007  0.2332
   21TMC2    O1  337   1.696   2.341  14.672 -0.0203  0.8606 -0.6193
   21TMC2    O2  338   1.640   2.020  14.136  0.0407 -0.0132 -0.1893
   21TMC2    O5  339   1.805   1.909  14.245  0.1809 -0.3959 -0.2463
   21TMC2    H5  340   1.866   1.926  14.320  0.6415 -2.6261 -0.1083
   22MPD2     C  341   2.558   2.391  14.557  0.6135 -0.3531 -0.2539
   22MPD2    C1  342   2.523   2.287  14.473 -0.2626 -0.3628  0.1621
   22MPD2    C2  343   2.398   2.255  14.452 -0.7054  0.3601 -0.5349
   22MPD2    C3  344   2.296   2.331  14.509  0.1596  0.0221  0.3921
   22MPD2    C4  345   2.331   2.436  14.587  0.0759 -0.2007 -0.0544
   22MPD2    C5  346   2.458   2.478  14.605  0.0898  0.0573 -0.0671
   22MPD2     H  347   2.373   2.165  14.396  0.5771 -1.6119  2.0430
   22MPD2    H1  348   2.259   2.504  14.631  1.2150 -0.7546  2.6441
   22MPD2    H2  349   2.659   2.404  14.595  0.4176  0.6011 -0.0510
   22MPD2    H3  350   2.484   2.568  14.660  0.7334 -1.8639  2.7250
   22MPD2     N  351   2.163   2.307  14.483 -0.4282  0.0381  0.2807
   22MPD2    H5  352   2.097   2.383  14.495 -1.4321 -0.4000 -2.4196
   22MPD2    N1  353   2.614   2.198  14.418  0.0847  0.0166 -0.7427
   22MPD2    H7  354   2.576   2.112  14.379  1.4425 -1.2247  0.6647
   23TMC2    C1  355   2.778   2.624  14.413 -1.1224  0.1727  0.5118
   23TMC2    C2  356   2.884   2.576  14.338  0.1358 -0.0938 -0.2914
   23TMC2    C3  357   2.862   2.514  14.218 -0.3149 -0.2180 -0.1739
   23TMC2    C4  358   2.652   2.623  14.361  0.1396  0.4526 -0.7611
   23TMC2    C5  359   2.629   2.559  14.240  0.3136 -0.3684 -0.4169
   23TMC2    C6  360   2.735   2.506  14.162  0.1426  0.6541 -0.4236
   23TMC2     C  361   2.809   2.704  14.535 -0.0523  0.9801 -0.1636
   23TMC2     O  362   2.924   2.710  14.573  0.1461  0.1036 -0.4498
   23TMC2     H  363   2.986   2.573  14.372  0.0652 -0.2719 -0.0921
   23TMC2    H1  364   2.562   2.656  14.412  0.1323 -0.0663 -0.4426
   23TMC2    H2  365   2.721   2.446  14.072  1.2102 -2.3528  1.4116
   23TMC2    C7  366   2.502   2.502  14.203  0.0335 -0.0107  0.3973
   23TMC2    C8  367   2.969   2.442  14.153  0.0712  0.1104 -0.2153
   23TMC2    O1  368   2.509   2.397  14.143  0.0162  0.3391  0.4016
   23TMC2    O2  369   2.964   2.420  14.034 -0.3844 -0.6173  0.4247
   23TMC2    O5  370   3.070   2.410  14.237  0.5951  0.0916 -0.3703
   23TMC2    H5  371   3.038   2.403  14.329  1.9440 -0.2967  0.0576
   24MPD2     C  372   2.702   2.928  14.970  0.0535 -1.2086  0.3794
   24MPD2    C1  373   2.815   2.860  14.937 -0.3800 -0.1755  0.6853
   24MPD2    C2  374   2.811   2.792  14.814  0.5825  0.6193 -0.1724
   24MPD2    C3  375   2.702   2.816  14.726 -0.7314 -0.2098 -0.6343
   24MPD2    C4  376   2.583   2.873  14.763 -0.1582 -0.6305  0.4865
   24MPD2    C5  377   2.594   2.937  14.886  0.3359  0.0936  0.6118
   24MPD2     H  378   2.890   2.722  14.789  0.2479  0.0340  0.4281
   24MPD2    H1  379   2.495   2.884  14.701  0.8973 -0.2836 -0.9340
   24MPD2    H2  380   2.694   2.983  15.063  0.0873 -1.4939  0.5540
   24MPD2    H3  381   2.520   3.005  14.925  1.6034  2.1923 -0.6362
   24MPD2     N  382   2.698   2.755  14.600 -0.4015  0.3297 -0.4263
   24MPD2    H5  383   2.606   2.751  14.558 -0.8500  1.0255  0.4895
   24MPD2    N1  384   2.928   2.841  15.017  0.1661 -0.0068 -1.3630
   24MPD2    H7  385   3.007   2.802  14.966 -0.6909 -1.6959 -1.3701
   25TMC2    C1  386   2.035   4.636  11.591 -0.4797  0.0024  0.1352
   25TMC2    C2  387   2.133   4.721  11.637 -0.0390  0.5983  0.6213
   25TMC2    C3  388   2.106   0.057  11.749 -0.6210  0.2345  0.6196
   25TMC2    C4  389   1.912   4.627  11.655  0.0151 -0.6111  0.4333
   25TMC2    C5  390   1.905   4.696  11.774 -0.2921  0.6649 -0.0234
   25TMC2    C6  391   1.994   0.051  11.818  0.2604 -0.4471  0.3788
   25TMC2     C  392   2.047   4.602  11.456 -0.7438 -0.2182 -0.5690
   25TMC2     O  393   2.133   4.661  11.386 -0.1910 -0.0455  0.1750
   25TMC2     H  394   2.226   4.739  11.583 -0.7979 -0.5596 -1.0648
   25TMC2    H1  395   1.827   4.571  11.620  0.6848 -1.9864  1.0101
   25TMC2    H2  396   1.993   0.106  11.911  2.4908 -0.2840  0.3254
   25TMC2    C7  397   1.791   4.685  11.857  0.3553 -0.4676 -0.5622
   25TMC2    C8  398   2.181   0.179  11.760 -0.2840 -0.1110 -0.2351
   25TMC2    O1  399   1.770   0.043  11.929  0.1060 -0.2462 -0.5702
   25TMC2    O2  400   2.292   0.192  11.709  0.1348  0.4578  0.2030
   25TMC2    O5  401   2.094   0.283  11.748 -0.2649  0.3713 -0.1376
   25TMC2    H5  402   2.001   0.268  11.774 -0.1344 -0.5208 -0.1810
   26MPD2     C  403   2.010   4.210  11.129  1.1214 -0.4040  0.6572
   26MPD2    C1  404   1.906   4.210  11.217  0.1154 -0.5646  0.2625
   26MPD2    C2  405   1.880   4.314  11.309  0.7537 -0.2212 -0.9262
   26MPD2    C3  406   1.969   4.420  11.313  1.1701 -0.6615 -0.2109
   26MPD2    C4  407   2.081   4.423  11.232 -0.5243  0.6535 -0.1453
   26MPD2    C5  408   2.098   4.320  11.136  0.6559 -0.4276 -0.1091
   26MPD2     H  409   1.793   4.319  11.374  0.5728  0.6742 -1.2423
   26MPD2    H1  410   2.149   4.507  11.224  1.9179 -1.3603 -0.5561
   26MPD2    H2  411   2.027   4.128  11.060  0.9567 -0.1134  0.2717
   26MPD2    H3  412   2.180   4.321  11.065  0.5980  0.4556 -0.1535
   26MPD2     N  413   1.954   4.510  11.419  0.3138  0.5732  1.2661
   26MPD2    H5  414   1.874   4.492  11.478  0.4778  0.2495  1.3863
   26MPD2    N1  415   1.811   4.106  11.212  0.1878  0.9071  0.2046
   26MPD2    H7  416   1.823   4.047  11.130 -0.7990  0.5662  0.2986
   27TMC2    C1  417   0.761   2.547  11.790  0.1579 -1.2701  0.2116
   27TMC2    C2  418   0.811   2.627  11.690 -0.5580 -0.1766 -0.5351
   27TMC2    C3  419   0.921   2.706  11.727 -0.0208  0.7805 -0.0494
   27TMC2    C4  420   0.833   2.526  11.908 -0.8988 -0.2918 -0.2464
   27TMC2    C5  421   0.938   2.603  11.943  0.3667 -0.1743  0.2676
   27TMC2    C6  422   0.979   2.704  11.853 -0.2327 -0.4465 -0.3414
   27TMC2     C  423   0.620   2.553  11.806  0.9164 -0.1604  0.1963
   27TMC2     O  424   0.557   2.577  11.702  0.1411 -0.2428  0.3230
   27TMC2     H  425   0.763   2.646  11.595 -1.6122 -0.4371 -0.0555
   27TMC2    H1  426   0.798   2.449  11.976  1.8176 -1.6135 -0.3535
   27TMC2    H2  427   1.053   2.777  11.883 -0.1630 -0.6864  0.0784
   27TMC2    C7  428   0.941   2.625  12.084  0.1736  0.0245  0.3123
   27TMC2    C8  429   0.963   2.808  11.638 -0.0959  0.1950  0.2889
   27TMC2    O1  430   0.840   2.594  12.142  0.1099  0.4035 -0.5612
   27TMC2    O2  431   0.938   2.787  11.518  0.0375  0.3305 -0.1682
   27TMC2    O5  432   0.975   2.928  11.699  0.5775  0.3960 -0.7176
   27TMC2    H5  433   0.983   2.941  11.796 -0.3698  2.0550 -0.8561
   28MPD2     C  434   0.224   2.340  12.034 -0.4666 -0.6442  0.3537
   28MPD2    C1  435   0.315   2.379  12.139  0.2521 -0.5318  0.9336
   28MPD2    C2  436   0.420   2.457  12.106 -0.1807 -0.1931  0.1593
   28MPD2    C3  437   0.449   2.485  11.973  0.2740 -0.2948  0.4054
   28MPD2    C4  438   0.347   2.468  11.873 -0.0570 -0.5021  0.3725
   28MPD2    C5  439   0.246   2.388  11.908 -0.1348 -0.1704  0.1253
   28MPD2     H  440   0.496   2.484  12.178  1.6718 -2.9765 -0.7606
   28MPD2    H1  441   0.348   2.480  11.765 -1.8702 -0.7555  0.3258
   28MPD2    H2  442   0.133   2.285  12.050 -1.7579  0.8986 -1.7174
   28MPD2    H3  443   0.179   2.365  11.826 -1.7575  1.7195  0.9172
   28MPD2     N  444   0.576   2.528  11.935  0.0277  0.7769 -0.3318
   28MPD2    H5  445   0.643   2.546  12.009  0.5584 -0.7597 -0.4301
   28MPD2    N1  446   0.278   2.337  12.273 -0.3684 -0.1257  0.1855
   28MPD2    H7  447   0.180   2.311  12.270 -0.1683 -0.8848 -0.0352
   29TMC2    C1  448   0.570   0.293  14.297 -0.0977 -0.1286  0.3788
   29TMC2    C2  449   0.511   0.311  14.415  0.0222 -0.3390  0.0584
   29TMC2    C3  450   0.536   0.424  14.489 -0.6932 -0.2871  0.2134
   29TMC2    C4  451   0.648   0.389  14.246  0.6401 -0.1078 -0.2510
   29TMC2    C5  452   0.662   0.504  14.312 -0.0288  0.5686 -0.6193
   29TMC2    C6  453   0.606   0.529  14.436 -0.3580  0.9624  0.1405
   29TMC2     C  454   0.552   0.164  14.229 -1.0147  0.1703  0.2758
   29TMC2     O  455   0.626   0.139  14.132  1.1750  0.2155  0.1188
   29TMC2     H  456   0.461   0.230  14.466 -0.2600 -0.2883 -0.1323
   29TMC2    H1  457   0.679   0.389  14.142 -1.3450 -2.8551 -0.8506
   29TMC2    H2  458   0.614   0.620  14.494  0.3889 -0.3067  2.0438
   29TMC2    C7  459   0.717   0.621  14.241 -0.0289 -0.2171 -0.9475
   29TMC2    C8  460   0.469   0.436  14.619 -0.7618 -0.1287 -0.3208
   29TMC2    O1  461   0.738   0.611  14.119  0.2188  0.0380 -0.2067
   29TMC2    O2  462   0.371   0.373  14.653  0.3885 -0.0302  0.3127
   29TMC2    O5  463   0.534   0.519  14.700  0.6297  0.2921  0.7293
   29TMC2    H5  464   0.600   0.584  14.667 -0.3650  2.0882  2.3055
   30MPD2     C  465   0.247   4.528  14.073  0.3284  0.7831 -0.0661
   30MPD2    C1  466   0.386   4.536  14.074  0.1879  0.4162 -0.7904
   30MPD2    C2  467   0.453   4.644  14.128 -0.4030  0.0445  0.2250
   30MPD2    C3  468   0.377   4.737  14.202  0.3336 -0.3405  0.4567
   30MPD2    C4  469   0.244   4.718  14.220 -0.2908 -0.3033  0.1011
   30MPD2    C5  470   0.178   4.621  14.142 -0.9766  0.1230 -0.3296
   30MPD2     H  471   0.561   4.628  14.128 -0.7723 -2.5026 -0.3035
   30MPD2    H1  472   0.189   0.051  14.279 -0.6636  1.0216 -1.8323
   30MPD2    H2  473   0.201   4.450  14.014  0.1462  0.3920  0.6032
   30MPD2    H3  474   0.072   4.599  14.139 -1.0430  0.6534 -1.7999
   30MPD2     N  475   0.432   0.113  14.259 -0.1254  0.5042  0.2861
   30MPD2    H5  476   0.372   0.168  14.320 -1.4351 -2.2476  1.4485
   30MPD2    N1  477   0.464   4.439  14.005 -0.8226  1.0868  0.3312
   30MPD2    H7  478   0.565   4.443  14.017 -0.5928  0.2672 -1.3411
   31TMC2    C1  479   3.043   3.276  15.757 -0.2891 -0.7825 -0.0183
   31TMC2    C2  480   3.051   3.342  15.878  0.3391 -0.5600 -0.6890
   31TMC2    C3  481   3.103   3.282  15.986  0.3802  0.2137  0.6710
   31TMC2    C4  482   3.072   3.143  15.747 -0.0941  0.0972  0.0341
   31TMC2    C5  483   3.106   3.076  15.865 -0.0036 -0.3931  1.3654
   31TMC2    C6  484   3.121   3.146  15.981  0.3853  0.0539  0.2487
   31TMC2     C  485   2.990   3.352  15.643  0.0190  0.2602 -0.0614
   31TMC2     O  486   2.997   3.475  15.655 -0.1665 -0.3437 -0.6642
   31TMC2     H  487   3.033   3.449  15.879  2.0874 -0.3296  4.0307
   31TMC2    H1  488   3.055   3.087  15.655  1.2988 -2.8091  1.5597
   31TMC2    H2  489   3.149   3.106  16.078 -1.0839  0.2379  0.7496
   31TMC2    C7  490   3.120   2.934  15.882  0.5623 -0.0910 -0.1002
   31TMC2    C8  491   3.103   3.358  16.114  0.1088 -1.3075 -0.9859
   31TMC2    O1  492   3.137   2.891  15.997  0.2566 -0.5468 -0.2345
   31TMC2    O2  493   3.093   3.309  16.226  0.0146 -0.1870 -0.6789
   31TMC2    O5  494   3.133   3.492  16.093  0.3527 -0.5393  0.5494
   31TMC2    H5  495   3.157   3.496  15.998  1.6240 -1.2957  0.8382
   32MPD2     C  496   2.685   3.381  15.222  0.3384 -0.6068  0.2658
   32MPD2    C1  497   2.751   3.473  15.292  0.9816 -0.1166 -0.0285
   32MPD2    C2  498   2.825   3.440  15.407 -0.2911 -0.8718  0.0928
   32MPD2    C3  499   2.837   3.316  15.450 -0.4135 -0.3152 -0.0595
   32MPD2    C4  500   2.766   3.219  15.380  0.6257  0.0672  0.6342
   32MPD2    C5  501   2.688   3.254  15.272 -0.1255  0.3166  0.3388
   32MPD2     H  502   2.884   3.518  15.454 -0.2625 -0.1121 -1.1957
   32MPD2    H1  503   2.764   3.116  15.415  0.0579 -0.3983 -0.7583
   32MPD2    H2  504   2.620   3.404  15.138  0.6332  2.2298  0.8034
   32MPD2    H3  505   2.634   3.185  15.208 -0.7764  1.5804 -0.4835
   32MPD2     N  506   2.915   3.274  15.556  0.1838 -0.4266 -0.0772
   32MPD2    H5  507   2.920   3.174  15.575  0.7108 -0.9931 -3.2075
   32MPD2    N1  508   2.755   3.602  15.236 -0.5249  0.9745  0.6962
   32MPD2    H7  509   2.695   3.606  15.154 -0.2439 -0.0107  0.4367
   33TMC2    C1  510   2.372   1.534  10.652 -0.1557  0.9626  0.0776
   33TMC2    C2  511   2.244   1.559  10.697 -0.0261 -0.4583  0.1341
   33TMC2    C3  512   2.171   1.661  10.653  0.6142  0.1985  0.0068
   33TMC2    C4  513   2.433   1.609  10.552  0.2896 -0.1664 -0.6338
   33TMC2    C5  514   2.360   1.720  10.514 -0.3462  0.2972 -0.1502
   33TMC2    C6  515   2.227   1.751  10.559 -0.6339 -0.7315  0.4819
   33TMC2     C  516   2.439   1.416  10.699  0.2828 -0.8091 -0.6884
   33TMC2     O  517   2.367   1.328  10.742  0.1625  0.1489 -0.0175
   33TMC2     H  518   2.206   1.497  10.778  3.1766 -3.1551 -0.4421
   33TMC2    H1  519   2.525   1.585  10.500 -0.5095 -0.6760 -1.7925
   33TMC2    H2  520   2.170   1.839  10.532  2.5311  0.5561 -1.9273
   33TMC2    C7  521   2.405   1.793  10.396  0.3041 -0.2967  0.1770
   33TMC2    C8  522   2.049   1.695  10.706 -0.0339  0.6903  0.3285
   33TMC2    O1  523   2.523   1.779  10.377  0.3926  0.3642 -0.4076
   33TMC2    O2  524   1.997   1.801  10.675  0.0081 -0.1644 -0.3357
   33TMC2    O5  525   1.988   1.591  10.775  0.0348  0.3054 -0.1774
   33TMC2    H5  526   2.020   1.498  10.766 -0.0938  0.1064  1.4557
   34MPD2     C  527   2.857   1.148  10.733  0.1362  0.4723  0.4254
   34MPD2    C1  528   2.727   1.112  10.714 -0.4576 -0.3106  0.0534
   34MPD2    C2  529   2.631   1.207  10.699 -0.3025  0.0727  0.2542
   34MPD2    C3  530   2.669   1.339  10.718  0.4132  0.2035 -0.1906
   34MPD2    C4  531   2.796   1.372  10.749 -0.2456  0.2726  0.2271
   34MPD2    C5  532   2.890   1.276  10.754  0.1962  0.0025 -0.8407
   34MPD2     H  533   2.529   1.182  10.671 -0.4904  2.4080 -1.1306
   34MPD2    H1  534   2.824   1.475  10.765  0.0282  0.2938 -0.3898
   34MPD2    H2  535   2.933   1.071  10.738 -0.3952 -0.0723  0.1419
   34MPD2    H3  536   2.991   1.305  10.779 -0.3695 -0.1259  1.5986
   34MPD2     N  537   2.573   1.439  10.701  0.3678 -0.0466  0.6048
   34MPD2    H5  538   2.602   1.536  10.693  2.7037 -0.9728 -2.2163
   34MPD2    N1  539   2.702   0.972  10.709  0.9012 -0.9965 -0.4804
   34MPD2    H7  540   2.782   0.911  10.701  2.7943  1.5192 -0.6889
   35TMC2    C1  541   3.202   2.167  11.604 -0.0982  0.0267 -0.0573
   35TMC2    C2  542   3.184   2.230  11.483 -0.2554  0.1789  0.0959
   35TMC2    C3  543   3.169   2.158  11.368  0.7561  0.3364  0.3764
   35TMC2    C4  544   3.200   2.031  11.615 -0.5420  0.4546 -0.1500
   35TMC2    C5  545   3.172   1.970  11.498 -0.5621 -0.3373 -0.0382
   35TMC2    C6  546   3.142   2.029  11.372  0.2344 -0.1517 -0.4224
   35TMC2     C  547   3.223   2.247  11.722 -0.6998  0.6061 -0.0245
   35TMC2     O  548   3.186   2.366  11.710  0.0430  0.6139 -1.0569
   35TMC2     H  549   3.189   2.338  11.478  0.0857  0.1581 -0.0912
   35TMC2    H1  550   3.223   1.972  11.702 -1.3907  1.3513  0.6870
   35TMC2    H2  551   3.145   1.974  11.278 -1.9137 -1.0384  0.0413
   35TMC2    C7  552   3.187   1.826  11.502  0.9060  0.3442 -0.1254
   35TMC2    C8  553   3.148   2.231  11.247 -0.0829 -0.3201  0.1693
   35TMC2    O1  554   3.258   1.776  11.584  0.3244  0.1118 -0.0525
   35TMC2    O2  555   3.073   2.198  11.157  0.1514  0.0477  0.0636
   35TMC2    O5  556   3.214   2.343  11.262 -0.0022  0.5719  0.0662
   35TMC2    H5  557   3.282   2.331  11.332 -1.0471  2.2934  1.3814
   36MPD2     C  558   3.457   2.391  12.151  0.8683 -0.2980 -0.6743
   36MPD2    C1  559   3.519   2.275  12.099  0.5955  0.1804  0.2452
   36MPD2    C2  560   3.466   2.209  11.988  0.0317  0.0578 -0.0361
   36MPD2    C3  561   3.351   2.255  11.934 -0.2518  0.1689 -0.5325
   36MPD2    C4  562   3.282   2.356  11.991  0.5152  0.2898  0.2038
   36MPD2    C5  563   3.330   2.422  12.104  0.9594 -0.2814  0.0439
   36MPD2     H  564   3.506   2.116  11.947  0.4425  0.8940 -1.5254
   36MPD2    H1  565   3.190   2.404  11.959 -0.6113 -1.5524  0.6655
   36MPD2    H2  566   3.507   2.452  12.226 -2.1852  0.2935  0.8849
   36MPD2    H3  567   3.277   2.507  12.147  1.7964  1.2260 -1.8712
   36MPD2     N  568   3.303   2.188  11.815  0.5600 -0.3179  0.0845
   36MPD2    H5  569   3.349   2.105  11.780 -0.8290 -1.4010  0.8208
   36MPD2    N1  570   3.642   2.254  12.163 -0.1874 -0.1478  0.0510
   36MPD2    H7  571   3.658   2.326  12.233 -0.2337  0.0377 -0.1317
   37TMC2    C1  572   1.192   2.322  12.266  0.7535  0.0457 -0.5201
   37TMC2    C2  573   1.069   2.296  12.321 -0.2599  0.5845 -0.3770
   37TMC2    C3  574   0.966   2.275  12.236 -0.0629  0.7941  0.4569
   37TMC2    C4  575   1.216   2.313  12.132 -1.2799  0.2978  0.3920
   37TMC2    C5  576   1.113   2.276  12.046 -0.3495 -0.1331  0.5428
   37TMC2    C6  577   0.989   2.251  12.097  0.3572 -0.0289 -0.3869
   37TMC2     C  578   1.261   2.428  12.339  0.5370  0.0409 -0.5867
   37TMC2     O  579   1.237   2.440  12.460  0.0287 -0.2525  0.4808
   37TMC2     H  580   1.055   2.318  12.427 -0.1650  1.1305 -0.4778
   37TMC2    H1  581   1.312   2.332  12.084 -1.5475  0.2727 -0.1617
   37TMC2    H2  582   0.905   2.245  12.028  0.8624 -0.2483 -0.9878
   37TMC2    C7  583   1.128   2.321  11.908 -0.4688  0.3901  0.0384
   37TMC2    C8  584   0.829   2.268  12.281 -0.3751  0.0006  0.5869
   37TMC2    O1  585   1.219   2.399  11.882  0.1868  0.1937  0.1551
   37TMC2    O2  586   0.739   2.275  12.199 -0.7803 -0.3447  0.2578
   37TMC2    O5  587   0.839   2.175  12.378  0.8572 -0.2889 -0.0955
   37TMC2    H5  588   0.934   2.157  12.392  0.9479 -0.0737 -0.4503
   38MPD2     C  589   1.604   2.821  12.336  0.0046  0.0935 -0.1525
   38MPD2    C1  590   1.578   2.774  12.209 -0.7477 -0.1242  0.1360
   38MPD2    C2  591   1.496   2.666  12.193  0.7461 -0.3077 -0.4966
   38MPD2    C3  592   1.436   2.598  12.297  0.1931 -0.0374  0.4262
   38MPD2    C4  593   1.450   2.651  12.424  0.1857  0.2003  0.2795
   38MPD2    C5  594   1.528   2.761  12.431 -0.2337  0.6010  0.6712
   38MPD2     H  595   1.487   2.630  12.092  1.9651 -1.2808 -0.2579
   38MPD2    H1  596   1.397   2.612  12.510  0.1842 -3.8132 -1.5446
   38MPD2    H2  597   1.660   2.911  12.358  1.5216 -0.6706 -0.8831
   38MPD2    H3  598   1.532   2.802  12.531 -3.1089  1.1914  0.5444
   38MPD2     N  599   1.349   2.494  12.256  0.8810 -0.1603 -0.0168
   38MPD2    H5  600   1.329   2.468  12.160  1.5911 -1.1937  0.1223
   38MPD2    N1  601   1.627   2.829  12.085  0.3576 -0.1553  0.2423
   38MPD2    H7  602   1.601   2.791  11.995  1.1755 -2.5111  1.0030
   39TMC2    C1  603   4.476   4.426   1.923  0.2194  0.0696 -0.0782
   39TMC2    C2  604   4.444   4.454   2.057  0.2969  0.1834 -0.3209
   39TMC2    C3  605   4.540   4.455   2.152 -0.5169  0.4380 -0.6919
   39TMC2    C4  606   4.602   4.421   1.881 -0.0369 -0.9635  0.1767
   39TMC2    C5  607   4.696   4.436   1.981 -0.2439  0.0078  0.4434
   39TMC2    C6  608   4.671   4.447   2.115  0.2769  0.0348  0.1271
   39TMC2     C  609   4.377   4.412   1.826  0.2747 -1.2186  0.3827
   39TMC2     O  610   4.276   4.480   1.847  0.1711 -0.0230  0.0107
   39TMC2     H  611   4.342   4.447   2.095 -0.6196  1.3874 -2.5698
   39TMC2    H1  612   4.636   4.425   1.779 -1.0894 -0.2776 -0.1445
   39TMC2    H2  613   0.017   4.460   2.181  1.5156 -2.4276 -1.0067
   39TMC2    C7  614   0.103   4.441   1.960 -0.1595  0.4845  0.3985
   39TMC2    C8  615   4.493   4.465   2.283 -0.4806 -0.0147 -0.0377
   39TMC2    O1  616   0.179   4.373   2.028  0.1597  0.0010 -0.3663
   39TMC2    O2  617   4.407   4.542   2.320  0.1954  0.3708  0.3421
   39TMC2    O5  618   4.608   4.457   2.352  0.6391 -0.3128 -0.3823
   39TMC2    H5  619   4.652   4.369   2.346  1.4139 -0.1934  3.6746
   40MPD2     C  620   4.408   4.217   1.514  0.1392  0.0985 -0.9390
   40MPD2    C1  621   4.355   4.317   1.598  0.3160  0.3078  0.3763
   40MPD2    C2  622   4.233   4.383   1.570  0.4099 -0.1508  0.9043
   40MPD2    C3  623   4.168   4.351   1.445  0.1520 -0.3223  0.1635
   40MPD2    C4  624   4.225   4.249   1.374  0.0044 -0.1015  0.7131
   40MPD2    C5  625   4.340   4.187   1.403  0.5551 -0.3766 -0.0834
   40MPD2     H  626   4.193   4.462   1.632  1.0881  0.3438  0.7198
   40MPD2    H1  627   4.186   4.216   1.278 -0.7381  0.3749  0.8526
   40MPD2    H2  628   4.506   4.174   1.530  0.0936  0.1506 -0.4929
   40MPD2    H3  629   4.372   4.097   1.351  2.5041 -0.8355  1.9139
   40MPD2     N  630   4.060   4.415   1.388  0.0815  0.0091 -0.3263
   40MPD2    H5  631   4.042   4.395   1.290 -0.8299 -1.0079  0.0570
   40MPD2    N1  632   4.422   4.331   1.720 -0.1362  0.1798 -0.2261
   40MPD2    H7  633   4.505   4.273   1.729 -1.3428 -1.3021  1.6138
   41TMC2    C1  634   3.406   3.028  13.673 -0.0349  0.1388 -0.0983
   41TMC2    C2  635   3.313   3.060  13.769  0.0186  0.0525 -0.1245
   41TMC2    C3  636   3.244   3.173  13.743  0.1796 -0.2053  0.6408
   41TMC2    C4  637   3.405   3.085  13.553  0.6598  0.7780  0.1028
   41TMC2    C5  638   3.318   3.187  13.523  0.6109 -0.7613 -0.2733
   41TMC2    C6  639   3.244   3.242  13.621  0.1719  0.2565  0.3234
   41TMC2     C  640   3.503   2.924  13.716 -0.5060  0.0464 -0.3464
   41TMC2     O  641   3.553   2.855  13.627 -0.1530  0.4360 -0.2049
   41TMC2     H  642   3.298   3.004  13.861 -0.3492  0.9059  0.3344
   41TMC2    H1  643   3.485   3.058  13.486 -1.8878  0.8811 -2.9814
   41TMC2    H2  644   3.174   3.322  13.602 -0.8368 -0.1135  2.5103
   41TMC2    C7  645   3.296   3.244  13.387 -0.2185  0.0565  0.0309
   41TMC2    C8  646   3.131   3.206  13.830 -0.5452  0.5504  0.1037
   41TMC2    O1  647   3.229   3.343  13.381  0.2993 -0.4410  0.4244
   41TMC2    O2  648   3.023   3.244  13.783  0.2421  0.2682  0.3171
   41TMC2    O5  649   3.145   3.180  13.964 -0.3797 -0.1829 -0.6944
   41TMC2    H5  650   3.231   3.144  13.992 -1.5636 -2.2732  0.2475
   42MPD2     C  651   3.719   2.766  13.864 -0.1499 -0.0674 -0.3261
   42MPD2    C1  652   3.631   2.860  13.915 -0.0048 -0.0586  0.8154
   42MPD2    C2  653   3.644   2.884  14.046  0.0776  0.0256 -0.2540
   42MPD2    C3  654   3.733   2.818  14.132 -0.0985 -0.1842  0.4255
   42MPD2    C4  655   3.821   2.728  14.075  0.2391  0.4056 -0.1557
   42MPD2    C5  656   3.801   2.693  13.945  0.1364  0.0738  0.4718
   42MPD2     H  657   3.581   2.963  14.086 -1.0047 -1.7265  1.5215
   42MPD2    H1  658   3.907   2.687  14.128 -0.9202 -3.4656 -1.2837
   42MPD2    H2  659   3.726   2.739  13.760  1.2780  1.0386 -0.5245
   42MPD2    H3  660   3.864   2.620  13.896 -1.9232 -2.2285  1.2506
   42MPD2     N  661   3.740   2.827  14.269  0.1365  0.6458  0.5294
   42MPD2    H5  662   3.801   2.757  14.310  0.2722  1.3191  1.4791
   42MPD2    N1  663   3.534   2.930  13.846 -0.1836  0.2383  0.0909
   42MPD2    H7  664   3.487   3.001  13.903 -2.1778 -0.7995 -0.2618
   43TMC2    C1  665   0.155   1.320   1.270  0.4938  0.8247  0.3752
   43TMC2    C2  666   0.060   1.407   1.313 -0.1747 -0.2600  0.3981
   43TMC2    C3  667   0.085   1.497   1.408 -0.2359  0.0029 -0.5382
   43TMC2    C4  668   0.279   1.323   1.334 -0.2891  0.5058  0.0139
   43TMC2    C5  669   0.296   1.403   1.441  0.4545 -0.4549  0.9234
   43TMC2    C6  670   0.200   1.494   1.484 -0.0785 -0.1376  0.2613
   43TMC2     C  671   0.127   1.214   1.177  0.5854  0.0583 -0.0164
   43TMC2     O  672   0.227   1.170   1.123  0.0865 -0.5521  0.7000
   43TMC2     H  673   4.709   1.402   1.254 -0.7023  1.9758  1.0427
   43TMC2    H1  674   0.363   1.268   1.293 -0.4022  0.4332 -0.1176
   43TMC2    H2  675   0.214   1.565   1.565  2.8421 -0.9517  0.4902
   43TMC2    C7  676   0.430   1.415   1.483  0.1791  0.5277 -0.2279
   43TMC2    C8  677   4.712   1.562   1.477  0.0003 -0.7572 -0.5504
   43TMC2    O1  678   0.523   1.389   1.400 -0.3369 -0.0448  0.2043
   43TMC2    O2  679   4.721   1.612   1.592  0.3868  0.1691 -0.2747
   43TMC2    O5  680   4.625   1.598   1.384 -0.0386 -0.1333  0.5182
   43TMC2    H5  681   4.565   1.666   1.420 -1.6927 -0.2663 -1.9457
   44MPD2     C  682   4.566   0.837   0.998  0.7538 -0.7368 -0.3368
   44MPD2    C1  683   4.700   0.872   0.971  0.1370  0.0786 -0.3620
   44MPD2    C2  684   0.015   0.995   1.013  0.0909 -0.0797  0.4423
   44MPD2    C3  685   4.680   1.083   1.089 -0.7686  0.0351 -0.2575
   44MPD2    C4  686   4.544   1.056   1.105  0.0155  0.1886 -0.2593
   44MPD2    C5  687   4.492   0.935   1.067 -0.2644  0.6449  0.3159
   44MPD2     H  688   0.122   1.013   1.004  0.2537 -2.4568 -2.4263
   44MPD2    H1  689   4.479   1.127   1.155  2.8953  1.1626  2.0707
   44MPD2    H2  690   4.521   0.746   0.962  1.1362 -1.0254 -0.0908
   44MPD2    H3  691   4.389   0.912   1.091  0.2504 -1.4545  0.5047
   44MPD2     N  692   4.733   1.186   1.171  0.4075  0.1451 -0.2859
   44MPD2    H5  693   4.664   1.234   1.228 -0.8457  0.8794 -2.4119
   44MPD2    N1  694   0.053   0.783   0.904 -0.1928  0.2110 -0.1040
   44MPD2    H7  695   0.145   0.822   0.885 -0.0815 -0.2775 -0.5597
   45TMC2    C1  696   0.524   3.047   9.729  0.1412  0.9845 -0.2386
   45TMC2    C2  697   0.415   3.084   9.655 -0.3038 -0.0252  0.8427
   45TMC2    C3  698   0.428   3.204   9.588 -0.3894  0.2164 -1.3333
   45TMC2    C4  699   0.613   3.141   9.766  0.0729  0.1893 -0.3084
   45TMC2    C5  700   0.626   3.258   9.701  0.3659 -0.1599 -0.0133
   45TMC2    C6  701   0.524   3.292   9.617  0.4519 -0.3104 -0.7261
   45TMC2     C  702   0.516   2.930   9.816  0.5921  0.6105  0.1512
   45TMC2     O  703   0.573   2.944   9.923 -0.6672 -0.2114  0.4773
   45TMC2     H  704   0.318   3.035   9.659  0.1399 -0.8539  1.4945
   45TMC2    H1  705   0.700   3.112   9.824 -0.2438  0.2570  0.2049
   45TMC2    H2  706   0.508   3.389   9.572  1.4315  1.2037  2.1366
   45TMC2    C7  707   0.734   3.348   9.734  0.4169  0.1850 -0.5634
   45TMC2    C8  708   0.350   3.221   9.464 -0.1744 -0.3834 -0.2481
   45TMC2    O1  709   0.785   3.329   9.840  0.0225 -0.6097 -0.2169
   45TMC2    O2  710   0.325   3.331   9.424  0.5753 -0.1292  0.2363
   45TMC2    O5  711   0.308   3.100   9.417 -0.1318 -0.0908 -0.3459
   45TMC2    H5  712   0.329   3.019   9.468  0.2058 -0.1095 -0.5100
   46MPD2     C  713   0.589   2.651   9.882  0.5948 -0.0655  0.2196
   46MPD2    C1  714   0.473   2.689   9.810  0.1293 -0.2277 -0.5155
   46MPD2    C2  715   0.396   2.583   9.760 -0.5707 -0.1998  0.4896
   46MPD2    C3  716   0.429   2.447   9.783 -0.1823 -0.8574 -0.1017
   46MPD2    C4  717   0.541   2.419   9.862  0.2858 -0.1967 -0.2898
   46MPD2    C5  718   0.618   2.523   9.905  0.6357  0.4479  0.2100
   46MPD2     H  719   0.305   2.617   9.713 -0.3749  0.6858  0.7637
   46MPD2    H1  720   0.575   2.324   9.902 -1.7453 -0.7341  0.1419
   46MPD2    H2  721   0.667   2.714   9.923  1.1988 -1.6171  1.4649
   46MPD2    H3  722   0.707   2.501   9.964  0.0244 -1.6144  0.3369
   46MPD2     N  723   0.340   2.352   9.729 -0.3027  0.7218 -0.2969
   46MPD2    H5  724   0.261   2.393   9.678  0.7274  0.8103 -1.8194
   46MPD2    N1  725   0.451   2.822   9.764  0.0567 -0.6352 -0.4597
   46MPD2    H7  726   0.394   2.834   9.681  0.4432 -0.0337 -0.6330
   47TMC2    C1  727   2.288   3.825   8.917 -0.1962 -0.9048 -0.0522
   47TMC2    C2  728   2.222   3.912   8.836  0.3472 -0.7927  0.2162
   47TMC2    C3  729   2.082   3.917   8.846 -0.1789 -0.0067 -0.3331
   47TMC2    C4  730   2.217   3.745   8.998 -0.0669  0.2170 -0.4902
   47TMC2    C5  731   2.077   3.756   9.008 -0.0829  0.4382  0.0871
   47TMC2    C6  732   2.007   3.849   8.934 -0.9804  1.0625  0.0427
   47TMC2     C  733   2.431   3.852   8.933 -0.6531 -0.3640 -0.2295
   47TMC2     O  734   2.489   3.921   8.852 -0.9341 -0.2632 -0.2274
   47TMC2     H  735   2.279   3.972   8.766  0.0484 -0.6111  0.1331
   47TMC2    H1  736   2.271   3.662   9.043 -2.2394 -0.2169  1.2776
   47TMC2    H2  737   1.901   3.867   8.944 -1.2931 -0.6021 -0.3128
   47TMC2    C7  738   2.006   3.644   9.061  0.6147 -0.2052 -0.4605
   47TMC2    C8  739   2.020   4.003   8.752  0.6976 -0.1778 -0.4128
   47TMC2    O1  740   1.896   3.625   9.008 -0.3485  0.2484 -1.0828
   47TMC2    O2  741   1.913   4.056   8.776  0.0243  0.9563  0.1982
   47TMC2    O5  742   2.067   3.959   8.635 -0.2104 -0.3591 -1.0509
   47TMC2    H5  743   2.117   3.875   8.647  0.6756  0.3906  0.5495
   48MPD2     C  744   2.704   3.743   8.937 -0.4672  0.8689  0.2536
   48MPD2    C1  745   2.615   3.737   9.043 -0.6041  0.1193  0.9862
   48MPD2    C2  746   2.657   3.679   9.155 -0.7028  0.7713 -0.0760
   48MPD2    C3  747   2.791   3.666   9.180  0.2846  0.9080 -0.2238
   48MPD2    C4  748   2.881   3.684   9.079  0.4841 -0.1783 -0.0493
   48MPD2    C5  749   2.837   3.719   8.952 -0.2620 -0.3375 -0.3167
   48MPD2     H  750   2.585   3.652   9.232 -2.2812 -1.0213 -2.1533
   48MPD2    H1  751   2.988   3.671   9.090  0.3575  0.2630  1.7016
   48MPD2    H2  752   2.683   3.783   8.839  0.4640  1.2451  0.2070
   48MPD2    H3  753   2.908   3.734   8.871 -0.7823  0.8532 -0.5547
   48MPD2     N  754   2.833   3.625   9.309 -0.2694 -0.2526  0.1317
   48MPD2    H5  755   2.759   3.622   9.379 -1.5328 -0.3157 -1.2181
   48MPD2    N1  756   2.484   3.773   9.024  0.6445  0.1551 -0.3199
   48MPD2    H7  757   2.415   3.729   9.083 -2.3392  1.3968 -2.8752
   49TMC2    C1  758   1.050   4.290  10.650  0.2360 -0.0527 -0.0711
   49TMC2    C2  759   0.969   4.180  10.630 -0.1929 -0.8597  0.2933
   49TMC2    C3  760   0.948   4.086  10.721 -0.1428 -0.2423  0.0869
   49TMC2    C4  761   1.104   4.307  10.772 -0.0222  0.7834 -0.9272
   49TMC2    C5  762   1.076   4.213  10.871 -0.1323  0.2465  0.2052
   49TMC2    C6  763   1.009   4.097  10.851  0.1581  0.2931  0.4036
   49TMC2     C  764   1.058   4.393  10.545 -0.3458  0.0917 -0.9828
   49TMC2     O  765   1.014   4.359  10.432  0.0672 -0.2421  1.2410
   49TMC2     H  766   0.908   4.170  10.541  1.9525  1.3021 -1.3988
   49TMC2    H1  767   1.179   4.383  10.788 -0.2380  1.3149 -2.4433
   49TMC2    H2  768   0.990   4.019  10.924  0.1019  0.7430  0.8674
   49TMC2    C7  769   1.142   4.219  10.997 -0.3016 -0.0932 -0.6886
   49TMC2    C8  770   0.905   3.954  10.670  0.3648 -0.1042  0.0958
   49TMC2    O1  771   1.134   4.117  11.067  0.0817 -0.4633  0.3126
   49TMC2    O2  772   0.916   3.935  10.552  0.2516 -0.1107  0.3593
   49TMC2    O5  773   0.911   3.866  10.772  0.3132  0.5416 -0.3276
   49TMC2    H5  774   0.877   3.900  10.857  2.6342 -0.0625  0.8283
   50MPD2     C  775   1.097   4.642  10.382  0.9569  0.5152  0.1310
   50MPD2    C1  776   1.138   4.626  10.514 -0.1721  0.8511  0.3468
   50MPD2    C2  777   1.203   4.732  10.579  0.3707  0.5401 -0.0373
   50MPD2    C3  778   1.233   0.107  10.511  0.5100 -0.7620 -0.6493
   50MPD2    C4  779   1.213   0.117  10.375  0.2500  0.3276  0.1082
   50MPD2    C5  780   1.154   0.011  10.312 -0.8108  0.0777 -0.2965
   50MPD2     H  781   1.230   4.722  10.683  0.7499 -0.9613 -0.2790
   50MPD2    H1  782   1.263   0.193  10.316  0.7293  0.1615  0.3030
   50MPD2    H2  783   1.048   4.568  10.320  1.2438  0.2442  0.2289
   50MPD2    H3  784   1.154   4.737  10.204 -0.5530 -0.1130 -0.2747
   50MPD2     N  785   1.282   0.218  10.582  0.8389 -0.3720  0.3501
   50MPD2    H5  786   1.312   0.298  10.527  2.3815 -1.1624  0.0215
   50MPD2    N1  787   1.110   4.513  10.594 -0.3915 -0.4855  0.6218
   50MPD2    H7  788   1.139   4.520  10.690  2.3255 -1.9072 -0.1003
   51TMC2    C1  789   3.379   4.168   1.896  1.5294 -0.0607  0.1389
   51TMC2    C2  790   3.491   4.196   1.968 -0.6555 -0.0044  0.1740
   51TMC2    C3  791   3.500   4.326   2.009  0.6872 -0.3320 -0.7382
   51TMC2    C4  792   3.295   4.263   1.844 -0.1457  0.0626  0.2754
   51TMC2    C5  793   3.312   4.389   1.883 -0.2670 -0.2586 -0.0795
   51TMC2    C6  794   3.415   4.427   1.967 -0.5292  0.0081  0.0756
   51TMC2     C  795   3.365   4.034   1.838  0.8445 -0.0073 -0.0527
   51TMC2     O  796   3.281   4.018   1.755 -0.2536  0.3601  0.3697
   51TMC2     H  797   3.562   4.118   1.993  0.8896  0.7223 -1.9342
   51TMC2    H1  798   3.224   4.240   1.765 -1.7480  1.4014  1.3375
   51TMC2    H2  799   3.433   4.529   1.998 -0.4370  0.1037 -0.2967
   51TMC2    C7  800   3.218   4.481   1.822 -1.0520 -0.5062  0.2804
   51TMC2    C8  801   3.617   4.360   2.078  0.3240 -0.3772  0.0584
   51TMC2    O1  802   3.112   4.439   1.777 -0.2636  0.7432 -0.4254
   51TMC2    O2  803   3.670   4.470   2.069 -0.4466 -0.2250  0.3751
   51TMC2    O5  804   3.672   4.250   2.131 -0.1860  0.7308 -0.5264
   51TMC2    H5  805   3.600   4.186   2.147  0.0110  0.1059 -2.1692
   52MPD2     C  806   3.416   3.518   1.873 -0.1004 -0.1283  0.1184
   52MPD2    C1  807   3.322   3.591   1.797 -0.6672  0.4804  0.5037
   52MPD2    C2  808   3.336   3.727   1.800  0.3373  0.5457 -0.9940
   52MPD2    C3  809   3.430   3.792   1.875 -0.4023  0.2056 -0.5222
   52MPD2    C4  810   3.515   3.716   1.946  0.0319 -0.7377  0.4379
   52MPD2    C5  811   3.505   3.578   1.946 -0.9013  0.0339 -0.0287
   52MPD2     H  812   3.266   3.801   1.763 -0.6819  0.1628  0.1351
   52MPD2    H1  813   3.591   3.761   2.009  3.1299 -2.4400 -2.0957
   52MPD2    H2  814   3.412   3.410   1.877 -0.8494 -0.0117  2.5291
   52MPD2    H3  815   3.568   3.524   2.015 -0.1432  0.8870 -0.0563
   52MPD2     N  816   3.446   3.939   1.889 -0.1438  0.1456 -0.2496
   52MPD2    H5  817   3.514   3.978   1.953 -0.8156 -0.7204  1.0086
   52MPD2    N1  818   3.217   3.533   1.719 -0.6850 -0.3686  0.3739
   52MPD2    H7  819   3.144   3.595   1.685 -0.2759  0.6405  1.3204
   53TMC2    C1  820   1.191   2.696  11.281  0.1947 -0.0872  0.0776
   53TMC2    C2  821   1.197   2.747  11.153 -1.1204  1.0190  0.1194
   53TMC2    C3  822   1.283   2.845  11.127 -0.1669 -0.0698  0.1574
   53TMC2    C4  823   1.251   2.761  11.390 -0.5778  0.5167 -0.1094
   53TMC2    C5  824   1.323   2.874  11.361  0.1689  0.4368 -0.3136
   53TMC2    C6  825   1.349   2.907  11.233  0.0103 -0.2519 -0.1128
   53TMC2     C  826   1.111   2.580  11.296 -0.8839  0.5024 -1.7485
   53TMC2     O  827   1.053   2.535  11.199 -0.2105  0.0200 -0.2850
   53TMC2     H  828   1.145   2.701  11.070  1.6104  0.8851 -1.5331
   53TMC2    H1  829   1.222   2.742  11.492  1.6119 -1.4352  0.1396
   53TMC2    H2  830   1.395   3.001  11.208 -0.2503  0.2318  1.2308
   53TMC2    C7  831   1.376   2.956  11.471 -0.6370  0.2025 -0.2292
   53TMC2    C8  832   1.270   2.915  10.999 -0.1788  0.0667 -0.1576
   53TMC2    O1  833   1.322   2.933  11.581 -0.3912  0.0109 -0.3505
   53TMC2    O2  834   1.289   3.031  10.977  0.1262 -0.9173  0.1587
   53TMC2    O5  835   1.288   2.817  10.909  0.1775 -0.0065 -0.0829
   53TMC2    H5  836   1.268   2.726  10.941  2.1574 -0.3516  0.1727
   54MPD2     C  837   0.952   2.363  11.423 -0.2548 -0.6982  0.6304
   54MPD2    C1  838   1.050   2.434  11.489  0.1163 -0.5597  0.3812
   54MPD2    C2  839   1.079   2.412  11.624  0.3269 -0.4548  0.2065
   54MPD2    C3  840   1.007   2.305  11.687 -0.0555 -0.2230 -0.3387
   54MPD2    C4  841   0.913   2.227  11.625  0.1125 -0.0694 -0.5017
   54MPD2    C5  842   0.892   2.260  11.492 -0.0776 -0.1332 -0.4628
   54MPD2     H  843   1.159   2.465  11.675  0.0742  1.3956 -1.3259
   54MPD2    H1  844   0.872   2.136  11.667 -0.1663  0.3665  0.1803
   54MPD2    H2  845   0.930   2.379  11.318  0.9228 -4.1015 -0.1478
   54MPD2    H3  846   0.826   2.194  11.437  1.2542 -0.8654 -1.1874
   54MPD2     N  847   1.029   2.270  11.828 -1.0845  0.0653  0.2843
   54MPD2    H5  848   0.964   2.203  11.869 -2.9939  1.8988  0.2136
   54MPD2    N1  849   1.120   2.532  11.425  0.8449  0.1789 -0.1251
   54MPD2    H7  850   1.185   2.580  11.486  0.1922  2.2762 -1.0655
   55TMC2    C1  851   3.318   1.581   0.121 -0.5211  0.3542  0.8299
   55TMC2    C2  852   3.363   1.669   0.025 -0.1137  0.1809  0.4893
   55TMC2    C3  853   3.440   1.607  17.679  1.1544  0.1504 -0.2604
   55TMC2    C4  854   3.346   1.446   0.116 -0.0605 -0.1397 -0.7001
   55TMC2    C5  855   3.415   1.392   0.013  0.7566 -0.9377  0.7552
   55TMC2    C6  856   3.449   1.473  17.658 -0.5877 -0.4950  0.2150
   55TMC2     C  857   3.226   1.617   0.226 -0.0841 -0.5087  0.0590
   55TMC2     O  858   3.149   1.531   0.261 -0.0655  0.3465 -0.6178
   55TMC2     H  859   3.325   1.770   0.035  0.0696  0.2239  0.7461
   55TMC2    H1  860   3.302   1.389   0.197 -1.7165 -0.2743 -1.6942
   55TMC2    H2  861   3.500   1.440  17.568  1.4251  1.8537  0.5158
   55TMC2    C7  862   3.428   1.246   0.009  0.4445  0.9349  0.5172
   55TMC2    C8  863   3.487   1.691  17.574 -0.1486  0.0056 -0.1044
   55TMC2    O1  864   3.447   1.203  17.649 -0.0402 -0.1848 -0.0574
   55TMC2    O2  865   3.425   1.709  17.471 -0.1279 -0.7647 -0.3833
   55TMC2    O5  866   3.559   1.775  17.638 -0.3887 -0.0083  0.4401
   55TMC2    H5  867   3.584   1.752  17.730  0.0976  0.9102  0.5395
   56MPD2     C  868   3.227   1.916   0.441 -0.3033  0.1462  0.2673
   56MPD2    C1  869   3.174   1.803   0.376  0.2226  0.1562 -0.1818
   56MPD2    C2  870   3.045   1.766   0.399  0.1749 -0.0350 -0.0368
   56MPD2    C3  871   2.969   1.836   0.488 -0.3457 -1.0713  0.3228
   56MPD2    C4  872   3.027   1.941   0.562  0.3728  0.5674 -0.2055
   56MPD2    C5  873   3.148   1.979   0.535 -0.7535  0.3610 -0.4846
   56MPD2     H  874   2.996   1.688   0.342  0.6488 -0.7824  0.5874
   56MPD2    H1  875   2.972   1.999   0.635  1.6137  1.7861 -0.2408
   56MPD2    H2  876   3.328   1.956   0.436 -0.1373 -0.2535  0.4472
   56MPD2    H3  877   3.196   2.062   0.586  2.6715 -1.2594 -1.0668
   56MPD2     N  878   2.839   1.795   0.515  0.0786  0.0969 -0.1062
   56MPD2    H5  879   2.799   1.723   0.456 -2.4502  1.7454 -0.4236
   56MPD2    N1  880   3.252   1.740   0.284  0.5015 -0.3054  0.1395
   56MPD2    H7  881   3.343   1.779   0.261  1.3162 -0.9174  2.3847
   57TMC2    C1  882   2.457   1.827  13.266  1.0886 -0.0288 -0.2216
   57TMC2    C2  883   2.596   1.844  13.283 -0.3659  0.3671 -0.1455
   57TMC2    C3  884   2.675   1.746  13.241  0.0342 -0.3326 -0.4556
   57TMC2    C4  885   2.399   1.722  13.216 -0.6698  1.2733 -1.0784
   57TMC2    C5  886   2.489   1.624  13.171 -1.2908  0.3744 -0.0154
   57TMC2    C6  887   2.626   1.636  13.177  0.0045  0.5140 -0.3688
   57TMC2     C  888   2.367   1.928  13.315  0.3658 -0.1736  0.7293
   57TMC2     O  889   2.260   1.936  13.260  0.5407 -0.2209  0.6361
   57TMC2     H  890   2.625   1.941  13.321  0.6132  0.7446 -1.8943
   57TMC2    H1  891   2.292   1.707  13.230 -0.2617 -0.3135  0.2344
   57TMC2    H2  892   2.694   1.557  13.149 -0.2301  0.3880 -0.5798
   57TMC2    C7  893   2.422   1.503  13.128  0.1370 -0.0210 -0.1301
   57TMC2    C8  894   2.812   1.772  13.250 -0.0945  0.2371  0.6200
   57TMC2    O1  895   2.302   1.495  13.146  0.0654 -0.2447 -0.2105
   57TMC2    O2  896   2.892   1.677  13.236 -0.0409  0.3249 -0.1011
   57TMC2    O5  897   2.833   1.899  13.218 -0.5610 -0.6248  0.0872
   57TMC2    H5  898   2.768   1.972  13.212  0.8223  0.8611  2.8639
   58MPD2     C  899   2.195   2.203  13.715 -0.6367  0.7968  0.3680
   58MPD2    C1  900   2.147   2.208  13.579  0.0050  0.4934 -0.3470
   58MPD2    C2  901   2.218   2.133  13.486 -0.3196 -0.6149 -0.4036
   58MPD2    C3  902   2.333   2.060  13.518 -0.0186  0.1499 -0.1022
   58MPD2    C4  903   2.371   2.060  13.653  0.3870 -0.0948 -0.4792
   58MPD2    C5  904   2.311   2.143  13.742 -0.8949 -0.4028  0.4952
   58MPD2     H  905   2.174   2.134  13.387 -1.1246 -1.4922 -0.0536
   58MPD2    H1  906   2.455   2.006  13.694 -0.1877  0.1639  1.0662
   58MPD2    H2  907   2.154   2.256  13.801 -0.1673  1.1163  0.3970
   58MPD2    H3  908   2.356   2.149  13.841 -1.7262 -0.0950  0.8587
   58MPD2     N  909   2.411   1.976  13.432 -0.6588 -1.5655 -0.0766
   58MPD2    H5  910   2.499   1.944  13.474 -0.1947 -0.3071 -0.1007
   58MPD2    N1  911   2.033   2.282  13.547 -0.0404 -0.0878  0.0772
   58MPD2    H7  912   2.008   2.296  13.449  2.5894  2.2388 -0.2729
   59TMC2    C1  913   0.104   1.637  12.693  0.4349 -0.7480  1.0770
   59TMC2    C2  914   0.176   1.718  12.611 -0.5911 -0.4631  0.2461
   59TMC2    C3  915   0.158   1.713  12.480  0.1499  0.0458  0.7294
   59TMC2    C4  916   0.004   1.567  12.639 -0.2222  0.0248 -0.3766
   59TMC2    C5  917   4.731   1.555  12.502 -0.2538  0.1110 -0.4511
   59TMC2    C6  918   0.063   1.639  12.423 -0.1667 -0.2304  1.0004
   59TMC2     C  919   0.068   1.691  12.824  0.1808  0.9160  0.1039
   59TMC2     O  920   4.693   1.682  12.857 -0.3430  0.3871 -0.3762
   59TMC2     H  921   0.255   1.784  12.645  0.4123 -1.6680  0.2223
   59TMC2    H1  922   4.671   1.511  12.698  0.9101 -1.3811 -0.3380
   59TMC2    H2  923   0.051   1.643  12.315  1.3324  0.7757  0.8676
   59TMC2    C7  924   4.603   1.511  12.464 -0.6162 -0.4224  0.3587
   59TMC2    C8  925   0.247   1.782  12.389  0.4563  0.0673 -0.4935
   59TMC2    O1  926   4.574   1.399  12.504  0.0022  0.0839 -0.2435
   59TMC2    O2  927   0.299   1.732  12.289  0.3878  0.3340 -0.6956
   59TMC2    O5  928   0.208   1.912  12.386  0.4800  0.6832  0.6623
   59TMC2    H5  929   0.147   1.936  12.459 -1.1525 -1.1936 -0.0686
   60MPD2     C  930   0.056   1.887  13.054 -0.4857 -0.1490 -0.8496
   60MPD2    C1  931   0.170   1.848  12.992  0.2232 -0.2402 -0.3066
   60MPD2    C2  932   0.284   1.903  13.042  0.1708 -0.1278  0.1435
   60MPD2    C3  933   0.292   1.980  13.150  0.0615  0.5412 -0.0043
   60MPD2    C4  934   0.179   2.002  13.222 -0.1584  0.3479 -1.1154
   60MPD2    C5  935   0.067   1.958  13.172 -0.3041  0.5662 -0.1196
   60MPD2     H  936   0.378   1.890  12.990  0.0462 -1.5765  0.2726
   60MPD2    H1  937   0.179   2.060  13.313 -2.2445 -1.5021  0.0616
   60MPD2    H2  938   4.700   1.851  13.016 -0.6395 -0.1878 -0.4183
   60MPD2    H3  939   4.712   1.973  13.223 -0.1808 -2.4873  1.0253
   60MPD2     N  940   0.402   2.054  13.187 -0.3430 -0.0071 -0.1339
   60MPD2    H5  941   0.386   2.125  13.258 -0.4286 -1.4370  1.2780
   60MPD2    N1  942   0.173   1.761  12.880  0.3231  0.1740 -0.1623
   60MPD2    H7  943   0.268   1.747  12.846  0.6405  1.5024  0.1781
   61TMC2    C1  944   4.467   3.211  15.252  0.5720 -0.6533 -0.6719
   61TMC2    C2  945   4.481   3.145  15.373  0.0092 -0.1924  0.5974
   61TMC2    C3  946   4.482   3.233  15.480 -0.2437  0.1882 -0.0079
   61TMC2    C4  947   4.442   3.344  15.231 -0.3355 -0.2635 -1.0577
   61TMC2    C5  948   4.414   3.411  15.347 -0.5672 -0.6649  0.2197
   61TMC2    C6  949   4.454   3.365  15.475 -0.0485 -0.1633  0.0807
   61TMC2     C  950   4.468   3.126  15.138 -0.4190  0.2149 -0.2436
   61TMC2     O  951   4.443   3.007  15.155 -0.8115 -0.4833  0.0400
   61TMC2     H  952   4.511   3.042  15.385 -1.6605 -0.9350 -1.6387
   61TMC2    H1  953   4.436   3.400  15.138  1.5070  1.0549 -0.3836
   61TMC2    H2  954   4.437   3.440  15.552  0.3265  0.7932 -0.7663
   61TMC2    C7  955   4.354   3.533  15.338 -0.4128  0.5727 -0.2609
   61TMC2    C8  956   4.488   3.163  15.605  0.3602  0.4598 -0.3552
   61TMC2    O1  957   4.386   3.620  15.424  0.2506  0.2999 -0.3033
   61TMC2    O2  958   4.555   3.061  15.627  0.0651  0.2039 -0.1376
   61TMC2    O5  959   4.439   3.248  15.696 -0.4525 -0.5996 -0.8381
   61TMC2    H5  960   4.374   3.303  15.647 -1.3508 -2.5438 -1.8251
   62MPD2     C  961   4.455   3.018  14.869 -0.6190 -0.0941 -0.0923
   62MPD2    C1  962   4.515   3.143  14.897 -0.1518  0.3063 -0.5705
   62MPD2    C2  963   4.566   3.217  14.786  0.0178  0.3495 -0.3004
   62MPD2    C3  964   4.553   3.168  14.654 -0.1280 -0.1578 -0.3533
   62MPD2    C4  965   4.493   3.044  14.636  0.0283 -0.7070  0.1527
   62MPD2    C5  966   4.441   2.973  14.741 -0.4688 -0.0917 -0.2820
   62MPD2     H  967   4.605   3.317  14.801 -1.1400  0.6190  0.9354
   62MPD2    H1  968   4.487   3.003  14.535  0.6883  1.2164 -0.6739
   62MPD2    H2  969   4.421   2.949  14.945  2.8304 -1.5193  0.1772
   62MPD2    H3  970   4.400   2.873  14.745 -2.2579  0.7028  0.9785
   62MPD2     N  971   4.597   3.238  14.540 -0.0455  0.1823  0.1730
   62MPD2    H5  972   4.558   3.218  14.448  1.4193 -0.2450 -0.3559
   62MPD2    N1  973   4.515   3.190  15.030  0.7424  0.0237 -0.3294
   62MPD2    H7  974   4.541   3.288  15.037  1.2599 -0.1145 -0.3745
   63TMC2    C1  975   2.881   3.540  10.253 -0.0984  0.1371  0.5961
   63TMC2    C2  976   2.998   3.580  10.315  0.7596  0.0343  0.1310
   63TMC2    C3  977   3.083   3.659  10.239 -0.5740 -0.3479 -0.0062
   63TMC2    C4  978   2.838   3.596  10.135  0.4304  0.1459 -0.3735
   63TMC2    C5  979   2.927   3.673  10.063 -0.4206  0.2217  0.2673
   63TMC2    C6  980   3.052   3.709  10.116  0.3126 -0.7473  0.1520
   63TMC2     C  981   2.803   3.450  10.313  0.2036  0.9256  0.5454
   63TMC2     O  982   2.683   3.463  10.300  0.1977  0.4257 -0.4219
   63TMC2     H  983   3.021   3.558  10.419 -1.3888 -1.9405  0.1923
   63TMC2    H1  984   2.747   3.562  10.087  1.3415 -1.4901 -0.9341
   63TMC2    H2  985   3.116   3.771  10.055 -1.3750  0.2249 -0.6203
   63TMC2    C7  986   2.880   3.731   9.937 -0.1266 -1.0138  0.4133
   63TMC2    C8  987   3.206   3.705  10.284  0.0107 -0.5134 -1.0168
   63TMC2    O1  988   2.760   3.743   9.922  1.0810  0.7205  0.5680
   63TMC2    O2  989   3.231   3.816  10.242  0.2014 -0.2584 -0.1602
   63TMC2    O5  990   3.231   3.659  10.408  0.1534  0.1768  0.7826
   63TMC2    H5  991   3.196   3.568  10.420  0.2290  0.1704  0.9642
   64MPD2     C  992   2.740   3.002  10.539  0.2104  0.4119  0.3428
   64MPD2    C1  993   2.873   3.018  10.526  0.3642 -0.8545  0.9508
   64MPD2    C2  994   2.919   3.141  10.480 -0.0294 -0.9401  0.2050
   64MPD2    C3  995   2.831   3.242  10.441 -0.2200 -0.1982  0.2776
   64MPD2    C4  996   2.695   3.221  10.462 -0.3816 -0.0212  0.0787
   64MPD2    C5  997   2.648   3.103  10.514  0.8897 -0.5886 -0.0446
   64MPD2     H  998   3.025   3.165  10.474 -0.6534  1.4207 -1.3812
   64MPD2    H1  999   2.618   3.296  10.447 -0.4398 -0.5538 -2.2386
   64MPD2    H2 1000   2.703   2.907  10.577  1.9993 -0.6975 -0.7103
   64MPD2    H3 1001   2.541   3.088  10.524  0.2287  2.0421 -3.0923
   64MPD2     N 1002   2.880   3.356  10.386  0.3790  0.5401 -0.8936
   64MPD2    H5 1003   2.982   3.357  10.381  0.3414 -2.0864 -2.2221
   64MPD2    N1 1004   2.973   2.922  10.553  0.3865  0.1047 -0.4537
   64MPD2    H7 1005   3.065   2.961  10.539  1.7604 -2.9466  0.0303
   65TMC2    C1 1006   0.334   3.165  15.742 -0.4485  0.1968 -1.0456
   65TMC2    C2 1007   0.391   3.122  15.626 -0.6252  0.0602 -0.2268
   65TMC2    C3 1008   0.396   3.205  15.521 -0.2169 -0.1040  0.0571
   65TMC2    C4 1009   0.278   3.286  15.756 -0.4880  0.2108 -1.0520
   65TMC2    C5 1010   0.251   3.352  15.634 -0.3614  0.0345  0.5595
   65TMC2    C6 1011   0.310   3.317  15.520  0.7116  0.2986  0.1339
   65TMC2     C 1012   0.342   3.083  15.859 -0.2305  0.5358  0.0295
   65TMC2     O 1013   0.330   3.139  15.967 -0.0372  0.4613 -0.5809
   65TMC2     H 1014   0.455   3.034  15.621  0.3129  0.7534 -0.5052
   65TMC2    H1 1015   0.246   3.329  15.851  0.5158 -0.1998 -0.5201
   65TMC2    H2 1016   0.285   3.365  15.426  0.1726  0.8044  0.5392
   65TMC2    C7 1017   0.133   3.441  15.624 -0.8051  0.0848 -0.4331
   65TMC2    C8 1018   0.450   3.151  15.398  0.7366  0.0400  0.1417
   65TMC2    O1 1019   0.128   3.527  15.531  0.1994 -0.5122  0.0862
   65TMC2    O2 1020   0.493   3.035  15.396  0.4563  0.2452  0.1728
   65TMC2    O5 1021   0.457   3.242  15.293 -0.2091  0.2854 -0.0950
   65TMC2    H5 1022   0.440   3.338  15.305  1.5816  0.5483  0.2924
   66MPD2     C 1023   0.387   2.880  16.079 -0.8289 -0.1619 -0.1834
   66MPD2    C1 1024   0.381   2.852  15.938  0.8051 -0.0224  0.3367
   66MPD2    C2 1025   0.388   2.722  15.891 -0.4739 -0.3564  0.5898
   66MPD2    C3 1026   0.422   2.622  15.986 -0.5102  0.0838  0.6438
   66MPD2    C4 1027   0.442   2.652  16.119  0.4604 -0.1808 -0.2007
   66MPD2    C5 1028   0.425   2.778  16.162  0.0874  0.4480  0.0018
   66MPD2     H 1029   0.374   2.694  15.787  0.3323  3.6709 -0.5823
   66MPD2    H1 1030   0.485   2.579  16.188  0.4744  3.2985  3.4651
   66MPD2    H2 1031   0.405   2.980  16.114 -0.0622  0.3569 -2.0365
   66MPD2    H3 1032   0.447   2.801  16.266  1.0196 -1.0439  0.1311
   66MPD2     N 1033   0.437   2.485  15.953  0.2637  0.4484  0.2067
   66MPD2    H5 1034   0.461   2.416  16.023 -0.7241 -0.3566 -0.2384
   66MPD2    N1 1035   0.361   2.947  15.836 -0.3049 -0.2136 -0.2724
   66MPD2    H7 1036   0.352   2.913  15.741 -0.5163  0.8967 -0.6446
   67TMC2    C1 1037   0.475   2.335  14.539 -0.3931 -0.0385 -0.9347
   67TMC2    C2 1038   0.368   2.415  14.585 -0.2061 -0.3560  0.3698
   67TMC2    C3 1039   0.389   2.481  14.704 -0.3929  0.0968  0.7924
   67TMC2    C4 1040   0.591   2.323  14.606  0.1874 -0.1371  0.4808
   67TMC2    C5 1041   0.610   2.385  14.724 -0.1398  0.4211 -0.1704
   67TMC2    C6 1042   0.506   2.469  14.773 -0.2434  0.1360  0.4516
   67TMC2     C 1043   0.470   2.271  14.410  0.1567 -0.6738  1.1297
   67TMC2     O 1044   0.568   2.215  14.363 -0.1357 -0.3799  0.4446
   67TMC2     H 1045   0.276   2.436  14.532  1.8542  2.1682 -2.2209
   67TMC2    H1 1046   0.670   2.264  14.562 -1.3000 -1.3102 -0.6348
   67TMC2    H2 1047   0.530   2.526  14.861 -0.0564 -0.1324  0.5736
   67TMC2    C7 1048   0.746   2.393  14.780  0.2324  0.6039 -0.0101
   67TMC2    C8 1049   0.325   2.606  14.712  0.7859 -0.7962  0.3440
   67TMC2    O1 1050   0.843   2.386  14.705  0.8307  0.1266 -0.4010
   67TMC2    O2 1051   0.365   2.703  14.774 -0.4387  0.1225  0.7372
   67TMC2    O5 1052   0.194   2.572  14.702  0.4139  0.3146 -0.0446
   67TMC2    H5 1053   0.180   2.476  14.687 -2.7236  0.4187  2.4266
   68MPD2     C 1054   0.379   2.233  14.121  0.8136  0.5237 -0.0763
   68MPD2    C1 1055   0.293   2.238  14.233  0.3551 -0.1412 -1.0805
   68MPD2    C2 1056   0.154   2.217  14.213 -0.1130  0.8650 -0.1501
   68MPD2    C3 1057   0.103   2.200  14.088  0.1276  0.2218  0.3233
   68MPD2    C4 1058   0.185   2.196  13.979  0.1845 -0.3844  0.4459
   68MPD2    C5 1059   0.325   2.213  13.993  0.3357 -0.3730 -0.3970
   68MPD2     H 1060   0.086   2.220  14.298 -0.5357  1.8047 -0.5186
   68MPD2    H1 1061   0.147   2.186  13.878  0.9051 -0.1316  0.1485
   68MPD2    H2 1062   0.483   2.251  14.146  1.2264 -2.8029  0.6733
   68MPD2    H3 1063   0.395   2.226  13.911  0.2072  2.3356 -0.0776
   68MPD2     N 1064   4.703   2.176  14.069  0.4464  0.4347  0.5136
   68MPD2    H5 1065   4.670   2.180  13.973  0.9945  0.3034  0.3235
   68MPD2    N1 1066   0.337   2.267  14.363 -0.7572 -0.3796 -0.7803
   68MPD2    H7 1067   0.270   2.287  14.436  0.5922  0.0283  0.3341
   69TMC2    C1 1068   1.923   2.628  12.552 -0.3063 -0.0185 -0.0131
   69TMC2    C2 1069   1.848   2.582  12.446 -0.9479  0.9705 -0.0686
   69TMC2    C3 1070   1.916   2.526  12.344 -0.4607 -0.3008 -0.2852
   69TMC2    C4 1071   2.061   2.624  12.562 -0.0070 -0.0588 -0.2544
   69TMC2    C5 1072   2.125   2.569  12.457 -0.1976  0.0746  0.3131
   69TMC2    C6 1073   2.053   2.517  12.348 -0.2424 -0.5894 -0.3238
   69TMC2     C 1074   1.860   2.711  12.655  0.0585  0.4660 -0.1760
   69TMC2     O 1075   1.916   2.812  12.706  0.2259  0.5304  0.3055
   69TMC2     H 1076   1.746   2.616  12.433 -1.2263 -0.0876 -0.6325
   69TMC2    H1 1077   2.115   2.664  12.646  0.2220  0.9736 -0.8967
   69TMC2    H2 1078   2.101   2.469  12.263  0.6601  1.4487 -0.9420
   69TMC2    C7 1079   2.271   2.563  12.443 -0.1521 -0.0101 -0.2668
   69TMC2    C8 1080   1.848   2.494  12.222  0.0915 -0.8174  0.1678
   69TMC2    O1 1081   2.315   2.481  12.362  0.7014 -0.1681  0.3875
   69TMC2    O2 1082   1.915   2.465  12.125  0.2975 -0.2482  0.1699
   69TMC2    O5 1083   1.754   2.414  12.276  0.3997 -0.6329 -0.1681
   69TMC2    H5 1084   1.743   2.429  12.373 -1.4306 -1.4792 -0.2439
   70MPD2     C 1085   1.541   2.643  12.840  0.4795  0.1332 -0.2305
   70MPD2    C1 1086   1.666   2.702  12.816  0.9690 -0.2937 -0.2445
   70MPD2    C2 1087   1.704   2.803  12.905  0.5278  0.0913  0.6955
   70MPD2    C3 1088   1.628   2.849  13.007  0.0637  0.3180  0.6446
   70MPD2    C4 1089   1.499   2.796  13.022 -0.3505  0.4404 -0.1508
   70MPD2    C5 1090   1.463   2.695  12.933  0.1849 -0.0247  0.1126
   70MPD2     H 1091   1.797   2.856  12.887  0.0253  0.6644 -0.2189
   70MPD2    H1 1092   1.440   2.816  13.110  0.7031 -1.3726  0.9515
   70MPD2    H2 1093   1.514   2.568  12.767  1.3044 -1.8405  1.5040
   70MPD2    H3 1094   1.370   2.643  12.950 -0.5433  1.0754 -0.5431
   70MPD2     N 1095   1.672   2.947  13.102  0.7491  0.2463  0.0779
   70MPD2    H5 1096   1.605   2.975  13.174 -0.9916 -3.9489  0.0707
   70MPD2    N1 1097   1.738   2.662  12.699 -0.9019 -0.1264  0.4967
   70MPD2    H7 1098   1.705   2.571  12.669  0.9980 -0.3870 -0.7553
   71TMC2    C1 1099   4.394   3.754   1.404 -0.2812  0.4897 -0.5123
   71TMC2    C2 1100   4.493   3.794   1.490  0.3587 -0.5210  0.0695
   71TMC2    C3 1101   4.483   3.751   1.616 -0.4797 -0.2298 -0.1878
   71TMC2    C4 1102   4.288   3.677   1.444 -0.3198  0.3204 -0.0892
   71TMC2    C5 1103   4.291   3.644   1.578  0.4198  0.5746  0.1364
   71TMC2    C6 1104   4.382   3.674   1.670 -0.2274  0.0828 -0.7397
   71TMC2     C 1105   4.400   3.789   1.257 -0.4559 -0.2938 -0.1488
   71TMC2     O 1106   4.446   3.896   1.224 -0.3200  0.8160 -0.7884
   71TMC2     H 1107   4.573   3.858   1.456 -2.9445  2.8456 -1.4686
   71TMC2    H1 1108   4.222   3.632   1.372  0.6294 -0.3706 -0.5302
   71TMC2    H2 1109   4.387   3.625   1.767  0.4336  0.5056 -0.5538
   71TMC2    C7 1110   4.179   3.570   1.630  0.7775  0.6667  0.2544
   71TMC2    C8 1111   4.553   3.833   1.713 -0.2511  0.4309 -0.4357
   71TMC2    O1 1112   4.189   3.501   1.733 -0.2441 -0.3489 -0.4995
   71TMC2    O2 1113   4.675   3.838   1.709  0.1389  0.1747 -0.0913
   71TMC2    O5 1114   4.477   3.947   1.717  0.2310 -0.1374  0.4390
   71TMC2    H5 1115   4.384   3.934   1.688  0.1787  1.2395  0.0157
   72MPD2     C 1116   4.195   3.724   0.783 -0.4534 -0.0959 -0.3721
   72MPD2    C1 1117   4.249   3.835   0.837 -0.2022  0.9315  0.8610
   72MPD2    C2 1118   4.308   3.827   0.962  0.3792  0.0051  0.0656
   72MPD2    C3 1119   4.312   3.709   1.032 -0.0266 -0.4836  0.1031
   72MPD2    C4 1120   4.268   3.590   0.969  0.2531 -0.0152  0.0811
   72MPD2    C5 1121   4.202   3.600   0.850  0.8852 -0.4224 -0.6566
   72MPD2     H 1122   4.358   3.916   1.000  0.9396 -0.1558 -0.2928
   72MPD2    H1 1123   4.277   3.496   1.022  0.3614 -0.7128 -1.1728
   72MPD2    H2 1124   4.137   3.721   0.692 -0.2958  1.2242 -0.5119
   72MPD2    H3 1125   4.152   3.511   0.812  0.0660  0.5343 -1.8229
   72MPD2     N 1126   4.342   3.696   1.175 -0.7171 -0.1146  0.1725
   72MPD2    H5 1127   4.339   3.604   1.216 -0.2438 -0.2202 -0.0253
   72MPD2    N1 1128   4.246   3.955   0.764 -0.7947  0.1986 -0.0390
   72MPD2    H7 1129   4.285   4.039   0.806 -3.5504  0.4510  2.0321
   73TMC2    C1 1130   4.484   0.799  14.121  0.2806 -0.0136  0.8052
   73TMC2    C2 1131   4.451   0.699  14.040 -0.6094  0.5423  0.3938
   73TMC2    C3 1132   4.553   0.635  13.981 -0.2043 -0.1234  0.2686
   73TMC2    C4 1133   4.610   0.840  14.154 -0.1038 -0.1919  0.7712
   73TMC2    C5 1134   4.712   0.768  14.094 -0.3393 -0.0630  0.3838
   73TMC2    C6 1135   4.687   0.661  14.003  0.0375  0.9137 -0.3048
   73TMC2     C 1136   4.389   0.907  14.110 -0.5033 -0.1979 -0.2608
   73TMC2     O 1137   4.271   0.880  14.090 -0.1870  0.2443 -0.3542
   73TMC2     H 1138   4.350   0.669  14.015  0.1966 -2.8312  1.2542
   73TMC2    H1 1139   4.620   0.917  14.230  2.1441  0.9903 -0.7380
   73TMC2    H2 1140   0.028   0.597  13.966  0.0755  0.2247  0.9947
   73TMC2    C7 1141   0.110   0.808  14.127  0.0424 -0.3216 -0.4109
   73TMC2    C8 1142   4.528   0.491  13.962  0.0714  0.7441 -0.9604
   73TMC2    O1 1143   0.200   0.733  14.099  0.0871  0.0689 -0.7749
   73TMC2    O2 1144   4.430   0.435  14.011  0.2141 -0.5166  0.4384
   73TMC2    O5 1145   4.596   0.446  13.855  0.4371  0.1122  0.1615
   73TMC2    H5 1146   4.677   0.495  13.832  1.6122 -2.2036 -0.6073
   74MPD2     C 1147   4.275   1.412  14.147  0.5133  0.1994 -0.4449
   74MPD2    C1 1148   4.407   1.399  14.166  0.0246 -0.1445  0.3069
   74MPD2    C2 1149   4.460   1.268  14.149 -0.2774  0.0591  0.2859
   74MPD2    C3 1150   4.382   1.161  14.121 -0.5585 -0.3450  0.3726
   74MPD2    C4 1151   4.242   1.173  14.131 -0.3965 -0.6206 -0.6272
   74MPD2    C5 1152   4.196   1.302  14.132  0.1886 -0.7976 -0.2461
   74MPD2     H 1153   4.567   1.258  14.157 -0.4707 -1.2513  1.2489
   74MPD2    H1 1154   4.165   1.097  14.122  0.1582 -1.1156 -1.2454
   74MPD2    H2 1155   4.228   1.509  14.148 -1.6487 -0.8434 -1.0022
   74MPD2    H3 1156   4.089   1.309  14.118  0.3111 -0.1245 -0.8487
   74MPD2     N 1157   4.450   1.034  14.104  0.3452 -0.0858  0.2090
   74MPD2    H5 1158   4.549   1.052  14.109 -0.1010  2.4642 -0.1196
   74MPD2    N1 1159   4.495   1.510  14.192  0.3102  0.0853  0.2766
   74MPD2    H7 1160   4.462   1.603  14.166  2.2156 -0.2189 -3.1812
   75TMC2    C1 1161   4.487   2.102  14.120  0.0485 -0.1566  0.2970
   75TMC2    C2 1162   4.434   1.987  14.171  0.3599 -0.1680  0.7257
   75TMC2    C3 1163   4.366   1.917  14.077  0.1286  0.0104  0.1008
   75TMC2    C4 1164   4.448   2.155  14.000  0.4542  0.0725  0.1449
   75TMC2    C5 1165   4.378   2.083  13.910 -0.1761 -0.3562  0.0921
   75TMC2    C6 1166   4.340   1.956  13.943  0.6563  0.0023  0.2411
   75TMC2     C 1167   4.605   2.153  14.170  0.0508 -0.1983 -0.0399
   75TMC2     O 1168   4.622   2.131  14.286 -0.2487  0.1769  0.1424
   75TMC2     H 1169   4.475   1.944  14.262  1.9755  0.5704  0.3308
   75TMC2    H1 1170   4.490   2.254  13.985 -1.7179  1.0120  0.2317
   75TMC2    H2 1171   4.266   1.900  13.886  2.4441 -1.9133 -0.2026
   75TMC2    C7 1172   4.324   2.136  13.786  0.3612 -0.7193 -0.2966
   75TMC2    C8 1173   4.313   1.797  14.131  0.1039  0.8777  0.7851
   75TMC2    O1 1174   4.233   2.071  13.734  0.0141  0.7880  0.4436
   75TMC2    O2 1175   4.304   1.774  14.253  0.1192 -0.3222  0.1815
   75TMC2    O5 1176   4.378   1.713  14.051 -0.6040  0.2029 -0.7491
   75TMC2    H5 1177   4.386   1.742  13.957  0.7795  3.2063  0.3238
   76TMC2    C1 1178   3.380   1.708  12.277  0.0182  0.5212 -0.0206
   76TMC2    C2 1179   3.397   1.576  12.255 -0.2505  0.6393  0.2622
   76TMC2    C3 1180   3.514   1.519  12.300  0.2218 -0.5461  0.0898
   76TMC2    C4 1181   3.467   1.783  12.351  0.1892 -0.0875 -0.0732
   76TMC2    C5 1182   3.577   1.720  12.397 -0.3494 -0.6970  0.0048
   76TMC2    C6 1183   3.610   1.595  12.360 -0.1735 -0.0668  0.2561
   76TMC2     C 1184   3.281   1.792  12.208 -0.1923  0.3170 -0.6452
   76TMC2     O 1185   3.263   1.909  12.238  0.1589 -0.7377  0.4434
   76TMC2     H 1186   3.308   1.519  12.232 -0.4114  0.8042  0.4667
   76TMC2    H1 1187   3.442   1.886  12.375 -0.5925 -1.1929  4.0140
   76TMC2    H2 1188   3.702   1.547  12.391  0.7937  0.7864 -1.2662
   76TMC2    C7 1189   3.691   1.798  12.447  0.0285 -0.2167 -0.6030
   76TMC2    C8 1190   3.523   1.380  12.286 -0.5267  0.1429  0.1972
   76TMC2    O1 1191   3.803   1.745  12.434 -0.1755 -0.3055 -0.2754
   76TMC2    O2 1192   3.606   1.317  12.349 -0.1893 -0.2128  0.0046
   76TMC2    O5 1193   3.445   1.338  12.178  0.0816 -0.2997  0.1803
   76TMC2    H5 1194   3.415   1.406  12.114 -1.4564 -2.0590 -0.9497
   77MPD2     C 1195   2.935   1.905  11.833 -0.1786  0.4020 -0.4339
   77MPD2    C1 1196   2.976   1.975  11.951  0.4657  0.1333  0.5035
   77MPD2    C2 1197   3.057   1.916  12.043 -0.8157 -0.1799  0.2409
   77MPD2    C3 1198   3.119   1.794  12.023  0.2623 -0.1587 -0.6392
   77MPD2    C4 1199   3.074   1.730  11.910  0.7001  0.0152 -0.6325
   77MPD2    C5 1200   2.984   1.777  11.817 -0.2639  0.4588  0.3831
   77MPD2     H 1201   3.094   1.977  12.124 -1.3216  0.3251  0.0893
   77MPD2    H1 1202   3.105   1.627  11.896 -0.3833 -0.0969 -2.2774
   77MPD2    H2 1203   2.862   1.935  11.759 -1.1077 -0.9101 -0.0658
   77MPD2    H3 1204   2.936   1.711  11.745 -2.1630  0.4276  1.6860
   77MPD2     N 1205   3.221   1.733  12.105 -0.2589 -0.0377 -0.8073
   77MPD2    H5 1206   3.258   1.642  12.079  0.2820  0.8384 -3.1296
   77MPD2    N1 1207   2.947   2.107  11.969  0.0032 -0.1593 -0.0996
   77MPD2    H7 1208   2.964   2.144  12.062  1.6036  2.5363 -1.4657
   78TMC2    C1 1209   3.983   3.140   1.422 -0.5287  0.1547  0.0168
   78TMC2    C2 1210   3.896   3.211   1.344  0.6731  0.4074  0.2087
   78TMC2    C3 1211   3.938   3.323   1.274  0.6630 -0.2055 -0.1046
   78TMC2    C4 1212   4.112   3.186   1.437 -0.0521  0.1198  0.7433
   78TMC2    C5 1213   4.155   3.295   1.369 -0.4732 -0.4962  0.3152
   78TMC2    C6 1214   4.065   3.366   1.282 -0.1733 -0.3364  0.1412
   78TMC2     C 1215   3.929   3.050   1.523  0.1142 -0.3507  0.0158
   78TMC2     O 1216   3.843   2.963   1.496 -0.9726  0.2668 -0.0440
   78TMC2     H 1217   3.793   3.177   1.344  0.5713  0.7273  2.1423
   78TMC2    H1 1218   4.182   3.123   1.491  0.0688 -2.4852 -2.4614
   78TMC2    H2 1219   4.105   3.444   1.219  0.2964 -0.6631  0.0384
   78TMC2    C7 1220   4.295   3.340   1.374  0.6537 -0.2337 -0.4825
   78TMC2    C8 1221   3.850   3.405   1.194  0.4411 -0.7730  0.0649
   78TMC2    O1 1222   4.332   3.421   1.288 -0.1768  0.0766 -0.4360
   78TMC2    O2 1223   3.891   3.489   1.109  1.1566 -0.7037 -0.2319
   78TMC2    O5 1224   3.728   3.349   1.193  0.7004 -0.0557  0.2275
   78TMC2    H5 1225   3.706   3.289   1.268  0.4345 -1.0351 -0.6266
   79MPD1     C 1226   3.839   2.928   2.014 -0.8365  0.0806 -0.8788
   79MPD1    C1 1227   3.790   2.869   1.900  0.0594  0.1092  0.2151
   79MPD1    C2 1228   3.832   2.918   1.782  0.2534  0.0435 -0.0591
   79MPD1    C3 1229   3.917   3.028   1.768  0.0935  1.3642 -0.8263
   79MPD1    C4 1230   3.966   3.093   1.883 -0.5836  0.4530 -0.6618
   79MPD1    C5 1231   3.934   3.034   2.002 -0.0100 -0.5422 -0.2609
   79MPD1     H 1232   3.793   2.880   1.688 -0.7598  0.8663  0.0295
   79MPD1    H1 1233   4.032   3.178   1.887  0.4663 -0.3517 -0.8348
   79MPD1    H2 1234   3.814   2.895   2.115 -1.8581 -0.3296 -1.2695
   79MPD1    H3 1235   3.974   3.077   2.093 -1.2422  1.5000 -0.6864
   79MPD1     N 1236   3.963   3.089   1.649  0.7748  0.4679  0.0062
   79MPD1    H5 1237   4.048   3.145   1.656  1.3046 -0.3095 -0.2182
   79MPD1    N1 1238   3.684   2.773   1.906  0.5511 -0.3611  0.1968
   79MPD1    H6 1239   3.687   2.698   1.838  0.4835  0.9755 -1.2652
   79MPD1    H7 1240   3.702   2.722   1.992  2.2826 -1.9858 -1.1265
   80TMC2    C1 1241   1.323   2.084  11.542 -0.1094  0.6859  1.2153
   80TMC2    C2 1242   1.271   1.983  11.467 -0.3306  0.1577 -0.0588
   80TMC2    C3 1243   1.196   1.893  11.538  0.4407  0.3387 -0.4708
   80TMC2    C4 1244   1.290   2.105  11.670 -0.2247 -0.2236 -0.5435
   80TMC2    C5 1245   1.197   2.019  11.724  0.0851 -0.5664  0.0542
   80TMC2    C6 1246   1.151   1.908  11.662  0.2585  0.2395 -0.1333
   80TMC2     C 1247   1.351   2.201  11.461 -0.5801  0.4561  0.5352
   80TMC2     O 1248   1.323   2.195  11.343  0.2540  0.3117  0.2682
   80TMC2     H 1249   1.298   1.949  11.368  1.4001  1.0143  0.1134
   80TMC2    H1 1250   1.328   2.191  11.724  0.0958 -0.7412  0.0614
   80TMC2    H2 1251   1.087   1.831  11.705  0.3824 -0.9891 -2.1357
   80TMC2    C7 1252   1.195   1.999  11.865  0.4084  0.8778 -0.3548
   80TMC2    C8 1253   1.163   1.763  11.472 -0.3083 -0.4505  0.3938
   80TMC2    O1 1254   1.100   1.953  11.919 -0.8162  0.3573  0.4656
   80TMC2    O2 1255   1.065   1.701  11.508  0.1600  0.6278 -0.4281
   80TMC2    O5 1256   1.273   1.702  11.434  0.0215 -0.0249 -0.4516
   80TMC2    H5 1257   1.345   1.768  11.444 -0.8416  0.7773  0.4513
   81MPD2     C 1258   1.475   2.425  11.319 -0.2092  0.2826 -0.5449
   81MPD2    C1 1259   1.478   2.417  11.454 -0.4701 -0.2638  0.7757
   81MPD2    C2 1260   1.528   2.517  11.535  0.3308  0.0368 -0.1713
   81MPD2    C3 1261   1.582   2.627  11.471  0.2160  0.2428  0.2360
   81MPD2    C4 1262   1.566   2.645  11.336  0.4890  0.5937  0.9061
   81MPD2    C5 1263   1.526   2.539  11.257  0.1898  0.0374 -0.4227
   81MPD2     H 1264   1.537   2.500  11.642 -1.5480  1.1283  0.1661
   81MPD2    H1 1265   1.626   2.724  11.292  1.2351 -1.5704 -1.9346
   81MPD2    H2 1266   1.456   2.342  11.252  1.1280 -0.5779  0.1437
   81MPD2    H3 1267   1.537   2.540  11.149 -0.7428 -0.0977 -0.5178
   81MPD2     N 1268   1.646   2.732  11.541 -0.4001 -0.3015 -0.1155
   81MPD2    H5 1269   1.700   2.800  11.488 -0.5080  0.9167  1.3367
   81MPD2    N1 1270   1.426   2.299  11.523  0.3026  0.0782  0.0574
   81MPD2    H7 1271   1.453   2.294  11.621  0.4930  0.1506  0.0089
   82TMC2    C1 1272   4.277   1.448  10.749  0.4527  0.0206  0.3317
   82TMC2    C2 1273   4.167   1.507  10.810  0.4540 -0.6118  0.4335
   82TMC2    C3 1274   4.120   1.440  10.919 -0.2868  0.2350  0.1449
   82TMC2    C4 1275   4.343   1.334  10.794 -0.0512 -0.2048 -0.5821
   82TMC2    C5 1276   4.287   1.283  10.910 -0.6568 -0.4016 -0.3831
   82TMC2    C6 1277   4.177   1.329  10.978  0.2676  0.4271  0.0801
   82TMC2     C 1278   4.339   1.534  10.652 -0.4875  0.0799  0.2939
   82TMC2     O 1279   4.262   1.615  10.602  0.2135 -0.1112  0.2523
   82TMC2     H 1280   4.107   1.587  10.769  1.5607  0.0127  0.0465
   82TMC2    H1 1281   4.431   1.296  10.744  1.3107  1.7116  0.3595
   82TMC2    H2 1282   4.131   1.275  11.060  0.4246  0.1759  0.0052
   82TMC2    C7 1283   4.372   1.190  10.984 -0.5653  0.2974 -0.2902
   82TMC2    C8 1284   3.977   1.456  10.952 -0.0065 -0.0372  0.2177
   82TMC2    O1 1285   4.331   1.150  11.096 -0.8669 -0.2335  0.2857
   82TMC2    O2 1286   3.898   1.491  10.866  0.7239 -0.5456 -0.4398
   82TMC2    O5 1287   3.970   1.481  11.086 -0.0724 -0.0178  0.2016
   82TMC2    H5 1288   4.060   1.483  11.125  0.5279 -0.1649 -1.1782
   83MPD2     C 1289   4.721   1.764  10.410 -0.1470 -0.4719  0.3808
   83MPD2    C1 1290   4.595   1.745  10.367  0.3960 -0.3221  0.8847
   83MPD2    C2 1291   4.504   1.673  10.447  0.8247 -0.0078  0.0713
   83MPD2    C3 1292   4.546   1.627  10.571 -0.0425 -0.2002 -0.1353
   83MPD2    C4 1293   4.675   1.656  10.608  0.5755 -0.1694  0.9794
   83MPD2    C5 1294   0.025   1.721  10.530  0.2293 -0.1777  0.4521
   83MPD2     H 1295   4.404   1.651  10.410  1.2282 -0.0135 -1.0082
   83MPD2    H1 1296   4.703   1.622  10.707  0.2996 -0.9743  0.7752
   83MPD2    H2 1297   0.052   1.819  10.347 -2.1239 -0.7667 -2.0862
   83MPD2    H3 1298   0.125   1.743  10.567  0.4446  0.5132 -0.5080
   83MPD2     N 1299   4.475   1.540  10.655 -0.1997 -0.5448  0.3184
   83MPD2    H5 1300   4.524   1.486  10.725 -0.5737 -1.3556 -0.0505
   83MPD2    N1 1301   4.566   1.802  10.239  0.1301 -0.0702  0.0273
   83MPD2    H7 1302   4.643   1.853  10.196  0.5555 -0.7404 -0.0117
   84TMC2    C1 1303   1.350   0.533  10.899  0.5438 -0.2934 -0.3327
   84TMC2    C2 1304   1.462   0.582  10.843 -0.0939  0.3537  0.5264
   84TMC2    C3 1305   1.504   0.517  10.732  0.4857  0.8339 -0.2339
   84TMC2    C4 1306   1.283   0.421  10.856  0.5726 -0.6306 -0.3155
   84TMC2    C5 1307   1.339   0.360  10.750  0.0273 -0.6844 -0.0243
   84TMC2    C6 1308   1.440   0.409  10.683 -0.5053  0.0954 -0.1504
   84TMC2     C 1309   1.305   0.599  11.020 -0.3688  0.0648  0.2238
   84TMC2     O 1310   1.358   0.711  11.045 -0.1747 -0.0983 -0.4947
   84TMC2     H 1311   1.488   0.686  10.861 -2.7707  0.9526  0.9601
   84TMC2    H1 1312   1.187   0.392  10.897  0.6954  0.2781  0.6170
   84TMC2    H2 1313   1.496   0.352  10.609 -0.5065 -0.4566  0.2749
   84TMC2    C7 1314   1.282   0.232  10.717 -0.2114 -0.8679  0.2518
   84TMC2    C8 1315   1.601   0.584  10.638 -0.4162  0.1106  0.0913
   84TMC2    O1 1316   1.229   0.166  10.805 -0.1140 -0.5713 -0.1435
   84TMC2    O2 1317   1.594   0.563  10.518  0.6772  0.1298  0.9283
   84TMC2    O5 1318   1.650   0.694  10.694 -0.3887 -0.6811  0.1253
   84TMC2    H5 1319   1.665   0.698  10.791  0.1620  0.4599 -0.0001
   85TMC2    C1 1320   2.557   4.276  16.440  0.9674  0.6162  0.2488
   85TMC2    C2 1321   2.600   4.395  16.493 -0.1566 -0.0882 -0.7786
   85TMC2    C3 1322   2.583   4.515  16.427 -0.5561  0.3534  0.1530
   85TMC2    C4 1323   2.539   4.268  16.303  0.7301  0.5307 -0.2886
   85TMC2    C5 1324   2.524   4.386  16.239 -0.5185 -0.0622  0.2841
   85TMC2    C6 1325   2.541   4.511  16.295 -0.4546 -0.0228 -0.4452
   85TMC2     C 1326   2.523   4.168  16.532 -0.0338 -0.9402 -0.3678
   85TMC2     O 1327   2.568   4.193  16.645  0.2280 -0.9437  0.0269
   85TMC2     H 1328   2.652   4.400  16.588 -0.7947 -1.0389 -0.3781
   85TMC2    H1 1329   2.523   4.175  16.250  1.6536 -0.5010  1.2428
   85TMC2    H2 1330   2.508   4.603  16.248  0.7756  1.1426  0.9643
   85TMC2    C7 1331   2.494   4.382  16.096 -0.5568 -0.3669 -0.0472
   85TMC2    C8 1332   2.605   4.642  16.502  0.5866  0.2607  0.0500
   85TMC2    O1 1333   2.441   4.481  16.052  0.5836 -0.0551  0.0365
   85TMC2    O2 1334   2.648   4.630  16.618  0.1239 -0.0858 -0.1093
   85TMC2    O5 1335   2.664   4.731  16.423  0.2140  0.6109  0.1037
   85TMC2    H5 1336   2.669   4.709  16.328 -0.5487  1.1494 -0.0645
   86MPD2     C 1337   2.318   3.725  16.690  0.3337  0.0604 -0.9633
   86MPD2    C1 1338   2.280   3.733  16.553 -0.4076 -0.1800  0.5654
   86MPD2    C2 1339   2.318   3.855  16.489 -0.3833 -0.4521  0.3145
   86MPD2    C3 1340   2.387   3.958  16.560  0.1271  0.1852  0.4871
   86MPD2    C4 1341   2.429   3.935  16.691 -0.4418  0.3909  0.3895
   86MPD2    C5 1342   2.392   3.825  16.754 -0.8467  0.2090 -0.0350
   86MPD2     H 1343   2.290   3.869  16.385  2.8436  0.7852 -0.3739
   86MPD2    H1 1344   2.489   3.998  16.755  0.0706 -0.7730  1.0644
   86MPD2    H2 1345   2.308   3.631  16.744  2.4552 -0.3289 -1.2517
   86MPD2    H3 1346   2.425   3.810  16.856 -1.6035  1.4920  0.3918
   86MPD2     N 1347   2.437   4.070  16.492 -0.3574  0.7396  0.3159
   86MPD2    H5 1348   2.397   4.077  16.399 -3.3601 -0.2573  1.5425
   86MPD2    N1 1349   2.210   3.632  16.485  0.2809 -0.5344 -0.1225
   86MPD2    H7 1350   2.185   3.649  16.388 -1.1882  0.6897  0.4515
   87TMC2    C1 1351   0.269   2.094   1.163 -0.0141 -0.1214 -0.0786
   87TMC2    C2 1352   0.210   2.059   1.279 -0.0658  0.1098 -0.1503
   87TMC2    C3 1353   0.165   2.161   1.360 -0.2902 -0.2319  0.3016
   87TMC2    C4 1354   0.291   2.227   1.126 -0.4434 -0.1346 -0.3216
   87TMC2    C5 1355   0.246   2.322   1.213 -0.2270 -0.0853  0.2256
   87TMC2    C6 1356   0.179   2.295   1.331  0.0792 -0.3290 -0.3331
   87TMC2     C 1357   0.288   1.992   1.066  0.5529  0.4061  0.9102
   87TMC2     O 1358   0.284   2.026   0.947 -0.5166  0.4871 -0.2723
   87TMC2     H 1359   0.195   1.954   1.302 -1.6273  0.8710  2.3079
   87TMC2    H1 1360   0.334   2.254   1.030 -1.4354 -2.2025 -1.3630
   87TMC2    H2 1361   0.138   2.374   1.394 -0.2970 -0.1599 -0.7928
   87TMC2    C7 1362   0.229   2.454   1.156  0.2639  1.0913  0.4493
   87TMC2    C8 1363   0.095   2.120   1.478  0.3036 -0.3740 -0.5754
   87TMC2    O1 1364   0.197   2.538   1.241  0.6691 -0.3859  0.7170
   87TMC2    O2 1365   0.044   2.009   1.497  0.6827 -0.0214  0.4626
   87TMC2    O5 1366   0.141   2.193   1.582  0.5066 -0.4527  0.1493
   87TMC2    H5 1367   0.197   2.265   1.546  2.2235 -0.8000  2.0721
   88MPD2     C 1368   0.327   2.612   0.836 -0.2589 -0.2790 -0.2137
   88MPD2    C1 1369   0.269   2.598   0.962 -0.1237 -0.8754  0.4440
   88MPD2    C2 1370   0.217   2.723   1.014 -0.6771  0.2679 -0.5404
   88MPD2    C3 1371   0.233   2.847   0.950  0.2380  0.0616 -0.0867
   88MPD2    C4 1372   0.304   2.852   0.833  0.0269 -0.1312  0.4077
   88MPD2    C5 1373   0.350   2.732   0.776  0.4600  0.5683  0.1523
   88MPD2     H 1374   0.150   2.710   1.099 -0.0304 -1.8035 -0.3367
   88MPD2    H1 1375   0.317   2.950   0.789  2.2594 -0.9165 -0.7156
   88MPD2    H2 1376   0.343   2.521   0.779  2.3588  0.9099 -1.3790
   88MPD2    H3 1377   0.405   2.741   0.683 -1.1606 -1.2228 -0.9589
   88MPD2     N 1378   0.156   2.962   0.988  0.2111 -0.6481 -1.0181
   88MPD2    H5 1379   0.181   3.053   0.950  2.8552 -0.5142  0.9695
   88MPD2    N1 1380   0.249   2.471   1.026  0.0627  0.3114  0.4884
   88MPD2    H7 1381   0.275   2.390   0.970 -1.8848  1.4509 -2.0688
   89TMC2    C1 1382   0.368   0.058   1.240  0.5013  0.0590  0.2541
   89TMC2    C2 1383   0.276   0.158   1.263 -0.4139  0.0934  0.0944
   89TMC2    C3 1384   0.285   0.273   1.192 -0.1997 -0.8556 -0.4278
   89TMC2    C4 1385   0.470   0.068   1.145 -0.4298  0.1742  0.1248
   89TMC2    C5 1386   0.460   0.178   1.063 -0.3105  1.1566  0.0658
   89TMC2    C6 1387   0.378   0.283   1.088  0.2212 -0.0871  0.0145
   89TMC2     C 1388   0.397   4.693   1.337  0.1501 -0.0236 -0.8470
   89TMC2     O 1389   0.502   4.627   1.321 -0.1888  0.5357  0.0085
   89TMC2     H 1390   0.199   0.140   1.338  0.8894 -0.6833  1.2356
   89TMC2    H1 1391   0.524   4.717   1.116 -0.1940  1.6364 -3.8964
   89TMC2    H2 1392   0.362   0.352   1.006 -0.8927  0.8429  1.0078
   89TMC2    C7 1393   0.553   0.199   0.951 -0.9155  0.5992 -0.6387
   89TMC2    C8 1394   0.155   0.346   1.178 -0.1671  0.1918 -0.0438
   89TMC2    O1 1395   0.622   0.103   0.917  0.5022 -0.0983 -0.0297
   89TMC2    O2 1396   0.069   0.295   1.107  0.2823  0.2961  0.3792
   89TMC2    O5 1397   0.200   0.476   1.166  0.2136  0.5055  0.3650
   89TMC2    H5 1398   0.285   0.486   1.215 -0.0589 -0.7990  1.0965
   90MPD2     C 1399   0.363   4.469   1.799 -0.4264 -0.4856  0.3536
   90MPD2    C1 1400   0.246   4.520   1.766 -0.1756 -0.3091 -0.3931
   90MPD2    C2 1401   0.230   4.596   1.650  0.1905  0.4038 -0.0517
   90MPD2    C3 1402   0.335   4.613   1.561 -0.7858 -0.1254 -0.3290
   90MPD2    C4 1403   0.444   4.538   1.588  0.4803  0.3926 -1.0672
   90MPD2    C5 1404   0.458   4.470   1.703 -0.4079 -0.1096 -0.2825
   90MPD2     H 1405   0.128   4.620   1.623 -0.7760 -1.2189  2.1207
   90MPD2    H1 1406   0.531   4.529   1.524 -0.7032  1.3855 -2.7880
   90MPD2    H2 1407   0.371   4.410   1.890 -1.3065 -0.9029  0.1633
   90MPD2    H3 1408   0.556   4.426   1.718 -0.8961 -1.4668 -1.0508
   90MPD2     N 1409   0.312   4.689   1.443  0.5885  0.0895  0.2986
   90MPD2    H5 1410   0.226   0.003   1.430  0.8012 -0.1791 -2.1074
   90MPD2    N1 1411   0.123   4.499   1.838  0.5555  0.1621  0.1291
   90MPD2    H7 1412   0.044   4.540   1.788  1.0830 -0.9559 -1.6384
   91TMC2    C1 1413   2.113   1.291  15.994  0.1604  0.5057 -0.4563
   91TMC2    C2 1414   2.068   1.424  15.973 -0.0395  0.9651  0.1746
   91TMC2    C3 1415   2.002   1.480  16.076 -0.0909 -0.2159  0.1241
   91TMC2    C4 1416   2.085   1.221  16.107  0.6959 -0.3241 -0.0409
   91TMC2    C5 1417   2.016   1.286  16.210 -0.1576  0.5507  0.7635
   91TMC2    C6 1418   1.975   1.412  16.191 -0.3779 -0.2019  0.2183
   91TMC2     C 1419   2.146   1.225  15.865  0.0498 -0.2677  0.5153
   91TMC2     O 1420   2.162   1.300  15.770 -0.3180  0.3869  0.0819
   91TMC2     H 1421   2.094   1.482  15.885 -0.6992 -2.0513 -1.9876
   91TMC2    H1 1422   2.109   1.116  16.121 -1.7463 -0.9374 -0.4956
   91TMC2    H2 1423   1.912   1.456  16.269  0.6233 -0.6314  1.2673
   91TMC2    C7 1424   1.984   1.220  16.336 -0.4698 -0.1860  0.7683
   91TMC2    C8 1425   1.964   1.615  16.079 -0.4692 -0.3274  0.4491
   91TMC2    O1 1426   1.951   1.294  16.427  0.1501 -0.3467  0.2905
   91TMC2    O2 1427   1.965   1.680  16.181  0.1017 -0.0653  0.4529
   91TMC2    O5 1428   1.918   1.648  15.957  0.1141 -0.5981  0.2270
   91TMC2    H5 1429   1.886   1.569  15.910  0.8902 -0.3641 -0.6891
   92MPD2     C 1430   2.148   1.032  15.636  0.0072  0.5955 -0.1114
   92MPD2    C1 1431   2.173   1.000  15.768  0.2838  0.1950  0.7632
   92MPD2    C2 1432   2.198   0.872  15.802  0.4391  0.0095 -0.3874
   92MPD2    C3 1433   2.222   0.779  15.703 -0.3289 -0.0878  0.4104
   92MPD2    C4 1434   2.195   0.812  15.574  0.2373  0.2659 -1.1526
   92MPD2    C5 1435   2.156   0.936  15.544 -0.0859 -0.4749  0.6023
   92MPD2     H 1436   2.198   0.837  15.904  0.5349  1.7131  0.1952
   92MPD2    H1 1437   2.210   0.748  15.487  0.9807  0.4272 -1.1416
   92MPD2    H2 1438   2.110   1.128  15.603 -1.4577 -0.5317 -1.6553
   92MPD2    H3 1439   2.142   0.976  15.444  0.6421  0.6899  0.9689
   92MPD2     N 1440   2.266   0.648  15.745  0.4356 -0.5599  0.2796
   92MPD2    H5 1441   2.274   0.629  15.844  1.0853  2.5695  0.8498
   92MPD2    N1 1442   2.155   1.090  15.872  0.8175  0.5587 -0.1303
   92MPD2    H7 1443   2.152   1.046  15.964 -1.0412  0.5235 -0.2148
   93TMC2    C1 1444   4.317   4.605  14.067  0.6148  0.2595 -0.4662
   93TMC2    C2 1445   4.245   4.572  13.959 -0.4305 -0.6120 -0.2299
   93TMC2    C3 1446   4.284   4.636  13.839 -0.6686 -0.0021 -0.5807
   93TMC2    C4 1447   4.426   4.699  14.066  0.2370 -0.8366 -0.0528
   93TMC2    C5 1448   4.457   0.018  13.946 -0.0812  0.9468 -0.0090
   93TMC2    C6 1449   4.389   4.733  13.824  0.4436  0.0234 -0.4949
   93TMC2     C 1450   4.307   4.533  14.190 -0.7020 -0.7721 -0.3845
   93TMC2     O 1451   4.385   4.550  14.281 -0.1774 -0.0444 -0.4143
   93TMC2     H 1452   4.166   4.497  13.957  0.3251 -1.4421  0.7457
   93TMC2    H1 1453   4.488   4.717  14.154 -1.5493 -2.6519  1.5810
   93TMC2    H2 1454   4.409   0.049  13.732  2.4672 -1.7925 -1.1291
   93TMC2    C7 1455   4.580   0.096  13.943 -0.5584 -0.1942 -0.1159
   93TMC2    C8 1456   4.193   4.613  13.728 -0.4057 -0.3927  0.5546
   93TMC2    O1 1457   4.634   0.113  13.835 -0.0638  0.5495  0.3923
   93TMC2    O2 1458   4.083   4.563  13.732 -0.9460  0.0582  0.4646
   93TMC2    O5 1459   4.275   4.602  13.620 -0.4626  0.0244  0.0824
   93TMC2    H5 1460   4.367   4.633  13.633 -1.4332  2.8546  0.2760
   94MPD2     C 1461   4.235   4.351  14.415  0.2552 -0.5340  0.1474
   94MPD2    C1 1462   4.147   4.381  14.315  0.2486 -0.5167  0.3716
   94MPD2    C2 1463   4.009   4.360  14.326  0.7188 -0.5562 -0.6659
   94MPD2    C3 1464   3.960   4.297  14.439  0.8497 -0.9560  0.9468
   94MPD2    C4 1465   4.049   4.270  14.541  0.0887  0.6856  0.9448
   94MPD2    C5 1466   4.182   4.306  14.526  0.3256  0.2346 -0.9726
   94MPD2     H 1467   3.945   4.388  14.243  1.6814 -0.3632 -1.3461
   94MPD2    H1 1468   4.013   4.222  14.631  0.7145 -0.1043  0.7793
   94MPD2    H2 1469   4.344   4.357  14.414  0.3370 -2.2387 -1.2581
   94MPD2    H3 1470   4.248   4.273  14.605 -1.1760 -2.4553 -0.8276
   94MPD2     N 1471   3.820   4.267  14.457  0.5382  0.3876  0.4717
   94MPD2    H5 1472   3.792   4.223  14.544  1.9726 -0.6476  0.4269
   94MPD2    N1 1473   4.186   4.458  14.205 -0.5314  0.2125  0.3002
   94MPD2    H7 1474   4.111   4.469  14.137 -0.2710  0.5158  0.0610
   95TMC2    C1 1475   4.458   2.113  16.514  0.3929  0.2515 -0.4932
   95TMC2    C2 1476   4.367   2.035  16.573 -0.2822  0.0820 -0.4267
   95TMC2    C3 1477   4.281   2.077  16.667 -0.6725 -0.0915  0.0041
   95TMC2    C4 1478   4.474   2.248  16.543  0.5924 -0.2515  0.3162
   95TMC2    C5 1479   4.394   2.288  16.650  0.5821 -0.2121 -0.1005
   95TMC2    C6 1480   4.291   2.210  16.706 -0.6610  0.0588 -0.0026
   95TMC2     C 1481   4.535   2.069  16.401 -0.1832  0.5281  0.4655
   95TMC2     O 1482   4.588   2.161  16.343 -0.4110 -0.0465 -0.5573
   95TMC2     H 1483   4.317   1.954  16.521 -2.3011  1.5233 -0.7603
   95TMC2    H1 1484   4.556   2.307  16.505 -1.2049  1.5526 -0.7878
   95TMC2    H2 1485   4.223   2.247  16.782  1.7703 -0.1402  2.2905
   95TMC2    C7 1486   4.394   2.433  16.677 -0.0197  0.1393  0.1429
   95TMC2    C8 1487   4.160   2.013  16.692  0.4183 -0.0515  0.7258
   95TMC2    O1 1488   4.348   2.464  16.790  0.1439 -0.1880 -0.1194
   95TMC2    O2 1489   4.054   2.063  16.655  0.4403 -0.1740 -0.1885
   95TMC2    O5 1490   4.185   1.878  16.696  0.1589 -0.3303  0.7263
   95TMC2    H5 1491   4.269   1.847  16.736  0.0233  0.3712  1.5637
   96MPD2     C 1492   4.734   1.759  16.055 -0.4817  0.3162  0.1100
   96MPD2    C1 1493   0.004   1.894  16.070 -0.1169  0.0990 -0.6010
   96MPD2    C2 1494   4.676   1.959  16.169  0.2877 -0.1657 -0.5241
   96MPD2    C3 1495   4.595   1.884  16.254 -0.6013  0.6049 -0.3528
   96MPD2    C4 1496   4.580   1.752  16.237  0.0819 -0.2926  0.0767
   96MPD2    C5 1497   4.642   1.687  16.132 -1.1311  0.1208  0.4042
   96MPD2     H 1498   4.680   2.067  16.178  0.7906 -0.2717  0.5037
   96MPD2    H1 1499   4.520   1.695  16.307 -2.4051  1.1836 -0.8581
   96MPD2    H2 1500   0.044   1.696  15.983 -1.0876 -1.8762  1.6139
   96MPD2    H3 1501   4.625   1.581  16.117 -0.5618 -0.1330  1.5662
   96MPD2     N 1502   4.533   1.937  16.370  0.1948 -0.2034  0.4546
   96MPD2    H5 1503   4.482   1.871  16.427 -2.5627  2.6134  1.2485
   96MPD2    N1 1504   0.093   1.952  15.973 -0.2681  0.3487  0.2541
   96MPD2    H7 1505   0.135   1.894  15.901  1.5383  2.3765 -0.3254
   97TMC2    C1 1506   1.754   4.403   0.029  0.3840  0.2846 -0.1902
   97TMC2    C2 1507   1.731   4.353  17.659  0.1683  0.2636 -0.1881
   97TMC2    C3 1508   1.751   4.431  17.552 -0.3806  0.0440 -0.0245
   97TMC2    C4 1509   1.807   4.528   0.042 -0.2365 -0.4759  0.0084
   97TMC2    C5 1510   1.826   4.604  17.682 -0.0283 -0.6865  0.7513
   97TMC2    C6 1511   1.795   4.561  17.562 -0.1019 -0.0236  0.3719
   97TMC2     C 1512   1.700   4.328   0.147  0.4220  0.2238 -0.1815
   97TMC2     O 1513   1.620   4.239   0.129 -0.5772  0.3179 -0.2446
   97TMC2     H 1514   1.698   4.251  17.649 -0.1770  0.2518  1.0818
   97TMC2    H1 1515   1.825   4.573   0.139 -0.8304  0.6678 -0.4096
   97TMC2    H2 1516   1.806   4.615  17.469  0.5694 -1.9129 -0.6569
   97TMC2    C7 1517   1.875   4.739  17.693 -0.2083 -0.6493 -0.3478
   97TMC2    C8 1518   1.754   4.369  17.418  0.4733 -0.8141  0.0716
   97TMC2    O1 1519   1.971   0.022   0.009 -0.4480 -0.2749  0.2336
   97TMC2    O2 1520   1.746   4.437  17.317 -0.0727 -0.0847 -0.4734
   97TMC2    O5 1521   1.846   4.269  17.436  0.3353 -0.2076  0.1617
   97TMC2    H5 1522   1.862   4.236  17.527 -0.1560  0.4498  0.4812
   98MPD2     C 1523   1.730   4.218   0.652 -0.8092 -0.3023 -0.1841
   98MPD2    C1 1524   1.637   4.172   0.563 -0.1759  0.4096 -0.3067
   98MPD2    C2 1525   1.650   4.224   0.430  0.2766 -0.5083  0.2818
   98MPD2    C3 1526   1.755   4.310   0.393  0.5205  0.4868  0.2806
   98MPD2    C4 1527   1.857   4.328   0.481  0.5353  0.5059 -0.3985
   98MPD2    C5 1528   1.840   4.285   0.608 -0.7688 -0.4923 -0.5734
   98MPD2     H 1529   1.580   4.200   0.351 -0.1035  0.7532  0.2353
   98MPD2    H1 1530   1.947   4.383   0.456 -2.2264  4.4736 -1.5609
   98MPD2    H2 1531   1.719   4.194   0.757 -0.1513  1.8178  0.3645
   98MPD2    H3 1532   1.908   4.303   0.690 -1.6352 -2.5957  0.6163
   98MPD2     N 1533   1.778   4.359   0.259 -0.0413 -0.1012 -0.1293
   98MPD2    H5 1534   1.858   4.421   0.247  0.5220 -0.5477  1.2814
   98MPD2    N1 1535   1.529   4.100   0.605  0.6146  0.1894  0.0628
   98MPD2    H7 1536   1.531   4.088   0.706  0.4395  1.0239  0.1654
   99TMC2    C1 1537   0.766   1.574   2.263  0.2133 -0.6672  0.1914
   99TMC2    C2 1538   0.850   1.521   2.359 -0.0128 -0.4090 -0.4324
   99TMC2    C3 1539   0.818   1.553   2.489  0.1325 -0.3138 -0.4541
   99TMC2    C4 1540   0.651   1.642   2.293 -0.0665 -0.5477 -0.2671
   99TMC2    C5 1541   0.629   1.658   2.429  0.3819 -0.3825 -0.8165
   99TMC2    C6 1542   0.715   1.625   2.525  0.3936  0.3485 -0.0699
   99TMC2     C 1543   0.797   1.544   2.121 -1.1224 -0.4269 -0.0848
   99TMC2     O 1544   0.916   1.537   2.101  0.3094  0.4589  0.0706
   99TMC2     H 1545   0.945   1.481   2.326  0.1675  0.7434 -1.2938
   99TMC2    H1 1546   0.604   1.707   2.219  0.9529 -1.0435 -1.3365
   99TMC2    H2 1547   0.689   1.643   2.629 -1.5377  0.5031 -0.5783
   99TMC2    C7 1548   0.493   1.691   2.470 -0.3348 -0.6108 -0.1009
   99TMC2    C8 1549   0.932   1.574   2.575  0.0668  0.4009 -0.2779
   99TMC2    O1 1550   0.480   1.723   2.586  0.0050  0.2099  0.1229
   99TMC2    O2 1551   0.934   1.631   2.681  0.3099 -0.6967  0.0499
   99TMC2    O5 1552   1.007   1.461   2.550  0.2036  0.0416 -0.1463
   99TMC2    H5 1553   0.972   1.395   2.487 -1.3704 -2.8247  3.7676
  100MPD2     C 1554   0.808   1.455   1.841 -0.4041 -0.1098 -0.2594
  100MPD2    C1 1555   0.690   1.488   1.897  0.1435  0.0882 -0.6028
  100MPD2    C2 1556   0.567   1.476   1.824 -0.0047  0.0519  0.1745
  100MPD2    C3 1557   0.564   1.439   1.694  0.2259 -0.4649  0.8623
  100MPD2    C4 1558   0.682   1.415   1.639 -0.2207  0.4777 -0.4723
  100MPD2    C5 1559   0.799   1.414   1.710 -0.3338 -1.3367  0.3054
  100MPD2     H 1560   0.474   1.497   1.875  0.1797 -1.9586  1.3800
  100MPD2    H1 1561   0.697   1.391   1.534 -0.2861  1.5454 -0.7295
  100MPD2    H2 1562   0.904   1.467   1.889 -0.9641 -0.1894  0.8804
  100MPD2    H3 1563   0.890   1.380   1.661  0.1412 -1.0664  1.0142
  100MPD2     N 1564   0.443   1.442   1.616 -0.0023 -0.0315 -0.7947
  100MPD2    H5 1565   0.365   1.468   1.676  2.7561  1.2470  2.1949
  100MPD2    N1 1566   0.690   1.532   2.032  0.2086 -0.0149  0.3027
  100MPD2    H7 1567   0.601   1.538   2.080 -0.5590  0.2219 -1.1683
  101TMC2    C1 1568   1.047   3.152  12.988  0.5086 -0.6746  0.6799
  101TMC2    C2 1569   0.937   3.234  12.985  0.4900 -0.2098  0.0163
  101TMC2    C3 1570   0.969   3.364  12.983 -0.2458  0.1634  0.0954
  101TMC2    C4 1571   1.177   3.200  12.988  0.3004 -0.2161  0.4967
  101TMC2    C5 1572   1.199   3.334  12.981 -0.2019  0.2894 -0.6803
  101TMC2    C6 1573   1.091   3.421  12.976  0.2019 -0.4205  0.2812
  101TMC2     C 1574   1.014   3.011  12.978  0.2028  0.0385  0.5290
  101TMC2     O 1575   0.915   2.976  13.036  0.3260  0.0484  0.0073
  101TMC2     H 1576   0.833   3.206  12.987  0.4950 -0.1428  1.2535
  101TMC2    H1 1577   1.258   3.128  12.984  0.2157 -0.2638 -0.2618
  101TMC2    H2 1578   1.112   3.527  12.976 -0.9693 -0.1876  0.3333
  101TMC2    C7 1579   1.317   3.373  12.910 -0.6303  0.0582  0.6908
  101TMC2    C8 1580   0.848   3.441  12.971  0.0311  0.2592 -1.0931
  101TMC2    O1 1581   1.302   3.473  12.840 -0.0956 -0.4230 -0.0678
  101TMC2    O2 1582   0.754   3.406  12.897  0.0237  0.2046  0.3902
  101TMC2    O5 1583   0.878   3.567  13.010 -0.2528 -0.0104 -0.3030
  101TMC2    H5 1584   0.954   3.567  13.071 -0.4103  0.6780 -0.1127
  102MPD2     C 1585   1.178   2.728  12.809 -1.0343  0.1178 -0.4555
  102MPD2    C1 1586   1.106   2.789  12.909 -0.7773 -0.1436  1.5030
  102MPD2    C2 1587   1.023   2.710  12.984  0.6162  0.3441  0.2221
  102MPD2    C3 1588   0.994   2.579  12.951  0.2585 -0.2784 -0.0949
  102MPD2    C4 1589   1.068   2.513  12.855  0.1927 -0.3300  0.5676
  102MPD2    C5 1590   1.160   2.590  12.785 -0.3744 -0.6118  0.1347
  102MPD2     H 1591   0.966   2.752  13.066 -0.6713 -2.5923  0.8286
  102MPD2    H1 1592   1.069   2.408  12.827  0.6627 -0.5721  1.4720
  102MPD2    H2 1593   1.256   2.773  12.749 -0.2687 -0.6951 -0.0678
  102MPD2    H3 1594   1.227   2.541  12.716  0.2581  0.4591 -0.0065
  102MPD2     N 1595   0.908   2.507  13.040  0.4918 -0.4886 -0.3284
  102MPD2    H5 1596   0.859   2.561  13.111  2.6744  2.3748 -0.9982
  102MPD2    N1 1597   1.112   2.931  12.919  0.4617 -0.0942 -0.0518
  102MPD2    H7 1598   1.188   2.974  12.868 -0.2533  0.4250 -0.6855
  103TMC2    C1 1599   3.583   2.572  12.708 -0.6269  0.0121 -0.3002
  103TMC2    C2 1600   3.481   2.557  12.616 -0.3239 -0.2880  0.0780
  103TMC2    C3 1601   3.386   2.654  12.598  0.4337  0.2498 -0.1794
  103TMC2    C4 1602   3.586   2.676  12.787 -0.0317  0.2657  0.2014
  103TMC2    C5 1603   3.496   2.779  12.766  0.1063  0.2269 -0.9565
  103TMC2    C6 1604   3.389   2.763  12.682 -0.1262 -0.0415  0.1058
  103TMC2     C 1605   3.683   2.475  12.718 -0.2483 -0.1424  0.5732
  103TMC2     O 1606   3.789   2.501  12.772  0.2816  0.2961 -0.3372
  103TMC2     H 1607   3.473   2.485  12.535  1.1831  0.2398 -0.5306
  103TMC2    H1 1608   3.669   2.692  12.856 -0.0772 -1.8737  0.7439
  103TMC2    H2 1609   3.320   2.844  12.662  0.2691  0.5395  1.0937
  103TMC2    C7 1610   3.474   2.859  12.888  0.2273 -0.0652 -0.4803
  103TMC2    C8 1611   3.333   2.660  12.469  0.4091 -0.5585  0.4361
  103TMC2    O1 1612   3.531   2.834  12.994  0.3906 -0.2609 -0.6540
  103TMC2    O2 1613   3.405   2.660  12.372 -0.7177 -0.0638  0.3106
  103TMC2    O5 1614   3.216   2.708  12.488 -0.5538  0.0018  0.1671
  103TMC2    H5 1615   3.175   2.661  12.564 -0.4089  0.3861  0.4816
  104MPD2     C 1616   3.846   2.219  12.676 -1.0367 -0.1237 -0.1423
  104MPD2    C1 1617   3.714   2.239  12.642  0.1690 -0.4910  0.4012
  104MPD2    C2 1618   3.660   2.141  12.561  0.3495  0.3056 -0.1140
  104MPD2    C3 1619   3.723   2.024  12.533 -0.4821 -0.6219  0.4525
  104MPD2    C4 1620   3.853   2.005  12.578  0.2722  0.4785 -0.6199
  104MPD2    C5 1621   3.917   2.110  12.626 -0.0226 -0.0957 -0.1144
  104MPD2     H 1622   3.562   2.152  12.516 -0.1382  1.3398  1.2453
  104MPD2    H1 1623   3.903   1.909  12.580  1.0051  0.9057  1.7483
  104MPD2    H2 1624   3.900   2.286  12.741  0.3251 -2.2211  0.8775
  104MPD2    H3 1625   4.019   2.098  12.659 -1.0768 -2.4737  2.3891
  104MPD2     N 1626   3.651   1.925  12.467 -0.4118 -0.1905 -0.7243
  104MPD2    H5 1627   3.554   1.941  12.445 -0.4480 -0.2470 -0.6027
  104MPD2    N1 1628   3.637   2.358  12.667  0.4732  0.0478 -0.2486
  104MPD2    H7 1629   3.547   2.369  12.623  0.7018  1.0298 -0.4625
  105TMC2    C1 1630   0.292   1.543   0.254 -0.0318 -0.3165  0.3053
  105TMC2    C2 1631   0.243   1.668   0.226 -0.1684  0.2483 -0.6032
  105TMC2    C3 1632   0.243   1.756   0.330 -0.2561 -0.9773 -0.1141
  105TMC2    C4 1633   0.343   1.511   0.373  0.5600 -0.1387 -0.2672
  105TMC2    C5 1634   0.331   1.602   0.473 -0.6439 -0.0816  0.7037
  105TMC2    C6 1635   0.291   1.729   0.453  0.3403  0.0980 -1.5580
  105TMC2     C 1636   0.333   1.477   0.133  0.8595 -0.4741  0.7750
  105TMC2     O 1637   0.305   1.361   0.122 -0.3942 -0.6139 -0.4024
  105TMC2     H 1638   0.196   1.690   0.131 -2.6562 -0.6059  0.4212
  105TMC2    H1 1639   0.379   1.409   0.383  0.4249 -0.1160  0.4205
  105TMC2    H2 1640   0.289   1.809   0.525  2.8407  0.8232 -2.2949
  105TMC2    C7 1641   0.378   1.555   0.602  0.8219 -0.0056  0.5359
  105TMC2    C8 1642   0.144   1.857   0.327 -0.4260  0.3922  0.1206
  105TMC2    O1 1643   0.430   1.444   0.608 -0.2510  0.5151 -0.2489
  105TMC2    O2 1644   0.160   1.975   0.360 -0.8390 -0.1122  0.2000
  105TMC2    O5 1645   0.033   1.781   0.350 -0.0644 -0.8870 -0.7378
  105TMC2    H5 1646   0.042   1.695   0.303 -1.1425 -1.1859 -0.3825
  106MPD2     C 1647   0.433   1.513  17.398  0.3260 -0.2732 -0.1732
  106MPD2    C1 1648   0.488   1.623  17.465 -0.0151 -0.4372  0.1757
  106MPD2    C2 1649   0.462   1.650  17.597 -0.1182 -0.4294  0.3921
  106MPD2    C3 1650   0.395   1.553  17.664  0.8765  0.1492 -0.4918
  106MPD2    C4 1651   0.342   1.439  17.609 -0.1097  0.1781 -0.2631
  106MPD2    C5 1652   0.347   1.433  17.471  0.4870 -0.1256 -0.3270
  106MPD2     H 1653   0.516   1.726  17.651 -1.9011  0.4385  0.9243
  106MPD2    H1 1654   0.294   1.358  17.662  0.2314  0.7960  0.9942
  106MPD2    H2 1655   0.441   1.506  17.290 -1.5306  2.1493 -0.4805
  106MPD2    H3 1656   0.299   1.344  17.431  1.2420  0.0805 -1.6853
  106MPD2     N 1657   0.391   1.568   0.049 -0.4107 -0.5574 -0.1675
  106MPD2    H5 1658   0.414   1.657   0.092  0.7397 -0.4439 -1.0231
  106MPD2    N1 1659   0.582   1.710  17.403 -0.4214 -0.6183 -0.2022
  106MPD2    H7 1660   0.613   1.790  17.456 -1.6633  0.7665 -1.5665
  107TMC2    C1 1661   1.021   1.302  11.610 -0.1978 -0.2394  0.1305
  107TMC2    C2 1662   1.058   1.362  11.494 -0.4653  0.6108  0.2864
  107TMC2    C3 1663   1.127   1.281  11.414  0.6560 -0.5676 -0.2648
  107TMC2    C4 1664   1.030   1.164  11.630  0.8957 -0.1357  0.0963
  107TMC2    C5 1665   1.103   1.089  11.539 -0.5469  0.3201  0.0984
  107TMC2    C6 1666   1.164   1.150  11.432  0.4565  0.4965  0.4913
  107TMC2     C 1667   0.944   1.373  11.705  0.2592  0.1551  0.0688
  107TMC2     O 1668   0.912   1.300  11.797  0.5865 -0.1318  0.4568
  107TMC2     H 1669   1.069   1.469  11.485 -2.4003  0.8595  0.9504
  107TMC2    H1 1670   0.998   1.113  11.720 -0.4870 -0.8026 -0.7604
  107TMC2    H2 1671   1.213   1.101  11.349  0.0259  0.6419  0.1509
  107TMC2    C7 1672   1.085   0.944  11.539 -0.0342 -0.1874 -0.0673
  107TMC2    C8 1673   1.167   1.341  11.289 -0.3505 -0.5747 -0.9268
  107TMC2    O1 1674   1.012   0.894  11.625 -0.1611  0.1800  0.3213
  107TMC2    O2 1675   1.096   1.402  11.210  0.1544  0.3428  0.7317
  107TMC2    O5 1676   1.297   1.304  11.269 -0.1175 -0.0976  0.2481
  107TMC2    H5 1677   1.325   1.256  11.350 -0.1816 -0.8579 -0.1784
  108MPD2     C 1678   0.802   1.714  11.690 -0.0697 -0.3686 -0.0011
  108MPD2    C1 1679   0.823   1.587  11.737 -0.2410 -0.3843  0.1595
  108MPD2    C2 1680   0.747   1.535  11.840 -0.3426 -0.4109 -0.1860
  108MPD2    C3 1681   0.643   1.608  11.890 -0.0959  0.0588  0.8106
  108MPD2    C4 1682   0.613   1.725  11.833  0.2769 -0.1879 -0.7606
  108MPD2    C5 1683   0.692   1.778  11.739 -0.1080 -0.5306 -0.1634
  108MPD2     H 1684   0.750   1.431  11.872 -0.9903  0.3280  2.2789
  108MPD2    H1 1685   0.524   1.780  11.861  0.6634  1.0100 -1.8408
  108MPD2    H2 1686   0.862   1.764  11.616 -0.9486  0.8613  0.1236
  108MPD2    H3 1687   0.664   1.872  11.692  0.6419 -0.5166 -0.5912
  108MPD2     N 1688   0.556   1.572  11.991  0.1991  0.0388  0.0206
  108MPD2    H5 1689   0.471   1.623  12.011 -0.2956 -0.6433 -0.3647
  108MPD2    N1 1690   0.915   1.510  11.674 -0.3402  0.4159 -0.1677
  108MPD2    H7 1691   0.959   1.553  11.593  0.8057  2.7347  1.7063
  109TMC2    C1 1692   0.356   4.240   0.399 -0.7326 -0.7840 -0.4428
  109TMC2    C2 1693   0.384   4.320   0.294 -0.3515 -0.0328  0.2404
  109TMC2    C3 1694   0.483   4.269   0.203  0.0009 -0.5115  0.0868
  109TMC2    C4 1695   0.424   4.124   0.414  0.0376  0.3940  0.4850
  109TMC2    C5 1696   0.505   4.072   0.322  0.2477  0.6365  0.8134
  109TMC2    C6 1697   0.542   4.146   0.212  0.1948 -0.5988 -0.4097
  109TMC2     C 1698   0.286   4.294   0.506 -0.0797  0.3214 -0.0569
  109TMC2     O 1699   0.198   4.370   0.473 -0.1972 -0.5539  0.2346
  109TMC2     H 1700   0.355   4.424   0.288 -0.9864 -0.2228  0.0112
  109TMC2    H1 1701   0.403   4.067   0.504  0.2619 -1.3085 -0.5449
  109TMC2    H2 1702   0.616   4.123   0.136  1.8928  2.0829  0.4225
  109TMC2    C7 1703   0.588   3.963   0.360 -0.6907  0.3228 -0.1337
  109TMC2    C8 1704   0.559   4.360   0.117  0.7920  0.2626 -0.1184
  109TMC2    O1 1705   0.579   3.915   0.474  0.3378  0.3603 -0.0017
  109TMC2    O2 1706   0.679   4.360   0.119  0.1643 -0.3022 -0.3829
  109TMC2    O5 1707   0.477   4.453   0.063  0.1833 -0.0599  0.0893
  109TMC2    H5 1708   0.383   4.434   0.044 -0.1926  2.0348 -0.0782
  110MPD2     C 1709   0.056   4.176   0.944  0.1709 -0.2085  0.4158
  110MPD2    C1 1710   0.180   4.112   0.948  0.7059  0.3166  0.0124
  110MPD2    C2 1711   0.273   4.135   0.847  0.5040  0.2259 -0.4139
  110MPD2    C3 1712   0.241   4.227   0.741  0.2364  0.4490  0.5819
  110MPD2    C4 1713   0.114   4.281   0.745 -0.7238  0.3624 -0.1286
  110MPD2    C5 1714   0.023   4.266   0.849 -0.3043 -0.1666 -0.4476
  110MPD2     H 1715   0.355   4.069   0.819  1.3924  0.1688  2.3347
  110MPD2    H1 1716   0.090   4.366   0.682  0.0911  1.1404  0.5935
  110MPD2    H2 1717   4.720   4.157   1.020 -0.9564  1.8020 -0.1784
  110MPD2    H3 1718   4.661   4.308   0.850  0.8230  2.5357  0.2027
  110MPD2     N 1719   0.318   4.235   0.625 -0.1215  0.2713 -0.7411
  110MPD2    H5 1720   0.404   4.182   0.627  0.6022  1.5586  1.2099
  110MPD2    N1 1721   0.202   4.013   1.045  0.5078 -0.6179 -0.0823
  110MPD2    H7 1722   0.123   3.983   1.102 -0.6422  0.5709 -1.0533
  111TMC2    C1 1723   0.535   2.944  11.653 -0.5965  0.1352 -0.2763
  111TMC2    C2 1724   0.435   2.876  11.715  0.1010  0.3474 -1.1409
  111TMC2    C3 1725   0.418   2.911  11.846 -0.1112 -1.3228 -0.4724
  111TMC2    C4 1726   0.612   3.044  11.707  0.4793  0.4269 -0.0461
  111TMC2    C5 1727   0.586   3.077  11.836  0.3579  0.1455  0.1757
  111TMC2    C6 1728   0.493   3.009  11.908  0.1961  0.0282  0.2084
  111TMC2     C 1729   0.555   2.911  11.509 -0.1303  0.6300 -0.4436
  111TMC2     O 1730   0.571   3.008  11.436 -0.0459 -0.0594 -0.4539
  111TMC2     H 1731   0.387   2.789  11.672  2.2799 -1.9498  1.0940
  111TMC2    H1 1732   0.681   3.108  11.652  0.9976  1.1617  1.4641
  111TMC2    H2 1733   0.477   3.027  12.014  0.6040 -1.1611  0.4693
  111TMC2    C7 1734   0.676   3.161  11.900 -0.5338  0.3926  0.1538
  111TMC2    C8 1735   0.289   2.876  11.897  0.3244  0.5263 -0.1734
  111TMC2    O1 1736   0.774   3.180  11.831  0.1598 -0.4024  0.2906
  111TMC2    O2 1737   0.237   2.953  11.976 -0.6926 -0.0593 -0.9371
  111TMC2    O5 1738   0.227   2.780  11.828  0.3344 -0.1546  0.0777
  111TMC2    H5 1739   0.280   2.716  11.776  2.7640  2.4551 -0.6540
  112MPD2     C 1740   0.688   2.593  11.153  0.1220 -0.2988  0.4577
  112MPD2    C1 1741   0.676   2.725  11.148  0.2253  0.0156 -0.2227
  112MPD2    C2 1742   0.621   2.778  11.255  0.1799  0.8721 -0.3353
  112MPD2    C3 1743   0.594   2.714  11.374  0.1651 -0.2694 -0.2869
  112MPD2    C4 1744   0.614   2.576  11.376  0.1540 -0.0475  0.3245
  112MPD2    C5 1745   0.656   2.515  11.260 -0.2029 -0.8372  0.0959
  112MPD2     H 1746   0.592   2.882  11.262  0.8257  0.9594  1.0756
  112MPD2    H1 1747   0.604   2.521  11.470  2.6954  0.7895  1.0778
  112MPD2    H2 1748   0.726   2.538  11.068  0.5892  2.5868 -1.2199
  112MPD2    H3 1749   0.670   2.407  11.265  0.8634 -0.7209 -0.4555
  112MPD2     N 1750   0.563   2.779  11.497  0.2854 -0.2307  0.4362
  112MPD2    H5 1751   0.541   2.727  11.582  2.0336 -0.9972  0.4146
  112MPD2    N1 1752   0.688   2.814  11.035  0.4798 -0.6798 -0.4879
  112MPD2    H7 1753   0.662   2.910  11.057 -3.4198 -1.1479 -3.0992
  113TMC2    C1 1754   3.649   1.967   1.240  0.6966 -0.0546  0.5710
  113TMC2    C2 1755   3.588   2.081   1.271  0.9000 -0.7249  0.0500
  113TMC2    C3 1756   3.464   2.102   1.219  0.1058  1.0947 -0.1940
  113TMC2    C4 1757   3.602   1.885   1.147  0.5497  0.3414 -0.1640
  113TMC2    C5 1758   3.481   1.914   1.079  0.7070 -0.2662 -0.0746
  113TMC2    C6 1759   3.408   2.027   1.118  0.1448  0.1278  0.2000
  113TMC2     C 1760   3.764   1.928   1.325 -0.6679 -0.1193 -0.6796
  113TMC2     O 1761   3.794   1.998   1.420 -0.3364 -0.5758  0.0086
  113TMC2     H 1762   3.632   2.141   1.349 -1.9059  0.2917  0.8198
  113TMC2    H1 1763   3.650   1.792   1.118  1.2974 -0.4376  3.6033
  113TMC2    H2 1764   3.321   2.049   1.056 -0.2228  2.5822  1.6059
  113TMC2    C7 1765   3.420   1.829   0.980 -0.2500 -0.9010 -0.3859
  113TMC2    C8 1766   3.402   2.228   1.255 -0.7969  0.7666 -0.2017
  113TMC2    O1 1767   3.358   1.880   0.892  0.1598 -0.2638 -0.0859
  113TMC2    O2 1768   3.455   2.305   1.333  0.3107  0.1372  0.0003
  113TMC2    O5 1769   3.298   2.261   1.174  0.2094  0.3004 -0.2659
  113TMC2    H5 1770   3.264   2.352   1.182  0.9627  0.6330 -0.7703
  114MPD2     C 1771   4.185   1.658   1.402  0.4560 -0.3094  0.3434
  114MPD2    C1 1772   4.152   1.791   1.428 -0.6648 -0.3629 -0.1503
  114MPD2    C2 1773   4.027   1.839   1.388 -0.7100 -0.8838 -0.2488
  114MPD2    C3 1774   3.937   1.751   1.329 -0.0864 -0.2143  0.1626
  114MPD2    C4 1775   3.966   1.616   1.309  1.1210  0.5812  0.0423
  114MPD2    C5 1776   4.087   1.572   1.349  0.2565  0.4206 -0.8283
  114MPD2     H 1777   4.018   1.946   1.402  5.2733  0.0798 -3.3597
  114MPD2    H1 1778   3.895   1.544   1.271 -0.3115  1.1120  1.6839
  114MPD2    H2 1779   4.282   1.616   1.426 -0.7291 -2.8460  0.6063
  114MPD2    H3 1780   4.130   1.475   1.328  0.1209  0.5965 -1.8894
  114MPD2     N 1781   3.815   1.802   1.289  0.2380  0.5099 -0.5682
  114MPD2    H5 1782   3.754   1.741   1.236 -0.8759 -1.9695  3.5864
  114MPD2    N1 1783   4.242   1.890   1.471 -0.2955 -0.6456 -0.6919
  114MPD2    H7 1784   4.202   1.979   1.500  0.8502  0.3482 -2.1266
  115TMC2    C1 1785   4.617   3.647  17.693 -0.1597  0.2888 -0.8006
  115TMC2    C2 1786   4.672   3.573   0.040  0.0324 -0.8631 -0.6808
  115TMC2    C3 1787   4.656   3.635   0.162  0.1387 -0.4599  0.3438
  115TMC2    C4 1788   4.560   3.769  17.695 -0.5179  0.8650  0.2304
  115TMC2    C5 1789   4.568   3.829   0.064  0.2017 -0.3484 -0.2470
  115TMC2    C6 1790   4.609   3.760   0.178 -0.0621 -0.1717  0.1621
  115TMC2     C 1791   4.579   3.563  17.590 -0.1796  0.0100 -0.3835
  115TMC2     O 1792   4.557   3.616  17.485  0.3519  0.1156 -0.3525
  115TMC2     H 1793   4.730   3.481   0.043  0.7127 -0.4404 -0.9428
  115TMC2    H1 1794   4.532   3.832  17.611  0.3228 -1.9281 -2.1344
  115TMC2    H2 1795   4.606   3.807   0.275 -2.8069  0.7048 -0.3484
  115TMC2    C7 1796   4.518   3.964   0.085  0.7059  0.4820 -0.3168
  115TMC2    C8 1797   4.739   3.591   0.266  0.1040  0.2465 -0.2613
  115TMC2    O1 1798   4.497   3.992   0.203 -0.9025  0.0297  0.4730
  115TMC2    O2 1799   0.102   3.529   0.239  0.2848 -0.1343  1.1053
  115TMC2    O5 1800   4.686   3.607   0.385  0.1377 -0.2117 -0.5587
  115TMC2    H5 1801   4.604   3.661   0.382  0.0096 -0.3348  0.8788
  116MPD2     C 1802   4.386   3.121  17.417 -0.2685 -0.3710  0.4402
  116MPD2    C1 1803   4.419   3.236  17.346  0.1989 -0.2992  0.3224
  116MPD2    C2 1804   4.478   3.338  17.417  0.4359 -0.9621 -0.0119
  116MPD2    C3 1805   4.487   3.332  17.557  0.1375 -0.1855  0.1433
  116MPD2    C4 1806   4.446   3.227  17.631 -0.3450 -0.6655  0.2376
  116MPD2    C5 1807   4.399   3.117  17.555 -0.5398 -0.3729 -0.0912
  116MPD2     H 1808   4.516   3.425  17.364 -0.8002  0.1558  0.9467
  116MPD2    H1 1809   4.448   3.218  17.739  1.7156  0.1392  0.2559
  116MPD2    H2 1810   4.347   3.030  17.373  0.7420  0.8499 -3.0233
  116MPD2    H3 1811   4.371   3.028  17.610  0.1886 -0.3870  0.2671
  116MPD2     N 1812   4.545   3.435  17.636  0.1662  0.1526 -0.9270
  116MPD2    H5 1813   4.538   3.423  17.737  1.8355  0.4517 -0.7754
  116MPD2    N1 1814   4.423   3.227  17.206 -0.5339  0.1488 -0.5454
  116MPD2    H7 1815   4.397   3.140  17.161  2.2541 -0.4505 -0.9942
  117TMC2    C1 1816   3.662   0.809  14.234 -0.3576  0.2062  0.0771
  117TMC2    C2 1817   3.780   0.765  14.288  0.2936 -0.4838  0.5023
  117TMC2    C3 1818   3.869   0.868  14.309 -0.1633  0.1191 -1.0126
  117TMC2    C4 1819   3.622   0.941  14.201 -0.0114  0.1589  0.4771
  117TMC2    C5 1820   3.723   1.032  14.221  0.6936 -0.4352  0.4000
  117TMC2    C6 1821   3.836   0.998  14.281 -0.1752 -0.5530  0.6371
  117TMC2     C 1822   3.571   0.704  14.198  0.3841 -0.3825 -0.3772
  117TMC2     O 1823   3.567   0.596  14.251 -0.0640  0.3179 -0.4803
  117TMC2     H 1824   3.813   0.663  14.301  1.5763 -0.2292 -0.6891
  117TMC2    H1 1825   3.523   0.964  14.162 -0.8671 -1.7754  1.5098
  117TMC2    H2 1826   3.915   1.070  14.301  0.2064 -0.5727 -0.8078
  117TMC2    C7 1827   3.692   1.177  14.197 -0.3484 -0.7718 -0.5259
  117TMC2    C8 1828   4.002   0.826  14.354 -0.5203 -0.1856 -0.0469
  117TMC2    O1 1829   3.771   1.253  14.243 -0.2587 -0.0854  0.0865
  117TMC2    O2 1830   4.052   0.719  14.321 -0.1208  0.5355  0.8560
  117TMC2    O5 1831   4.023   0.892  14.471 -0.5213 -0.0901  0.0788
  117TMC2    H5 1832   3.966   0.971  14.476 -0.8305 -0.2690 -0.6589
  118MPD2     C 1833   3.441   1.311  13.966 -0.0731 -0.4772  0.1260
  118MPD2    C1 1834   3.529   1.316  14.072  0.1955 -0.4368 -0.1025
  118MPD2    C2 1835   3.538   1.425  14.156 -0.3994 -0.1734 -0.3693
  118MPD2    C3 1836   3.462   1.534  14.126  0.2037  0.0854 -0.3559
  118MPD2    C4 1837   3.386   1.540  14.012 -0.2275  0.4936 -0.4330
  118MPD2    C5 1838   3.382   1.428  13.936 -0.6142  0.7150 -0.6237
  118MPD2     H 1839   3.590   1.417  14.250 -1.1155  0.2983  0.0729
  118MPD2    H1 1840   3.325   1.624  13.980  0.6388  0.5766 -1.8957
  118MPD2    H2 1841   3.411   1.220  13.915  2.2706 -1.3235  0.2587
  118MPD2    H3 1842   3.323   1.433  13.845  0.4065 -1.8873 -1.4313
  118MPD2     N 1843   3.449   1.645  14.213 -0.5361 -0.5582 -0.1647
  118MPD2    H5 1844   3.394   1.726  14.186  0.2236  0.9452  2.8516
  118MPD2    N1 1845   3.580   1.197  14.114  0.1934  1.3630  0.7442
  118MPD2    H7 1846   3.539   1.119  14.061  3.0739  0.3194  0.0565
  119TMC2    C1 1847   1.322   2.290  13.107 -0.2001 -0.6259 -0.0265
  119TMC2    C2 1848   1.311   2.240  12.980  0.5497 -0.0836  0.3966
  119TMC2    C3 1849   1.185   2.185  12.942  0.3916  0.2088 -0.1696
  119TMC2    C4 1850   1.237   2.243  13.199 -0.0517  0.4845  0.6797
  119TMC2    C5 1851   1.120   2.175  13.168 -1.0875 -0.7817  0.1157
  119TMC2    C6 1852   1.083   2.153  13.035  0.2539  0.0823  0.1127
  119TMC2     C 1853   1.434   2.364  13.150 -0.5221  1.1999  0.4651
  119TMC2     O 1854   1.410   2.469  13.212  0.3353 -0.0245 -0.0879
  119TMC2     H 1855   1.379   2.275  12.903  0.5041 -1.2161 -0.1563
  119TMC2    H1 1856   1.251   2.269  13.303  2.0997 -0.1716  0.5573
  119TMC2    H2 1857   0.992   2.101  13.007 -0.7715 -0.0946  3.7105
  119TMC2    C7 1858   1.040   2.117  13.273 -0.3601 -0.2055 -0.4031
  119TMC2    C8 1859   1.170   2.134  12.810 -0.0487  0.6840 -1.2189
  119TMC2    O1 1860   0.925   2.087  13.239 -0.4652 -0.0042  0.2903
  119TMC2    O2 1861   1.265   2.128  12.733  0.4395  0.3567 -0.0146
  119TMC2    O5 1862   1.042   2.169  12.777 -0.1942  0.1362 -0.2220
  119TMC2    H5 1863   0.983   2.207  12.846 -1.4562  0.3066 -1.3637
  120MPD2     C 1864   1.907   2.548  13.070 -0.1433  0.4699 -0.1955
  120MPD2    C1 1865   1.820   2.570  13.175 -0.0686  0.1515  0.4759
  120MPD2    C2 1866   1.699   2.501  13.178 -0.3959  0.3466 -0.3429
  120MPD2    C3 1867   1.670   2.408  13.082  0.2460  0.6596 -0.2140
  120MPD2    C4 1868   1.763   2.382  12.981 -0.0308 -0.9041  0.6571
  120MPD2    C5 1869   1.882   2.449  12.981 -0.2909  0.5073  0.6186
  120MPD2     H 1870   1.623   2.529  13.249 -1.7174 -2.0726 -0.8080
  120MPD2    H1 1871   1.742   2.308  12.905 -0.0497 -0.0166 -0.1970
  120MPD2    H2 1872   1.997   2.607  13.058 -0.7186  1.5614  0.8555
  120MPD2    H3 1873   1.935   2.441  12.886 -2.6595 -1.1128 -0.5605
  120MPD2     N 1874   1.548   2.342  13.076 -0.1316  0.0829  0.3450
  120MPD2    H5 1875   1.554   2.266  13.009  2.6445  0.2521  0.4023
  120MPD2    N1 1876   1.848   2.677  13.259 -0.3863 -0.6310 -0.7759
  120MPD2    H7 1877   1.899   2.755  13.217  0.2694 -0.8276 -0.3353
  121TMC2    C1 1878   3.456   3.794  14.564  0.0795  0.1442  0.1256
  121TMC2    C2 1879   3.358   3.739  14.639 -0.5504  0.3750  0.3826
  121TMC2    C3 1880   3.231   3.783  14.627  0.2781 -0.1094  0.7050
  121TMC2    C4 1881   3.429   3.908  14.487 -0.0577 -0.6579  0.5292
  121TMC2    C5 1882   3.298   3.947  14.469 -0.8125  0.4404 -0.1526
  121TMC2    C6 1883   3.199   3.886  14.541  0.2043 -0.0020 -0.8538
  121TMC2     C 1884   3.562   3.707  14.521  0.3457  0.0581 -0.1373
  121TMC2     O 1885   3.593   3.611  14.597  0.1520  1.1655  0.0006
  121TMC2     H 1886   3.376   3.653  14.702 -0.0995  0.6827  0.6680
  121TMC2    H1 1887   3.503   3.965  14.432 -0.7365  2.1332  2.5205
  121TMC2    H2 1888   3.096   3.906  14.515  0.3689  0.6258 -1.0372
  121TMC2    C7 1889   3.274   4.028  14.352  0.4753 -0.1447  0.2932
  121TMC2    C8 1890   3.127   3.766  14.731 -1.0682  0.0714 -0.4367
  121TMC2    O1 1891   3.373   4.076  14.291  0.5957  0.2003  0.0640
  121TMC2    O2 1892   3.013   3.733  14.698  0.0802 -0.0226 -0.2511
  121TMC2    O5 1893   3.202   3.714  14.828 -0.0448 -0.3535 -0.0945
  121TMC2    H5 1894   3.284   3.765  14.846  0.5399 -0.5123 -2.3020
  122MPD2     C 1895   3.750   3.563  14.340 -0.4089 -0.3728  0.0714
  122MPD2    C1 1896   3.653   3.650  14.299 -0.0787  1.1038  0.0218
  122MPD2    C2 1897   3.646   3.672  14.162  0.4935  0.0597  0.1760
  122MPD2    C3 1898   3.745   3.621  14.076 -0.0741  0.1699  0.4932
  122MPD2    C4 1899   3.836   3.536  14.118 -0.5971 -0.2309  0.1402
  122MPD2    C5 1900   3.840   3.508  14.252  0.3053 -0.4182 -0.3644
  122MPD2     H 1901   3.575   3.742  14.120 -1.5941  0.5026  4.4593
  122MPD2    H1 1902   3.894   3.483  14.044 -1.7059  0.0791 -0.9499
  122MPD2    H2 1903   3.767   3.532  14.443  1.7847 -2.4648 -0.9267
  122MPD2    H3 1904   3.899   3.427  14.293  0.6992 -0.6059 -1.3243
  122MPD2     N 1905   3.758   3.655  13.941  0.1189  0.5320  0.7082
  122MPD2    H5 1906   3.838   3.618  13.890  0.0198  0.6946  0.4368
  122MPD2    N1 1907   3.574   3.729  14.384 -0.4977 -1.0217  0.7418
  122MPD2    H7 1908   3.511   3.797  14.344  2.0257  0.0762 -1.3606
  123TMC2    C1 1909   1.811   1.712   9.801  0.1026  0.4806  0.0442
  123TMC2    C2 1910   1.816   1.761   9.673 -0.0623  0.5920 -0.0205
  123TMC2    C3 1911   1.785   1.678   9.575 -0.0555 -0.2407  0.5655
  123TMC2    C4 1912   1.776   1.588   9.834  0.0294  0.4238 -0.3089
  123TMC2    C5 1913   1.737   1.509   9.732 -0.1723 -0.2226 -0.0398
  123TMC2    C6 1914   1.741   1.553   9.601  0.2985 -0.0799 -0.6554
  123TMC2     C 1915   1.854   1.809   9.901  0.2228 -0.3687  0.3357
  123TMC2     O 1916   1.912   1.910   9.862  0.6178 -0.1513  0.2354
  123TMC2     H 1917   1.839   1.865   9.652 -1.8479  1.2788  1.4318
  123TMC2    H1 1918   1.787   1.547   9.934  0.1902 -0.0438 -0.5222
  123TMC2    H2 1919   1.718   1.489   9.516  1.2863 -1.4486  0.1120
  123TMC2    C7 1920   1.704   1.370   9.770 -0.2197 -0.4747 -0.7404
  123TMC2    C8 1921   1.735   1.738   9.462 -0.0117 -0.1459 -0.4941
  123TMC2    O1 1922   1.736   1.331   9.884  0.0745 -0.1250  0.3850
  123TMC2    O2 1923   1.717   1.670   9.362  0.2452 -0.0954  0.0430
  123TMC2    O5 1924   1.641   1.813   9.512 -0.2480  0.1067 -0.3652
  123TMC2    H5 1925   1.648   1.817   9.610  0.2720  2.3188 -0.5121
  124MPD2     C 1926   1.823   1.938  10.396  0.4821  0.3272 -0.1406
  124MPD2    C1 1927   1.793   1.806  10.386  0.2168  0.8969 -0.3616
  124MPD2    C2 1928   1.797   1.746  10.262 -0.2288  0.1616  0.1840
  124MPD2    C3 1929   1.821   1.822  10.148 -0.2594 -0.7127 -0.4611
  124MPD2    C4 1930   1.840   1.958  10.158  0.4373 -0.1464 -0.3380
  124MPD2    C5 1931   1.837   2.012  10.290 -0.1704 -1.1770 -0.3904
  124MPD2     H 1932   1.768   1.642  10.248  2.8208 -0.8082  1.2239
  124MPD2    H1 1933   1.854   2.032  10.079 -1.3947 -1.0218 -1.4573
  124MPD2    H2 1934   1.828   1.991  10.490  2.3050  1.1165 -0.7021
  124MPD2    H3 1935   1.868   2.115  10.307  0.1833 -1.4396  0.5212
  124MPD2     N 1936   1.818   1.762  10.027  0.5443  0.4868 -0.5915
  124MPD2    H5 1937   1.775   1.670  10.028  1.8690 -0.1054  1.7622
  124MPD2    N1 1938   1.767   1.730  10.505  0.5721  0.2915 -0.0820
  124MPD2    H7 1939   1.746   1.787  10.587 -1.8896 -1.0338  0.2169
  125TMC2    C1 1940   1.273   3.070   9.356  0.9149 -0.4168  0.4176
  125TMC2    C2 1941   1.203   3.173   9.309  0.0349  0.0800 -0.3255
  125TMC2    C3 1942   1.255   3.299   9.287 -0.3326  0.4554  0.1604
  125TMC2    C4 1943   1.409   3.089   9.392 -0.1732  0.1659 -0.5354
  125TMC2    C5 1944   1.464   3.210   9.356  0.0399  0.3354  0.5300
  125TMC2    C6 1945   1.387   3.318   9.305 -0.1930 -0.4084 -0.6545
  125TMC2     C 1946   1.201   2.943   9.371 -0.3331  0.4807 -0.5027
  125TMC2     O 1947   1.083   2.943   9.389 -0.3143  0.0083  0.7214
  125TMC2     H 1948   1.096   3.160   9.296 -0.0672 -0.9115  1.4560
  125TMC2    H1 1949   1.471   3.004   9.418  0.3343  0.6262 -0.2382
  125TMC2    H2 1950   1.429   3.416   9.286 -2.0496  0.4016 -0.6484
  125TMC2    C7 1951   1.604   3.225   9.382  0.9361 -0.0594  0.3322
  125TMC2    C8 1952   1.178   3.410   9.251 -0.2663 -0.1085  0.3855
  125TMC2    O1 1953   1.646   3.138   9.459 -0.5232  0.6416 -0.0874
  125TMC2    O2 1954   1.230   3.482   9.167 -0.1113 -0.3194  0.4034
  125TMC2    O5 1955   1.052   3.406   9.298 -0.3955  0.6448 -0.1800
  125TMC2    H5 1956   1.033   3.331   9.357  2.1407 -0.2013 -0.4115
  126MPD1     C 1957   1.196   2.431   9.477  0.0668  0.4728  0.1262
  126MPD1    C1 1958   1.331   2.475   9.461 -0.5184  0.2440  0.4272
  126MPD1    C2 1959   1.344   2.608   9.426 -0.1892  0.4625 -0.0691
  126MPD1    C3 1960   1.248   2.704   9.423  0.4828 -0.3472 -0.8863
  126MPD1    C4 1961   1.118   2.667   9.461  0.3718 -0.4610 -0.4495
  126MPD1    C5 1962   1.101   2.532   9.487 -0.9883 -0.3583 -0.3336
  126MPD1     H 1963   1.443   2.638   9.396 -0.3312 -0.8269 -1.8701
  126MPD1    H1 1964   1.038   2.739   9.470  1.2083  0.2556  1.1852
  126MPD1    H2 1965   1.170   2.328   9.500  2.0559 -0.1974 -0.6433
  126MPD1    H3 1966   1.003   2.497   9.516 -0.4374 -2.6391 -1.1840
  126MPD1     N 1967   1.287   2.834   9.382 -0.2746  0.4533 -0.2041
  126MPD1    H5 1968   1.384   2.850   9.356 -0.3987 -1.7135 -2.0718
  126MPD1    N1 1969   1.440   2.387   9.450 -0.3831 -0.2300 -0.6041
  126MPD1    H6 1970   1.530   2.434   9.456 -0.9288  0.8261 -0.5459
  126MPD1    H7 1971   1.444   2.309   9.514  0.1144  1.2174  1.1319
  127TMC2    C1 1972   2.797   2.538   9.936 -1.0274 -0.1087 -0.4937
  127TMC2    C2 1973   2.890   2.520  10.029  0.1171  0.5227 -0.1268
  127TMC2    C3 1974   2.864   2.415  10.115  0.5191  0.8557  0.6931
  127TMC2    C4 1975   2.695   2.454   9.909 -0.1151 -0.5731 -0.2735
  127TMC2    C5 1976   2.696   2.338   9.983 -0.9222  0.7563  0.0146
  127TMC2    C6 1977   2.764   2.326  10.096  0.1399  0.9193  0.8343
  127TMC2     C 1978   2.791   2.663   9.864 -0.2433  0.6511  0.3757
  127TMC2     O 1979   2.901   2.721   9.845 -0.1296  0.1024 -0.2450
  127TMC2     H 1980   2.956   2.602  10.056  0.0690  0.4354  0.2487
  127TMC2    H1 1981   2.652   2.457   9.810  1.8106  0.3846 -1.0891
  127TMC2    H2 1982   2.764   2.235  10.155  0.5545  0.6106  0.3603
  127TMC2    C7 1983   2.563   2.271   9.975  0.1917 -0.0371 -0.0225
  127TMC2    C8 1984   2.947   2.378  10.227 -0.2105  0.0462 -0.1757
  127TMC2    O1 1985   2.493   2.311   9.881 -0.2913 -0.3133 -0.7283
  127TMC2    O2 1986   2.914   2.307  10.321  0.7542  0.4833  0.3797
  127TMC2    O5 1987   3.061   2.438  10.221  0.1144 -0.3736 -0.0178
  127TMC2    H5 1988   3.085   2.461  10.129 -1.3495 -1.7218 -0.7400
  128MPD2     C 1989   2.496   2.862   9.808 -0.1602 -0.6834 -0.6240
  128MPD2    C1 1990   2.628   2.827   9.795 -0.4455 -0.1350 -0.4428
  128MPD2    C2 1991   2.721   2.922   9.743 -0.6835 -0.2949 -0.6331
  128MPD2    C3 1992   2.677   3.052   9.720  0.0884  0.7416 -0.6789
  128MPD2    C4 1993   2.540   3.083   9.735 -0.2897  0.0312  0.0077
  128MPD2    C5 1994   2.450   2.990   9.780  0.1685  0.6786 -0.2287
  128MPD2     H 1995   2.824   2.889   9.745  0.3027  2.6505 -2.6334
  128MPD2    H1 1996   2.491   3.179   9.720 -1.1599 -0.3544  0.3976
  128MPD2    H2 1997   2.418   2.804   9.856  0.2883 -1.8158 -1.2894
  128MPD2    H3 1998   2.344   3.011   9.790 -0.1665 -0.7038 -0.8178
  128MPD2     N 1999   2.779   3.146   9.692 -0.0582  1.0488  0.3373
  128MPD2    H5 2000   2.875   3.113   9.688 -0.0584  0.9523  1.1517
  128MPD2    N1 2001   2.666   2.708   9.864  0.3945 -1.4208 -0.4471
  128MPD2    H7 2002   2.596   2.651   9.912  1.6345 -1.9260  0.7735
  129TMC2    C1 2003   2.568   2.425   1.399 -0.1091  0.1900  0.2947
  129TMC2    C2 2004   2.682   2.425   1.315  0.3785 -0.1265  0.0303
  129TMC2    C3 2005   2.716   2.303   1.261 -0.4824 -0.2379 -0.5157
  129TMC2    C4 2006   2.484   2.315   1.411 -0.6731 -0.4145 -0.1724
  129TMC2    C5 2007   2.532   2.195   1.362  0.1457  0.3170 -0.1505
  129TMC2    C6 2008   2.647   2.185   1.286 -0.4383  0.1786 -0.2321
  129TMC2     C 2009   2.513   2.548   1.439 -0.2411 -0.1737  0.2508
  129TMC2     O 2010   2.397   2.548   1.484 -0.2539 -0.2196  0.7458
  129TMC2     H 2011   2.751   2.509   1.311 -0.4113  0.5676  1.0230
  129TMC2    H1 2012   2.395   2.320   1.473  0.7868  0.3485  1.8547
  129TMC2    H2 2013   2.686   2.093   1.245 -2.0692 -1.3012  1.5555
  129TMC2    C7 2014   2.431   2.085   1.365  0.3448  0.0234  0.3841
  129TMC2    C8 2015   2.851   2.287   1.233 -0.0498  0.5079  0.2765
  129TMC2    O1 2016   2.315   2.108   1.383  0.5702  0.4155 -0.1259
  129TMC2    O2 2017   2.921   2.358   1.158  0.3693 -0.0785 -0.0791
  129TMC2    O5 2018   2.899   2.221   1.336  0.3293 -0.2032  0.0343
  129TMC2    H5 2019   2.831   2.189   1.400  1.7604 -1.3633  0.9793
  130MPD2     C 2020   2.442   2.828   1.398  0.0737 -0.2235 -0.0480
  130MPD2    C1 2021   2.572   2.786   1.431 -0.1942 -0.0114 -0.1926
  130MPD2    C2 2022   2.663   2.883   1.459 -0.2226 -0.0066  0.1743
  130MPD2    C3 2023   2.638   3.021   1.455 -0.0219 -0.2410  0.5964
  130MPD2    C4 2024   2.516   3.058   1.407  0.3106  0.3513 -0.2640
  130MPD2    C5 2025   2.414   2.965   1.385  0.2292  0.3914  0.0539
  130MPD2     H 2026   2.766   2.850   1.473 -0.0832  0.9726  1.3252
  130MPD2    H1 2027   2.495   3.162   1.386  0.0167 -0.1010 -2.2914
  130MPD2    H2 2028   2.369   2.749   1.380  0.5999 -0.1851 -2.3903
  130MPD2    H3 2029   2.321   2.997   1.339 -1.4139 -1.3804  2.1215
  130MPD2     N 2030   2.729   3.124   1.479  0.0281 -0.4815 -0.2073
  130MPD2    H5 2031   2.700   3.218   1.455 -0.3829 -0.5232  0.1104
  130MPD2    N1 2032   2.604   2.650   1.439  0.2224  0.2786  0.1748
  130MPD2    H7 2033   2.701   2.622   1.445 -0.0827 -0.3521  1.9831
  131TMC2    C1 2034   1.396   1.612   9.901 -0.0220  0.3220  0.0998
  131TMC2    C2 2035   1.267   1.598   9.851 -0.6956 -0.6076  0.0567
  131TMC2    C3 2036   1.206   1.702   9.788  0.0419  0.0886 -0.1198
  131TMC2    C4 2037   1.455   1.737   9.874 -0.2543 -0.2951  0.1427
  131TMC2    C5 2038   1.390   1.840   9.810  0.0936  0.3607 -0.3318
  131TMC2    C6 2039   1.260   1.828   9.778 -0.1457 -0.9856  0.5853
  131TMC2     C 2040   1.451   1.522   9.995 -0.2617  0.0900  0.6047
  131TMC2     O 2041   1.554   1.555  10.053 -0.3329  0.5589 -0.0614
  131TMC2     H 2042   1.201   1.525   9.897 -0.0685 -2.0975 -1.4198
  131TMC2    H1 2043   1.560   1.754   9.896  0.5101 -2.0463 -2.1150
  131TMC2    H2 2044   1.213   1.904   9.717 -1.5596 -0.2946  2.5260
  131TMC2    C7 2045   1.475   1.953   9.774 -0.7619  0.6798  0.5332
  131TMC2    C8 2046   1.088   1.680   9.711 -0.8712 -0.3839 -0.4231
  131TMC2    O1 2047   1.595   1.926   9.762 -0.3393  0.2351 -0.4132
  131TMC2    O2 2048   1.018   1.763   9.653  0.1897 -0.1288 -0.4465
  131TMC2    O5 2049   1.103   1.556   9.664  0.4893  0.4593  0.0274
  131TMC2    H5 2050   1.171   1.511   9.719  0.2973 -1.5770 -1.3974
  132MPD2     C 2051   1.311   1.208  10.117  0.1883 -0.4890  0.5689
  132MPD2    C1 2052   1.388   1.321  10.122  0.5169 -0.0815  0.6791
  132MPD2    C2 2053   1.467   1.347  10.232 -0.0303  0.1466 -1.2425
  132MPD2    C3 2054   1.459   1.265  10.341 -0.4921 -0.3024  0.4607
  132MPD2    C4 2055   1.388   1.148  10.341  0.1917 -0.6398 -0.1401
  132MPD2    C5 2056   1.308   1.124  10.226  0.1044 -0.5233 -1.0310
  132MPD2     H 2057   1.532   1.434  10.236 -0.8867  0.7269  0.2121
  132MPD2    H1 2058   1.368   1.081  10.424 -1.9920  0.6415  0.3763
  132MPD2    H2 2059   1.259   1.174  10.028 -0.4242 -0.4579  0.9104
  132MPD2    H3 2060   1.250   1.032  10.224 -0.0668 -0.4343  0.1016
  132MPD2     N 2061   1.527   1.312  10.455  0.4209 -0.6073  0.5107
  132MPD2    H5 2062   1.593   1.387  10.436 -1.7767  2.0616  3.4956
  132MPD2    N1 2063   1.374   1.411  10.016 -0.8753 -0.4100  0.1061
  132MPD2    H7 2064   1.305   1.374   9.952  0.4835 -1.2171 -0.8970
  133TMC2    C1 2065   0.312   1.181   9.972 -0.0964  0.1586 -0.5348
  133TMC2    C2 2066   0.238   1.170  10.086 -0.4347  0.0557  0.1127
  133TMC2    C3 2067   0.234   1.054  10.146  0.4283 -0.4683  0.3925
  133TMC2    C4 2068   0.374   1.072   9.920  0.0982  0.2161  0.0890
  133TMC2    C5 2069   0.371   0.962   9.996 -0.4002  0.1968 -0.2183
  133TMC2    C6 2070   0.299   0.938  10.107  0.0416 -0.2089  0.5564
  133TMC2     C 2071   0.349   1.310   9.922 -0.1309  0.2442 -0.1881
  133TMC2     O 2072   0.289   1.405   9.967  0.2711 -0.3456 -0.1095
  133TMC2     H 2073   0.180   1.254  10.121 -2.0938 -0.9751 -0.1835
  133TMC2    H1 2074   0.430   1.069   9.828 -0.0213  1.5824 -0.0277
  133TMC2    H2 2075   0.296   0.838  10.147  0.0817 -0.6048 -0.4239
  133TMC2    C7 2076   0.464   0.857   9.955 -0.3452 -0.3473  0.4945
  133TMC2    C8 2077   0.130   1.043  10.248  0.4957  0.6784 -0.0494
  133TMC2    O1 2078   0.500   0.847   9.838  0.5256 -0.1185  0.0696
  133TMC2    O2 2079   0.021   1.101  10.239 -0.3176 -0.6683 -0.0192
  133TMC2    O5 2080   0.155   0.922  10.314  0.0216  0.2485  0.3355
  133TMC2    H5 2081   0.249   0.915  10.342 -0.4931 -0.1235  1.9788
  134MPD2     C 2082   0.649   1.434   9.761 -0.5240  0.3440  0.2573
  134MPD2    C1 2083   0.522   1.431   9.796 -0.0322  0.5548  0.0731
  134MPD2    C2 2084   0.440   1.533   9.755  0.1126  0.0949 -0.6012
  134MPD2    C3 2085   0.497   1.641   9.681  0.1824 -0.5273  0.4338
  134MPD2    C4 2086   0.635   1.647   9.660  0.3292  0.4277  0.9314
  134MPD2    C5 2087   0.708   1.538   9.702 -0.0572 -0.6201  0.6986
  134MPD2     H 2088   0.338   1.543   9.789  1.0830 -1.9283  2.9719
  134MPD2    H1 2089   0.681   1.737   9.620  0.0262  0.3548  0.4282
  134MPD2    H2 2090   0.712   1.348   9.778 -1.0207 -0.5422 -2.3318
  134MPD2    H3 2091   0.814   1.534   9.679  0.1480  0.6564  1.4045
  134MPD2     N 2092   0.426   1.758   9.633 -0.4700 -0.6940 -0.4796
  134MPD2    H5 2093   0.478   1.839   9.601 -1.4908 -0.3815 -1.3219
  134MPD2    N1 2094   0.474   1.315   9.859 -0.1357  0.2125 -0.1061
  134MPD2    H7 2095   0.516   1.224   9.841 -1.2518  0.1368 -2.2910
  135TMC2    C1 2096   1.929   3.568   8.627  0.0192 -0.3800 -0.4154
  135TMC2    C2 2097   1.867   3.613   8.512  0.3148  0.2911  0.1735
  135TMC2    C3 2098   1.740   3.577   8.494 -0.1520 -0.2017 -0.7657
  135TMC2    C4 2099   1.864   3.500   8.723  0.1800  0.1140 -0.3509
  135TMC2    C5 2100   1.728   3.487   8.710 -0.0188 -0.7539  0.0310
  135TMC2    C6 2101   1.663   3.514   8.593  0.0233  0.3820  0.2207
  135TMC2     C 2102   2.065   3.603   8.653  0.7325 -0.2597  0.4008
  135TMC2     O 2103   2.096   3.710   8.604 -0.6596 -0.5184  0.1032
  135TMC2     H 2104   1.920   3.669   8.435 -1.9523  1.0953 -0.7880
  135TMC2    H1 2105   1.904   3.469   8.819  0.1681  1.0496 -0.0476
  135TMC2    H2 2106   1.558   3.507   8.569  0.4764 -1.2860 -1.2807
  135TMC2    C7 2107   1.662   3.382   8.788 -0.4919  0.3625  0.2941
  135TMC2    C8 2108   1.683   3.576   8.362 -0.0007 -0.6857 -0.4280
  135TMC2    O1 2109   1.738   3.326   8.868 -0.0133 -0.2543  0.6531
  135TMC2    O2 2110   1.727   3.646   8.276  0.4606  0.2076 -0.4760
  135TMC2    O5 2111   1.667   3.446   8.335  0.1924 -0.6282  0.5908
  135TMC2    H5 2112   1.664   3.386   8.412  3.0263 -0.1569  1.0780
  136MPD2     C 2113   2.359   3.572   8.623 -0.0912  0.4480  0.3756
  136MPD2    C1 2114   2.282   3.519   8.723  0.4533 -0.1427  0.0025
  136MPD2    C2 2115   2.346   3.454   8.827  0.4577  0.0908  0.4703
  136MPD2    C3 2116   2.485   3.451   8.829  0.6881 -0.2548  0.4258
  136MPD2    C4 2117   2.561   3.508   8.730 -0.1816 -0.7251 -0.7248
  136MPD2    C5 2118   2.491   3.561   8.624 -0.2953  0.3329 -0.4919
  136MPD2     H 2119   2.291   3.428   8.916 -0.1379 -1.8503 -0.4723
  136MPD2    H1 2120   2.669   3.515   8.737 -0.1903 -0.6054 -0.7155
  136MPD2    H2 2121   2.322   3.619   8.533 -0.0093  1.3236  0.7982
  136MPD2    H3 2122   2.555   3.598   8.545 -0.2383  3.8946  1.2339
  136MPD2     N 2123   2.552   3.399   8.946  0.3578 -0.1883  0.7411
  136MPD2    H5 2124   2.653   3.406   8.945  0.0564  3.7352 -2.2211
  136MPD2    N1 2125   2.145   3.511   8.723 -0.3498 -0.1906  0.0078
  136MPD2    H7 2126   2.104   3.424   8.755 -0.2118 -0.3858 -0.3386
  137TMC2    C1 2127   1.920   3.822   9.746 -0.5727  0.1508 -0.1063
  137TMC2    C2 2128   2.033   3.747   9.726 -0.0632  0.1941 -0.0634
  137TMC2    C3 2129   2.000   3.615   9.703 -0.0808  0.1372 -0.3099
  137TMC2    C4 2130   1.795   3.771   9.755 -0.2133 -0.0212  0.2590
  137TMC2    C5 2131   1.776   3.634   9.748 -0.0741  0.7484 -0.0625
  137TMC2    C6 2132   1.876   3.555   9.702  0.7213  0.7717  0.4789
  137TMC2     C 2133   1.930   3.956   9.700  0.2881 -0.0663 -0.1801
  137TMC2     O 2134   2.038   4.018   9.699 -0.4884  0.4843  0.1080
  137TMC2     H 2135   2.132   3.791   9.733 -0.5402  1.5424 -1.6319
  137TMC2    H1 2136   1.714   3.831   9.794 -0.9206 -0.1273 -1.0634
  137TMC2    H2 2137   1.864   3.448   9.693 -0.7683  1.2768 -3.6217
  137TMC2    C7 2138   1.648   3.606   9.689 -0.0630  0.3635 -0.4257
  137TMC2    C8 2139   2.109   3.521   9.688  0.4396 -0.2070 -0.1498
  137TMC2    O1 2140   1.591   3.709   9.653  0.5806 -0.5259 -0.7159
  137TMC2    O2 2141   2.106   3.399   9.711  0.0904  0.1526 -0.1783
  137TMC2    O5 2142   2.197   3.579   9.607  0.1647  0.1351 -0.0554
  137TMC2    H5 2143   2.145   3.652   9.567 -0.9734 -1.1057 -0.8462
  138MPD2     C 2144   1.868   4.230   9.605  0.2288  0.0902  0.5538
  138MPD2    C1 2145   1.793   4.113   9.575 -0.3919 -0.5878  0.0649
  138MPD2    C2 2146   1.684   4.120   9.489  0.0557  0.1598 -0.1524
  138MPD2    C3 2147   1.645   4.242   9.446  0.1898  0.3629  0.8524
  138MPD2    C4 2148   1.721   4.354   9.478  0.4697  0.4154 -0.5512
  138MPD2    C5 2149   1.826   4.346   9.558  0.1814 -0.0398 -0.2439
  138MPD2     H 2150   1.627   4.033   9.460  0.3693 -0.2025  0.3176
  138MPD2    H1 2151   1.687   4.455   9.458  1.5730  1.4239  2.7192
  138MPD2    H2 2152   1.958   4.227   9.665  1.2951 -0.2458 -1.0769
  138MPD2    H3 2153   1.884   4.435   9.581 -0.3754 -0.2386  1.9398
  138MPD2     N 2154   1.530   4.249   9.362 -0.7424 -0.0948  0.9679
  138MPD2    H5 2155   1.483   4.163   9.336 -1.1904  0.7370 -0.9542
  138MPD2    N1 2156   1.813   3.992   9.643  0.6208  0.1036  0.2819
  138MPD2    H7 2157   1.743   3.921   9.623  1.4999 -0.1692 -1.7643
  139TMC2    C1 2158   4.065   1.059  13.836 -0.0153  0.0510 -0.5222
  139TMC2    C2 2159   4.197   1.029  13.787 -0.5928  0.1133 -0.7036
  139TMC2    C3 2160   4.276   1.127  13.743 -0.4603  0.4474  0.3506
  139TMC2    C4 2161   4.010   1.178  13.813 -0.1991 -0.1297 -0.8890
  139TMC2    C5 2162   4.086   1.274  13.755  0.2863 -0.0063 -0.6881
  139TMC2    C6 2163   4.222   1.250  13.720  0.4098 -0.5800  0.2152
  139TMC2     C 2164   3.972   0.964  13.897 -0.5799  0.3749  0.7617
  139TMC2     O 2165   3.852   0.993  13.877  0.1080 -0.0894 -0.6852
  139TMC2     H 2166   4.237   0.928  13.786 -3.5809 -1.0760 -0.5508
  139TMC2    H1 2167   3.913   1.205  13.854 -1.3990 -2.5471 -2.1645
  139TMC2    H2 2168   4.288   1.333  13.698 -0.2038  0.1132  0.9600
  139TMC2    C7 2169   4.008   1.382  13.700  0.4252 -1.2888 -0.3819
  139TMC2    C8 2170   4.428   1.114  13.739  0.3746 -0.4375  0.0323
  139TMC2    O1 2171   3.896   1.412  13.739 -0.0660  0.0631  0.9287
  139TMC2    O2 2172   4.500   1.191  13.800 -0.5720  0.2883  0.2854
  139TMC2    O5 2173   4.460   1.007  13.667 -0.0898  0.2723  0.6948
  139TMC2    H5 2174   4.384   0.984  13.610 -1.5339  1.5921  2.0735
  140MPD2     C 2175   4.060   0.627  14.007 -0.6886 -0.2535 -0.3677
  140MPD2    C1 2176   3.982   0.729  13.970  0.0199  0.4528 -0.7117
  140MPD2    C2 2177   3.856   0.694  13.921  0.2713  0.2424  0.6618
  140MPD2    C3 2178   3.807   0.562  13.925 -0.1822  0.5278 -0.2208
  140MPD2    C4 2179   3.888   0.461  13.981 -0.2333 -0.3115  0.1342
  140MPD2    C5 2180   4.019   0.496  14.017 -0.0368 -0.5160 -0.6657
  140MPD2     H 2181   3.787   0.770  13.887 -0.9901 -1.3917 -0.4396
  140MPD2    H1 2182   3.858   0.357  13.984  0.6103 -0.5127  1.6099
  140MPD2    H2 2183   4.157   0.636  14.055 -0.4410  0.0662 -0.9314
  140MPD2    H3 2184   4.094   0.427  14.054  0.2644  0.2130  0.0768
  140MPD2     N 2185   3.689   0.534  13.855  0.4971 -0.1822 -0.5323
  140MPD2    H5 2186   3.650   0.614  13.804 -0.0386 -0.1152 -0.0226
  140MPD2    N1 2187   4.037   0.855  13.959 -0.4311 -0.1960 -0.4183
  140MPD2    H7 2188   4.129   0.867  13.999 -1.2007  0.1224  1.2472
  141TMC2    C1 2189   3.738   2.948  14.469  0.1817  0.8382 -0.2945
  141TMC2    C2 2190   3.723   2.847  14.559  0.1320 -0.3830 -0.8772
  141TMC2    C3 2191   3.758   2.868  14.696 -0.1557 -0.0563 -0.4222
  141TMC2    C4 2192   3.749   3.078  14.510 -0.1943 -0.2093 -0.3408
  141TMC2    C5 2193   3.775   3.102  14.647 -0.4523 -0.2820 -0.1152
  141TMC2    C6 2194   3.772   3.001  14.739  0.2286  0.3428  0.5306
  141TMC2     C 2195   3.682   2.936  14.341  0.8595  0.0558 -0.1212
  141TMC2     O 2196   3.605   3.026  14.306  0.2290 -0.1634 -0.7521
  141TMC2     H 2197   3.695   2.749  14.523 -0.3372  0.2678 -2.2819
  141TMC2    H1 2198   3.769   3.151  14.433  2.1018 -0.7050 -0.2195
  141TMC2    H2 2199   3.801   3.022  14.841 -1.6078 -1.1711  1.3794
  141TMC2    C7 2200   3.837   3.216  14.696 -0.2479  0.1572  0.1292
  141TMC2    C8 2201   3.725   2.770  14.801 -0.6685  0.2133  0.2292
  141TMC2    O1 2202   3.810   3.251  14.810 -0.1551 -0.6509 -0.0771
  141TMC2    O2 2203   3.657   2.806  14.893  0.4713 -0.2123  0.4527
  141TMC2    O5 2204   3.717   2.648  14.740 -0.2384 -0.5053 -0.0688
  141TMC2    H5 2205   3.789   2.631  14.677 -0.6076 -1.3769 -0.2529
  142TMC2    C1 2206   1.535   0.830  10.373  0.3474  0.3932  0.1879
  142TMC2    C2 2207   1.618   0.895  10.470  0.2735 -0.2832 -0.1097
  142TMC2    C3 2208   1.736   0.959  10.431  0.7449 -0.5023  0.7326
  142TMC2    C4 2209   1.574   0.840  10.240  0.6559  0.6484  0.2485
  142TMC2    C5 2210   1.680   0.916  10.207 -0.2123 -0.0411 -0.2938
  142TMC2    C6 2211   1.770   0.965  10.297 -0.2835 -0.3360  0.5265
  142TMC2     C 2212   1.409   0.762  10.411 -0.1081 -0.0149 -0.2046
  142TMC2     O 2213   1.362   0.683  10.332  0.0914 -0.0446 -0.1527
  142TMC2     H 2214   1.591   0.894  10.575  2.3916  1.9001  0.4464
  142TMC2    H1 2215   1.495   0.803  10.176  1.3517  2.0333 -1.3936
  142TMC2    H2 2216   1.863   1.017  10.276 -2.1733  2.4679 -0.9105
  142TMC2    C7 2217   1.697   0.960  10.070  0.3293 -0.4658  0.3645
  142TMC2    C8 2218   1.798   1.067  10.515  0.4302  0.1832  0.2884
  142TMC2    O1 2219   1.781   1.045  10.057 -0.3099 -0.2090 -0.7099
  142TMC2    O2 2220   1.869   1.159  10.483  1.0705 -0.2804 -0.1745
  142TMC2    O5 2221   1.736   1.066  10.631  0.3866 -0.6774  0.1761
  142TMC2    H5 2222   1.677   0.989  10.644  0.1895 -0.3175  1.3916
  143MPD2     C 2223   1.044   0.674  10.774  0.1224 -0.0895  0.7117
  143MPD2    C1 2224   1.074   0.601  10.665  0.0403  0.5941 -0.0870
  143MPD2    C2 2225   1.181   0.646  10.581 -0.0194 -0.1106  0.0525
  143MPD2    C3 2226   1.250   0.769  10.603 -0.5427  0.3249  0.0482
  143MPD2    C4 2227   1.206   0.836  10.712 -0.1470 -0.0596 -0.0952
  143MPD2    C5 2228   1.108   0.793  10.797  0.0019  0.6544 -1.3650
  143MPD2     H 2229   1.216   0.586  10.498 -0.1211 -1.3067  0.8789
  143MPD2    H1 2230   1.251   0.930  10.744 -1.0572  0.0612  0.8309
  143MPD2    H2 2231   0.966   0.643  10.841  1.0045 -1.4535  1.1149
  143MPD2    H3 2232   1.085   0.862  10.878 -2.3147 -0.1838 -1.3067
  143MPD2     N 2233   1.358   0.818  10.532  0.5461 -0.3430 -0.5309
  143MPD2    H5 2234   1.418   0.885  10.580 -0.3779  0.8097 -1.0115
  143MPD2    N1 2235   1.005   0.478  10.645  0.4570  0.0012  0.1716
  143MPD2    H7 2236   0.950   0.454  10.727  0.9301 -0.6649  0.2917
  144TMC2    C1 2237   4.398   0.645   1.271  0.1626  1.5092  0.3618
  144TMC2    C2 2238   4.416   0.511   1.248  0.4375  0.4499 -0.7424
  144TMC2    C3 2239   4.524   0.451   1.308 -0.0103  0.1713 -0.2257
  144TMC2    C4 2240   4.478   0.718   1.356  0.2395  0.1772  0.0582
  144TMC2    C5 2241   4.577   0.645   1.416 -0.1302 -0.3718  0.0753
  144TMC2    C6 2242   4.606   0.515   1.396 -0.2178 -0.8307 -0.5723
  144TMC2     C 2243   4.288   0.705   1.202  0.7108 -0.5299 -0.0045
  144TMC2     O 2244   4.241   0.636   1.116 -0.1376 -0.3284  0.3702
  144TMC2     H 2245   4.348   0.452   1.188  2.7029 -1.2035 -1.7190
  144TMC2    H1 2246   4.462   0.825   1.351 -2.7116 -0.2118  1.4058
  144TMC2    H2 2247   4.681   0.466   1.457  0.5657  0.5960 -0.3917
  144TMC2    C7 2248   4.668   0.725   1.498  0.5198  0.5146  0.2350
  144TMC2    C8 2249   4.561   0.319   1.292 -0.4142  0.6394 -0.6918
  144TMC2    O1 2250   0.033   0.678   1.540  0.0808  0.1682  0.1568
  144TMC2    O2 2251   4.629   0.248   1.368  0.1904  0.1870 -0.2392
  144TMC2    O5 2252   4.496   0.270   1.187 -0.2231 -0.4813  0.3073
  144TMC2    H5 2253   4.470   0.338   1.121 -2.8767  0.8391  2.7068
  145MPD2     C 2254   3.856   0.954   1.171  0.2538 -0.6325 -0.4530
  145MPD2    C1 2255   3.936   0.904   1.072 -0.5314 -0.7367  0.4207
  145MPD2    C2 2256   4.059   0.851   1.116 -0.6086 -0.2725 -0.5170
  145MPD2    C3 2257   4.093   0.839   1.251  0.4503 -0.6263 -0.0454
  145MPD2    C4 2258   4.012   0.906   1.345 -0.0154 -0.3256  0.0673
  145MPD2    C5 2259   3.893   0.958   1.301 -0.2877 -0.9224 -0.0239
  145MPD2     H 2260   4.124   0.814   1.038  1.4540  1.0414  0.5623
  145MPD2    H1 2261   4.045   0.908   1.448 -1.9837  2.8866  0.6201
  145MPD2    H2 2262   3.753   0.987   1.162  1.0938  2.2353  0.4723
  145MPD2    H3 2263   3.823   0.998   1.373 -0.2308 -1.2114  0.1905
  145MPD2     N 2264   4.219   0.788   1.286  0.2411  0.0902  0.0993
  145MPD2    H5 2265   4.248   0.823   1.377 -0.3267  0.7537  0.0252
  145MPD2    N1 2266   3.890   0.898   0.934  0.5473 -0.2990 -0.7284
  145MPD2    H7 2267   3.964   0.864   0.872  1.6995 -0.3884  0.7032
  146TMC2    C1 2268   0.508   3.922  12.716 -0.1385 -0.7831  0.3648
  146TMC2    C2 2269   0.397   3.854  12.671 -0.5803 -0.2712  0.0738
  146TMC2    C3 2270   0.428   3.736  12.591 -0.2185  0.0663 -0.1890
  146TMC2    C4 2271   0.636   3.895  12.684 -0.5452 -0.1080 -0.4790
  146TMC2    C5 2272   0.655   3.793  12.597 -0.7703  0.0216 -0.1708
  146TMC2    C6 2273   0.555   3.707  12.553 -0.3470 -0.2664  0.0855
  146TMC2     C 2274   0.479   4.028  12.811  0.0003  0.2276  0.3769
  146TMC2     O 2275   0.365   4.071  12.820  0.0673 -0.7431  0.2269
  146TMC2     H 2276   0.306   3.877  12.724  0.0895  0.3915  0.9345
  146TMC2    H1 2277   0.717   3.964  12.703 -0.7865  0.0545 -0.0243
  146TMC2    H2 2278   0.578   3.618  12.496  1.7578  0.6810 -0.5332
  146TMC2    C7 2279   0.789   3.748  12.561 -0.5725 -0.4398 -0.7131
  146TMC2    C8 2280   0.324   3.631  12.612 -0.1315 -0.0024  0.0111
  146TMC2    O1 2281   0.803   3.685  12.459  0.1223  0.0037 -0.1443
  146TMC2    O2 2282   0.288   3.574  12.507  0.3137  1.0238 -0.3326
  146TMC2    O5 2283   0.386   3.559  12.713 -0.0109 -0.7949 -0.2179
  146TMC2    H5 2284   0.421   3.614  12.786 -0.9370  0.5000 -0.7377
  147MPD2     C 2285   1.300   3.793  12.614  0.4513 -0.2979  0.7270
  147MPD2    C1 2286   1.247   3.801  12.742 -0.3643 -0.2765 -0.0270
  147MPD2    C2 2287   1.104   3.802  12.755  0.4929  0.3525  0.0690
  147MPD2    C3 2288   1.024   3.781  12.640  0.1700  0.0817 -0.8072
  147MPD2    C4 2289   1.082   3.765  12.514  0.8095 -0.3608 -0.5368
  147MPD2    C5 2290   1.217   3.774  12.504  0.2319 -0.4373  0.3787
  147MPD2     H 2291   1.060   3.826  12.851 -0.1889  1.2914 -0.4773
  147MPD2    H1 2292   1.024   3.744  12.426  0.8565  0.9426 -0.8831
  147MPD2    H2 2293   1.408   3.791  12.601  0.3644 -0.4654  0.0485
  147MPD2    H3 2294   1.261   3.744  12.410  0.8217  1.8118 -0.0576
  147MPD2     N 2295   0.883   3.784  12.655  0.4125  0.2204  0.4542
  147MPD2    H5 2296   0.850   3.794  12.751 -1.8220  1.8098 -0.4726
  147MPD2    N1 2297   1.333   3.805  12.855  0.7178  1.0459 -0.2071
  147MPD2    H7 2298   1.433   3.815  12.844  0.4981  1.9646 -1.3038
  148TMC2    C1 2299   1.378   2.429  10.137  0.7777 -0.4680  0.0132
  148TMC2    C2 2300   1.507   2.446  10.178  0.4293 -0.9345  0.4529
  148TMC2    C3 2301   1.593   2.335  10.193 -0.2375 -0.3649  0.0466
  148TMC2    C4 2302   1.330   2.307  10.106 -0.3774 -0.4228 -0.6903
  148TMC2    C5 2303   1.408   2.195  10.132 -0.1655  0.1628 -0.1427
  148TMC2    C6 2304   1.542   2.208  10.170  0.0553  0.0749  0.0401
  148TMC2     C 2305   1.285   2.506  10.213  0.3496  0.0551 -0.1941
  148TMC2     O 2306   1.303   2.622  10.241 -0.0091  0.1338 -0.5307
  148TMC2     H 2307   1.536   2.550  10.194  1.6817 -1.2607  0.3079
  148TMC2    H1 2308   1.240   2.285  10.049 -0.8795 -2.2987  0.8113
  148TMC2    H2 2309   1.608   2.122  10.162  0.9866  0.9063 -1.2353
  148TMC2    C7 2310   1.353   2.064  10.107  0.0461  1.3568 -0.3906
  148TMC2    C8 2311   1.731   2.346  10.140 -0.1670  0.2620 -0.1492
  148TMC2    O1 2312   1.252   2.056  10.038 -0.2476  0.5102 -0.4286
  148TMC2    O2 2313   1.779   2.258  10.072  0.5368  0.2631  0.1525
  148TMC2    O5 2314   1.764   2.480  10.144 -0.3341 -0.2402 -0.3655
  148TMC2    H5 2315   1.746   2.523  10.230  0.8039 -0.4351 -0.0215
  149MPD2     C 2316   1.055   2.593  10.394 -0.2297  0.2474  0.4706
  149MPD2    C1 2317   1.076   2.466  10.336 -0.3254 -0.6795 -0.2093
  149MPD2    C2 2318   0.987   2.367  10.361 -0.0344  0.0777  0.5020
  149MPD2    C3 2319   0.880   2.381  10.446  0.0567  0.4321  0.9395
  149MPD2    C4 2320   0.858   2.502  10.505 -0.2950 -0.3988 -0.0385
  149MPD2    C5 2321   0.949   2.603  10.478 -1.1953  0.2041  0.2858
  149MPD2     H 2322   1.008   2.273  10.312 -1.0858 -0.5660  1.2740
  149MPD2    H1 2323   0.780   2.536  10.572 -1.5761 -0.1213 -1.6815
  149MPD2    H2 2324   1.112   2.679  10.361  0.3257 -0.3555 -0.1744
  149MPD2    H3 2325   0.934   2.705  10.511  0.0312  0.2583  0.6981
  149MPD2     N 2326   0.786   2.278  10.470  0.1557 -0.3399  0.0461
  149MPD2    H5 2327   0.717   2.289  10.544 -1.6542  1.8842 -2.0019
  149MPD2    N1 2328   1.184   2.430  10.255 -0.2316  0.1960  0.3653
  149MPD2    H7 2329   1.188   2.331  10.234 -0.8804  0.1616  0.4138
  150TMC2    C1 2330   2.851   1.689  12.533 -0.1339  0.2600 -0.0336
  150TMC2    C2 2331   2.844   1.803  12.468  0.2241  0.3424 -0.2346
  150TMC2    C3 2332   2.952   1.880  12.445 -0.7319 -0.2196  0.1419
  150TMC2    C4 2333   2.974   1.642  12.574 -0.7411 -1.2626  0.5589
  150TMC2    C5 2334   3.080   1.730  12.562  0.2147 -0.6748 -0.6407
  150TMC2    C6 2335   3.074   1.846  12.497 -1.1404 -0.2187  1.2174
  150TMC2     C 2336   2.739   1.597  12.530 -0.4075  0.3176 -0.4009
  150TMC2     O 2337   2.731   1.513  12.613  0.7137  0.3343  0.3179
  150TMC2     H 2338   2.748   1.841  12.437 -0.9421  0.7251  3.8913
  150TMC2    H1 2339   2.994   1.548  12.624  1.2143 -0.4592  1.3285
  150TMC2    H2 2340   3.158   1.915  12.490 -1.4469  0.1287  0.9603
  150TMC2    C7 2341   3.214   1.696  12.603 -0.3762 -0.7503 -1.1177
  150TMC2    C8 2342   2.933   2.014  12.387  0.0099  0.1205 -0.5706
  150TMC2    O1 2343   3.294   1.784  12.582  0.2588 -0.3125 -0.1581
  150TMC2    O2 2344   3.019   2.097  12.392  0.5035 -0.2809  0.4228
  150TMC2    O5 2345   2.840   2.019  12.291  0.0442 -0.1105 -0.1083
  150TMC2    H5 2346   2.801   1.930  12.272 -2.6881  0.7238  1.5810
  151MPD2     C 2347   2.251   1.507  12.404 -0.2621  0.3924 -0.2795
  151MPD2    C1 2348   2.310   1.589  12.303  0.3971 -0.3274 -0.0170
  151MPD2    C2 2349   2.449   1.614  12.311 -0.5818  0.3438 -0.1827
  151MPD2    C3 2350   2.528   1.565  12.415  0.4677 -0.1705 -0.5622
  151MPD2    C4 2351   2.465   1.488  12.514  0.4975 -0.2310 -0.2558
  151MPD2    C5 2352   2.334   1.466  12.501  0.3809  0.0179 -0.0850
  151MPD2     H 2353   2.490   1.675  12.232  1.8011 -0.7282  0.2030
  151MPD2    H1 2354   2.526   1.437  12.587 -0.1416 -0.4681  0.1206
  151MPD2    H2 2355   2.148   1.474  12.401  0.5029 -1.7789 -2.6330
  151MPD2    H3 2356   2.284   1.421  12.586  0.7008  2.6482  1.4865
  151MPD2     N 2357   2.656   1.615  12.421  0.4209  0.3668 -0.2784
  151MPD2    H5 2358   2.680   1.682  12.349 -2.1413 -0.8709 -2.2873
  151MPD2    N1 2359   2.222   1.644  12.207  0.3622  0.0304 -0.1963
  151MPD2    H7 2360   2.127   1.610  12.204  0.2798  0.2785 -0.3370
  152TMC2    C1 2361   2.818   1.987  12.821 -0.0240 -0.2172 -0.7350
  152TMC2    C2 2362   2.882   1.889  12.888 -1.1478  1.0746 -0.2861
  152TMC2    C3 2363   3.014   1.901  12.931 -0.2345 -0.2136 -0.6356
  152TMC2    C4 2364   2.893   2.098  12.796 -0.5928  0.2545 -0.1804
  152TMC2    C5 2365   3.024   2.100  12.828 -0.3522  0.0837 -0.0252
  152TMC2    C6 2366   3.095   2.002  12.896  0.0069  0.0553  0.3570
  152TMC2     C 2367   2.700   1.954  12.742  0.5328  0.3794  0.2924
  152TMC2     O 2368   2.681   2.015  12.636  0.1305  0.5966 -0.1174
  152TMC2     H 2369   2.826   1.798  12.906 -0.0852  0.3241 -0.7707
  152TMC2    H1 2370   2.839   2.183  12.754 -1.4354 -0.2847 -0.1939
  152TMC2    H2 2371   3.189   2.013  12.949  0.3778 -2.2747  0.1927
  152TMC2    C7 2372   3.070   2.233  12.847 -0.6945  0.2697  0.0991
  152TMC2    C8 2373   3.076   1.776  12.970 -0.5912 -0.1178 -0.6034
  152TMC2    O1 2374   2.994   2.330  12.839 -0.2184  0.0194 -0.2227
  152TMC2    O2 2375   3.030   1.666  12.937 -0.2303 -0.0783 -0.4083
  152TMC2    O5 2376   3.151   1.802  13.082  0.4635 -0.2363 -0.9370
  152TMC2    H5 2377   3.142   1.897  13.104 -0.3044  0.3958 -4.0401
  153MPD2     C 2378   2.432   1.710  12.810  0.0334  0.3544  0.4411
  153MPD2    C1 2379   2.490   1.817  12.750  0.5595  0.3197  0.5014
  153MPD2    C2 2380   2.417   1.896  12.661 -1.1071  0.5460  0.9681
  153MPD2    C3 2381   2.289   1.864  12.627  0.6854  0.9426 -0.3767
  153MPD2    C4 2382   2.231   1.750  12.693 -0.1022  0.3790  0.6620
  153MPD2    C5 2383   2.303   1.673  12.782  0.1430  0.6170  0.6124
  153MPD2     H 2384   2.465   1.984  12.618 -1.6807 -0.3892 -1.5634
  153MPD2    H1 2385   2.132   1.711  12.678  0.2647 -0.0641 -0.5869
  153MPD2    H2 2386   2.489   1.640  12.870 -0.0775 -0.2120 -0.1016
  153MPD2    H3 2387   2.259   1.580  12.817  1.1790 -0.0769  0.0606
  153MPD2     N 2388   2.219   1.947  12.529 -0.4839 -0.1489 -0.9256
  153MPD2    H5 2389   2.265   2.031  12.495  0.0368  0.9707  2.4737
  153MPD2    N1 2390   2.623   1.850  12.791  0.3153 -0.4346  0.6713
  153MPD2    H7 2391   2.659   1.805  12.874 -1.6405 -2.8791  0.2011
  154TMC2    C1 2392   4.241   1.918   1.120  0.4660 -0.3925 -0.0411
  154TMC2    C2 2393   4.350   1.972   1.173  0.2787  0.5265 -0.9212
  154TMC2    C3 2394   4.462   1.889   1.177  0.1901  0.7718 -0.2441
  154TMC2    C4 2395   4.247   1.795   1.057  0.3794 -0.0281 -0.1978
  154TMC2    C5 2396   4.366   1.725   1.053  0.0736  0.1891  0.5956
  154TMC2    C6 2397   4.471   1.763   1.126 -0.0939  0.7692  0.4896
  154TMC2     C 2398   4.129   2.010   1.100  0.2191 -0.7192  0.3014
  154TMC2     O 2399   4.136   2.117   1.155  0.4737 -0.5461  0.1221
  154TMC2     H 2400   4.344   2.072   1.215  1.0295  0.6271 -1.0527
  154TMC2    H1 2401   4.152   1.762   1.017  0.7117 -0.3069 -0.7556
  154TMC2    H2 2402   4.547   1.690   1.153  0.3085  0.8950 -0.2979
  154TMC2    C7 2403   4.354   1.580   1.044 -0.0262  0.1454 -0.0635
  154TMC2    C8 2404   4.573   1.959   1.235  0.1834  0.6098  0.2946
  154TMC2    O1 2405   4.413   1.516   1.128  0.5230  0.4557  0.5367
  154TMC2    O2 2406   4.563   2.069   1.286  0.5555 -0.3509 -0.3445
  154TMC2    O5 2407   4.684   1.904   1.181 -0.7597  0.0472 -0.3177
  154TMC2    H5 2408   4.664   1.847   1.104 -0.8915 -1.0736  0.5522
  155MPD2     C 2409   3.829   1.997   0.879 -0.6507 -0.6592  0.1195
  155MPD2    C1 2410   3.916   2.036   0.981  0.6636 -0.4414  0.6477
  155MPD2    C2 2411   3.868   2.139   1.059  0.2079 -0.0384 -0.0997
  155MPD2    C3 2412   3.759   2.208   1.021 -0.1111  0.0129  0.1751
  155MPD2    C4 2413   3.676   2.173   0.921 -0.3194  0.1353  0.1249
  155MPD2    C5 2414   3.710   2.068   0.844  0.2839  0.1472 -0.0950
  155MPD2     H 2415   3.927   2.184   1.139 -2.6188  1.9858  0.8342
  155MPD2    H1 2416   3.592   2.233   0.887  0.2073  0.6116 -0.3286
  155MPD2    H2 2417   3.845   1.914   0.810  0.1415 -0.0950 -0.3723
  155MPD2    H3 2418   3.653   2.047   0.754  1.0182  1.7601 -0.9295
  155MPD2     N 2419   3.728   2.316   1.105  0.1290  0.2540 -0.6970
  155MPD2    H5 2420   3.796   2.338   1.177 -0.3424  3.8201 -1.3096
  155MPD2    N1 2421   4.036   1.964   1.012 -0.1388  0.0569  0.6553
  155MPD2    H7 2422   4.056   1.882   0.955 -0.6473  1.0443 -0.9415
  156TMC2    C1 2423   2.849   3.470  11.037  0.9537 -0.0747  0.1405
  156TMC2    C2 2424   2.786   3.358  10.999  0.3046 -0.2982  0.5119
  156TMC2    C3 2425   2.703   3.360  10.888  0.6111 -0.5166 -0.4336
  156TMC2    C4 2426   2.814   3.589  10.976 -0.3819  0.1009 -0.0636
  156TMC2    C5 2427   2.724   3.578  10.870 -0.6238 -0.8639 -0.8435
  156TMC2    C6 2428   2.659   3.467  10.824 -0.2504 -0.0162 -0.7863
  156TMC2     C 2429   2.863   3.493  11.177  0.1601  0.1687  0.1227
  156TMC2     O 2430   2.813   3.597  11.225 -0.0431  0.6442  0.3457
  156TMC2     H 2431   2.815   3.270  11.055  2.3515  0.0042 -0.0890
  156TMC2    H1 2432   2.849   3.689  11.001 -1.2179  0.2667  0.4252
  156TMC2    H2 2433   2.596   3.472  10.735  1.5272  1.6630 -1.9594
  156TMC2    C7 2434   2.650   3.700  10.863  0.1850 -0.1137  0.0019
  156TMC2    C8 2435   2.653   3.226  10.836  0.3203  0.3083  0.0771
  156TMC2    O1 2436   2.715   3.804  10.856  0.6394  0.4491  0.3895
  156TMC2    O2 2437   2.694   3.120  10.873 -0.2009 -0.3763  0.2075
  156TMC2    O5 2438   2.524   3.243  10.810 -0.3457  0.3539 -0.5984
  156TMC2    H5 2439   2.470   3.323  10.824  0.6257  0.9488 -0.2792
  157MPD2     C 2440   3.068   3.296  11.415  0.0122  0.0317  0.6955
  157MPD2    C1 2441   2.988   3.398  11.372 -0.4471  0.7151  1.0101
  157MPD2    C2 2442   2.958   3.501  11.462 -0.2889 -0.2832 -0.6814
  157MPD2    C3 2443   3.009   3.506  11.587 -0.0362 -0.3300  0.1178
  157MPD2    C4 2444   3.090   3.409  11.629  1.0835  0.7960 -0.0012
  157MPD2    C5 2445   3.127   3.308  11.544  0.5299  0.2880  0.3194
  157MPD2     H 2446   2.889   3.580  11.434 -0.0218  1.1680  2.7825
  157MPD2    H1 2447   3.131   3.418  11.729 -2.0001 -3.5125  1.6882
  157MPD2    H2 2448   3.092   3.210  11.354  0.5869 -0.5641  1.7699
  157MPD2    H3 2449   3.187   3.232  11.593  1.9618  0.6920 -0.7861
  157MPD2     N 2450   2.946   3.612  11.659 -0.5601 -0.4232 -0.1242
  157MPD2    H5 2451   2.874   3.665  11.611  0.6217  2.1045  0.9156
  157MPD2    N1 2452   2.944   3.399  11.239 -0.6755 -0.0067  0.0198
  157MPD2    H7 2453   2.981   3.323  11.182  0.5617 -0.0568  0.9012
  158TMC2    C1 2454   2.648   2.735  13.849  0.7060 -0.0334  0.6186
  158TMC2    C2 2455   2.509   2.732  13.834 -0.1721 -0.5959  0.0166
  158TMC2    C3 2456   2.450   2.672  13.723  0.0144 -0.5864  0.1964
  158TMC2    C4 2457   2.723   2.673  13.758 -0.1676 -0.0310 -0.5596
  158TMC2    C5 2458   2.668   2.635  13.637  0.3425 -0.5986 -0.5885
  158TMC2    C6 2459   2.532   2.633  13.622  0.4708  0.3114 -0.5302
  158TMC2     C 2460   2.695   2.815  13.957 -0.5906 -0.5862  0.4189
  158TMC2     O 2461   2.607   2.864  14.022 -0.2296 -0.3152  0.3690
  158TMC2     H 2462   2.436   2.760  13.909  0.3284 -0.1977  0.3468
  158TMC2    H1 2463   2.829   2.656  13.771  0.2420  2.7054 -0.3522
  158TMC2    H2 2464   2.483   2.606  13.529 -1.9795  2.3349  0.1771
  158TMC2    C7 2465   2.741   2.581  13.529  0.8645 -0.4128 -0.3175
  158TMC2    C8 2466   2.315   2.697  13.701 -0.0349 -0.1890 -0.9093
  158TMC2    O1 2467   2.703   2.610  13.414 -0.2916  0.2039 -0.0388
  158TMC2    O2 2468   2.251   2.775  13.769 -0.2960  0.3232  0.0888
  158TMC2    O5 2469   2.259   2.599  13.621 -0.5157 -0.0618  0.0415
  158TMC2    H5 2470   2.323   2.534  13.585  0.3330  1.0924 -0.5214
  159MPD2     C 2471   3.022   3.020  14.290 -0.2069  0.0814  0.1026
  159MPD2    C1 2472   3.076   2.908  14.237  0.4138  0.0643 -1.0458
  159MPD2    C2 2473   3.014   2.847  14.140  0.6507 -0.3746  0.3764
  159MPD2    C3 2474   2.885   2.883  14.091 -0.0515 -0.3569 -0.9815
  159MPD2    C4 2475   2.825   2.989  14.158  0.4310 -0.0256 -0.2511
  159MPD2    C5 2476   2.892   3.063  14.249 -0.2374  0.3002  0.4119
  159MPD2     H 2477   3.066   2.764  14.095 -0.8519 -0.4502 -1.2065
  159MPD2    H1 2478   2.726   3.030  14.142  0.5400  0.9195  1.4530
  159MPD2    H2 2479   3.070   3.064  14.377 -0.2143  0.1808  0.0563
  159MPD2    H3 2480   2.853   3.144  14.309  0.2210 -0.0981  1.2455
  159MPD2     N 2481   2.827   2.812  13.987 -0.2103 -0.6915  0.2895
  159MPD2    H5 2482   2.889   2.742  13.948  1.2227 -0.7256  2.6218
  159MPD2    N1 2483   3.203   2.857  14.295 -0.0463 -0.0733  1.0522
  159MPD2    H7 2484   3.223   2.907  14.381  1.0928  2.2961 -0.6203
  160TMC2    C1 2485   3.178   1.178   1.308  0.5145  0.3171  0.3807
  160TMC2    C2 2486   3.241   1.153   1.423  0.3926 -0.2764 -1.0138
  160TMC2    C3 2487   3.330   1.248   1.470 -0.1804  0.4863  0.4661
  160TMC2    C4 2488   3.174   1.300   1.252 -0.0919  0.6020  0.4093
  160TMC2    C5 2489   3.243   1.403   1.317  0.3505 -0.0107 -0.3827
  160TMC2    C6 2490   3.327   1.375   1.421 -0.5544 -0.3796  0.2804
  160TMC2     C 2491   3.089   1.082   1.261  0.6254  0.1352 -0.9583
  160TMC2     O 2492   3.124   0.967   1.272 -0.5138  0.9563  0.1642
  160TMC2     H 2493   3.220   1.058   1.472 -1.4396  1.8143  2.2266
  160TMC2    H1 2494   3.136   1.325   1.153  0.2482  0.4366  0.2364
  160TMC2    H2 2495   3.386   1.445   1.479 -0.3987 -0.8058  0.6401
  160TMC2    C7 2496   3.211   1.536   1.280  0.1547 -0.0738 -0.1683
  160TMC2    C8 2497   3.428   1.223   1.571 -0.7538 -0.1257  0.1577
  160TMC2    O1 2498   3.116   1.544   1.207 -0.2631 -0.2893 -0.1024
  160TMC2    O2 2499   3.517   1.299   1.603  0.0943  0.3100  0.0965
  160TMC2    O5 2500   3.373   1.134   1.660  0.1704 -0.0664  0.3752
  160TMC2    H5 2501   3.294   1.086   1.627  1.2750 -1.0669 -0.8143
  161MPD2     C 2502   2.866   0.945   1.117 -0.0168 -0.0837  0.0034
  161MPD2    C1 2503   2.864   1.075   1.163 -0.2048 -0.1371 -0.1662
  161MPD2    C2 2504   2.749   1.145   1.143 -0.4404  0.0317 -0.1154
  161MPD2    C3 2505   2.640   1.092   1.085  0.1473 -0.1118  0.8283
  161MPD2    C4 2506   2.643   0.960   1.041  0.2943 -0.3070  0.0522
  161MPD2    C5 2507   2.757   0.889   1.056  0.3497 -0.7714  0.2579
  161MPD2     H 2508   2.753   1.250   1.168  1.5207 -0.7424  2.8234
  161MPD2    H1 2509   2.563   0.897   1.003  0.6376  0.1940 -1.4910
  161MPD2    H2 2510   2.959   0.890   1.105 -1.1143 -1.9126 -0.2173
  161MPD2    H3 2511   2.753   0.786   1.023  1.2283 -0.9380  0.6892
  161MPD2     N 2512   2.520   1.158   1.046  0.4041  0.3964  0.0186
  161MPD2    H5 2513   2.456   1.100   0.992  0.4632  0.1794  0.1804
  161MPD2    N1 2514   2.974   1.144   1.226  0.3233  0.0723  0.3862
  161MPD2    H7 2515   2.958   1.243   1.241  1.2230  0.1573  0.7716
  162TMC2    C1 2516   1.006   2.569   1.364 -0.3031  1.0309  0.6741
  162TMC2    C2 2517   0.950   2.637   1.468  0.2361  0.1315  0.4498
  162TMC2    C3 2518   1.033   2.690   1.561  0.3074 -0.3646  0.2407
  162TMC2    C4 2519   1.138   2.541   1.361 -0.1797  0.1327 -0.2836
  162TMC2    C5 2520   1.225   2.597   1.455  0.1971 -0.8838 -0.3744
  162TMC2    C6 2521   1.166   2.668   1.555  0.2547 -0.5797 -0.3266
  162TMC2     C 2522   0.935   2.565   1.236 -0.2955 -0.2094  0.7674
  162TMC2     O 2523   0.992   2.497   1.153 -0.0961 -0.6235 -0.7537
  162TMC2     H 2524   0.844   2.650   1.484  0.2753  0.8225  0.1545
  162TMC2    H1 2525   1.181   2.483   1.281  1.2781  0.0966  0.5189
  162TMC2    H2 2526   1.238   2.730   1.607  0.3768 -0.5016 -0.5878
  162TMC2    C7 2527   1.367   2.576   1.456 -0.2713 -0.3080 -0.3387
  162TMC2    C8 2528   0.969   2.768   1.662 -0.3954  0.2443 -0.3628
  162TMC2    O1 2529   1.438   2.655   1.516  0.1956  0.2299 -0.2914
  162TMC2    O2 2530   0.864   2.826   1.645 -0.7953 -0.1616 -0.5513
  162TMC2    O5 2531   1.040   2.790   1.770 -0.0659  0.4593 -0.3307
  162TMC2    H5 2532   1.124   2.740   1.763  0.0821  0.5830  0.5078
  163MPD2     C 2533   0.673   2.797   0.868  0.3517 -0.4343 -0.0222
  163MPD2    C1 2534   0.785   2.713   0.853 -0.0978 -0.5492 -0.2558
  163MPD2    C2 2535   0.849   2.669   0.967 -0.0602  0.4147 -0.4239
  163MPD2    C3 2536   0.798   2.705   1.092  0.5037 -0.4948 -0.8306
  163MPD2    C4 2537   0.703   2.800   1.099  0.2808  0.7734  0.2660
  163MPD2    C5 2538   0.635   2.839   0.990 -0.4136 -0.2744 -0.4949
  163MPD2     H 2539   0.933   2.602   0.950  1.2172  1.7574  0.6089
  163MPD2    H1 2540   0.667   2.840   1.193 -2.1770  1.3664 -0.9442
  163MPD2    H2 2541   0.613   2.835   0.786 -2.2341  0.1643  2.1433
  163MPD2    H3 2542   0.549   2.904   1.006  0.5122  0.5426  1.1854
  163MPD2     N 2543   0.851   2.673   1.214 -0.2486 -0.4360 -0.8090
  163MPD2    H5 2544   0.812   2.723   1.293  0.7526  0.8902 -1.1557
  163MPD2    N1 2545   0.825   2.664   0.728 -0.3381 -0.0211 -0.3358
  163MPD2    H7 2546   0.904   2.602   0.720 -0.2066  0.2183 -0.9631
  164TMC2    C1 2547   1.073   1.990  10.945 -0.4185 -0.1366  1.0019
  164TMC2    C2 2548   1.131   2.061  10.842  0.2285  0.6087  0.1976
  164TMC2    C3 2549   1.063   2.166  10.787 -0.3224 -0.0706  0.5401
  164TMC2    C4 2550   0.956   2.040  10.999  0.1573  0.2244 -0.0540
  164TMC2    C5 2551   0.900   2.157  10.944 -0.1868  0.7731 -0.6809
  164TMC2    C6 2552   0.951   2.222  10.835 -0.0819 -0.7916 -0.1353
  164TMC2     C 2553   1.149   1.892  11.016 -0.6925 -0.4295 -0.0706
  164TMC2     O 2554   1.090   1.823  11.098  0.2495  0.8080  0.4147
  164TMC2     H 2555   1.224   2.035  10.793 -0.2479 -2.0975  0.7484
  164TMC2    H1 2556   0.908   1.983  11.077 -3.3301  2.4874 -0.5379
  164TMC2    H2 2557   0.906   2.309  10.790 -0.9592 -0.6956  0.9205
  164TMC2    C7 2558   0.784   2.211  11.000  0.6136 -0.3282  0.1800
  164TMC2    C8 2559   1.142   2.253  10.700  0.0630 -0.1436 -0.0729
  164TMC2    O1 2560   0.730   2.295  10.928  0.0770 -0.6419 -0.7077
  164TMC2    O2 2561   1.221   2.203  10.622  0.1025  0.0637 -0.2537
  164TMC2    O5 2562   1.134   2.382  10.744 -0.3746  0.3243  0.5230
  164TMC2    H5 2563   1.060   2.392  10.808 -0.0954  0.9420  0.7403
  165TMC2    C1 2564   2.771   0.047   1.383 -0.2142  0.0205 -0.2131
  165TMC2    C2 2565   2.704   4.691   1.312 -0.3901 -0.5296 -0.3683
  165TMC2    C3 2566   2.684   4.717   1.176 -0.3365 -0.0671  0.3109
  165TMC2    C4 2567   2.812   0.163   1.324  0.3670  0.9726  0.2626
  165TMC2    C5 2568   2.798   0.183   1.190 -0.2900 -0.1386 -0.5366
  165TMC2    C6 2569   2.722   0.097   1.116 -0.3757 -0.7746  0.0566
  165TMC2     C 2570   2.841   4.739   1.500 -0.2076  0.1907 -0.2566
  165TMC2     O 2571   2.860   4.621   1.524  0.0546 -0.3923 -0.6468
  165TMC2     H 2572   2.670   4.605   1.368 -0.7428 -0.5686 -0.6439
  165TMC2    H1 2573   2.870   0.236   1.378 -0.9403  2.3684 -0.2011
  165TMC2    H2 2574   2.691   0.125   1.015 -0.1068  1.8756  0.7074
  165TMC2    C7 2575   2.874   0.292   1.135  0.3063  0.1119  0.0089
  165TMC2    C8 2576   2.585   4.643   1.097 -0.4963 -0.3279 -0.6612
  165TMC2    O1 2577   2.924   0.373   1.212  1.0067  0.1823  0.8421
  165TMC2    O2 2578   2.499   4.701   1.032  0.0946 -0.2022 -0.1313
  165TMC2    O5 2579   2.562   4.525   1.163  0.0123 -0.2732 -0.4543
  165TMC2    H5 2580   2.641   4.488   1.208  0.7929 -1.7102 -2.9830
  166MPD2     C 2581   3.203   0.115   1.823  0.1004  0.5973  0.1458
  166MPD2    C1 2582   3.166   4.724   1.792 -1.1737  0.1816  0.2178
  166MPD2    C2 2583   3.049   4.720   1.711 -0.6173  0.4169 -0.2248
  166MPD2    C3 2584   2.977   0.100   1.678  0.5941  0.1436  0.0121
  166MPD2    C4 2585   3.015   0.220   1.726 -0.4782 -0.3341  0.0025
  166MPD2    C5 2586   3.124   0.227   1.806  0.0896  0.1892 -0.0076
  166MPD2     H 2587   3.010   4.622   1.686 -0.5645  0.7699 -1.6993
  166MPD2    H1 2588   2.954   0.307   1.702  2.0184  0.5683 -3.1290
  166MPD2    H2 2589   3.287   0.125   1.892 -1.8587  1.1613  2.4323
  166MPD2    H3 2590   3.150   0.324   1.848 -1.6930  0.0960  1.3110
  166MPD2     N 2591   2.875   0.105   1.581  0.2164  0.2568  0.3571
  166MPD2    H5 2592   2.825   0.191   1.562  2.7183  1.6931  0.3545
  166MPD2    N1 2593   3.256   4.612   1.826 -0.0945  0.4760  0.0997
  166MPD2    H7 2594   3.345   4.635   1.869 -1.2032  2.1470  1.5004
  167TMC2    C1 2595   0.748   2.786  12.758 -0.5322 -0.2049  0.8039
  167TMC2    C2 2596   0.681   2.879  12.823 -1.1143  0.3546  0.0757
  167TMC2    C3 2597   0.563   2.844  12.879  0.5932 -0.6453 -0.4420
  167TMC2    C4 2598   0.715   2.658  12.788  0.0633  1.0816  0.4912
  167TMC2    C5 2599   0.607   2.620  12.858  0.2766  0.3748  0.1795
  167TMC2    C6 2600   0.524   2.717  12.906  0.1449 -0.6940  0.2160
  167TMC2     C 2601   0.858   2.828  12.679  0.3771 -0.4416 -0.1334
  167TMC2     O 2602   0.887   2.945  12.688 -0.1837 -0.6711  0.4870
  167TMC2     H 2603   0.695   2.985  12.805 -0.6253  0.1533 -0.7258
  167TMC2    H1 2604   0.775   2.582  12.738 -2.1035  1.3045 -2.3773
  167TMC2    H2 2605   0.430   2.689  12.953 -1.7353 -0.0651 -3.1198
  167TMC2    C7 2606   0.552   2.481  12.865  0.6618 -0.1650 -0.5976
  167TMC2    C8 2607   0.489   2.949  12.955 -0.1540  0.1932  0.4046
  167TMC2    O1 2608   0.487   2.459  12.964 -0.2932 -0.1792  0.6713
  167TMC2    O2 2609   0.417   2.915  13.051 -0.2550 -0.0636 -0.4088
  167TMC2    O5 2610   0.441   3.010  12.844 -0.4835  0.3100 -0.8184
  167TMC2    H5 2611   0.495   3.008  12.763  0.9130 -3.4911  0.2305
  168MPD2     C 2612   1.091   2.848  12.522 -0.1087  0.2066  0.1162
  168MPD2    C1 2613   0.989   2.763  12.489  0.1521  0.0157 -0.2362
  168MPD2    C2 2614   0.978   2.704  12.367 -0.6680 -0.3546  0.8061
  168MPD2    C3 2615   1.071   2.727  12.269  0.7698 -0.0110  0.9111
  168MPD2    C4 2616   1.177   2.802  12.297  0.4213 -0.4652  0.1594
  168MPD2    C5 2617   1.189   2.866  12.420 -0.2042 -0.1822  0.1680
  168MPD2     H 2618   0.889   2.646  12.344 -3.2095  3.6235  0.6496
  168MPD2    H1 2619   1.259   2.812  12.226  0.3992  1.1214  0.3629
  168MPD2    H2 2620   1.114   2.881  12.622  1.1082  1.2251 -0.4912
  168MPD2    H3 2621   1.273   2.929  12.443 -1.5809  1.5454  0.4533
  168MPD2     N 2622   1.051   2.680  12.138  0.0749 -0.2437 -0.4052
  168MPD2    H5 2623   1.131   2.682  12.076  1.4541 -0.0957  1.3908
  168MPD2    N1 2624   0.885   2.734  12.583  0.3369  0.6837 -0.9961
  168MPD2    H7 2625   0.821   2.656  12.576 -1.8356  2.3701  0.2961
  169MPD1     C 2626   2.517   1.307  10.349  0.0167  0.2617  0.0636
  169MPD1    C1 2627   2.605   1.389  10.285 -1.0162 -0.5146  0.2471
  169MPD1    C2 2628   2.559   1.470  10.185 -0.8091 -0.2396 -0.5279
  169MPD1    C3 2629   2.426   1.494  10.162 -0.0960 -0.1138 -0.2986
  169MPD1    C4 2630   2.337   1.423  10.235  0.1205  0.4092  0.9673
  169MPD1    C5 2631   2.387   1.326  10.325 -0.1487  0.8444 -0.0872
  169MPD1     H 2632   2.626   1.532  10.127 -1.0414 -0.9909 -1.5944
  169MPD1    H1 2633   2.229   1.429  10.225  0.0213 -0.0329  1.7726
  169MPD1    H2 2634   2.539   1.229  10.420 -0.1493 -0.4319 -0.6436
  169MPD1    H3 2635   2.314   1.265  10.377  0.6271  1.4147  1.6677
  169MPD1     N 2636   2.385   1.590  10.073  0.1144  0.2977 -0.3775
  169MPD1    H5 2637   2.462   1.634  10.024  0.7753  0.0578  0.4623
  169MPD1    N1 2638   2.746   1.356  10.290  0.2678 -0.3748  0.0412
  169MPD1    H6 2639   2.811   1.428  10.258 -1.4637  1.0686 -0.2429
  169MPD1    H7 2640   2.772   1.333  10.385 -0.9057 -1.7454  0.0263
  170MPD1     C 2641   2.489   0.329  13.139  0.3350  0.3908  0.2678
  170MPD1    C1 2642   2.373   0.312  13.070  0.1832 -0.0598 -0.2007
  170MPD1    C2 2643   2.269   0.261  13.150  0.0738  0.1346 -0.7096
  170MPD1    C3 2644   2.301   0.185  13.256  0.3664  0.5408  0.4805
  170MPD1    C4 2645   2.429   0.190  13.314 -0.0095  0.0433 -0.2649
  170MPD1    C5 2646   2.522   0.277  13.259  0.1119  0.7012  0.6824
  170MPD1     H 2647   2.166   0.270  13.115  0.1349  0.0171 -0.9142
  170MPD1    H1 2648   2.462   0.150  13.410 -0.9980  1.2263  0.5589
  170MPD1    H2 2649   2.579   0.369  13.094 -1.7220  1.5215 -2.8178
  170MPD1    H3 2650   2.619   0.295  13.302 -0.7863  1.2868  2.4572
  170MPD1     N 2651   2.194   0.115  13.318  0.1170  0.5593 -0.2436
  170MPD1    H5 2652   2.102   0.125  13.275  0.0620  1.7255  0.1333
  170MPD1    N1 2653   2.343   0.393  12.956 -0.0365  0.2129  0.0135
  170MPD1    H6 2654   2.424   0.403  12.895 -0.5737  3.3586 -0.1749
  170MPD1    H7 2655   2.264   0.353  12.907  0.0895 -0.6009  0.4648
  171MPD1     C 2656   0.305   1.000  15.195  0.3065 -0.2312  0.4201
  171MPD1    C1 2657   0.368   1.067  15.302  0.5551 -0.2651  0.1668
  171MPD1    C2 2658   0.426   0.999  15.405  0.6677  0.2122 -0.5427
  171MPD1    C3 2659   0.427   0.859  15.405  0.0577  0.0706 -0.2377
  171MPD1    C4 2660   0.352   0.789  15.305  0.6575 -0.0358 -0.8690
  171MPD1    C5 2661   0.294   0.862  15.204 -0.0909 -0.1541  0.4755
  171MPD1     H 2662   0.476   1.066  15.474 -0.0754 -1.2053  1.3780
  171MPD1    H1 2663   0.339   0.681  15.306  0.2876  0.0020 -1.9207
  171MPD1    H2 2664   0.272   1.053  15.106  1.2740  0.3674  0.4190
  171MPD1    H3 2665   0.241   0.810  15.125 -0.7710  1.0959  0.1113
  171MPD1     N 2666   0.504   0.778  15.492  0.0179  0.3098  0.2383
  171MPD1    H5 2667   0.507   0.678  15.478 -1.7197  0.0914  1.4047
  171MPD1    N1 2668   0.403   1.202  15.286 -0.3835  0.7515  0.6712
  171MPD1    H6 2669   0.330   1.257  15.240  0.3069  0.7232 -0.4658
  171MPD1    H7 2670   0.436   1.257  15.365  0.0994  0.4593  0.6732
  172MPD1     C 2671   3.803   0.434   0.705 -0.2154  0.1575 -0.3225
  172MPD1    C1 2672   3.866   0.500   0.812  0.1459 -0.4468  0.4486
  172MPD1    C2 2673   3.986   0.566   0.793  0.4234 -0.8981 -0.0519
  172MPD1    C3 2674   4.041   0.579   0.670 -0.2718 -0.1327  0.2262
  172MPD1    C4 2675   3.976   0.515   0.565  0.3162  0.3825 -0.2396
  172MPD1    C5 2676   3.858   0.455   0.583  0.4192  0.6330 -0.2845
  172MPD1     H 2677   4.029   0.609   0.883  1.3209  0.3252 -1.0696
  172MPD1    H1 2678   4.012   0.518   0.463 -3.5684 -0.1963 -1.6313
  172MPD1    H2 2679   3.709   0.380   0.710 -0.6416  0.5576 -3.5961
  172MPD1    H3 2680   3.804   0.408   0.501  0.7032 -0.6784  0.2750
  172MPD1     N 2681   4.151   0.660   0.648 -0.0863  0.3656  0.6046
  172MPD1    H5 2682   4.200   0.645   0.560 -1.3169 -2.7636  0.4549
  172MPD1    N1 2683   3.806   0.496   0.939 -0.2351  0.3064  0.2287
  172MPD1    H6 2684   3.759   0.407   0.954  1.7359 -0.8496 -0.3839
  172MPD1    H7 2685   3.880   0.509   1.008  0.9754  1.7778 -1.3586
  173MPD1     C 2686   0.957   0.873  13.659 -0.3666 -0.2409  0.6264
  173MPD1    C1 2687   0.865   0.852  13.767  0.0866 -0.1654 -0.2459
  173MPD1    C2 2688   0.903   0.785  13.880 -0.7574 -0.1100 -0.6049
  173MPD1    C3 2689   1.021   0.721  13.881 -0.1127  0.0145 -0.4288
  173MPD1    C4 2690   1.101   0.721  13.764  0.3498  0.9837 -0.9916
  173MPD1    C5 2691   1.074   0.803  13.656 -0.1143 -0.6383 -0.2350
  173MPD1     H 2692   0.843   0.783  13.970  1.2541  2.2262  0.7982
  173MPD1    H1 2693   1.199   0.676  13.754  1.2151  2.5714  0.3848
  173MPD1    H2 2694   0.930   0.938  13.577  0.3448  0.8069  1.2281
  173MPD1    H3 2695   1.138   0.815  13.569 -0.4983 -0.5146 -0.4951
  173MPD1     N 2696   1.056   0.649  14.001  0.0761  0.1575 -0.5075
  173MPD1    H5 2697   0.987   0.651  14.075 -1.0958  1.9739 -1.6502
  173MPD1    N1 2698   0.751   0.930  13.775  0.2243 -0.1651 -0.5892
  173MPD1    H6 2699   0.706   0.951  13.686  0.3947  3.9282  0.3052
  173MPD1    H7 2700   0.683   0.880  13.832  0.5105 -0.7277 -0.7317
  174MPD1     C 2701   1.919   0.283  14.386  0.7554 -0.1022  0.5450
  174MPD1    C1 2702   1.810   0.247  14.467  1.1168 -0.2826 -0.5734
  174MPD1    C2 2703   1.682   0.257  14.417  0.7675 -0.3508  0.7108
  174MPD1    C3 2704   1.656   0.297  14.290  0.7161 -0.1873  0.6139
  174MPD1    C4 2705   1.768   0.320  14.211 -0.9211 -0.1051 -0.7233
  174MPD1    C5 2706   1.898   0.318  14.258  0.9811  0.1867  0.2189
  174MPD1     H 2707   1.603   0.228  14.485  0.2358  0.1197  0.2917
  174MPD1    H1 2708   1.747   0.354  14.110 -1.8041  0.0771 -0.4742
  174MPD1    H2 2709   2.021   0.276  14.421  0.8684 -1.2564 -0.0029
  174MPD1    H3 2710   1.977   0.348  14.190  0.9090 -0.5083 -0.1669
  174MPD1     N 2711   1.532   0.311  14.243 -0.0613 -0.2629 -0.6275
  174MPD1    H5 2712   1.513   0.341  14.147 -1.6351 -1.2915 -0.6282
  174MPD1    N1 2713   1.845   0.216  14.601 -0.2463  0.3442 -0.4349
  174MPD1    H6 2714   1.930   0.161  14.601  0.8294  2.0270 -0.1889
  174MPD1    H7 2715   1.772   0.154  14.636 -1.8348  1.4258 -1.8301
  175MPD1     C 2716   4.031   1.082  15.556  0.7850 -1.2187 -0.6660
  175MPD1    C1 2717   4.156   1.076  15.612  0.6755  0.5036  0.1472
  175MPD1    C2 2718   4.166   1.062  15.750 -0.1276  1.0350  0.2467
  175MPD1    C3 2719   4.054   1.047  15.824  0.1121  0.1078 -0.5012
  175MPD1    C4 2720   3.928   1.040  15.766 -0.0863 -0.0807 -0.5631
  175MPD1    C5 2721   3.919   1.050  15.629  0.5366 -0.1928  0.2038
  175MPD1     H 2722   4.266   1.067  15.792  0.3955  1.2555 -0.9972
  175MPD1    H1 2723   3.836   1.036  15.823  1.4796  0.5631  1.9978
  175MPD1    H2 2724   4.012   1.089  15.450  1.0591 -1.0748 -0.7068
  175MPD1    H3 2725   3.822   1.038  15.583  0.4041 -2.5391  1.1232
  175MPD1     N 2726   4.059   1.050  15.970  0.4088  0.6218  0.8178
  175MPD1    H5 2727   3.971   1.075  16.015 -0.0163 -0.6622  0.7046
  175MPD1    N1 2728   4.271   1.116  15.541  0.3766 -0.1892  0.7168
  175MPD1    H6 2729   4.285   1.085  15.445 -0.1042 -1.0178  0.9107
  175MPD1    H7 2730   4.345   1.066  15.591  0.3332  0.3333  1.3046
  176MPD1     C 2731   1.660   3.326  16.175 -0.3627 -0.1306 -0.4132
  176MPD1    C1 2732   1.563   3.430  16.193  0.6753 -0.1844  0.6175
  176MPD1    C2 2733   1.454   3.412  16.279  0.3005  0.1807  0.2712
  176MPD1    C3 2734   1.437   3.295  16.350  0.0826  0.5536  0.2153
  176MPD1    C4 2735   1.537   3.200  16.342  0.3213  0.0179  0.7362
  176MPD1    C5 2736   1.644   3.217  16.259 -1.0501 -0.0975 -0.2241
  176MPD1     H 2737   1.384   3.494  16.292  0.7274  0.6890 -0.5981
  176MPD1    H1 2738   1.524   3.100  16.383  1.6555 -1.5391 -2.6786
  176MPD1    H2 2739   1.737   3.332  16.099 -1.0611 -1.6227 -1.2490
  176MPD1    H3 2740   1.711   3.133  16.245 -0.4376  0.4357 -0.5138
  176MPD1     N 2741   1.319   3.282  16.430 -0.2553 -0.0650  0.1891
  176MPD1    H5 2742   1.259   3.364  16.441 -1.1110 -0.7908  0.9494
  176MPD1    N1 2743   1.575   3.551  16.120 -0.1960  0.0154  0.2091
  176MPD1    H6 2744   1.612   3.533  16.027  0.6398  0.1607  0.5125
  176MPD1    H7 2745   1.488   3.602  16.111 -0.6722 -1.1556 -1.9863
  177MPD1     C 2746   3.572   3.138   9.954  0.0416 -0.0710  0.4033
  177MPD1    C1 2747   3.458   3.060   9.963 -0.5074  0.2010  1.2526
  177MPD1    C2 2748   3.349   3.110   9.896 -0.1218  0.0185 -0.1445
  177MPD1    C3 2749   3.349   3.229   9.827 -0.2470 -0.3016  0.0565
  177MPD1    C4 2750   3.463   3.307   9.827 -0.4080 -0.6384  0.4984
  177MPD1    C5 2751   3.573   3.261   9.894 -0.1919  0.2757  0.4272
  177MPD1     H 2752   3.260   3.047   9.901  0.9773 -1.8207 -3.9918
  177MPD1    H1 2753   3.472   3.404   9.778 -0.4287 -1.5260 -1.2805
  177MPD1    H2 2754   3.665   3.120  10.006  1.0580 -1.1767 -1.8285
  177MPD1    H3 2755   3.664   3.319   9.896  0.2430 -0.3526 -0.7138
  177MPD1     N 2756   3.228   3.272   9.761  0.6591 -0.4465 -0.3106
  177MPD1    H5 2757   3.149   3.211   9.749  0.8504 -0.6970 -0.3052
  177MPD1    N1 2758   3.462   2.930  10.021  0.7781  0.3190  0.1577
  177MPD1    H6 2759   3.366   2.899  10.040  0.4291  0.9674 -0.5592
  177MPD1    H7 2760   3.513   2.923  10.109  1.1466 -0.1402 -0.0949
  178MPD1     C 2761   0.955   4.094  17.684  0.2094 -0.9512 -0.3003
  178MPD1    C1 2762   1.075   4.168  17.681  0.1973  0.5239 -0.6456
  178MPD1    C2 2763   1.187   4.128  17.607  0.0481 -0.3983 -0.2307
  178MPD1    C3 2764   1.187   4.002  17.550 -0.1613  0.9129 -0.1499
  178MPD1    C4 2765   1.064   3.937  17.541  0.1669 -0.2422 -0.4178
  178MPD1    C5 2766   0.951   3.985  17.608  0.0294 -0.4612 -0.2239
  178MPD1     H 2767   1.279   4.183  17.622  0.4272 -0.5964 -1.8486
  178MPD1    H1 2768   1.056   3.845  17.484  0.3004 -0.5138  0.0047
  178MPD1    H2 2769   0.868   4.118  17.743  1.1661 -1.7436  1.4500
  178MPD1    H3 2770   0.858   3.929  17.614 -0.0490 -0.1337  1.4504
  178MPD1     N 2771   1.299   3.943  17.479 -0.1863  0.3028 -0.1830
  178MPD1    H5 2772   1.285   3.845  17.456  0.2057  0.0226  0.7987
  178MPD1    N1 2773   1.095   4.269   0.023 -0.0218  0.0646  0.1332
  178MPD1    H6 2774   1.166   4.335  17.749  0.7368 -0.5240  0.6581
  178MPD1    H7 2775   1.009   4.320   0.042 -1.8500 -2.5608 -0.9524
  179MPD1     C 2776   1.257   2.598  15.970 -0.1040  1.1483  0.1206
  179MPD1    C1 2777   1.179   2.516  15.885 -1.1193 -0.2499  0.1104
  179MPD1    C2 2778   1.236   2.400  15.837 -0.3437  0.8789 -0.1825
  179MPD1    C3 2779   1.357   2.349  15.883  0.3730 -0.4135  0.2319
  179MPD1    C4 2780   1.423   2.420  15.978 -0.3542  0.2595  0.2381
  179MPD1    C5 2781   1.379   2.544  16.016  0.2014 -0.7020  0.4674
  179MPD1     H 2782   1.180   2.353  15.757  2.1881 -0.1771 -1.3205
  179MPD1    H1 2783   1.518   2.381  16.012 -0.0767  0.5722 -0.1724
  179MPD1    H2 2784   1.231   2.700  15.993 -1.4716  0.7973  0.1026
  179MPD1    H3 2785   1.448   2.598  16.079  1.3878  1.7620 -2.9488
  179MPD1     N 2786   1.409   2.222  15.846  1.0708  0.0005 -0.3954
  179MPD1    H5 2787   1.499   2.195  15.886  2.4613  0.5543 -3.1701
  179MPD1    N1 2788   1.064   2.555  15.820  0.6399  0.2423 -0.3890
  179MPD1    H6 2789   0.999   2.486  15.785  0.5504  0.5028 -0.7462
  179MPD1    H7 2790   1.020   2.623  15.882 -1.5282 -0.3744 -1.2707
  180MPD1     C 2791   1.851   3.974  15.252 -0.4176 -0.1817 -0.0132
  180MPD1    C1 2792   1.812   3.980  15.122 -0.4173 -0.0842  0.1613
  180MPD1    C2 2793   1.696   3.908  15.096 -0.0758  0.5512  0.1209
  180MPD1    C3 2794   1.636   3.835  15.191  0.4183 -0.4935  0.9659
  180MPD1    C4 2795   1.683   3.832  15.323  0.7001  0.1980  0.6363
  180MPD1    C5 2796   1.793   3.907  15.350 -0.0528 -0.0342  0.5726
  180MPD1     H 2797   1.639   3.917  15.004  0.0770 -0.2404 -0.0468
  180MPD1    H1 2798   1.623   3.784  15.399  0.1940 -1.4759 -0.7938
  180MPD1    H2 2799   1.931   4.040  15.282 -0.3297  0.0223 -0.7016
  180MPD1    H3 2800   1.832   3.921  15.450  0.1732 -1.5896  0.7066
  180MPD1     N 2801   1.529   3.751  15.156 -0.3655 -0.7979 -0.9964
  180MPD1    H5 2802   1.505   3.745  15.057  0.0208 -1.1994 -1.0675
  180MPD1    N1 2803   1.866   4.071  15.028  0.6328 -0.0111  0.2298
  180MPD1    H6 2804   1.962   4.093  15.055  0.3775  1.2559  0.1065
  180MPD1    H7 2805   1.868   4.038  14.932  1.3490  2.9317 -0.7704
  181MPD1     C 2806   1.956   0.574   9.465 -0.3033 -0.2726  0.2077
  181MPD1    C1 2807   2.036   0.685   9.490 -0.5935 -0.4358 -0.3710
  181MPD1    C2 2808   2.128   0.676   9.589  0.2019  0.1509 -0.1823
  181MPD1    C3 2809   2.161   0.554   9.648  0.0647 -0.0449  0.2383
  181MPD1    C4 2810   2.105   0.440   9.595  0.7104 -0.1772  0.0942
  181MPD1    C5 2811   2.002   0.452   9.510  0.3818  0.2381  0.3120
  181MPD1     H 2812   2.191   0.763   9.604 -0.4640  0.3709  1.3237
  181MPD1    H1 2813   2.130   0.337   9.619 -0.6260 -0.3245  0.8667
  181MPD1    H2 2814   1.877   0.578   9.391  0.2166 -0.4774 -0.3602
  181MPD1    H3 2815   1.951   0.359   9.489 -0.3362  0.6747  0.1420
  181MPD1     N 2816   2.243   0.536   9.760  0.3857  0.5381  0.4378
  181MPD1    H5 2817   2.248   0.440   9.792 -1.4640  0.6702  1.1505
  181MPD1    N1 2818   1.999   0.806   9.431  0.6414 -0.1769 -0.5523
  181MPD1    H6 2819   1.968   0.798   9.334  1.3509  3.0381 -1.0615
  181MPD1    H7 2820   2.072   0.878   9.434  0.6780 -0.2530  0.3152
  182MPD1     C 2821   4.011   3.939   1.130 -0.4088  0.3289  0.3975
  182MPD1    C1 2822   3.898   3.871   1.178 -0.0869  0.6511 -0.0047
  182MPD1    C2 2823   3.776   3.931   1.168  0.0890 -0.0071 -0.1747
  182MPD1    C3 2824   3.756   4.052   1.102 -0.2498  0.0064 -0.3583
  182MPD1    C4 2825   3.874   4.127   1.074  0.1688  0.6577  0.0120
  182MPD1    C5 2826   3.996   4.065   1.081  0.2229  0.0321  0.0928
  182MPD1     H 2827   3.690   3.875   1.204  1.0923 -1.2013  0.3203
  182MPD1    H1 2828   3.872   4.225   1.027  1.9120  2.5179  3.7582
  182MPD1    H2 2829   4.107   3.892   1.144 -0.0107  1.0671  0.1320
  182MPD1    H3 2830   4.081   4.120   1.042 -0.4944 -0.3697 -2.0122
  182MPD1     N 2831   3.635   4.123   1.093  0.0847  0.1437 -0.0955
  182MPD1    H5 2832   3.633   4.221   1.069  1.9741  0.1279 -0.3099
  182MPD1    N1 2833   3.927   3.759   1.251 -0.0545  0.0340  1.0950
  182MPD1    H6 2834   3.851   3.692   1.238 -0.3793  0.7041 -0.4387
  182MPD1    H7 2835   4.009   3.711   1.214 -2.3772 -1.4599 -2.0867
  183MPD1     C 2836   3.476   4.167   8.757 -0.3226 -0.4652 -0.5411
  183MPD1    C1 2837   3.412   4.071   8.839 -0.7767  0.4111 -0.2230
  183MPD1    C2 2838   3.366   4.122   8.966  0.0651 -0.4455 -0.3361
  183MPD1    C3 2839   3.369   4.257   8.995  0.4155 -0.3170  0.3127
  183MPD1    C4 2840   3.433   4.348   8.904 -0.4236 -0.1676 -0.9505
  183MPD1    C5 2841   3.481   4.296   8.786 -0.1006 -0.8502 -0.4575
  183MPD1     H 2842   3.328   4.051   9.039  2.1822 -0.5205  0.7177
  183MPD1    H1 2843   3.434   4.456   8.911 -0.2108 -0.2954  0.9653
  183MPD1    H2 2844   3.504   4.139   8.656 -0.9664 -2.6075 -0.1387
  183MPD1    H3 2845   3.518   4.368   8.714 -1.3947 -0.7168 -0.9718
  183MPD1     N 2846   3.329   4.296   9.126 -0.4995 -0.2112 -0.2750
  183MPD1    H5 2847   3.313   4.227   9.198  2.5312  0.3998  1.0075
  183MPD1    N1 2848   3.420   3.935   8.809 -0.0358  0.3651 -0.2096
  183MPD1    H6 2849   3.338   3.890   8.849 -0.4966 -0.4773 -2.1344
  183MPD1    H7 2850   3.434   3.906   8.712  2.4266  0.4810  0.1186
  184MPD1     C 2851   2.497   2.397  10.314 -0.1693 -0.2565 -0.7691
  184MPD1    C1 2852   2.612   2.448  10.371  0.3393 -0.0877 -0.7805
  184MPD1    C2 2853   2.642   2.575  10.337  0.7463 -0.0469 -0.1493
  184MPD1    C3 2854   2.571   2.650  10.249 -0.1263  0.1427 -0.8999
  184MPD1    C4 2855   2.451   2.601  10.203  0.2402  0.0963 -0.4818
  184MPD1    C5 2856   2.413   2.470  10.238  0.1413 -0.1725 -0.1527
  184MPD1     H 2857   2.724   2.631  10.381  2.6572 -3.4350  0.5720
  184MPD1    H1 2858   2.394   2.656  10.128 -0.8134 -0.0068  0.2506
  184MPD1    H2 2859   2.468   2.294  10.333 -0.7506  0.2220  0.8964
  184MPD1    H3 2860   2.328   2.421  10.193 -2.1713  1.8230  2.0766
  184MPD1     N 2861   2.609   2.779  10.196 -0.0554  0.3299 -0.0615
  184MPD1    H5 2862   2.532   2.817  10.143  0.2675 -0.0596 -0.8059
  184MPD1    N1 2863   2.678   2.378  10.467  0.5702  0.2543  0.0081
  184MPD1    H6 2864   2.621   2.298  10.493 -1.6351  1.0958 -2.1235
  184MPD1    H7 2865   2.774   2.352  10.448  0.6356  0.5778 -0.1112
  185MPD1     C 2866   1.987   3.388  10.175 -0.1104  0.4743  0.7622
  185MPD1    C1 2867   2.094   3.459  10.132 -0.1115  0.3265 -0.4970
  185MPD1    C2 2868   2.217   3.394  10.127 -0.3279  0.8912 -0.4009
  185MPD1    C3 2869   2.239   3.263  10.159 -0.1081 -0.5652 -0.4253
  185MPD1    C4 2870   2.128   3.197  10.201  0.0302  0.5917 -0.7533
  185MPD1    C5 2871   2.007   3.255  10.208  0.2327  0.2033 -1.1928
  185MPD1     H 2872   2.289   3.463  10.084  0.0110  0.5848 -0.3251
  185MPD1    H1 2873   2.134   3.090  10.218  0.2431  0.8609  0.8969
  185MPD1    H2 2874   1.884   3.421  10.179 -0.2399  0.1626  0.0610
  185MPD1    H3 2875   1.919   3.197  10.232 -0.0981  1.4040  0.4708
  185MPD1     N 2876   2.372   3.203  10.155  0.4234  0.1848 -0.0603
  185MPD1    H5 2877   2.377   3.108  10.191  1.1720  0.5374  0.7422
  185MPD1    N1 2878   2.084   3.598  10.100  0.0766  0.4191 -0.3149
  185MPD1    H6 2879   2.143   3.629  10.023 -2.4718  3.0531 -1.2315
  185MPD1    H7 2880   1.991   3.641  10.097  0.0160  0.4797  2.3839
  186MPD1     C 2881   1.240   3.006  16.113  0.2476  0.1041  0.5020
  186MPD1    C1 2882   1.367   3.004  16.050  0.0570  0.1771  0.4264
  186MPD1    C2 2883   1.468   2.918  16.086  0.1637  0.5810  0.6252
  186MPD1    C3 2884   1.454   2.843  16.199 -0.0240  0.4701  0.1587
  186MPD1    C4 2885   1.338   2.844  16.264  0.8133 -0.5463  0.0597
  186MPD1    C5 2886   1.235   2.921  16.221  0.0035  0.2174  0.5160
  186MPD1     H 2887   1.562   2.928  16.034 -0.8902  1.5111 -1.1032
  186MPD1    H1 2888   1.321   2.799  16.362 -0.1648 -1.7318 -0.6565
  186MPD1    H2 2889   1.156   3.069  16.086  0.5019 -0.1775 -0.9162
  186MPD1    H3 2890   1.142   2.918  16.277 -0.9034 -1.4917 -1.0807
  186MPD1     N 2891   1.561   2.781  16.261 -0.0777  0.1378  0.0163
  186MPD1    H5 2892   1.533   2.726  16.341  0.1308 -2.1112 -1.4797
  186MPD1    N1 2893   1.376   3.091  15.941 -0.2463  0.0598 -0.4060
  186MPD1    H6 2894   1.313   3.170  15.955  0.0968  0.6960 -2.4264
  186MPD1    H7 2895   1.472   3.125  15.950 -0.4982  1.3248 -2.4205
  187MPD1     C 2896   1.468   4.687  17.057 -0.3522  0.5632 -0.6973
  187MPD1    C1 2897   1.423   4.556  17.077  0.6793  0.0203  0.0404
  187MPD1    C2 2898   1.299   4.534  17.144  0.0413  0.1442 -0.2652
  187MPD1    C3 2899   1.237   4.639  17.217 -0.2246  0.4538  0.1015
  187MPD1    C4 2900   1.289   0.026  17.194 -0.7657 -0.5198 -0.3798
  187MPD1    C5 2901   1.402   0.048  17.123  0.8165  0.3710  0.4124
  187MPD1     H 2902   1.269   4.430  17.147  0.8522 -0.1541 -2.3814
  187MPD1    H1 2903   1.248   0.117  17.237 -1.2282 -0.3894 -1.0972
  187MPD1    H2 2904   1.555   4.713  16.997 -0.5058  1.5145 -0.4947
  187MPD1    H3 2905   1.434   0.151  17.110 -0.4567  1.0140  2.4015
  187MPD1     N 2906   1.124   4.616  17.296  0.3414 -0.6160  0.1056
  187MPD1    H5 2907   1.066   4.692  17.331  1.9707  0.9529 -0.6131
  187MPD1    N1 2908   1.483   4.464  16.993  0.0746  0.3265  0.4553
  187MPD1    H6 2909   1.584   4.478  16.986 -0.0912  1.3658  0.1438
  187MPD1    H7 2910   1.467   4.370  17.030  3.1640 -0.3941 -0.0597
  188MPD1     C 2911   0.792   4.135  10.093  0.1617  0.7734  0.1565
  188MPD1    C1 2912   0.858   4.056  10.184  0.3786  0.0898 -0.1885
  188MPD1    C2 2913   0.841   3.918  10.178 -0.6155 -0.0119  0.1621
  188MPD1    C3 2914   0.766   3.858  10.081  0.3048  0.5409  0.0267
  188MPD1    C4 2915   0.706   3.939   9.982  0.0736 -0.2825 -0.6969
  188MPD1    C5 2916   0.720   4.073   9.992  0.2806 -0.2018 -0.0409
  188MPD1     H 2917   0.878   3.864  10.265  1.0554  3.2755  1.4855
  188MPD1    H1 2918   0.629   3.895   9.920  1.0545  1.3074 -3.0646
  188MPD1    H2 2919   0.794   4.243  10.101 -0.6143  0.8672 -0.9501
  188MPD1    H3 2920   0.673   4.133   9.915  2.0122 -1.2442 -1.9207
  188MPD1     N 2921   0.734   3.717  10.076 -0.5440 -0.2186 -0.3882
  188MPD1    H5 2922   0.673   3.688  10.000 -1.0500  1.4549 -0.6149
  188MPD1    N1 2923   0.917   4.116  10.291 -0.3512  0.0289  0.3948
  188MPD1    H6 2924   0.980   4.052  10.339  0.6946  1.6243  1.1635
  188MPD1    H7 2925   0.974   4.196  10.262 -1.8746  1.0456  0.2269
  189MPD1     C 2926   2.854   0.233   0.421 -0.1190  0.2346  0.0252
  189MPD1    C1 2927   2.731   0.183   0.426 -0.0509  0.3006  0.3995
  189MPD1    C2 2928   2.624   0.261   0.399  0.0240  0.1291  0.6269
  189MPD1    C3 2929   2.642   0.391   0.352 -0.2324 -0.1165  0.6357
  189MPD1    C4 2930   2.774   0.437   0.334 -0.2956  0.2214 -0.2285
  189MPD1    C5 2931   2.881   0.359   0.375  0.0278 -0.1906  0.0841
  189MPD1     H 2932   2.521   0.234   0.414 -0.5911  3.1524  1.9808
  189MPD1    H1 2933   2.795   0.530   0.282  1.8209  0.3786  0.9141
  189MPD1    H2 2934   2.941   0.171   0.441 -0.1491  0.3361  0.4664
  189MPD1    H3 2935   2.982   0.392   0.355 -0.3442  0.4803 -0.6783
  189MPD1     N 2936   2.534   0.462   0.310 -0.2864  0.6640  0.2021
  189MPD1    H5 2937   2.445   0.417   0.328  1.3080 -1.7776  1.9018
  189MPD1    N1 2938   2.720   0.054   0.474 -0.7867  0.4085  0.0149
  189MPD1    H6 2939   2.798   4.733   0.451 -0.1406  0.9877  0.6985
  189MPD1    H7 2940   2.632   0.010   0.448  0.8665 -2.4646 -0.7570
  190MPD1     C 2941   1.257   3.922  15.599 -0.2795 -0.3554  0.1210
  190MPD1    C1 2942   1.245   3.829  15.699 -0.2336 -0.4370  0.3544
  190MPD1    C2 2943   1.365   3.789  15.759  0.1666 -0.4877 -0.0252
  190MPD1    C3 2944   1.489   3.825  15.706 -0.2902  0.4339 -0.9029
  190MPD1    C4 2945   1.491   3.909  15.598 -0.6126 -0.5939 -0.1106
  190MPD1    C5 2946   1.377   3.958  15.544  0.1235 -0.8673  0.1210
  190MPD1     H 2947   1.363   3.727  15.847  0.6747 -0.3354  0.0881
  190MPD1    H1 2948   1.583   3.946  15.555 -1.6649  0.4098 -1.5220
  190MPD1    H2 2949   1.173   3.973  15.554 -1.1998 -2.6664 -0.7455
  190MPD1    H3 2950   1.386   4.008  15.449 -2.3037 -0.4837  0.0966
  190MPD1     N 2951   1.606   3.795  15.773  0.4162  0.0177 -0.0609
  190MPD1    H5 2952   1.593   3.724  15.845  0.3718 -0.5754 -0.6514
  190MPD1    N1 2953   1.124   3.800  15.766  0.5679  0.2998  0.2587
  190MPD1    H6 2954   1.046   3.789  15.700  1.6404  1.4609 -1.1979
  190MPD1    H7 2955   1.132   3.711  15.814  1.8159  1.0584  1.4273
  191MPD1     C 2956   0.357   4.509  12.885  0.1303  0.6423  0.5422
  191MPD1    C1 2957   0.331   4.438  12.767  0.1729  0.0025 -0.2114
  191MPD1    C2 2958   0.381   4.501  12.652  0.3804 -0.0277 -0.5668
  191MPD1    C3 2959   0.435   4.626  12.654  0.2434  0.8011 -0.0660
  191MPD1    C4 2960   0.443   4.697  12.773 -0.1868  0.3579  0.3979
  191MPD1    C5 2961   0.398   4.640  12.886  0.0881 -0.0929 -0.6321
  191MPD1     H 2962   0.366   4.446  12.559 -1.7526  2.5032 -1.7068
  191MPD1    H1 2963   0.472   0.062  12.782 -0.1846  0.2091  2.0430
  191MPD1    H2 2964   0.312   4.474  12.978 -0.7522 -1.9575 -0.8610
  191MPD1    H3 2965   0.404   4.705  12.973  3.0311  0.7538 -1.4808
  191MPD1     N 2966   0.478   4.682  12.530  0.1312 -0.6384 -0.1710
  191MPD1    H5 2967   0.460   4.626  12.447 -2.5671  1.0612 -0.7163
  191MPD1    N1 2968   0.258   4.319  12.757 -0.6037 -0.2970  0.3647
  191MPD1    H6 2969   0.298   4.257  12.827  0.7526 -0.9869 -1.0126
  191MPD1    H7 2970   0.274   4.275  12.666 -3.0747 -2.9880  1.2737
  192MPD1     C 2971   0.219   4.378  11.809 -0.3922 -0.0141  0.0764
  192MPD1    C1 2972   0.311   4.460  11.760  0.1272 -0.2014  0.4834
  192MPD1    C2 2973   0.373   4.558  11.841  0.2463 -0.2027  0.5576
  192MPD1    C3 2974   0.330   4.573  11.969  0.9400 -0.1314 -0.7748
  192MPD1    C4 2975   0.236   4.487  12.019 -0.2593  0.1103 -0.0265
  192MPD1    C5 2976   0.181   4.390  11.937 -0.0353 -0.1708  0.0290
  192MPD1     H 2977   0.446   4.627  11.798  0.0059  1.1568  2.3514
  192MPD1    H1 2978   0.200   4.494  12.121 -2.1486 -2.0151 -0.5438
  192MPD1    H2 2979   0.178   4.301  11.745  2.5021 -1.0268 -0.5733
  192MPD1    H3 2980   0.099   4.328  11.974 -0.0185 -0.1269  0.1412
  192MPD1     N 2981   0.386   4.666  12.060  0.2269 -0.0947 -0.0949
  192MPD1    H5 2982   0.357   4.665  12.157  2.5350 -0.0925  0.6136
  192MPD1    N1 2983   0.358   4.437  11.627 -0.4191  0.0072 -0.1923
  192MPD1    H6 2984   0.412   4.514  11.589  1.7012 -0.9901  0.7710
  192MPD1    H7 2985   0.288   4.402  11.561 -1.7640 -1.3868  1.9718
  193MPD1     C 2986   0.146   0.818  17.072 -0.2276  0.1167 -0.1188
  193MPD1    C1 2987   0.248   0.740  17.034 -0.5896  0.3087  0.6012
  193MPD1    C2 2988   0.343   0.801  16.954 -0.1880 -0.4455  0.4061
  193MPD1    C3 2989   0.359   0.943  16.941 -0.2854  0.6917  0.2016
  193MPD1    C4 2990   0.255   1.019  16.987 -0.4845  0.3390 -0.0262
  193MPD1    C5 2991   0.148   0.955  17.051 -0.3016 -0.1879  0.4307
  193MPD1     H 2992   0.421   0.735  16.920 -1.1202 -0.8882 -0.8872
  193MPD1    H1 2993   0.258   1.127  16.975  2.1613  0.0921 -1.6862
  193MPD1    H2 2994   0.057   0.782  17.121  0.6070 -3.4586 -1.2504
  193MPD1    H3 2995   0.075   1.027  17.085  0.4834  1.4662 -1.4001
  193MPD1     N 2996   0.471   1.004  16.882  0.3342  0.2746  0.1541
  193MPD1    H5 2997   0.473   1.104  16.899  1.6661  0.3881 -0.6465
  193MPD1    N1 2998   0.235   0.599  17.043 -0.1085  0.5822 -0.0836
  193MPD1    H6 2999   0.324   0.553  17.028  1.1291  2.1611  2.5514
  193MPD1    H7 3000   0.191   0.573  17.131 -0.6045  0.3130 -0.4061
  194MPD1     C 3001   2.550   3.078  17.291 -0.7917 -0.4342  0.3150
  194MPD1    C1 3002   2.563   3.019  17.413 -0.4605  0.0686  0.2009
  194MPD1    C2 3003   2.658   2.922  17.421 -0.3141  0.0006  0.5444
  194MPD1    C3 3004   2.770   2.915  17.341 -0.4027 -0.4347 -0.2275
  194MPD1    C4 3005   2.771   3.001  17.233 -0.0517 -0.0854 -0.8515
  194MPD1    C5 3006   2.661   3.086  17.217  0.2730  0.3245  1.0215
  194MPD1     H 3007   2.654   2.864  17.513 -2.0995  1.1050  1.1694
  194MPD1    H1 3008   2.852   3.003  17.161 -0.5271 -2.8638 -1.4881
  194MPD1    H2 3009   2.471   3.148  17.267 -1.3405 -0.9006  0.7408
  194MPD1    H3 3010   2.653   3.143  17.125  1.4349  1.3287  1.5381
  194MPD1     N 3011   2.877   2.824  17.362  0.1796  0.3990 -0.0367
  194MPD1    H5 3012   2.946   2.808  17.289 -0.3669  0.4776 -0.5662
  194MPD1    N1 3013   2.453   3.015  17.500 -0.2795  0.9137  0.5904
  194MPD1    H6 3014   2.389   3.094  17.493 -1.2179  0.2797  1.8078
  194MPD1    H7 3015   2.466   3.001  17.600 -3.3530  2.6596  1.2431
  195MPD1     C 3016   0.525   3.633  16.428 -0.3154  0.5150 -0.5983
  195MPD1    C1 3017   0.519   3.690  16.552 -1.1030 -0.4363  0.3516
  195MPD1    C2 3018   0.419   3.651  16.639 -0.9843 -0.8292  0.7887
  195MPD1    C3 3019   0.331   3.556  16.599 -0.0596 -0.1565 -0.0894
  195MPD1    C4 3020   0.338   3.504  16.471  0.1516 -0.2234  0.9527
  195MPD1    C5 3021   0.439   3.537  16.388  0.4242 -0.2802 -0.2318
  195MPD1     H 3022   0.410   3.693  16.739  1.1447  0.2885  0.4997
  195MPD1    H1 3023   0.271   3.435  16.422  0.5792 -0.1183  0.2112
  195MPD1    H2 3024   0.599   3.660  16.354  1.2964  0.5053  1.0322
  195MPD1    H3 3025   0.443   3.486  16.293 -1.7771 -0.6946 -0.0967
  195MPD1     N 3026   0.229   3.506  16.685  0.1497 -0.3402 -0.2369
  195MPD1    H5 3027   0.190   3.421  16.646  1.1922 -0.4842 -0.9413
  195MPD1    N1 3028   0.596   3.802  16.577 -0.4902 -0.1930  0.1616
  195MPD1    H6 3029   0.680   3.808  16.519  1.9894  2.8268  4.0367
  195MPD1    H7 3030   0.637   3.796  16.671  0.0850  0.7153 -0.0269
  196MPD1     C 3031   3.962   4.119  17.544 -0.7313  0.3867 -0.0117
  196MPD1    C1 3032   3.999   4.239  17.594  0.2997 -0.3560  0.0359
  196MPD1    C2 3033   4.028   4.248  17.730  0.5329 -0.1376 -0.0352
  196MPD1    C3 3034   4.030   4.130   0.055 -0.1140  0.3720  0.7653
  196MPD1    C4 3035   3.991   4.011  17.751 -0.0146 -0.1501 -0.1174
  196MPD1    C5 3036   3.970   4.003  17.616 -0.2905  0.2737 -0.1918
  196MPD1     H 3037   4.053   4.344   0.019 -0.2503  0.9204 -1.9360
  196MPD1    H1 3038   3.994   3.915   0.048 -2.7573  0.5148  1.3474
  196MPD1    H2 3039   3.932   4.106  17.440  1.2844 -2.5949 -0.2398
  196MPD1    H3 3040   3.951   3.906  17.573  2.8025  0.2558 -1.4975
  196MPD1     N 3041   4.047   4.135   0.196 -0.1609 -0.2495 -0.6391
  196MPD1    H5 3042   4.037   4.050   0.250  0.6095 -0.8775 -1.4610
  196MPD1    N1 3043   3.985   4.355  17.514  0.1712 -0.3726  0.1226
  196MPD1    H6 3044   3.994   4.335  17.415 -0.9691 -1.1182  0.1679
  196MPD1    H7 3045   4.034   4.438  17.547 -0.0259 -0.6843  1.2004
  197MPD1     C 3046   3.597   1.199  17.295 -0.7979  0.0700 -0.2413
  197MPD1    C1 3047   3.694   1.222  17.390  0.7925 -0.7887 -0.4396
  197MPD1    C2 3048   3.811   1.283  17.360 -0.4644  0.8231  0.6069
  197MPD1    C3 3049   3.840   1.326  17.233 -0.0021 -0.1038  0.0133
  197MPD1    C4 3050   3.746   1.300  17.134  0.3994  0.0772  0.4003
  197MPD1    C5 3051   3.627   1.232  17.166 -0.3221 -0.0615 -0.1498
  197MPD1     H 3052   3.883   1.291  17.441  0.2428 -2.6375  0.2991
  197MPD1    H1 3053   3.756   1.326  17.029 -1.3469  0.4747  0.3276
  197MPD1    H2 3054   3.507   1.143  17.320 -1.2770  1.1291  0.3800
  197MPD1    H3 3055   3.559   1.215  17.084 -2.1652 -0.9776  1.5666
  197MPD1     N 3056   3.960   1.383  17.187 -0.1949  0.5225 -0.2069
  197MPD1    H5 3057   3.954   1.403  17.087  2.5794 -1.8656 -0.8693
  197MPD1    N1 3058   3.692   1.160  17.508  0.2215 -0.1512  0.2530
  197MPD1    H6 3059   3.759   1.211  17.566  1.5783 -1.3701 -0.2228
  197MPD1    H7 3060   3.598   1.170  17.544  1.4698  1.6503  3.0688
  198MPD1     C 3061   2.217   4.580  16.913  0.1644 -0.4866 -0.4324
  198MPD1    C1 3062   2.319   4.615  16.819 -0.1038 -0.1049  0.1377
  198MPD1    C2 3063   2.278   4.693  16.715 -0.3100  0.1629  0.0175
  198MPD1    C3 3064   2.146   0.005  16.697  0.4265  1.2372  0.3576
  198MPD1    C4 3065   2.059   4.732  16.805 -0.4373  0.1201 -0.3724
  198MPD1    C5 3066   2.093   4.643  16.903 -0.3555 -0.0782  0.0847
  198MPD1     H 3067   2.359   4.719  16.648 -0.5937  3.7151  1.0474
  198MPD1    H1 3068   1.958   0.032  16.805 -0.5901 -0.1872 -4.4092
  198MPD1    H2 3069   2.237   4.516  16.998  1.1476  1.3112  0.6962
  198MPD1    H3 3070   2.028   4.616  16.986  0.2821  0.4029  0.7390
  198MPD1     N 3071   2.101   0.064  16.574 -0.3410  0.0703 -0.3557
  198MPD1    H5 3072   2.162   0.041  16.496 -0.4122  1.5054 -0.8376
  198MPD1    N1 3073   2.436   4.541  16.823 -0.1387 -0.4791 -0.1816
  198MPD1    H6 3074   2.458   4.508  16.916  3.3993  2.6070  0.0548
  198MPD1    H7 3075   2.521   4.582  16.785  0.7063 -0.3940  1.8493
  199MPD1     C 3076   2.137   0.936  10.645 -0.0478  0.3488  0.4816
  199MPD1    C1 3077   2.053   0.839  10.606  0.3829  0.1910 -0.6054
  199MPD1    C2 3078   2.043   0.796  10.477  0.8404 -0.9101  0.1528
  199MPD1    C3 3079   2.125   0.852  10.383  0.3592 -0.4704 -0.0634
  199MPD1    C4 3080   2.219   0.945  10.425  1.1732 -0.6566 -0.2394
  199MPD1    C5 3081   2.220   0.987  10.557  0.3082  0.0957  0.6733
  199MPD1     H 3082   1.970   0.717  10.464  1.3019 -1.3443  0.2175
  199MPD1    H1 3083   2.307   0.972  10.369  0.5829 -0.1340 -0.9176
  199MPD1    H2 3084   2.147   0.973  10.746 -1.3877 -0.9400  1.0810
  199MPD1    H3 3085   2.286   1.062  10.599 -1.9223  2.4677 -0.0316
  199MPD1     N 3086   2.123   0.821  10.244  0.8148  0.1865  0.2160
  199MPD1    H5 3087   2.180   0.877  10.182 -0.3569  0.6565 -0.4398
  199MPD1    N1 3088   1.959   0.809  10.698  0.2784 -0.2578 -0.0583
  199MPD1    H6 3089   1.989   0.807  10.795  2.5993 -0.2126 -0.7869
  199MPD1    H7 3090   1.923   0.716  10.674 -0.3575 -0.8088  3.0538
  200MPD1     C 3091   1.972   0.963  14.314 -0.2221  0.1665  0.5024
  200MPD1    C1 3092   1.960   0.955  14.177  0.0945  0.8477  0.0762
  200MPD1    C2 3093   2.073   0.959  14.100 -0.7624  1.1844 -0.1695
  200MPD1    C3 3094   2.198   0.959  14.162 -0.6943  0.4420  1.4206
  200MPD1    C4 3095   2.199   0.948  14.303 -0.0115  0.0208  0.6308
  200MPD1    C5 3096   2.088   0.953  14.379 -0.5323 -0.0015  0.5536
  200MPD1     H 3097   2.059   0.974  13.993  0.5611 -0.9870 -0.6492
  200MPD1    H1 3098   2.297   0.930  14.345 -0.0935 -2.2902 -0.2079
  200MPD1    H2 3099   1.888   0.979  14.381 -0.5683  2.0665 -0.3747
  200MPD1    H3 3100   2.083   0.947  14.487  1.6332  2.0714  0.7869
  200MPD1     N 3101   2.309   0.966  14.073 -0.3988  0.1078 -0.3942
  200MPD1    H5 3102   2.287   0.975  13.975  1.5774 -0.4197 -0.8909
  200MPD1    N1 3103   1.835   0.976  14.119  1.0816  0.0003 -0.1221
  200MPD1    H6 3104   1.764   0.928  14.174 -0.1636  2.0811  0.0955
  200MPD1    H7 3105   1.824   0.946  14.023  1.7045 -1.5814  0.3005
  201MPD1     C 3106   4.298   0.294  13.103 -0.6237  0.1900 -0.0462
  201MPD1    C1 3107   4.311   0.216  12.988  0.1492  0.3338  0.0792
  201MPD1    C2 3108   4.395   0.109  12.980  0.1670 -0.2809 -0.6845
  201MPD1    C3 3109   4.461   0.065  13.095  0.8181  0.1372  0.1268
  201MPD1    C4 3110   4.439   0.136  13.209  1.1216  0.0203 -0.2501
  201MPD1    C5 3111   4.365   0.248  13.213  0.3427 -0.1291  0.6082
  201MPD1     H 3112   4.405   0.061  12.884  0.2538 -1.0169 -0.3082
  201MPD1    H1 3113   4.455   0.104  13.312 -3.1113  0.8303  0.6801
  201MPD1    H2 3114   4.253   0.392  13.099 -1.3905 -0.0500  3.2167
  201MPD1    H3 3115   4.362   0.295  13.311  0.3525  0.0865  0.5035
  201MPD1     N 3116   4.541   4.688  13.084 -0.0404 -0.4491  0.3460
  201MPD1    H5 3117   4.551   4.646  12.992 -0.0021  1.2599 -0.4237
  201MPD1    N1 3118   4.267   0.270  12.863 -0.0403  0.3465  0.7887
  201MPD1    H6 3119   4.259   0.198  12.793  0.8604  0.5706  0.4613
  201MPD1    H7 3120   4.179   0.322  12.866  0.7471  1.8724 -2.5146
  202MPD1     C 3121   3.649   3.208   8.854  0.1205 -0.7571 -0.4841
  202MPD1    C1 3122   3.583   3.308   8.920 -0.0017 -0.5582 -0.4830
  202MPD1    C2 3123   3.659   3.370   9.018  0.1022 -0.4408  0.6911
  202MPD1    C3 3124   3.801   3.358   9.028 -0.6621  0.2161  0.0880
  202MPD1    C4 3125   3.864   3.274   8.948 -0.3601 -0.0377  0.2056
  202MPD1    C5 3126   3.789   3.196   8.866  0.3282  0.2091 -0.3624
  202MPD1     H 3127   3.608   3.425   9.097 -3.6117 -0.3523 -1.7960
  202MPD1    H1 3128   3.972   3.269   8.941 -0.5195 -0.1765 -2.0616
  202MPD1    H2 3129   3.603   3.146   8.778 -2.1372 -1.0293  1.1065
  202MPD1    H3 3130   3.846   3.129   8.803  0.1466  0.0645 -0.3719
  202MPD1     N 3131   3.881   3.428   9.121  0.1386 -0.1033  0.1357
  202MPD1    H5 3132   3.980   3.406   9.124 -0.4951 -3.1420 -1.2167
  202MPD1    N1 3133   3.444   3.298   8.924  0.4669  0.5302 -0.0977
  202MPD1    H6 3134   3.397   3.255   8.845  0.9213 -0.7895  0.3572
  202MPD1    H7 3135   3.394   3.377   8.965  3.1401  1.5839  1.1186
  203MPD1     C 3136   3.527   0.274  12.305  0.1046 -0.2320 -0.0521
  203MPD1    C1 3137   3.531   0.170  12.215 -0.3368  0.8662 -0.8539
  203MPD1    C2 3138   3.519   0.041  12.267  0.5864 -0.4962 -0.6142
  203MPD1    C3 3139   3.514   0.015  12.400 -0.1484  0.1504  0.1070
  203MPD1    C4 3140   3.531   0.117  12.489  0.0574  0.0035  0.2203
  203MPD1    C5 3141   3.532   0.245  12.436  0.6221  0.4229 -0.7854
  203MPD1     H 3142   3.516   4.698  12.196  1.0583 -1.7800  0.8497
  203MPD1    H1 3143   3.540   0.110  12.597 -1.1034  0.7104  0.3570
  203MPD1    H2 3144   3.550   0.377  12.281  1.0593 -0.6318 -0.8539
  203MPD1    H3 3145   3.549   0.327  12.505  1.1336  0.3304 -0.7981
  203MPD1     N 3146   3.512   4.615  12.439 -0.5836  0.5609  0.3199
  203MPD1    H5 3147   3.507   4.547  12.363  0.0111 -0.2017  0.9722
  203MPD1    N1 3148   3.514   0.205  12.077  0.2127 -0.0624  0.2207
  203MPD1    H6 3149   3.534   0.121  12.024  0.9147  0.6478 -0.6441
  203MPD1    H7 3150   3.570   0.288  12.055  1.8487 -1.5892 -1.3064
  204MPD1     C 3151   2.993   2.077   0.075  0.2373  0.5358  0.2457
  204MPD1    C1 3152   3.046   2.081  17.699 -0.3220 -0.5998  0.1618
  204MPD1    C2 3153   3.070   1.963  17.634 -0.7012 -0.6213 -0.6028
  204MPD1    C3 3154   3.026   1.845  17.693 -0.6540 -0.3602  0.0926
  204MPD1    C4 3155   2.975   1.843   0.065  0.9450 -0.4124  0.4474
  204MPD1    C5 3156   2.957   1.959   0.135  0.0458  0.4850 -0.2876
  204MPD1     H 3157   3.125   1.964  17.541 -1.9512  0.1168 -1.3334
  204MPD1    H1 3158   2.945   1.750   0.112 -2.3311 -0.0454 -0.9098
  204MPD1    H2 3159   2.971   2.167   0.132 -0.8564 -0.6571  1.6797
  204MPD1    H3 3160   2.902   1.958   0.228 -0.5479 -0.5459 -0.6527
  204MPD1     N 3161   3.032   1.718  17.618  0.0781  0.1193 -0.8976
  204MPD1    H5 3162   3.067   1.726  17.523  0.2378  1.0524 -0.7661
  204MPD1    N1 3163   3.095   2.203  17.663  0.0263 -0.3458  0.1110
  204MPD1    H6 3164   3.087   2.218  17.563  0.4925  3.2871  0.5958
  204MPD1    H7 3165   3.045   2.278  17.711  1.6407  0.8668 -0.0946
  205MPD1     C 3166   2.103   0.498  16.878  0.1732 -0.5008  0.1370
  205MPD1    C1 3167   2.162   0.608  16.923 -0.0508  0.2790  0.0344
  205MPD1    C2 3168   2.292   0.591  16.968  0.3722  0.1427 -0.6925
  205MPD1    C3 3169   2.349   0.467  16.990  0.3155 -0.2635  0.2431
  205MPD1    C4 3170   2.286   0.357  16.953 -0.4470  0.0828 -0.0166
  205MPD1    C5 3171   2.169   0.373  16.886  0.0697  0.2420  0.5955
  205MPD1     H 3172   2.340   0.680  17.008 -2.6636  1.3531  0.2798
  205MPD1    H1 3173   2.332   0.259  16.950  0.2526  0.4084  0.1255
  205MPD1    H2 3174   2.008   0.506  16.826  0.9480 -0.4453 -1.2606
  205MPD1    H3 3175   2.113   0.290  16.844 -0.6893  0.9480  0.1980
  205MPD1     N 3176   2.470   0.446  17.065  0.5249 -0.5762  0.1430
  205MPD1    H5 3177   2.498   0.350  17.077 -1.2981 -1.3078 -1.4616
  205MPD1    N1 3178   2.103   0.736  16.906  0.6544  0.6134  0.1797
  205MPD1    H6 3179   2.002   0.733  16.917  0.6559 -2.8881 -0.7049
  205MPD1    H7 3180   2.146   0.792  16.979  1.4168 -0.7002  0.7291
  206MPD1     C 3181   3.620   2.315  16.851  0.3626 -0.5248  0.3999
  206MPD1    C1 3182   3.511   2.380  16.795 -0.5375  0.4091  0.0490
  206MPD1    C2 3183   3.469   2.350  16.668 -0.5214 -0.3924  0.1814
  206MPD1    C3 3184   3.525   2.247  16.597  1.0148  0.1412  0.6768
  206MPD1    C4 3185   3.626   2.173  16.657 -0.4332 -0.2078 -0.0707
  206MPD1    C5 3186   3.673   2.210  16.783  0.1803 -0.3188  0.5409
  206MPD1     H 3187   3.385   2.403  16.626 -1.2668 -1.5997  0.1383
  206MPD1    H1 3188   3.678   2.096  16.600  1.1554  1.4505 -0.8539
  206MPD1    H2 3189   3.662   2.354  16.943  2.0912 -0.4878 -0.4000
  206MPD1    H3 3190   3.758   2.164  16.833  3.0705  2.3638 -1.8953
  206MPD1     N 3191   3.491   2.217  16.463 -0.5753  0.6884  0.4752
  206MPD1    H5 3192   3.558   2.156  16.418 -1.8917 -1.4139  1.3430
  206MPD1    N1 3193   3.453   2.484  16.870 -0.0116  0.0584 -0.0465
  206MPD1    H6 3194   3.351   2.479  16.866 -0.0929  1.6039 -0.0404
  206MPD1    H7 3195   3.497   2.492  16.962 -0.5997  1.1678  0.1392
  207MPD1     C 3196   0.467   0.177   9.899  0.7278  0.1239  0.1336
  207MPD1    C1 3197   0.456   0.070   9.988 -0.2822  0.8749  0.6236
  207MPD1    C2 3198   0.520   0.071  10.113  1.0423 -0.3750  0.0663
  207MPD1    C3 3199   0.617   0.167  10.139 -0.3546 -0.5491 -0.6051
  207MPD1    C4 3200   0.623   0.272  10.050  0.2244 -0.5809  0.0917
  207MPD1    C5 3201   0.551   0.280   9.934 -0.2204  0.4598 -0.6545
  207MPD1     H 3202   0.497   4.724  10.176 -2.5803 -0.1429 -0.9703
  207MPD1    H1 3203   0.689   0.357  10.067 -0.0965 -0.5460  1.1488
  207MPD1    H2 3204   0.393   0.181   9.821 -0.5566  0.6035  1.3811
  207MPD1    H3 3205   0.563   0.373   9.880 -1.8472  0.8857 -0.2642
  207MPD1     N 3206   0.705   0.178  10.249 -0.7698  0.0635 -0.2741
  207MPD1    H5 3207   0.778   0.245  10.231 -0.4474 -0.3218 -0.4058
  207MPD1    N1 3208   0.356   4.713   9.961  0.4510  0.0955  0.2239
  207MPD1    H6 3209   0.338   4.694   9.863 -3.4836  2.9338  0.4049
  207MPD1    H7 3210   0.397   4.628  10.000  2.6833  1.1847  0.2246
  208MPD1     C 3211   3.840   0.215   0.279 -0.3951 -0.0948  0.4390
  208MPD1    C1 3212   3.897   0.089   0.253  0.3050  0.8735 -0.3493
  208MPD1    C2 3213   3.814   4.726   0.216  0.2847 -0.6686  0.4746
  208MPD1    C3 3214   3.677   4.739   0.225 -0.0935 -0.7967  0.1824
  208MPD1    C4 3215   3.621   0.120   0.259 -0.0021 -0.4457 -0.0488
  208MPD1    C5 3216   3.703   0.228   0.279  0.1851  0.0150  0.8004
  208MPD1     H 3217   3.856   4.636   0.174 -0.4501 -0.2162 -1.2340
  208MPD1    H1 3218   3.513   0.128   0.251  0.0949  0.0512 -0.9664
  208MPD1    H2 3219   3.900   0.306   0.281 -0.7037  0.1100  0.2950
  208MPD1    H3 3220   3.659   0.326   0.298 -0.8752  0.0155 -1.6552
  208MPD1     N 3221   3.597   4.629   0.183 -0.3523 -0.0680 -0.0390
  208MPD1    H5 3222   3.653   4.544   0.177 -1.1635 -0.3750 -3.0701
  208MPD1    N1 3223   4.031   0.085   0.232  0.3584  0.3555 -0.1496
  208MPD1    H6 3224   4.088   0.141   0.295 -1.2664  3.2801 -1.3300
  208MPD1    H7 3225   4.072   4.731   0.246 -0.3245  0.0637 -0.0825
  209MPD1     C 3226   1.170   4.129  11.927 -0.4454 -0.3189  0.4501
  209MPD1    C1 3227   1.214   4.131  11.798 -0.6686  0.2151  0.1903
  209MPD1    C2 3228   1.194   4.247  11.723  0.6180  0.4198 -0.4766
  209MPD1    C3 3229   1.132   4.357  11.784  0.6251 -0.0031 -0.3348
  209MPD1    C4 3230   1.102   4.353  11.919 -0.0816 -0.1327  0.1874
  209MPD1    C5 3231   1.107   4.235  11.988  1.1201  0.7236 -0.6189
  209MPD1     H 3232   1.236   4.262  11.624  1.3269 -1.1785 -0.4161
  209MPD1    H1 3233   1.055   4.428  11.982 -1.5143 -0.7364 -0.1450
  209MPD1    H2 3234   1.176   4.039  11.987 -2.9821 -0.1191  0.9835
  209MPD1    H3 3235   1.076   4.224  12.091  0.0766 -3.8844 -1.4388
  209MPD1     N 3236   1.113   4.471  11.703 -0.6164 -0.0489  0.1113
  209MPD1    H5 3237   1.140   4.454  11.607  2.5059  1.4115  0.7500
  209MPD1    N1 3238   1.295   4.024  11.759  0.0754 -0.0526 -0.3078
  209MPD1    H6 3239   1.294   4.015  11.658 -2.4153 -0.1859 -0.2603
  209MPD1    H7 3240   1.258   3.943  11.809  0.8919 -1.3706 -1.8340
  210MPD1     C 3241   1.302   0.699  11.848  0.0328 -0.6032 -0.0054
  210MPD1    C1 3242   1.353   0.674  11.722 -0.1055  0.7351 -0.5525
  210MPD1    C2 3243   1.321   0.547  11.679  0.6133  0.0771 -0.1504
  210MPD1    C3 3244   1.226   0.462  11.737 -0.3915  0.5246 -0.6233
  210MPD1    C4 3245   1.170   0.509  11.854  0.1358 -0.0207 -0.0730
  210MPD1    C5 3246   1.209   0.623  11.909  0.0419  0.2012  0.4807
  210MPD1     H 3247   1.369   0.510  11.589  0.4720 -1.7262  0.5210
  210MPD1    H1 3248   1.108   0.446  11.917 -1.8612  0.6756 -1.3372
  210MPD1    H2 3249   1.328   0.791  11.901  0.5475 -0.9569  0.3606
  210MPD1    H3 3250   1.173   0.656  12.006 -0.2975  0.7099  0.1845
  210MPD1     N 3251   1.186   0.331  11.698 -0.2434 -0.1673 -0.2420
  210MPD1    H5 3252   1.110   0.289  11.752 -2.8526  1.7715 -2.4000
  210MPD1    N1 3253   1.444   0.762  11.660 -0.4533  0.1729  0.1854
  210MPD1    H6 3254   1.443   0.748  11.560  0.6393  1.7258 -0.0523
  210MPD1    H7 3255   1.416   0.857  11.686 -1.3087  0.6848 -2.6458
  211MPD1     C 3256   2.369   4.566  15.197 -0.5987 -0.2965  0.1086
  211MPD1    C1 3257   2.338   4.692  15.179  0.1170  0.2581 -0.4043
  211MPD1    C2 3258   2.337   0.035  15.293 -0.2860  0.2308 -0.4844
  211MPD1    C3 3259   2.355   4.728  15.423 -0.0357  0.6678 -0.1575
  211MPD1    C4 3260   2.380   4.590  15.439  0.3095 -0.2548 -0.5954
  211MPD1    C5 3261   2.385   4.516  15.324 -0.5865 -0.1380  0.0565
  211MPD1     H 3262   2.307   0.138  15.280 -0.1771  0.1119 -1.6897
  211MPD1    H1 3263   2.400   4.545  15.536  0.8302 -0.2404 -0.6938
  211MPD1    H2 3264   2.373   4.498  15.112 -0.2330 -0.8992  0.6019
  211MPD1    H3 3265   2.405   4.411  15.340 -0.0620 -0.2495 -1.2802
  211MPD1     N 3266   2.356   0.090  15.529 -0.0233 -0.2925  0.3389
  211MPD1    H5 3267   2.338   0.187  15.505 -0.7848 -0.6188 -0.4193
  211MPD1    N1 3268   2.352   0.004  15.053 -0.9265 -0.0258 -0.7119
  211MPD1    H6 3269   2.321   4.684  14.976 -0.6902 -1.1218  0.0351
  211MPD1    H7 3270   2.314   0.095  15.028 -1.3030  0.4114  1.4153
  212MPD1     C 3271   2.770   3.294  16.739 -0.6815 -0.0602  0.7159
  212MPD1    C1 3272   2.651   3.344  16.786 -0.0851 -0.5286  0.3705
  212MPD1    C2 3273   2.554   3.259  16.827  0.1979 -0.4663  0.0730
  212MPD1    C3 3274   2.569   3.120  16.815  0.5932 -0.2200 -0.8580
  212MPD1    C4 3275   2.694   3.073  16.769  0.0899 -1.0226 -0.2007
  212MPD1    C5 3276   2.788   3.159  16.720 -0.5993  0.5758  0.0293
  212MPD1     H 3277   2.460   3.306  16.854  0.6745 -0.4622  1.6780
  212MPD1    H1 3278   2.718   2.967  16.768  1.7434 -0.6323 -0.4824
  212MPD1    H2 3279   2.858   3.345  16.700  0.0267 -2.7280 -1.2310
  212MPD1    H3 3280   2.874   3.121  16.667 -1.5209 -1.4279 -0.0309
  212MPD1     N 3281   2.476   3.027  16.862 -0.2340  0.1032  0.1990
  212MPD1    H5 3282   2.495   2.931  16.835  1.3100 -0.1560  2.2268
  212MPD1    N1 3283   2.633   3.485  16.779  0.3429  0.7500  0.4627
  212MPD1    H6 3284   2.559   3.505  16.845  0.5787 -0.3867  1.0849
  212MPD1    H7 3285   2.713   3.536  16.816  2.4126 -1.1668 -1.3538
  213MPD1     C 3286   0.711   4.084  15.878  0.3367  0.0080 -0.0495
  213MPD1    C1 3287   0.657   3.964  15.846  0.4048 -0.6604  1.1216
  213MPD1    C2 3288   0.640   3.949  15.710 -1.6887  0.8865  0.3439
  213MPD1    C3 3289   0.649   4.053  15.621  0.4365 -0.1610 -0.4937
  213MPD1    C4 3290   0.694   4.179  15.666 -0.4392  0.2136  0.0785
  213MPD1    C5 3291   0.723   4.195  15.793  0.4232 -0.2787  0.1798
  213MPD1     H 3292   0.601   3.852  15.680  1.1688 -0.6887  1.7207
  213MPD1    H1 3293   0.701   4.262  15.596 -0.5255  0.0319 -0.1462
  213MPD1    H2 3294   0.762   4.095  15.972  0.3176  0.4232 -0.0900
  213MPD1    H3 3295   0.762   4.286  15.838  0.2142  0.4515 -1.0939
  213MPD1     N 3296   0.615   4.030  15.488 -0.6999  0.6808  0.0285
  213MPD1    H5 3297   0.575   3.938  15.473  2.9138 -0.8934  0.2245
  213MPD1    N1 3298   0.686   3.854  15.928 -0.1916 -0.1915 -0.2689
  213MPD1    H6 3299   0.625   3.774  15.909  1.0964 -0.8838 -1.4255
  213MPD1    H7 3300   0.705   3.869  16.027  0.2421  1.5521 -0.6237
  214MPD1     C 3301   4.600   3.701  14.869 -0.0354 -0.0571  0.7644
  214MPD1    C1 3302   4.621   3.704  15.007 -0.4850 -0.0126  1.1450
  214MPD1    C2 3303   0.011   3.745  15.056 -0.0780 -0.1271  0.8458
  214MPD1    C3 3304   0.103   3.801  14.970 -0.1771  1.1049  0.2994
  214MPD1    C4 3305   0.075   3.798  14.832 -0.0165  0.6588  0.0985
  214MPD1    C5 3306   4.700   3.743  14.776 -0.6726 -0.9330 -0.1133
  214MPD1     H 3307   0.039   3.748  15.161 -1.1868  0.5543  1.1218
  214MPD1    H1 3308   0.148   3.822  14.756  1.0707 -1.7249  0.4106
  214MPD1    H2 3309   4.514   3.658  14.818 -0.3686 -1.4137  2.4770
  214MPD1    H3 3310   4.689   3.739  14.668  3.0639  0.0164 -0.5140
  214MPD1     N 3311   0.229   3.846  15.012  0.3870 -1.1874 -0.2559
  214MPD1    H5 3312   0.291   3.888  14.943  0.6933 -2.7159 -0.9135
  214MPD1    N1 3313   4.526   3.657  15.095  0.2721  0.1503 -0.3672
  214MPD1    H6 3314   4.433   3.654  15.054 -0.6933  3.3334  1.6254
  214MPD1    H7 3315   4.530   3.717  15.177 -0.2321 -2.4819  1.6026
  215MPD1     C 3316   0.510   3.947  10.789  0.2114  0.6604  0.3648
  215MPD1    C1 3317   0.490   3.972  10.919 -0.6550 -1.1601 -0.4007
  215MPD1    C2 3318   0.474   4.104  10.962  0.5105  0.6283  0.4717
  215MPD1    C3 3319   0.468   4.201  10.862 -0.0933  0.1592  1.0218
  215MPD1    C4 3320   0.492   4.176  10.726  0.1256  0.1269 -0.9656
  215MPD1    C5 3321   0.503   4.040  10.693 -0.1815 -0.2679  0.0327
  215MPD1     H 3322   0.455   4.124  11.067  1.5218  2.3962  0.3295
  215MPD1    H1 3323   0.491   4.243  10.641  0.2701 -1.2462 -2.0505
  215MPD1    H2 3324   0.520   3.840  10.771  0.2806  1.2747 -3.2845
  215MPD1    H3 3325   0.514   4.017  10.588 -0.5722  0.0163 -0.0734
  215MPD1     N 3326   0.441   4.334  10.909  0.3703 -0.2906  0.4363
  215MPD1    H5 3327   0.418   4.348  11.007 -0.1695 -1.1236  0.4279
  215MPD1    N1 3328   0.509   3.876  11.017 -0.2271  0.4890  0.7701
  215MPD1    H6 3329   0.491   3.782  10.982  0.2116  1.4687 -2.1275
  215MPD1    H7 3330   0.454   3.893  11.101 -2.4079  0.4299 -0.6478
  216MPD1     C 3331   1.606   2.691   0.748  0.9732 -0.1267  0.7330
  216MPD1    C1 3332   1.727   2.751   0.762 -0.6627 -0.2751  0.1436
  216MPD1    C2 3333   1.835   2.678   0.728 -0.1286 -0.2341 -0.8631
  216MPD1    C3 3334   1.825   2.546   0.678 -0.5785  0.7009 -0.1870
  216MPD1    C4 3335   1.699   2.492   0.656  0.0404  0.0326 -0.7169
  216MPD1    C5 3336   1.594   2.562   0.699 -0.0358 -0.6925 -0.2950
  216MPD1     H 3337   1.928   2.733   0.732  0.1536 -0.5024 -3.2541
  216MPD1    H1 3338   1.681   2.402   0.599 -0.1098 -0.2942 -0.1545
  216MPD1    H2 3339   1.513   2.739   0.773  1.5833  1.2240  0.3950
  216MPD1    H3 3340   1.496   2.520   0.679  0.0159 -1.4010  0.9487
  216MPD1     N 3341   1.947   2.474   0.641 -0.5291 -0.4427 -0.2095
  216MPD1    H5 3342   2.031   2.528   0.655 -0.8853  0.4321 -1.3570
  216MPD1    N1 3343   1.723   2.885   0.791  0.0068  0.3236 -0.3183
  216MPD1    H6 3344   1.647   2.902   0.856 -1.7239 -1.5264 -1.8200
  216MPD1    H7 3345   1.810   2.929   0.819  0.0316  1.1523 -1.6723
  217MPD1     C 3346   2.625   2.504   9.518 -0.7616 -0.5697  0.5542
  217MPD1    C1 3347   2.522   2.593   9.516 -0.9418  0.1340 -0.4540
  217MPD1    C2 3348   2.553   2.725   9.481  0.1800  0.7042 -0.5661
  217MPD1    C3 3349   2.675   2.758   9.425  0.1836  0.0535 -0.6425
  217MPD1    C4 3350   2.774   2.667   9.430  0.5313 -0.2015 -0.5075
  217MPD1    C5 3351   2.757   2.548   9.490 -0.7113  0.3014  0.1427
  217MPD1     H 3352   2.476   2.799   9.498 -0.2281  0.1244  0.0816
  217MPD1    H1 3353   2.872   2.699   9.395  1.0061 -0.4141  0.6035
  217MPD1    H2 3354   2.611   2.404   9.557 -1.2986  0.1493  2.1891
  217MPD1    H3 3355   2.842   2.482   9.504 -0.0342  0.8697 -1.2936
  217MPD1     N 3356   2.690   2.888   9.381 -0.2500 -0.0002  0.2818
  217MPD1    H5 3357   2.787   2.907   9.357 -0.5896  1.7597  0.2698
  217MPD1    N1 3358   2.403   2.557   9.582  0.3552 -0.3736 -0.1383
  217MPD1    H6 3359   2.381   2.460   9.558 -0.3358 -0.1615 -0.3786
  217MPD1    H7 3360   2.329   2.625   9.562  1.2671  1.0070  1.1979
  218MPD1     C 3361   4.681   1.306  13.541  0.6158  0.3903 -0.3429
  218MPD1    C1 3362   4.655   1.320  13.406 -0.3597 -0.4173  0.6158
  218MPD1    C2 3363   4.705   1.222  13.318 -0.2971 -0.5656  0.2715
  218MPD1    C3 3364   0.062   1.133  13.362 -0.1369 -0.0106  0.5600
  218MPD1    C4 3365   0.091   1.138  13.492  0.0848  0.6176  0.1636
  218MPD1    C5 3366   0.025   1.212  13.583 -0.1312 -0.4208  0.4778
  218MPD1     H 3367   4.673   1.208  13.216 -1.1064 -0.7222  0.5466
  218MPD1    H1 3368   0.173   1.076  13.526 -3.5315 -3.7698  0.9236
  218MPD1    H2 3369   4.636   1.375  13.611  1.3576  2.9537 -2.3905
  218MPD1    H3 3370   0.051   1.214  13.689  1.4039 -0.5795  0.1085
  218MPD1     N 3371   0.117   1.038  13.271 -0.1765 -0.4303 -0.0639
  218MPD1    H5 3372   0.087   1.034  13.174 -1.4640  0.2753  0.3093
  218MPD1    N1 3373   4.575   1.426  13.363 -0.8605  0.0796 -0.1747
  218MPD1    H6 3374   4.584   1.454  13.266 -1.8689 -1.0774 -0.5983
  218MPD1    H7 3375   4.589   1.515  13.409 -1.9303 -1.2671  2.7734
  219MPD1     C 3376   0.429   1.066  12.352 -0.0960 -0.2134  0.6291
  219MPD1    C1 3377   0.304   1.047  12.404 -0.0607  0.3023  0.0641
  219MPD1    C2 3378   0.305   1.009  12.537 -0.1039 -0.4048  0.7864
  219MPD1    C3 3379   0.423   0.989  12.615 -0.4545  0.4033 -0.1959
  219MPD1    C4 3380   0.543   1.010  12.555 -0.1426 -0.2555 -0.2221
  219MPD1    C5 3381   0.542   1.053  12.423 -0.5937  0.3281  0.0627
  219MPD1     H 3382   0.211   0.990  12.587  0.4938  0.7080  2.3736
  219MPD1    H1 3383   0.639   0.995  12.604 -0.0372  1.7804  0.2160
  219MPD1    H2 3384   0.435   1.080  12.245 -1.8039  1.3939  0.7449
  219MPD1    H3 3385   0.638   1.060  12.372 -1.3867  2.0980 -1.1977
  219MPD1     N 3386   0.430   0.947  12.750 -0.5218 -0.5404 -0.7162
  219MPD1    H5 3387   0.517   0.909  12.786 -1.8605 -1.4932  1.4921
  219MPD1    N1 3388   0.187   1.036  12.320  0.2395  0.6547  0.4583
  219MPD1    H6 3389   0.109   1.049  12.384 -0.1275 -2.3985  0.6348
  219MPD1    H7 3390   0.181   1.111  12.251  1.6978 -0.0985 -0.4908
  220MPD1     C 3391   0.090   1.060   9.681 -0.8030 -0.4302 -0.6628
  220MPD1    C1 3392   0.024   1.044   9.800  0.0451  0.1075 -0.5564
  220MPD1    C2 3393   0.011   0.916   9.857 -0.5416 -0.2885 -0.6880
  220MPD1    C3 3394   0.062   0.809   9.785 -0.7647 -0.3435 -0.1565
  220MPD1    C4 3395   0.123   0.822   9.662 -0.8798  0.2380 -0.0839
  220MPD1    C5 3396   0.134   0.948   9.611 -0.3489 -1.0409 -0.7174
  220MPD1     H 3397   4.705   0.902   9.955 -2.0654 -0.2683 -1.3817
  220MPD1    H1 3398   0.162   0.737   9.607 -0.3793  0.1444  0.4164
  220MPD1    H2 3399   0.107   1.159   9.640 -2.5308  0.1935  0.1066
  220MPD1    H3 3400   0.204   0.967   9.530 -1.5218  0.6655 -1.3246
  220MPD1     N 3401   0.060   0.681   9.847  0.3078 -0.7284  0.7741
  220MPD1    H5 3402   0.029   0.677   9.944 -0.9053  0.0516  0.4082
  220MPD1    N1 3403   4.724   1.155   9.879 -0.0052  0.3773 -0.6726
  220MPD1    H6 3404   4.639   1.148   9.935  0.7803  1.7066  0.6715
  220MPD1    H7 3405   4.707   1.238   9.822  2.1335  1.5795  0.4478
  221MPD1     C 3406   3.499   3.907  17.247 -0.5785 -0.1115  0.5016
  221MPD1    C1 3407   3.601   3.940  17.158 -0.3991 -0.2540  0.1576
  221MPD1    C2 3408   3.550   3.989  17.044 -0.6777 -0.6586  0.1104
  221MPD1    C3 3409   3.417   4.010  17.008  0.4105  0.9988 -0.4935
  221MPD1    C4 3410   3.326   3.980  17.099  0.4183 -0.8571  0.2949
  221MPD1    C5 3411   3.365   3.936  17.222 -0.6657  0.2862 -0.2253
  221MPD1     H 3412   3.621   4.022  16.969 -2.0675  3.2476  0.5304
  221MPD1    H1 3413   3.220   3.992  17.079  1.2056  1.4797 -2.4584
  221MPD1    H2 3414   3.523   3.874  17.347 -0.5710 -0.0068  0.5347
  221MPD1    H3 3415   3.292   3.902  17.296 -0.8163  0.6074 -0.2244
  221MPD1     N 3416   3.370   4.051  16.883 -0.2635  0.1746 -0.0012
  221MPD1    H5 3417   3.270   4.045  16.866 -0.1065 -1.2888 -0.4143
  221MPD1    N1 3418   3.738   3.953  17.201 -0.4616  0.2737  0.0218
  221MPD1    H6 3419   3.756   3.873  17.262  2.5804  2.9557  2.6344
  221MPD1    H7 3420   3.797   3.948  17.118 -0.6127  1.1545 -0.1388
  222MPD1     C 3421   2.110   3.498  17.315 -0.1293 -0.8804  0.0003
  222MPD1    C1 3422   2.242   3.503  17.261  0.5297 -0.2003  0.8223
  222MPD1    C2 3423   2.344   3.451  17.343  0.6289  0.3618 -0.1337
  222MPD1    C3 3424   2.328   3.401  17.472  0.4635  0.0995  0.3414
  222MPD1    C4 3425   2.202   3.405  17.522 -0.2292  0.2689  0.2122
  222MPD1    C5 3426   2.096   3.449  17.447 -0.1587 -0.1789 -0.3832
  222MPD1     H 3427   2.442   3.430  17.302 -0.0186 -3.1780  0.1133
  222MPD1    H1 3428   2.180   3.356  17.617 -0.4408 -0.6046 -0.2814
  222MPD1    H2 3429   2.026   3.547  17.268  1.4715  0.9258 -0.9824
  222MPD1    H3 3430   1.998   3.450  17.493 -0.2837 -2.1515 -0.6340
  222MPD1     N 3431   2.434   3.357  17.558 -0.8381  0.0737  0.5432
  222MPD1    H5 3432   2.402   3.324  17.648 -1.2150 -4.2188 -1.1566
  222MPD1    N1 3433   2.264   3.529  17.127  1.1891 -0.0878 -0.2938
  222MPD1    H6 3434   2.206   3.600  17.084 -1.8579 -1.5835  1.2901
  222MPD1    H7 3435   2.360   3.557  17.109  1.1208  0.6197  0.4377
  223MPD1     C 3436   3.331   2.942  17.337  0.3678  0.3869 -0.2212
  223MPD1    C1 3437   3.249   3.026  17.268 -0.1852 -0.3962 -0.0482
  223MPD1    C2 3438   3.143   3.092  17.335 -0.6456 -0.1368 -0.1913
  223MPD1    C3 3439   3.121   3.065  17.469  0.2327  0.3994 -0.6057
  223MPD1    C4 3440   3.194   2.971  17.534 -0.3934 -0.1833  0.6140
  223MPD1    C5 3441   3.299   2.917  17.465  0.1834 -0.0651  0.0711
  223MPD1     H 3442   3.079   3.165  17.287  0.3613  0.8714  0.0002
  223MPD1    H1 3443   3.174   2.947  17.637 -1.2008 -0.6283  0.3490
  223MPD1    H2 3444   3.422   2.899  17.296  0.4448  1.6135 -1.3363
  223MPD1    H3 3445   3.360   2.853  17.527  0.3603  0.6560  0.6490
  223MPD1     N 3446   3.012   3.132  17.526 -0.4896 -0.4262  0.0078
  223MPD1    H5 3447   2.967   3.193  17.458  0.7327 -1.0372 -1.3549
  223MPD1    N1 3448   3.289   3.063  17.136  0.5971 -0.2306  0.0505
  223MPD1    H6 3449   3.210   3.095  17.080  1.2784  0.3356 -0.5779
  223MPD1    H7 3450   3.336   2.984  17.093  0.5423 -0.5553  0.5823
  224MPD1     C 3451   2.327   4.453   9.036 -0.1029 -0.4385  0.0232
  224MPD1    C1 3452   2.401   4.341   9.061 -0.4546  0.1870 -0.2045
  224MPD1    C2 3453   2.481   4.345   9.179 -0.1569 -0.1031 -0.3878
  224MPD1    C3 3454   2.487   4.453   9.267  0.6122  0.1171 -0.0205
  224MPD1    C4 3455   2.403   4.567   9.240  0.0960  0.0328 -0.0624
  224MPD1    C5 3456   2.333   4.566   9.122 -0.4714  0.0781  0.3431
  224MPD1     H 3457   2.542   4.258   9.200  1.9231  1.5315  0.3023
  224MPD1    H1 3458   2.395   4.657   9.300  3.4331  0.4361 -0.1886
  224MPD1    H2 3459   2.262   4.461   8.950  2.0590  1.1602 -1.4667
  224MPD1    H3 3460   2.285   4.660   9.101  0.5824  0.7593  0.9786
  224MPD1     N 3461   2.577   4.465   9.379 -0.0541 -0.4522 -0.3851
  224MPD1    H5 3462   2.553   4.533   9.451  1.3615 -1.4001  1.0074
  224MPD1    N1 3463   2.373   4.223   8.984  0.2097  0.1516  0.3806
  224MPD1    H6 3464   2.457   4.168   8.973 -0.2255 -0.0194 -1.9846
  224MPD1    H7 3465   2.358   4.254   8.888 -1.2035 -0.1986  0.4880
  225MPD1     C 3466   0.498   0.872  11.885  0.1723 -0.1429  1.1091
  225MPD1    C1 3467   0.460   0.739  11.858  0.3620 -0.5667 -0.0405
  225MPD1    C2 3468   0.331   0.696  11.901 -0.2456  0.9711 -0.4117
  225MPD1    C3 3469   0.255   0.773  11.987  0.3425  0.4113 -0.9244
  225MPD1    C4 3470   0.301   0.899  12.024 -0.1504 -0.6805  0.1395
  225MPD1    C5 3471   0.417   0.945  11.967  0.4626 -0.3534 -0.5556
  225MPD1     H 3472   0.297   0.599  11.867  0.0640  0.8944 -0.4984
  225MPD1    H1 3473   0.252   0.955  12.102  0.9092 -2.6364  2.2144
  225MPD1    H2 3474   0.591   0.919  11.856  0.3635 -0.7609  0.7209
  225MPD1    H3 3475   0.448   1.042  12.004 -0.9384 -0.5510  1.1805
  225MPD1     N 3476   0.143   0.732  12.055 -0.1179 -0.0385 -0.1611
  225MPD1    H5 3477   0.116   0.782  12.139 -1.9854  0.0766 -0.8346
  225MPD1    N1 3478   0.537   0.656  11.774  0.5441 -0.0881 -0.8345
  225MPD1    H6 3479   0.630   0.695  11.761  1.6518 -2.0881  1.2499
  225MPD1    H7 3480   0.536   0.565  11.821 -2.0072  0.9767  1.1392
  226MPD1     C 3481   2.134   0.354   8.990  0.4167 -0.2137 -1.4723
  226MPD1    C1 3482   2.101   0.470   9.057 -0.0575  0.4417 -0.2347
  226MPD1    C2 3483   2.177   0.507   9.159 -0.6986  0.0210 -0.1375
  226MPD1    C3 3484   2.281   0.434   9.207 -0.6145  0.0779  0.1071
  226MPD1    C4 3485   2.313   0.315   9.144  0.2723  0.1952 -0.7972
  226MPD1    C5 3486   2.240   0.278   9.036  0.3042 -0.2725  0.2665
  226MPD1     H 3487   2.155   0.604   9.202  0.2914 -0.3623  1.2781
  226MPD1    H1 3488   2.401   0.258   9.172 -0.4612 -1.1285 -1.1546
  226MPD1    H2 3489   2.088   0.328   8.895 -0.4205  1.3600 -1.4911
  226MPD1    H3 3490   2.264   0.183   8.990 -1.9628 -0.7381  0.0425
  226MPD1     N 3491   2.341   0.488   9.320  0.8615 -0.0293 -0.0981
  226MPD1    H5 3492   2.319   0.583   9.348  1.8267  0.5571 -1.3310
  226MPD1    N1 3493   2.001   0.554   9.002 -0.2368 -0.1598  1.0883
  226MPD1    H6 3494   1.952   0.604   9.075  1.1064  0.0935  1.8133
  226MPD1    H7 3495   1.928   0.493   8.965  1.0145 -2.1721  1.9215
  227MPD1     C 3496   2.540   1.281   9.394 -0.0153 -0.0512  0.0969
  227MPD1    C1 3497   2.551   1.191   9.288 -0.1892 -0.2535 -0.2388
  227MPD1    C2 3498   2.589   1.061   9.329 -0.6189 -0.1652  0.1222
  227MPD1    C3 3499   2.576   1.015   9.456 -0.3146  0.0790  0.2194
  227MPD1    C4 3500   2.543   1.105   9.557 -0.0432  0.9649 -1.6566
  227MPD1    C5 3501   2.530   1.235   9.522 -1.3251  0.4765  0.1144
  227MPD1     H 3502   2.614   0.986   9.255  1.5811  0.7226 -0.0503
  227MPD1    H1 3503   2.523   1.074   9.659  0.6284  0.8699 -1.5520
  227MPD1    H2 3504   2.524   1.386   9.376 -2.7404 -0.6017 -0.6825
  227MPD1    H3 3505   2.502   1.304   9.601  0.3515  0.8948  0.3536
  227MPD1     N 3506   2.574   0.878   9.486  0.2174  0.1327 -0.6438
  227MPD1    H5 3507   2.599   0.820   9.406 -1.2578  0.6813 -1.5080
  227MPD1    N1 3508   2.537   1.235   9.152 -0.6371  0.7655 -0.4778
  227MPD1    H6 3509   2.529   1.157   9.086  0.5656 -0.5019  0.8761
  227MPD1    H7 3510   2.464   1.306   9.144  0.5109  1.9636 -0.3267
  228MPD1     C 3511   2.072   3.336  12.879 -0.0891  0.7654  0.0298
  228MPD1    C1 3512   2.081   3.469  12.871 -0.5103 -0.7806  0.2174
  228MPD1    C2 3513   1.963   3.538  12.895 -0.1760  0.3763 -0.6866
  228MPD1    C3 3514   1.854   3.487  12.961  1.0155  0.2900  0.2964
  228MPD1    C4 3515   1.852   3.354  12.976  0.3656 -0.0632  0.3711
  228MPD1    C5 3516   1.952   3.277  12.924  0.1171 -0.1322 -0.0345
  228MPD1     H 3517   1.952   3.645  12.882 -1.3527  0.4171  0.6085
  228MPD1    H1 3518   1.766   3.305  13.020  0.0411  0.6275  0.5145
  228MPD1    H2 3519   2.154   3.271  12.852 -1.2490 -0.7531  0.1290
  228MPD1    H3 3520   1.948   3.172  12.947  1.6901 -0.3094 -0.6038
  228MPD1     N 3521   1.751   3.565  13.013 -0.2281  0.1096 -0.4285
  228MPD1    H5 3522   1.757   3.665  13.001 -2.9472  0.5865  2.2279
  228MPD1    N1 3523   2.191   3.542  12.822 -0.7487  0.2081 -0.4165
  228MPD1    H6 3524   2.281   3.496  12.814  0.0285  1.2883  1.9944
  228MPD1    H7 3525   2.195   3.642  12.841  0.0006  0.3061 -1.1050
  229MPD1     C 3526   1.432   2.271  15.041  0.2454 -0.1596  0.5106
  229MPD1    C1 3527   1.551   2.274  14.963  0.3669 -0.3505 -0.3252
  229MPD1    C2 3528   1.610   2.155  14.927 -0.1336 -0.0802  0.0223
  229MPD1    C3 3529   1.563   2.032  14.973  0.4110  0.2200 -0.6442
  229MPD1    C4 3530   1.443   2.030  15.036 -0.4342  0.0173  0.0870
  229MPD1    C5 3531   1.375   2.146  15.057  0.5636  0.7935  0.4417
  229MPD1     H 3532   1.698   2.152  14.864 -1.3401  2.4636 -1.7690
  229MPD1    H1 3533   1.392   1.940  15.068 -0.4254 -0.5073 -1.3782
  229MPD1    H2 3534   1.380   2.360  15.075  2.1266  1.2361 -0.2348
  229MPD1    H3 3535   1.280   2.142  15.110  0.5277  1.6172  0.4421
  229MPD1     N 3536   1.630   1.910  14.945  0.2043  0.5242  0.2252
  229MPD1    H5 3537   1.592   1.830  14.995 -0.0955  0.0679 -0.7211
  229MPD1    N1 3538   1.613   2.389  14.938 -0.1172 -0.3062  0.4629
  229MPD1    H6 3539   1.635   2.405  14.840 -0.7444  1.3696  0.5863
  229MPD1    H7 3540   1.562   2.471  14.972 -0.1573 -1.5436  3.3498
  230MPD1     C 3541   1.153   1.206  14.954  0.1999  0.2315  0.5874
  230MPD1    C1 3542   1.255   1.125  15.005 -0.1833  0.3652 -0.1812
  230MPD1    C2 3543   1.382   1.178  14.999 -0.2818 -0.4509  0.3721
  230MPD1    C3 3544   1.398   1.316  14.979 -0.4556 -0.1061 -0.2138
  230MPD1    C4 3545   1.290   1.396  14.941 -0.3668  0.6030 -0.4344
  230MPD1    C5 3546   1.171   1.340  14.934  0.2818 -0.3482 -0.4603
  230MPD1     H 3547   1.464   1.110  15.018 -0.3977 -0.8733 -0.6467
  230MPD1    H1 3548   1.290   1.502  14.919  0.3403  0.4557 -1.1658
  230MPD1    H2 3549   1.049   1.174  14.951  1.1599 -2.9764  1.2224
  230MPD1    H3 3550   1.092   1.412  14.913 -0.8802 -1.9962 -1.7094
  230MPD1     N 3551   1.527   1.374  14.988  0.0222  0.0658  0.2481
  230MPD1    H5 3552   1.604   1.309  14.998  1.4042  1.9303  1.4635
  230MPD1    N1 3553   1.233   0.981  15.015  0.2189  0.6711  0.0977
  230MPD1    H6 3554   1.144   0.957  15.059 -0.0995  1.1312 -0.2889
  230MPD1    H7 3555   1.307   0.930  15.062  0.5911  0.4717 -0.6978
  231MPD1     C 3556   4.693   4.085  15.296  0.8898  0.9027 -0.2040
  231MPD1    C1 3557   4.671   4.073  15.167 -0.6631 -0.1670 -0.0224
  231MPD1    C2 3558   0.018   4.139  15.084 -0.0294 -0.7931  0.9724
  231MPD1    C3 3559   0.130   4.200  15.121  0.4049  0.0057  0.3566
  231MPD1    C4 3560   0.154   4.211  15.257 -0.4603  0.6762  0.3295
  231MPD1    C5 3561   0.066   4.144  15.338 -0.1185 -0.1233  0.4177
  231MPD1     H 3562   4.730   4.137  14.979 -0.6517  1.2581  1.0864
  231MPD1    H1 3563   0.233   4.278  15.292  0.3335 -0.0990  0.0240
  231MPD1    H2 3564   4.634   4.031  15.369  1.3508 -0.1606 -0.6294
  231MPD1    H3 3565   0.068   4.168  15.444 -2.5282  2.0603 -0.0441
  231MPD1     N 3566   0.199   4.265  15.016 -0.2090 -0.1039  0.6861
  231MPD1    H5 3567   0.148   4.260  14.928  1.1024  0.0259 -0.0832
  231MPD1    N1 3568   4.546   4.025  15.132  0.4646 -0.9254  0.1505
  231MPD1    H6 3569   4.517   3.943  15.185  0.5171 -0.2155  1.2807
  231MPD1    H7 3570   4.547   4.002  15.033  0.0654 -0.3186  0.0029
  232MPD1     C 3571   1.392   2.212   0.553  0.0595 -0.0202  0.5197
  232MPD1    C1 3572   1.289   2.263   0.481 -0.4055  0.3361 -0.4642
  232MPD1    C2 3573   1.259   2.199   0.364 -0.0527 -0.2288  0.5329
  232MPD1    C3 3574   1.317   2.079   0.328  0.4605  0.1877  0.0416
  232MPD1    C4 3575   1.409   2.018   0.416  0.3111 -0.0353 -0.3144
  232MPD1    C5 3576   1.448   2.084   0.527  0.2037  0.8562 -0.4688
  232MPD1     H 3577   1.172   2.234   0.309 -0.4599  1.4647  2.2483
  232MPD1    H1 3578   1.443   1.915   0.407 -1.2086 -0.6291  0.7262
  232MPD1    H2 3579   1.429   2.263   0.641  0.2708 -0.2172  0.5445
  232MPD1    H3 3580   1.514   2.040   0.600 -0.8985 -0.5898 -0.3381
  232MPD1     N 3581   1.281   2.019   0.208  0.0815 -0.0027  0.2311
  232MPD1    H5 3582   1.198   2.056   0.164 -1.4171 -2.0463  1.3558
  232MPD1    N1 3583   1.239   2.390   0.513  0.0980  0.7669  0.2750
  232MPD1    H6 3584   1.147   2.419   0.481 -0.3158 -0.9528 -0.0862
  232MPD1    H7 3585   1.244   2.400   0.614 -1.1795 -0.0550  0.4196
  233MPD1     C 3586   2.861   4.600   0.766 -0.6999 -0.0184  0.7206
  233MPD1    C1 3587   2.845   4.526   0.882 -0.1074  0.4604  0.6760
  233MPD1    C2 3588   2.925   4.558   0.986  0.3144  1.0472  0.5916
  233MPD1    C3 3589   3.032   4.644   0.976  0.1246 -0.0238  0.2732
  233MPD1    C4 3590   3.067   4.696   0.851  0.0941  0.0931 -0.2863
  233MPD1    C5 3591   2.972   4.678   0.750 -0.3898 -0.5808 -0.2384
  233MPD1     H 3592   2.910   4.522   1.087  0.1234  0.2686  0.2917
  233MPD1    H1 3593   3.151   0.024   0.837 -0.3336  0.8834  0.8820
  233MPD1    H2 3594   2.796   4.588   0.680  1.0698  0.3308 -0.6523
  233MPD1    H3 3595   2.995   4.727   0.656 -0.9484 -0.0320 -0.0874
  233MPD1     N 3596   3.112   4.691   1.084 -0.4261 -0.7684  0.2708
  233MPD1    H5 3597   3.174   0.029   1.060  0.0829 -0.7053  1.8035
  233MPD1    N1 3598   2.740   4.437   0.898 -0.1481  0.2537 -0.0858
  233MPD1    H6 3599   2.763   4.358   0.959  1.8978  0.6465 -0.3553
  233MPD1    H7 3600   2.717   4.398   0.807 -0.2919  0.7461 -0.2567
  234MPD1     C 3601   4.198   3.313   9.984  0.0394 -0.2110  0.1103
  234MPD1    C1 3602   4.217   3.441   9.928  0.5970  0.4742  0.2456
  234MPD1    C2 3603   4.119   3.486   9.841 -0.2417 -0.9032 -0.0186
  234MPD1    C3 3604   4.019   3.404   9.789 -0.5648 -0.3585  0.3894
  234MPD1    C4 3605   4.010   3.276   9.842  0.4655 -0.2802 -0.1536
  234MPD1    C5 3606   4.102   3.227   9.933 -0.2926  0.2964 -0.5260
  234MPD1     H 3607   4.117   3.589   9.806  1.8110 -0.7842  0.2074
  234MPD1    H1 3608   3.939   3.200   9.810 -2.7453  2.3074  0.8976
  234MPD1    H2 3609   4.267   3.280  10.061  0.9099  1.6168  0.1095
  234MPD1    H3 3610   4.088   3.127   9.973  1.8098  0.5512  0.8426
  234MPD1     N 3611   3.911   3.474   9.727  0.2288  0.8555  0.1340
  234MPD1    H5 3612   3.914   3.575   9.726  3.3082  0.7117 -2.4515
  234MPD1    N1 3613   4.293   3.537   9.993 -0.3082  0.2411  0.1052
  234MPD1    H6 3614   4.386   3.499  10.012 -1.1352 -1.7993 -0.0147
  234MPD1    H7 3615   4.304   3.620   9.935 -0.8795  0.2923  0.0780
  235MPD1     C 3616   0.867   1.777  10.717 -0.2687 -0.3800 -0.0188
  235MPD1    C1 3617   0.889   1.693  10.826 -0.0021 -0.3964 -0.4412
  235MPD1    C2 3618   1.004   1.624  10.824 -0.6414  0.5500 -0.3541
  235MPD1    C3 3619   1.111   1.658  10.741  0.4251 -0.3376  0.0477
  235MPD1    C4 3620   1.087   1.746  10.638  0.0712  0.1280 -0.3986
  235MPD1    C5 3621   0.964   1.808  10.625 -0.2955  0.3055 -0.4564
  235MPD1     H 3622   1.030   1.554  10.903 -1.0165  1.2349  0.3754
  235MPD1    H1 3623   1.164   1.790  10.575  1.2249 -0.5699  0.5361
  235MPD1    H2 3624   0.775   1.832  10.707  0.6704  1.4499  1.5280
  235MPD1    H3 3625   0.956   1.889  10.554  0.6520  0.9213  0.1474
  235MPD1     N 3626   1.236   1.597  10.758  0.3508  0.2591 -0.7071
  235MPD1    H5 3627   1.244   1.524  10.828  0.1899  1.3261  0.4319
  235MPD1    N1 3628   0.788   1.650  10.907  0.5790  0.0766 -0.1941
  235MPD1    H6 3629   0.726   1.728  10.931  2.0871  1.5084 -0.9590
  235MPD1    H7 3630   0.822   1.630  11.001  0.5078 -3.0717 -0.8527
  236MPD1     C 3631   0.057   2.558  10.384  0.2319  1.1486  0.0764
  236MPD1    C1 3632   0.022   2.430  10.339  0.1064  0.2785  0.5677
  236MPD1    C2 3633   0.089   2.317  10.384 -0.3016  0.0258 -0.2713
  236MPD1    C3 3634   0.213   2.337  10.451 -0.2894 -0.0409 -0.3068
  236MPD1    C4 3635   0.240   2.464  10.504  0.3376  0.4017 -0.0018
  236MPD1    C5 3636   0.165   2.575  10.472  0.6467 -0.0561  0.2065
  236MPD1     H 3637   0.058   2.219  10.350 -0.9411  0.2151 -0.2345
  236MPD1    H1 3638   0.321   2.487  10.572 -0.4889  0.2826  1.0170
  236MPD1    H2 3639   4.730   2.637  10.351 -0.4062  0.9102  0.7866
  236MPD1    H3 3640   0.190   2.676  10.505  1.2785  0.1021 -0.7625
  236MPD1     N 3641   0.314   2.239  10.467 -0.4631  0.3057 -0.1551
  236MPD1    H5 3642   0.396   2.268  10.520 -0.3036 -0.2391 -0.1049
  236MPD1    N1 3643   4.638   2.409  10.278 -0.2525 -0.0738  0.2260
  236MPD1    H6 3644   4.605   2.479  10.213 -4.0453 -1.6450  0.4115
  236MPD1    H7 3645   4.639   2.327  10.218 -1.4710  1.3265 -1.6980
  237MPD1     C 3646   0.715   1.136  14.613  0.5341 -0.4683  0.1505
  237MPD1    C1 3647   0.705   1.088  14.734 -0.2667  0.2309 -0.4774
  237MPD1    C2 3648   0.618   0.984  14.762  0.5287  0.4262 -0.9273
  237MPD1    C3 3649   0.525   0.946  14.666 -0.7302 -0.2681 -0.0804
  237MPD1    C4 3650   0.537   0.994  14.539  0.1947  0.2368 -0.2926
  237MPD1    C5 3651   0.636   1.091  14.508  0.3798 -0.9047  0.0309
  237MPD1     H 3652   0.618   0.953  14.866 -1.7852  3.1478 -0.1187
  237MPD1    H1 3653   0.474   0.953  14.460 -1.0032  1.4345  0.0430
  237MPD1    H2 3654   0.791   1.208  14.586 -3.0762  3.2969 -0.0389
  237MPD1    H3 3655   0.652   1.120  14.405 -0.3045 -1.7998 -0.3287
  237MPD1     N 3656   0.422   0.854  14.698  0.4726  0.0666  0.5071
  237MPD1    H5 3657   0.356   0.834  14.623  0.9850  1.9258 -0.4460
  237MPD1    N1 3658   0.805   1.119  14.826  0.0902 -0.0772 -0.2437
  237MPD1    H6 3659   0.779   1.106  14.923  1.2872 -1.8776 -0.1713
  237MPD1    H7 3660   0.832   1.217  14.814  1.3987 -0.6118 -1.7188
  238MPD1     C 3661   1.722   4.682  15.500 -0.3805  0.0917 -0.8201
  238MPD1    C1 3662   1.698   4.737  15.374 -0.1277 -0.5250  0.3167
  238MPD1    C2 3663   1.681   4.646  15.263 -0.6494  0.4129  0.9693
  238MPD1    C3 3664   1.671   4.514  15.292  0.6660  0.0109  0.1978
  238MPD1    C4 3665   1.690   4.464  15.416  0.6005 -0.4264  0.2448
  238MPD1    C5 3666   1.721   4.547  15.514  0.5007 -0.5661  0.7156
  238MPD1     H 3667   1.653   4.689  15.167  1.0174  0.5319  0.5377
  238MPD1    H1 3668   1.675   4.359  15.439 -0.3775 -0.7770 -1.9685
  238MPD1    H2 3669   1.728   0.007  15.587 -0.6926  1.3632 -1.7322
  238MPD1    H3 3670   1.747   4.509  15.612  2.1060  2.2029  1.3608
  238MPD1     N 3671   1.647   4.412  15.199  0.7718 -0.1894 -0.3689
  238MPD1    H5 3672   1.603   4.328  15.235  1.5132 -2.2652 -4.2180
  238MPD1    N1 3673   1.707   0.138  15.359  0.3230 -0.7481  0.0814
  238MPD1    H6 3674   1.679   0.192  15.441 -1.8528  0.9559 -1.7861
  238MPD1    H7 3675   1.666   0.170  15.272  0.6611  0.3406  0.3249
  239MPD1     C 3676   2.358   0.379  14.830 -0.1889  0.2439 -0.1323
  239MPD1    C1 3677   2.308   0.505  14.846 -0.4624  0.7629  0.1022
  239MPD1    C2 3678   2.241   0.559  14.735 -0.3088 -0.0436 -0.1595
  239MPD1    C3 3679   2.251   0.498  14.613 -0.0171  1.3189 -0.3538
  239MPD1    C4 3680   2.323   0.384  14.599 -0.1314  0.7773  0.9172
  239MPD1    C5 3681   2.378   0.320  14.709 -0.5074 -1.2463 -0.3515
  239MPD1     H 3682   2.182   0.648  14.752 -0.2519  0.2792 -1.6229
  239MPD1    H1 3683   2.326   0.329  14.506  0.3603 -0.4595  1.6659
  239MPD1    H2 3684   2.397   0.320  14.912 -1.6705 -0.0877  0.3334
  239MPD1    H3 3685   2.433   0.227  14.701 -1.8106 -2.0421  0.0188
  239MPD1     N 3686   2.183   0.544  14.501 -0.4461  0.0454 -0.7785
  239MPD1    H5 3687   2.192   0.489  14.417  1.3744 -3.0486  1.4451
  239MPD1    N1 3688   2.279   0.539  14.981 -0.7387  0.0068  0.2777
  239MPD1    H6 3689   2.349   0.522  15.052 -1.3178 -0.6026  0.7067
  239MPD1    H7 3690   2.257   0.637  15.000  2.6397  0.3914  2.1582
  240MPD1     C 3691   1.754   0.027  13.971  0.0028 -0.0612  0.3134
  240MPD1    C1 3692   1.625   4.724  13.949  0.1698  0.5461  1.0670
  240MPD1    C2 3693   1.551   4.673  14.054 -0.0499 -0.0424 -0.2013
  240MPD1    C3 3694   1.604   4.663  14.183 -0.4095 -0.3668 -0.2806
  240MPD1    C4 3695   1.728   4.721  14.209 -0.7887  0.1009  0.1701
  240MPD1    C5 3696   1.793   0.034  14.102 -0.5774  0.1402  0.3335
  240MPD1     H 3697   1.450   4.640  14.037 -0.4132  1.0255 -0.1063
  240MPD1    H1 3698   1.783   4.721  14.302  1.0846 -0.8412 -0.9409
  240MPD1    H2 3699   1.815   0.061  13.888 -0.4871  2.5802  1.0358
  240MPD1    H3 3700   1.893   0.063  14.130 -0.6867  2.8636 -2.1368
  240MPD1     N 3701   1.538   4.589  14.286  0.3497 -0.4981 -0.2527
  240MPD1    H5 3702   1.463   4.526  14.257  0.3192 -0.8728  0.6187
  240MPD1    N1 3703   1.552   0.018  13.832 -0.1807 -0.1858  0.2773
  240MPD1    H6 3704   1.611   0.041  13.752 -0.4483  0.1401  0.1767
  240MPD1    H7 3705   1.482   4.689  13.803  0.9587 -1.4953  0.5728
  241MPD1     C 3706   1.300   0.028  15.236  0.3826  0.2608 -0.3384
  241MPD1    C1 3707   1.292   4.628  15.235  0.2125  0.1298  0.4685
  241MPD1    C2 3708   1.312   4.566  15.112  0.0790 -0.2383 -0.0717
  241MPD1    C3 3709   1.361   4.635  14.998  0.1045  0.2208 -0.0594
  241MPD1    C4 3710   1.387   0.030  15.007  0.0823  0.4221 -0.4861
  241MPD1    C5 3711   1.358   0.095  15.124 -0.6219  0.2218 -0.0088
  241MPD1     H 3712   1.300   4.459  15.112 -1.9553 -0.0219  2.3041
  241MPD1    H1 3713   1.419   0.086  14.920  0.1848  0.2553 -0.5577
  241MPD1    H2 3714   1.267   0.081  15.324 -1.0389  0.2967 -0.8838
  241MPD1    H3 3715   1.390   0.198  15.140  1.1950 -0.6380  1.9297
  241MPD1     N 3716   1.379   4.573  14.874  0.0618  0.1672  0.0238
  241MPD1    H5 3717   1.413   4.629  14.796  0.4110  0.1780  0.1865
  241MPD1    N1 3718   1.237   4.553  15.339  0.2336 -0.2266 -0.1866
  241MPD1    H6 3719   1.281   4.462  15.337 -0.6899 -0.6884  0.5940
  241MPD1    H7 3720   1.262   4.602  15.425  0.5521  0.2038 -0.5243
  242MPD1     C 3721   1.213   3.446  15.645  0.1376  0.5637 -0.4469
  242MPD1    C1 3722   1.190   3.455  15.513  0.8876  0.1179 -0.3512
  242MPD1    C2 3723   1.164   3.344  15.444  0.0968 -0.2231  0.2287
  242MPD1    C3 3724   1.151   3.222  15.504 -0.0182  0.6871 -0.4618
  242MPD1    C4 3725   1.175   3.217  15.638 -0.4324  0.0304 -0.2401
  242MPD1    C5 3726   1.216   3.331  15.705 -0.4484  0.2160 -0.2086
  242MPD1     H 3727   1.138   3.362  15.340  1.0684  0.9150  0.1866
  242MPD1    H1 3728   1.172   3.125  15.694 -2.9324  1.2395  1.6735
  242MPD1    H2 3729   1.226   3.534  15.707 -0.3133 -0.1388  0.6407
  242MPD1    H3 3730   1.224   3.313  15.812 -1.3278 -0.7578 -0.3059
  242MPD1     N 3731   1.121   3.103  15.439 -0.2711 -0.0371  0.1051
  242MPD1    H5 3732   1.120   3.022  15.500 -1.2052  0.3813  0.6442
  242MPD1    N1 3733   1.215   3.577  15.445 -0.0856  0.4867  0.4693
  242MPD1    H6 3734   1.237   3.658  15.502  1.3166  1.4854 -1.5250
  242MPD1    H7 3735   1.300   3.574  15.389 -0.9591  0.1070 -0.8583
  243MPD1     C 3736   2.387   2.050   0.630 -0.1506  0.2949  0.5364
  243MPD1    C1 3737   2.324   1.949   0.560 -0.1126 -0.5087  0.2408
  243MPD1    C2 3738   2.349   1.933   0.427 -0.6837  0.6117 -0.5332
  243MPD1    C3 3739   2.453   1.996   0.359  0.1120 -0.3095 -0.2698
  243MPD1    C4 3740   2.516   2.098   0.429  0.5455  0.5701 -0.1038
  243MPD1    C5 3741   2.481   2.123   0.561 -0.3572 -0.0462  0.2445
  243MPD1     H 3742   2.295   1.863   0.365 -0.3685  2.0166 -2.3974
  243MPD1    H1 3743   2.590   2.165   0.387 -0.3327  1.4229 -0.2802
  243MPD1    H2 3744   2.398   2.067   0.736  2.6864  0.2270  0.2587
  243MPD1    H3 3745   2.544   2.197   0.610 -1.2506  1.5394 -1.0130
  243MPD1     N 3746   2.504   1.946   0.242 -0.2252  0.4870 -0.3465
  243MPD1    H5 3747   2.460   1.862   0.204 -0.3422 -0.0229  0.8996
  243MPD1    N1 3748   2.210   1.887   0.620 -0.0833 -0.3029  0.2404
  243MPD1    H6 3749   2.224   1.885   0.721 -0.6050 -0.2139  0.3118
  243MPD1    H7 3750   2.186   1.795   0.585  0.0735 -0.3053  0.1369
  244MPD1     C 3751   2.666   1.112  17.490 -0.2223  0.7679 -0.5016
  244MPD1    C1 3752   2.631   1.206  17.397 -0.3613 -0.6143 -0.1870
  244MPD1    C2 3753   2.624   1.336  17.431  0.2615  0.7694  0.1128
  244MPD1    C3 3754   2.657   1.377  17.559  0.1687 -0.2772  0.3266
  244MPD1    C4 3755   2.685   1.283  17.653  0.2636 -0.4555 -0.1097
  244MPD1    C5 3756   2.690   1.155  17.621 -0.2235 -0.1466  0.1056
  244MPD1     H 3757   2.603   1.413  17.357 -0.4568 -0.0037 -0.4845
  244MPD1    H1 3758   2.702   1.304   0.004 -3.4928  0.7006  0.2879
  244MPD1    H2 3759   2.663   1.005  17.472  0.6764  0.8195 -0.9560
  244MPD1    H3 3760   2.718   1.083  17.697  0.3154 -0.0695 -0.0173
  244MPD1     N 3761   2.654   1.515  17.588  0.1674  0.1790 -0.2537
  244MPD1    H5 3762   2.619   1.571  17.510 -0.4855 -1.8898 -1.4632
  244MPD1    N1 3763   2.630   1.177  17.258 -0.0045  0.0618  0.0441
  244MPD1    H6 3764   2.554   1.235  17.222 -2.4000 -2.6749  0.6498
  244MPD1    H7 3765   2.606   1.079  17.245  0.1992 -0.1484  1.1906
  245MPD1     C 3766   4.352   1.852  13.323  0.2653 -0.8022  0.0901
  245MPD1    C1 3767   4.394   1.853  13.454  0.2161  0.3134 -0.3986
  245MPD1    C2 3768   4.467   1.959  13.503  0.6011  0.2930  0.2123
  245MPD1    C3 3769   4.501   2.062  13.419  0.3175 -1.3795  0.0095
  245MPD1    C4 3770   4.465   2.055  13.285  0.0867 -0.5216 -0.4133
  245MPD1    C5 3771   4.393   1.951  13.237  0.4558  0.6285  0.0077
  245MPD1     H 3772   4.493   1.963  13.608  1.3588  0.2731  0.0270
  245MPD1    H1 3773   4.489   2.126  13.208  0.6007 -0.0821  0.1511
  245MPD1    H2 3774   4.280   1.780  13.284 -0.7195  0.0614  0.3071
  245MPD1    H3 3775   4.362   1.952  13.133 -0.7344 -1.1336  0.3353
  245MPD1     N 3776   4.567   2.177  13.475  0.4264 -0.3599  0.6808
  245MPD1    H5 3777   4.598   2.172  13.571 -0.6132 -3.6122  0.8327
  245MPD1    N1 3778   4.338   1.763  13.540  0.0620  0.3935  0.1604
  245MPD1    H6 3779   4.384   1.744  13.629 -1.3012  0.5865  0.8963
  245MPD1    H7 3780   4.317   1.678  13.487 -1.6348  1.0492 -0.2247
  246MPD1     C 3781   0.880   0.584  10.077  0.1513 -0.0926 -0.6263
  246MPD1    C1 3782   0.830   0.642  10.196  0.1136 -0.0043  0.2629
  246MPD1    C2 3783   0.724   0.725  10.176 -0.4342 -0.3606  0.0559
  246MPD1    C3 3784   0.649   0.731  10.059  0.2777  0.9145  0.0385
  246MPD1    C4 3785   0.684   0.659   9.947 -0.3198 -0.4091  0.4766
  246MPD1    C5 3786   0.806   0.594   9.956 -0.8614 -0.7516  0.1634
  246MPD1     H 3787   0.707   0.797  10.254  1.3354 -0.0802  0.1772
  246MPD1    H1 3788   0.639   0.664   9.848  0.3536  2.8899  0.3388
  246MPD1    H2 3789   0.977   0.535  10.071  0.5665  0.6687 -0.1104
  246MPD1    H3 3790   0.844   0.548   9.866 -2.6530 -0.5650 -0.7007
  246MPD1     N 3791   0.538   0.827  10.059  0.1387  0.1126  0.2204
  246MPD1    H5 3792   0.512   0.869  10.148 -1.5886  0.0591 -0.2746
  246MPD1    N1 3793   0.913   0.655  10.312  0.0417 -0.0747 -0.1301
  246MPD1    H6 3794   0.955   0.565  10.334 -0.8182 -1.3463 -3.5661
  246MPD1    H7 3795   0.880   0.696  10.399  1.4021 -0.0644  0.3913
  247MPD1     C 3796   4.458   2.925  16.581 -0.9621 -0.2697 -0.2877
  247MPD1    C1 3797   4.369   2.863  16.667 -0.0448  0.0429 -0.3455
  247MPD1    C2 3798   4.391   2.728  16.682 -0.0993  0.8876  0.5153
  247MPD1    C3 3799   4.462   2.650  16.585 -0.1764  0.6100  0.2480
  247MPD1    C4 3800   4.524   2.719  16.486  0.4713 -0.3227 -0.5989
  247MPD1    C5 3801   4.532   2.855  16.492 -0.1473 -0.0473  0.5736
  247MPD1     H 3802   4.324   2.685  16.755 -0.4210 -0.5943 -0.6376
  247MPD1    H1 3803   4.579   2.680  16.401 -0.3604 -2.2312 -0.2640
  247MPD1    H2 3804   4.460   3.033  16.577  1.7956 -0.4227 -3.3103
  247MPD1    H3 3805   4.597   2.900  16.418  0.3957 -1.2633  0.3231
  247MPD1     N 3806   4.461   2.512  16.587  0.6336  0.3199  0.3594
  247MPD1    H5 3807   4.513   2.472  16.509  1.0999 -0.4909  1.0878
  247MPD1    N1 3808   4.295   2.941  16.758  0.5636 -0.3460 -0.7308
  247MPD1    H6 3809   4.254   3.025  16.717 -1.2827 -1.1097 -0.4754
  247MPD1    H7 3810   4.212   2.885  16.781  0.8842  0.1818  1.6562
  248MPD1     C 3811   4.084   1.172   0.927 -0.0312 -0.2646 -0.2892
  248MPD1    C1 3812   4.024   1.279   0.866 -0.1133 -0.4040  0.3780
  248MPD1    C2 3813   4.099   1.397   0.860  0.2537 -0.3199  0.3596
  248MPD1    C3 3814   4.209   1.412   0.934  0.0613  0.6136 -0.6213
  248MPD1    C4 3815   4.252   1.305   1.003 -0.0179  0.3505 -0.0136
  248MPD1    C5 3816   4.197   1.180   1.005 -0.2032 -0.7306 -0.0734
  248MPD1     H 3817   4.054   1.485   0.815 -0.7316 -1.7712 -1.4983
  248MPD1    H1 3818   4.344   1.308   1.062 -1.3343 -2.8096  2.1651
  248MPD1    H2 3819   4.047   1.073   0.904 -1.7742  0.0608  1.1452
  248MPD1    H3 3820   4.236   1.090   1.050  0.4174  0.4748  1.8123
  248MPD1     N 3821   4.269   1.540   0.942  0.1436  0.2935  0.1507
  248MPD1    H5 3822   4.234   1.619   0.888 -1.0356  0.7932  1.6315
  248MPD1    N1 3823   3.908   1.259   0.789 -0.3043 -0.3695  0.3098
  248MPD1    H6 3824   3.871   1.338   0.737  0.8414 -0.5172 -0.7275
  248MPD1    H7 3825   3.834   1.204   0.832 -1.5275  0.1053 -1.1750
  249MPD1     C 3826   1.454   4.397  11.365 -0.4380  0.1635 -1.4006
  249MPD1    C1 3827   1.414   4.505  11.287 -0.1147  0.1027  0.2999
  249MPD1    C2 3828   1.328   4.484  11.177 -0.0967 -0.3196  0.8498
  249MPD1    C3 3829   1.280   4.361  11.151  0.6394  0.1590  0.3047
  249MPD1    C4 3830   1.314   4.256  11.239  0.4777 -0.3576  0.1501
  249MPD1    C5 3831   1.397   4.277  11.344  0.5505  0.0644 -0.0661
  249MPD1     H 3832   1.294   4.573  11.125 -2.0935 -2.7518 -1.9991
  249MPD1    H1 3833   1.281   4.153  11.230 -0.0736 -0.1066 -0.6722
  249MPD1    H2 3834   1.531   4.406  11.441 -0.7791  2.2672 -1.3065
  249MPD1    H3 3835   1.428   4.190  11.401 -0.2473  0.3680  0.8331
  249MPD1     N 3836   1.193   4.341  11.044  0.2509 -0.4788  0.1838
  249MPD1    H5 3837   1.175   4.422  10.985 -3.5711 -1.2493  0.2634
  249MPD1    N1 3838   1.483   4.627  11.303 -0.2770 -0.1625 -0.0129
  249MPD1    H6 3839   1.421   4.706  11.282  0.7618  0.8129  0.5824
  249MPD1    H7 3840   1.519   4.643  11.397 -2.1427  0.1550  0.6407
  250MPD2     C 3841   3.166   0.376  12.491  0.1314  0.1383  0.4011
  250MPD2    C1 3842   3.036   0.415  12.531 -0.7573  0.2511  0.2107
  250MPD2    C2 3843   2.924   0.336  12.503 -0.2405 -0.0703 -0.6642
  250MPD2    C3 3844   2.944   0.211  12.444 -0.2367  0.1885  0.0876
  250MPD2    C4 3845   3.069   0.174  12.403  0.5017 -0.1442  0.0379
  250MPD2    C5 3846   3.179   0.256  12.426 -0.6253 -0.8094 -0.5060
  250MPD2     H 3847   2.828   0.354  12.551 -0.1318  0.6602 -0.7310
  250MPD2    H1 3848   3.091   0.082  12.350 -0.9211 -0.0917 -0.6331
  250MPD2    H2 3849   3.254   0.435  12.514  0.0682  0.7887 -1.0191
  250MPD2    H3 3850   3.280   0.230  12.397  0.0219  0.6390  0.4292
  250MPD2     N 3851   2.832   0.125  12.418  0.0211  0.0582 -0.2873
  250MPD2    H5 3852   2.851   0.035  12.375 -1.3601 -0.3014 -0.1450
  250MPD2    N1 3853   3.030   0.530  12.616 -0.4025 -0.1781 -0.0807
  250MPD2    H7 3854   3.117   0.579  12.634 -1.4155  1.7973 -0.5232
  251TMC3    C1 3855   2.938   0.696  12.753  0.1910  0.3496 -0.6025
  251TMC3    C2 3856   2.856   0.810  12.756 -0.8306  0.1400 -0.1258
  251TMC3    C3 3857   2.886   0.905  12.855  0.1476  0.1970 -0.2926
  251TMC3    C4 3858   3.045   0.688  12.834  0.0867 -0.5692  0.4889
  251TMC3    C5 3859   3.072   0.786  12.926 -0.0365 -0.5542 -0.2582
  251TMC3    C6 3860   2.997   0.898  12.939  0.0674 -0.7637  0.4434
  251TMC3     C 3861   2.918   0.597  12.660 -0.1263  0.4035 -0.2253
  251TMC3     O 3862   2.800   0.588  12.625 -0.3355  0.2196 -0.1956
  251TMC3     H 3863   2.774   0.828  12.688 -1.1591  0.6104  0.3971
  251TMC3    H1 3864   3.116   0.607  12.845  1.6376  0.7206  0.0349
  251TMC3    H2 3865   3.000   0.947  13.035 -1.3107 -0.3771  0.2823
  251TMC3    C7 3866   3.180   0.762  13.026 -0.0258 -0.4522  0.3135
  251TMC3    C8 3867   2.796   1.011  12.892  0.0221 -0.8126  0.6183
  251TMC3    O1 3868   3.193   0.646  13.068 -0.5032 -0.2632 -0.2600
  251TMC3    O2 3869   2.857   1.111  12.931  1.1041 -0.0803 -0.0127
  252TMC3    C1 3870   2.249   1.704   9.931  0.0928 -0.0611  0.2932
  252TMC3    C2 3871   2.355   1.782   9.886 -0.8578 -0.6569  0.1553
  252TMC3    C3 3872   2.360   1.821   9.755 -0.7089  0.5006 -0.0291
  252TMC3    C4 3873   2.163   1.653   9.844  0.3546 -0.6910 -0.2000
  252TMC3    C5 3874   2.177   1.690   9.713 -0.0019 -0.2909 -0.0869
  252TMC3    C6 3875   2.266   1.776   9.663  0.0915 -0.2250 -0.3353
  252TMC3     C 3876   2.254   1.633  10.055 -0.4978 -0.6921  0.2384
  252TMC3     O 3877   2.150   1.588  10.097  0.0110  0.0795  0.1717
  252TMC3     H 3878   2.428   1.823   9.955 -0.1076  2.5706 -2.5229
  252TMC3    H1 3879   2.084   1.586   9.876  1.3402 -2.9523 -2.4267
  252TMC3    H2 3880   2.278   1.798   9.558  2.6333  0.6442  0.1561
  252TMC3    C7 3881   2.120   1.607   9.613 -0.2148  0.0054  0.8546
  252TMC3    C8 3882   2.432   1.937   9.720 -0.2815  0.5564  0.3194
  252TMC3    O1 3883   2.091   1.661   9.504  0.6494 -0.3450 -0.0711
  252TMC3    O2 3884   2.381   1.988   9.622 -0.2510  0.5489  0.5300
  253MPD2     C 3885   4.396   0.756  15.190 -0.0103 -0.8140 -0.2727
  253MPD2    C1 3886   4.267   0.720  15.162  0.0103 -0.5067  0.2791
  253MPD2    C2 3887   4.173   0.711  15.257 -0.5375 -0.0987 -0.1229
  253MPD2    C3 3888   4.208   0.748  15.392  0.3990  0.2149 -0.1428
  253MPD2    C4 3889   4.341   0.771  15.424  0.0826 -0.1801 -0.8422
  253MPD2    C5 3890   4.432   0.776  15.321  0.3340 -0.1600  0.1175
  253MPD2     H 3891   4.073   0.685  15.224 -0.0561  0.3385 -1.9228
  253MPD2    H1 3892   4.370   0.778  15.528  1.9553 -1.7734 -1.2643
  253MPD2    H2 3893   4.477   0.768  15.118  1.3195  0.0635  1.3826
  253MPD2    H3 3894   4.536   0.799  15.343  0.6126  0.3466 -1.7474
  253MPD2     N 3895   4.117   0.744  15.501 -0.1233  0.2428 -0.6047
  253MPD2    H5 3896   4.159   0.764  15.591 -2.1753  1.0005  0.1986
  253MPD2    N1 3897   4.222   0.692  15.029  0.0593 -0.5592  0.5074
  253MPD2    H7 3898   4.128   0.656  15.019 -0.1311 -0.5049  2.0780
  254TMC3    C1 3899   3.897   0.713  15.606  0.1304 -0.1830  0.3358
  254TMC3    C2 3900   3.762   0.736  15.604  0.8163 -0.0296 -0.0531
  254TMC3    C3 3901   3.687   0.733  15.717  0.0294 -0.1298  0.7327
  254TMC3    C4 3902   3.957   0.686  15.723 -0.2270 -0.3652  0.5601
  254TMC3    C5 3903   3.882   0.679  15.833  0.8687 -0.0433 -0.8577
  254TMC3    C6 3904   3.746   0.704  15.838 -0.6632 -0.1314  0.1529
  254TMC3     C 3905   3.979   0.717  15.488 -0.1182  0.2644 -0.1593
  254TMC3     O 3906   3.904   0.723  15.388  1.0636  0.0343 -0.1727
  254TMC3     H 3907   3.720   0.767  15.509  0.5961 -0.1427  0.0067
  254TMC3    H1 3908   4.059   0.650  15.720 -0.5081 -1.0199 -1.1368
  254TMC3    H2 3909   3.682   0.691  15.924 -0.7613  2.7268  0.5220
  254TMC3    C7 3910   3.942   0.646  15.964  0.1237  0.1851  0.4345
  254TMC3    C8 3911   3.583   0.831  15.722  0.2630 -0.5258  0.6064
  254TMC3    O1 3912   3.867   0.584  16.037 -0.3797 -0.5373 -0.3786
  254TMC3    O2 3913   3.544   0.882  15.616 -0.8105 -0.3333 -0.0601
  255MPD2     C 3914   0.646   3.862   9.188 -0.4143 -0.2349 -0.3303
  255MPD2    C1 3915   0.761   3.781   9.181 -0.1258 -0.0072 -0.3753
  255MPD2    C2 3916   0.882   3.840   9.204 -0.5156  0.1378 -0.1051
  255MPD2    C3 3917   0.893   3.975   9.205 -0.1216  0.0274  0.2566
  255MPD2    C4 3918   0.775   4.054   9.209 -0.2106 -0.4185  0.2560
  255MPD2    C5 3919   0.651   3.997   9.203  0.3563  0.2409 -0.1372
  255MPD2     H 3920   0.969   3.776   9.207  1.4053  2.8330  0.8482
  255MPD2    H1 3921   0.772   4.162   9.218  0.9565 -0.3609 -0.0319
  255MPD2    H2 3922   0.551   3.810   9.183  0.4805 -2.1045  2.3043
  255MPD2    H3 3923   0.566   4.063   9.216 -0.2986 -1.0739  2.1158
  255MPD2     N 3924   1.022   4.032   9.195 -0.2434  0.8319  0.7516
  255MPD2    H5 3925   1.106   3.976   9.193 -0.3348  0.7930 -3.1800
  255MPD2    N1 3926   0.746   3.646   9.142 -0.5431 -0.0075  0.5766
  255MPD2    H7 3927   0.652   3.612   9.129 -0.1529 -1.1943  0.9061
  256TMC3    C1 3928   0.825   3.420   9.077  0.4443 -0.1007 -0.4069
  256TMC3    C2 3929   0.906   3.353   8.997  0.6258  0.1053 -0.2994
  256TMC3    C3 3930   0.889   3.217   8.989  0.7530 -0.1786  1.0553
  256TMC3    C4 3931   0.730   3.356   9.153  0.0791  0.6144 -0.2095
  256TMC3    C5 3932   0.716   3.222   9.148  0.8567  0.0767 -0.2595
  256TMC3    C6 3933   0.793   3.148   9.056  0.5387  0.6923  0.3288
  256TMC3     C 3934   0.854   3.563   9.099 -0.3017  0.0669 -0.2155
  256TMC3     O 3935   0.955   3.610   9.046 -0.3541  0.4815  0.3920
  256TMC3     H 3936   0.980   3.406   8.938 -1.2543 -1.0335 -3.6786
  256TMC3    H1 3937   0.688   3.416   9.233 -0.5364  0.7008 -0.5997
  256TMC3    H2 3938   0.787   3.040   9.062  0.8365  0.6444 -0.1998
  256TMC3    C7 3939   0.680   3.161   9.272 -0.3531  0.0385 -0.1656
  256TMC3    C8 3940   1.018   3.143   8.989  0.5449  0.3994  0.1597
  256TMC3    O1 3941   0.719   3.222   9.370  0.0932 -0.2630 -0.6861
  256TMC3    O2 3942   1.023   3.039   9.057  0.1733 -0.1624 -0.4058
  257MPD2     C 3943   1.451   0.491  13.352  1.0031 -0.0135 -0.2471
  257MPD2    C1 3944   1.526   0.435  13.248 -0.5286  0.2269  0.0508
  257MPD2    C2 3945   1.628   0.346  13.278  0.3708 -0.3389 -0.8060
  257MPD2    C3 3946   1.637   0.287  13.400 -0.3181 -0.7701 -0.4723
  257MPD2    C4 3947   1.557   0.347  13.503  0.2609  0.2520  0.6141
  257MPD2    C5 3948   1.472   0.450  13.478 -0.0574  0.5195  0.1483
  257MPD2     H 3949   1.698   0.321  13.200  1.8484 -0.5710  0.6158
  257MPD2    H1 3950   1.575   0.317  13.606 -0.1763 -1.7267  0.1033
  257MPD2    H2 3951   1.381   0.573  13.342  0.3841 -0.3806  1.0459
  257MPD2    H3 3952   1.420   0.501  13.559  1.0430  1.0522  0.5241
  257MPD2     N 3953   1.726   0.181  13.410  0.2438 -0.1653 -0.2856
  257MPD2    H5 3954   1.779   0.155  13.328  1.0289  1.6448 -0.3482
  257MPD2    N1 3955   1.517   0.492  13.115  0.1592  0.3785 -0.0371
  257MPD2    H7 3956   1.593   0.457  13.057  0.5607 -0.2111  0.8594
  258TMC3    C1 3957   1.847   0.013  13.518 -0.0993 -0.0148 -0.2056
  258TMC3    C2 3958   1.963   0.065  13.471  0.7099 -0.3811 -0.0371
  258TMC3    C3 3959   2.079   4.732  13.479 -0.0366 -0.1567  0.8067
  258TMC3    C4 3960   1.849   4.626  13.576 -0.5272 -0.4195 -1.2429
  258TMC3    C5 3961   1.965   4.551  13.570 -0.2467 -0.4579  0.4996
  258TMC3    C6 3962   2.084   4.604  13.536  0.3554 -0.3239 -0.4204
  258TMC3     C 3963   1.729   0.096  13.515  0.6813 -0.0069 -0.2696
  258TMC3     O 3964   1.651   0.103  13.609 -0.1430  0.2617 -0.4117
  258TMC3     H 3965   1.970   0.164  13.429  2.4372 -0.7590 -0.6653
  258TMC3    H1 3966   1.766   4.578  13.626  0.2514 -0.8931 -0.4078
  258TMC3    H2 3967   2.177   4.548  13.545  1.0354  1.3398  2.7725
  258TMC3    C7 3968   1.964   4.446  13.667 -0.4129  0.5403 -1.1100
  258TMC3    C8 3969   2.204   0.044  13.431 -0.1456 -0.7357  0.5183
  258TMC3    O1 3970   1.868   4.368  13.679 -0.1126  0.1211 -0.2026
  258TMC3    O2 3971   2.306   4.738  13.482 -0.5506 -0.1806 -0.5432
  259MPD2     C 3972   0.604   2.332   1.003  0.6768  0.0886 -0.2523
  259MPD2    C1 3973   0.613   2.202   0.960  0.0019  0.2726 -0.0973
  259MPD2    C2 3974   0.618   2.178   0.820  0.3632  0.4191 -0.3420
  259MPD2    C3 3975   0.608   2.271   0.728 -0.8242 -0.7375 -0.1757
  259MPD2    C4 3976   0.590   2.402   0.774 -0.1837 -0.4799  0.0505
  259MPD2    C5 3977   0.592   2.434   0.906 -0.5524  0.5050 -0.5532
  259MPD2     H 3978   0.620   2.071   0.800 -1.3334  0.7830 -2.4311
  259MPD2    H1 3979   0.588   2.486   0.706  0.9561  1.5508  2.4985
  259MPD2    H2 3980   0.596   2.352   1.109  0.7366  0.9859 -0.4155
  259MPD2    H3 3981   0.596   2.539   0.933  0.2851  0.6449 -1.2120
  259MPD2     N 3982   0.598   2.229   0.592  0.7123  0.1085  0.2712
  259MPD2    H5 3983   0.627   2.133   0.576 -1.9816 -0.4696 -1.0922
  259MPD2    N1 3984   0.611   2.100   1.061  0.1042 -0.6347  0.8316
  259MPD2    H7 3985   0.603   2.129   1.158 -1.0192  2.2472 -0.1374
  260TMC3    C1 3986   0.551   2.232   0.364  0.1624 -0.0474 -0.5229
  260TMC3    C2 3987   0.552   2.310   0.255  0.0370 -0.1899 -0.2400
  260TMC3    C3 3988   0.556   2.247   0.138 -0.3418 -0.5999 -0.0376
  260TMC3    C4 3989   0.553   2.089   0.368  0.6088  0.2560  0.3388
  260TMC3    C5 3990   0.547   2.030   0.242  0.4270  0.3142 -0.5865
  260TMC3    C6 3991   0.561   2.104   0.127  0.4025  0.2500 -0.3806
  260TMC3     C 3992   0.549   2.302   0.490  0.5124  0.6646  0.1614
  260TMC3     O 3993   0.506   2.420   0.482 -0.3319 -0.7299 -0.0663
  260TMC3     H 3994   0.542   2.417   0.261 -0.3486 -0.2574  0.4144
  260TMC3    H1 3995   0.520   2.042   0.460 -1.5627 -1.5825 -1.3831
  260TMC3    H2 3996   0.558   2.046   0.035 -1.0230 -0.2346 -0.0365
  260TMC3    C7 3997   0.543   1.883   0.231  0.0842  0.8072 -0.7215
  260TMC3    C8 3998   0.639   2.333   0.049  0.3890  0.7285  0.0656
  260TMC3    O1 3999   0.492   1.827   0.134  0.1518 -0.8158 -0.4700
  260TMC3    O2 4000   0.703   2.424   0.106 -0.0571 -0.7371  0.5996
  261MPD2     C 4001   2.060   0.041  12.242  0.3618 -0.4576  0.2578
  261MPD2    C1 4002   2.185   0.104  12.238 -0.1230  0.3650  0.5155
  261MPD2    C2 4003   2.194   0.231  12.183  0.0609 -0.0484 -0.9013
  261MPD2    C3 4004   2.086   0.296  12.126  0.0890 -0.1254  0.2271
  261MPD2    C4 4005   1.969   0.230  12.129  0.8509 -0.5150  0.0648
  261MPD2    C5 4006   1.956   0.102  12.178 -0.4446  0.1206 -0.2200
  261MPD2     H 4007   2.282   0.294  12.182  0.0154  0.0130 -1.0255
  261MPD2    H1 4008   1.889   0.281  12.077  0.5485 -0.6563  0.3917
  261MPD2    H2 4009   2.036   4.686  12.290  2.4132 -0.3641  1.4737
  261MPD2    H3 4010   1.856   0.061  12.175 -0.5588  0.3105  1.2761
  261MPD2     N 4011   2.096   0.430  12.088  0.1060 -0.1136 -0.7991
  261MPD2    H5 4012   2.191   0.465  12.087 -0.0397  0.2882 -0.4679
  261MPD2    N1 4013   2.296   0.061  12.311 -0.0192 -0.1973 -0.3166
  261MPD2    H7 4014   2.370   0.130  12.320 -0.5312  0.2392  0.4566
  262TMC3    C1 4015   2.044   0.600  11.945 -0.2673 -0.5487  0.7654
  262TMC3    C2 4016   1.979   0.722  11.938 -0.0341  0.0177 -0.4573
  262TMC3    C3 4017   2.055   0.812  11.873  0.1357 -0.2411  0.3094
  262TMC3    C4 4018   2.165   0.571  11.890  0.1210 -0.8199 -0.2645
  262TMC3    C5 4019   2.230   0.663  11.826  0.4086 -0.0407 -0.0490
  262TMC3    C6 4020   2.168   0.785  11.811 -0.4614  0.1321  0.4342
  262TMC3     C 4021   1.995   0.506  12.042  0.5970 -0.5401 -0.0780
  262TMC3     O 4022   1.875   0.499  12.067 -0.2466 -0.4090  1.1567
  262TMC3     H 4023   1.883   0.731  11.989  0.1308  1.6604 -0.4334
  262TMC3    H1 4024   2.217   0.476  11.886 -0.9283 -1.3635 -1.1601
  262TMC3    H2 4025   2.210   0.862  11.746  0.0026  0.1415  0.7497
  262TMC3    C7 4026   2.343   0.621  11.746 -0.6529  0.0637  0.1741
  262TMC3    C8 4027   2.026   0.951  11.879  0.2631  0.2189 -0.8281
  262TMC3    O1 4028   2.369   0.501  11.738  0.8052 -0.5083 -0.1529
  262TMC3    O2 4029   2.119   1.027  11.864  0.2591  0.3752  0.0191
  263MPD2     C 4030   3.076   4.259  11.493 -0.9194  0.2071  0.2120
  263MPD2    C1 4031   3.168   4.223  11.399  0.7709 -0.5484 -0.7314
  263MPD2    C2 4032   3.156   4.264  11.267 -0.4735  0.3560  0.2503
  263MPD2    C3 4033   3.046   4.335  11.226  0.5723  0.5780 -0.2537
  263MPD2    C4 4034   2.947   4.367  11.318 -0.3683 -0.1487 -0.6165
  263MPD2    C5 4035   2.966   4.330  11.452  0.0684  0.1966  0.2005
  263MPD2     H 4036   3.233   4.235  11.197  0.0316  0.6993  0.6649
  263MPD2    H1 4037   2.869   4.441  11.303 -0.7780  0.0613  2.4135
  263MPD2    H2 4038   3.076   4.238  11.599 -1.4242  0.3220  0.2313
  263MPD2    H3 4039   2.899   4.363  11.530  1.0768  1.5200  0.5019
  263MPD2     N 4040   3.058   4.391  11.092  0.1336 -0.9654 -0.2010
  263MPD2    H5 4041   3.132   4.350  11.035  0.9966  0.0373  0.2029
  263MPD2    N1 4042   3.283   4.157  11.448 -0.3064  0.2084  0.2216
  263MPD2    H7 4043   3.289   4.136  11.548  0.3014 -1.7710 -0.2267
  264TMC3    C1 4044   2.990   4.501  10.885  0.2904  0.9017 -0.2902
  264TMC3    C2 4045   2.900   4.580  10.825  0.6626  0.6073 -0.0415
  264TMC3    C3 4046   2.919   4.620  10.693 -0.5326  0.3789  0.3131
  264TMC3    C4 4047   3.110   4.487  10.823  0.1842  0.8520  0.6125
  264TMC3    C5 4048   3.135   4.540  10.700  0.6803  0.1632 -0.0460
  264TMC3    C6 4049   3.036   4.604  10.626 -0.3445 -0.0061 -0.2750
  264TMC3     C 4050   2.959   4.468  11.027 -0.3647  0.3637  0.3088
  264TMC3     O 4051   2.858   4.514  11.081  0.0648  0.9225  0.3430
  264TMC3     H 4052   2.804   4.599  10.871  0.0440 -1.9049 -0.2586
  264TMC3    H1 4053   3.193   4.446  10.878 -0.0651  1.2313  1.2683
  264TMC3    H2 4054   3.054   4.649  10.529  1.5590 -0.5620 -0.1734
  264TMC3    C7 4055   3.263   4.547  10.638 -1.0798 -0.4001  0.1207
  264TMC3    C8 4056   2.802   4.672  10.631  0.4817  0.1269  0.1494
  264TMC3    O1 4057   3.300   4.491  10.535 -0.2003  0.0489 -0.1810
  264TMC3    O2 4058   2.725   4.589  10.585  0.1308  0.3102  0.2056
  265MPD2     C 4059   0.912   0.177  15.570 -0.6319  0.1078  0.5750
  265MPD2    C1 4060   0.843   0.276  15.499 -0.0877 -0.4708  0.1625
  265MPD2    C2 4061   0.860   0.275  15.361 -0.0171 -0.0024 -0.1036
  265MPD2    C3 4062   0.933   0.173  15.301 -0.0750 -0.6167  0.3870
  265MPD2    C4 4063   0.987   0.075  15.379 -0.4008 -0.0057  0.2736
  265MPD2    C5 4064   0.992   0.081  15.513 -0.4822 -0.3545 -0.2300
  265MPD2     H 4065   0.811   0.352  15.303 -0.1380 -0.7427 -0.9750
  265MPD2    H1 4066   1.028   4.734  15.318  0.8096  0.4879  0.4491
  265MPD2    H2 4067   0.904   0.174  15.678 -0.3735  1.0263  0.6259
  265MPD2    H3 4068   1.034   4.739  15.571  0.7694  0.7624  0.4467
  265MPD2     N 4069   0.969   0.164  15.160 -0.3678 -0.3314 -0.0832
  265MPD2    H5 4070   1.028   0.086  15.131 -0.2141 -0.0633 -0.4821
  265MPD2    N1 4071   0.771   0.374  15.569  0.8192  0.0174  0.7587
  265MPD2    H7 4072   0.727   0.453  15.522  1.0222 -0.5500 -0.3913
  266TMC3    C1 4073   0.673   0.500  15.747 -0.5111  0.6554 -0.2208
  266TMC3    C2 4074   0.636   0.509  15.880  0.4157 -0.2345  0.4633
  266TMC3    C3 4075   0.563   0.618  15.908 -0.2233 -0.0383  0.7851
  266TMC3    C4 4076   0.657   0.604  15.651  0.5764 -0.2481 -0.0638
  266TMC3    C5 4077   0.598   0.713  15.695  0.2549  0.4390 -0.0837
  266TMC3    C6 4078   0.556   0.725  15.823  0.6970 -0.0994 -0.1957
  266TMC3     C 4079   0.740   0.375  15.705 -0.6812 -0.2957 -0.0280
  266TMC3     O 4080   0.761   0.294  15.790 -0.2313 -0.5525 -0.2436
  266TMC3     H 4081   0.621   0.426  15.948  1.9094 -2.6005 -2.1258
  266TMC3    H1 4082   0.698   0.607  15.551  0.3808  0.6152 -0.1174
  266TMC3    H2 4083   0.506   0.816  15.854  0.8749  0.4640 -1.5794
  266TMC3    C7 4084   0.564   0.819  15.611 -0.6723  0.5397 -0.0932
  266TMC3    C8 4085   0.543   0.648  16.047  0.2011 -0.4261 -0.3269
  266TMC3    O1 4086   0.554   0.933  15.657 -0.6366 -0.1220  0.2361
  266TMC3    O2 4087   0.486   0.558  16.109 -0.4347  0.0820  0.1015
  267MPD2     C 4088   2.623   2.650   1.052 -1.1587 -0.3606 -0.1063
  267MPD2    C1 4089   2.687   2.604   0.934 -0.1396  0.6924  0.1495
  267MPD2    C2 4090   2.606   2.560   0.830 -0.4601  0.3128 -0.6122
  267MPD2    C3 4091   2.470   2.543   0.853 -0.8664  0.7877 -0.7393
  267MPD2    C4 4092   2.415   2.566   0.975  0.3958 -0.2734  0.5551
  267MPD2    C5 4093   2.488   2.617   1.077  0.5256 -0.0035  0.1173
  267MPD2     H 4094   2.651   2.545   0.732  3.3245  1.5509  0.9086
  267MPD2    H1 4095   2.314   2.531   0.995  0.7076  0.2762  2.9845
  267MPD2    H2 4096   2.678   2.685   1.139 -0.9026 -1.4607  0.1753
  267MPD2    H3 4097   2.441   2.625   1.174 -0.5511  0.5582 -0.4428
  267MPD2     N 4098   2.380   2.498   0.749  0.0714 -0.3963 -0.8044
  267MPD2    H5 4099   2.282   2.503   0.775  0.1012 -0.5749 -0.6562
  267MPD2    N1 4100   2.830   2.623   0.927 -0.3128  0.5137 -0.6692
  267MPD2    H7 4101   2.868   2.667   1.011 -1.2855 -3.5232  1.8816
  268TMC3    C1 4102   3.046   2.616   0.847  0.1674  0.4140 -0.0988
  268TMC3    C2 4103   3.128   2.656   0.741 -0.2077  0.1958 -0.0419
  268TMC3    C3 4104   3.257   2.699   0.765  0.5798  0.2895 -0.4449
  268TMC3    C4 4105   3.098   2.601   0.976  0.4253  0.8738  0.2889
  268TMC3    C5 4106   3.223   2.640   0.996  0.1224 -0.9206  0.2252
  268TMC3    C6 4107   3.308   2.688   0.895  0.4882  0.0603  0.2552
  268TMC3     C 4108   2.908   2.587   0.821  0.5463 -0.0995  0.3010
  268TMC3     O 4109   2.877   2.558   0.705 -0.4132  0.0889  0.4249
  268TMC3     H 4110   3.072   2.677   0.650  2.6645  0.0856 -1.8376
  268TMC3    H1 4111   3.045   2.571   1.066 -1.0461 -1.4166 -1.3578
  268TMC3    H2 4112   3.413   2.703   0.920  0.8435 -0.2701 -1.0674
  268TMC3    C7 4113   3.279   2.606   1.128  0.1587  0.9492  0.2781
  268TMC3    C8 4114   3.344   2.731   0.656 -0.7771  0.2186 -0.5538
  268TMC3    O1 4115   3.231   2.509   1.188  0.2805  0.2393 -0.7880
  268TMC3    O2 4116   3.457   2.771   0.684  0.2606 -0.4466 -0.3130
  269MPD2     C 4117   3.352   1.097  15.374 -0.2140  0.3477 -0.3700
  269MPD2    C1 4118   3.250   1.107  15.473  0.2782 -0.1266  0.8380
  269MPD2    C2 4119   3.212   1.238  15.501  0.1459 -0.2485 -1.0247
  269MPD2    C3 4120   3.263   1.352  15.432 -0.4717  0.2179 -0.5439
  269MPD2    C4 4121   3.359   1.327  15.331 -0.5245  0.7425  0.2648
  269MPD2    C5 4122   3.399   1.202  15.300  0.2512 -0.1312 -0.0236
  269MPD2     H 4123   3.149   1.261  15.586 -2.6205 -0.9860 -2.8539
  269MPD2    H1 4124   3.407   1.402  15.269 -1.1243  0.2324 -0.8355
  269MPD2    H2 4125   3.388   0.997  15.353  1.1168  0.6252  0.6250
  269MPD2    H3 4126   3.471   1.190  15.220  0.2355  2.1393 -0.3678
  269MPD2     N 4127   3.225   1.481  15.474 -0.5698 -0.0397 -0.3954
  269MPD2    H5 4128   3.133   1.476  15.517 -0.3932 -0.1239 -0.0332
  269MPD2    N1 4129   3.205   0.986  15.529 -0.1745  0.0740 -0.2022
  269MPD2    H7 4130   3.240   0.900  15.487  0.9486  0.4413 -0.0297
  270TMC3    C1 4131   3.076   0.838  15.654  0.6390  0.3559  0.0601
  270TMC3    C2 4132   2.963   0.797  15.584  0.0649 -0.0691  0.2055
  270TMC3    C3 4133   2.961   0.674  15.527  0.3174 -0.0268 -0.3495
  270TMC3    C4 4134   3.189   0.759  15.657 -0.0306  0.2145 -0.0413
  270TMC3    C5 4135   3.185   0.637  15.590  0.1660 -0.8691 -0.4951
  270TMC3    C6 4136   3.068   0.593  15.534  0.0495  0.0187 -0.7675
  270TMC3     C 4137   3.107   0.974  15.622  0.0514 -0.6070 -0.0953
  270TMC3     O 4138   3.027   1.058  15.662  0.4396  0.0740  0.3931
  270TMC3     H 4139   2.877   0.862  15.577 -0.1292 -0.5257 -1.6158
  270TMC3    H1 4140   3.273   0.796  15.715 -1.7472 -1.3770  3.5115
  270TMC3    H2 4141   3.058   0.490  15.504 -1.6232 -0.2318  0.7066
  270TMC3    C7 4142   3.306   0.558  15.598 -0.0473  0.1247 -0.1275
  270TMC3    C8 4143   2.861   0.650  15.430  0.1024 -0.0287 -0.2735
  270TMC3    O1 4144   3.379   0.588  15.690  0.4424  0.0121 -0.2499
  270TMC3    O2 4145   2.744   0.683  15.451  0.5748 -0.4121  0.3619
  271MPD2     C 4146   2.526   0.487  13.640  0.2538 -0.2858  0.4748
  271MPD2    C1 4147   2.468   0.540  13.756  0.1220  0.1287  0.3236
  271MPD2    C2 4148   2.376   0.643  13.744  0.6595  0.5810 -0.0776
  271MPD2    C3 4149   2.366   0.709  13.622 -0.2130  0.2043 -0.2297
  271MPD2    C4 4150   2.424   0.658  13.508 -0.0205  0.1318  0.6902
  271MPD2    C5 4151   2.499   0.544  13.514 -0.4472 -0.4848 -0.2703
  271MPD2     H 4152   2.322   0.675  13.832 -1.0106 -0.8127 -0.6003
  271MPD2    H1 4153   2.413   0.714  13.415 -0.4180  0.2398  0.7991
  271MPD2    H2 4154   2.586   0.397  13.646  0.3142 -0.2440  0.5010
  271MPD2    H3 4155   2.544   0.512  13.421 -0.9898  0.4449 -0.8471
  271MPD2     N 4156   2.291   0.829  13.603 -0.0105 -0.1378  0.0998
  271MPD2    H5 4157   2.275   0.861  13.508 -1.7168  0.2287  0.5202
  271MPD2    N1 4158   2.479   0.491  13.888 -1.1227  0.7220 -0.5295
  271MPD2    H7 4159   2.424   0.542  13.956  1.6864 -0.6122  2.7417
  272TMC3    C1 4160   2.593   0.400  14.082  1.1074 -0.6758 -0.6717
  272TMC3    C2 4161   2.693   0.321  14.129 -0.4443  0.4446 -0.0911
  272TMC3    C3 4162   2.753   0.350  14.252  0.0642 -0.6920  1.2269
  272TMC3    C4 4163   2.525   0.496  14.161  0.7300 -0.0158 -0.7386
  272TMC3    C5 4164   2.578   0.513  14.286 -0.4827  0.3497 -0.2700
  272TMC3    C6 4165   2.690   0.442  14.336 -0.1753  0.2993  0.1468
  272TMC3     C 4166   2.576   0.403  13.935 -0.2007 -0.0301 -0.3635
  272TMC3     O 4167   2.654   0.336  13.873 -0.1893  0.2552 -0.4176
  272TMC3     H 4168   2.732   0.242  14.066 -0.1535  0.2581  0.3160
  272TMC3    H1 4169   2.446   0.561  14.127  0.6094 -0.4734 -1.3264
  272TMC3    H2 4170   2.747   0.475  14.422  0.8027  1.1947 -0.8306
  272TMC3    C7 4171   2.517   0.614  14.360 -0.2703  0.4950  0.3419
  272TMC3    C8 4172   2.892   0.337  14.267  0.4559  0.3072  0.3433
  272TMC3    O1 4173   2.407   0.645  14.318 -0.2264  0.1130  0.2363
  272TMC3    O2 4174   2.950   0.344  14.162 -0.5652  0.1441  0.3000
  273MPD2     C 4175   3.500   3.670  11.981 -0.1600  0.7616  0.6006
  273MPD2    C1 4176   3.619   3.626  11.940 -0.3892  0.6920  0.0601
  273MPD2    C2 4177   3.630   3.550  11.817 -0.1710  0.2990 -0.4437
  273MPD2    C3 4178   3.527   3.540  11.729 -0.1611 -0.2280 -0.2806
  273MPD2    C4 4179   3.410   3.586  11.775 -0.8083  0.1864  0.2928
  273MPD2    C5 4180   3.392   3.652  11.901 -0.5550 -0.7043 -0.5539
  273MPD2     H 4181   3.723   3.504  11.784  0.4731  0.7756  0.6813
  273MPD2    H1 4182   3.321   3.568  11.716  1.3254  2.3388 -3.5257
  273MPD2    H2 4183   3.493   3.732  12.070 -1.8026 -0.2955  1.1959
  273MPD2    H3 4184   3.292   3.690  11.917 -1.3652 -2.5962 -1.1969
  273MPD2     N 4185   3.533   3.471  11.605 -0.4895  0.1637 -0.1853
  273MPD2    H5 4186   3.448   3.460  11.552  0.1411  0.4430 -1.2534
  273MPD2    N1 4187   3.727   3.645  12.035 -0.4202 -0.5456 -0.7740
  273MPD2    H7 4188   3.705   3.704  12.114  1.1083  1.8034 -2.0882
  274TMC3    C1 4189   3.614   3.344  11.426 -0.2791 -0.2156  1.3183
  274TMC3    C2 4190   3.490   3.357  11.363 -0.5368 -1.0576  0.0404
  274TMC3    C3 4191   3.490   3.324  11.232 -0.5713 -0.3693 -0.0301
  274TMC3    C4 4192   3.732   3.308  11.363  0.5825  0.2669 -0.1310
  274TMC3    C5 4193   3.725   3.324  11.224  0.1189  0.8324  0.7127
  274TMC3    C6 4194   3.608   3.314  11.158 -0.4340  0.1228  0.5857
  274TMC3     C 4195   3.645   3.404  11.552 -0.2176 -0.4403 -0.5028
  274TMC3     O 4196   3.756   3.390  11.602 -0.4756  0.1094 -0.6605
  274TMC3     H 4197   3.398   3.390  11.410  0.6416  0.0408  1.6013
  274TMC3    H1 4198   3.832   3.312  11.406  0.0667 -0.8621  1.1763
  274TMC3    H2 4199   3.603   3.320  11.050 -1.4955 -1.4805  0.5412
  274TMC3    C7 4200   3.846   3.286  11.145  0.2978 -0.2257 -0.2629
  274TMC3    C8 4201   3.388   3.389  11.149 -0.2533  0.1755  0.3598
  274TMC3    O1 4202   3.818   3.195  11.064  1.0475  0.0238 -0.5417
  274TMC3    O2 4203   3.346   3.502  11.178 -0.2082  0.5710  0.2440
  275MPD2     C 4204   3.778   1.915  15.213  0.1405 -0.1511  0.3325
  275MPD2    C1 4205   3.839   1.863  15.106 -0.4699  0.0809 -0.9868
  275MPD2    C2 4206   3.774   1.798  15.004  0.0164 -0.1586 -1.0039
  275MPD2    C3 4207   3.639   1.797  15.013  0.3235 -0.1842 -0.1475
  275MPD2    C4 4208   3.576   1.859  15.125  1.0820  0.0045 -0.3126
  275MPD2    C5 4209   3.647   1.918  15.222  0.5217  0.5941 -0.3795
  275MPD2     H 4210   3.826   1.758  14.918  0.2102 -0.8560 -0.5606
  275MPD2    H1 4211   3.468   1.848  15.134  1.3296 -1.1342  1.2358
  275MPD2    H2 4212   3.839   1.969  15.284  1.2008 -0.9011 -0.0019
  275MPD2    H3 4213   3.599   1.952  15.314  1.9912  0.5157  0.4084
  275MPD2     N 4214   3.560   1.725  14.918  0.5081 -0.6265 -0.1804
  275MPD2    H5 4215   3.459   1.723  14.932  0.8681 -1.5268  2.3947
  275MPD2    N1 4216   3.978   1.868  15.092  0.3846 -0.3792  0.4367
  275MPD2    H7 4217   4.019   1.831  15.006  0.0311  2.5249 -0.9897
  276TMC3    C1 4218   4.197   1.932  15.104  0.5028 -0.5935 -0.1971
  276TMC3    C2 4219   4.233   1.814  15.042 -0.3811 -0.4133 -0.8021
  276TMC3    C3 4220   4.355   1.806  14.985 -0.1752  0.8002  0.2078
  276TMC3    C4 4221   4.279   2.037  15.122  0.3978 -0.5126 -0.1003
  276TMC3    C5 4222   4.398   2.023  15.057 -0.2401  0.3467 -0.4174
  276TMC3    C6 4223   4.435   1.916  14.976  0.0785 -0.2612  0.6717
  276TMC3     C 4224   4.064   1.947  15.160  0.4933 -0.4393  0.6788
  276TMC3     O 4225   4.059   2.005  15.265 -0.3440 -0.7687 -0.1942
  276TMC3     H 4226   4.182   1.723  15.071  1.4671 -0.4345  2.3991
  276TMC3    H1 4227   4.245   2.128  15.170  0.3169  0.0858 -1.3012
  276TMC3    H2 4228   4.536   1.906  14.938  0.2786 -0.0866  1.1563
  276TMC3    C7 4229   4.511   2.067  15.141 -0.0569 -0.2397 -0.3179
  276TMC3    C8 4230   4.414   1.673  14.946  0.1035 -0.0176  0.4682
  276TMC3    O1 4231   4.485   2.113  15.252  0.3314  0.4181  0.0981
  276TMC3    O2 4232   4.527   1.688  14.903 -0.3518 -0.2162 -0.4079
  277MPD2     C 4233   0.902   0.768  13.314 -0.0627 -0.0315 -0.2910
  277MPD2    C1 4234   0.779   0.794  13.380  0.3979 -0.5085  0.6772
  277MPD2    C2 4235   0.743   0.710  13.480  1.0605 -0.0680  0.0722
  277MPD2    C3 4236   0.830   0.609  13.514  0.6174 -0.8736 -0.3325
  277MPD2    C4 4237   0.948   0.584  13.454  0.5568  0.0469  0.0236
  277MPD2    C5 4238   0.980   0.663  13.347 -0.4944 -0.0069 -0.3477
  277MPD2     H 4239   0.648   0.727  13.529  1.8061  2.8158  0.5545
  277MPD2    H1 4240   1.012   0.501  13.482  0.5292 -0.0580 -0.2244
  277MPD2    H2 4241   0.942   0.820  13.227 -2.1584  3.5436  0.9179
  277MPD2    H3 4242   1.065   0.634  13.286 -0.6432 -1.4738  0.1556
  277MPD2     N 4243   0.783   0.523  13.614 -0.0305 -0.5460 -0.2205
  277MPD2    H5 4244   0.682   0.526  13.622 -0.1252 -1.7894 -0.9910
  277MPD2    N1 4245   0.716   0.922  13.350  0.4053  0.2888 -0.6789
  277MPD2    H7 4246   0.753   0.972  13.271  0.4747 -0.6573 -1.2481
  278TMC3    C1 4247   0.753   0.339  13.751  0.3423  0.0069  0.3123
  278TMC3    C2 4248   0.774   0.202  13.756  0.1791  0.1033  0.0556
  278TMC3    C3 4249   0.671   0.132  13.798  0.0607  0.2188 -0.0054
  278TMC3    C4 4250   0.643   0.394  13.812 -0.0934  0.9314 -0.4791
  278TMC3    C5 4251   0.543   0.313  13.863  0.4896 -0.6304 -0.2290
  278TMC3    C6 4252   0.552   0.176  13.841 -0.0278 -0.1558  0.1373
  278TMC3     C 4253   0.850   0.420  13.678  0.5652  0.1175 -0.5674
  278TMC3     O 4254   0.965   0.380  13.656 -0.1199 -0.0653 -0.5629
  278TMC3     H 4255   0.865   0.164  13.710  0.5770  2.9568 -1.5438
  278TMC3    H1 4256   0.641   0.501  13.830  0.3133  0.7248  0.7712
  278TMC3    H2 4257   0.484   0.111  13.893  0.3993  0.4215  1.4114
  278TMC3    C7 4258   0.442   0.368  13.952 -0.2754 -0.2218  0.3826
  278TMC3    C8 4259   0.674   4.731  13.756  0.1180 -0.5852 -0.2587
  278TMC3    O1 4260   0.458   0.477  14.004 -0.0715  0.0708  0.1473
  278TMC3    O2 4261   0.784   4.682  13.745 -0.1611 -0.0484 -0.1843
  279MPD2     C 4262   4.707   0.354   0.502 -0.0802 -0.3801  0.0094
  279MPD2    C1 4263   4.668   0.479   0.454  0.1530 -0.1685  0.6022
  279MPD2    C2 4264   4.671   0.501   0.313 -0.2896 -0.0379  0.4521
  279MPD2    C3 4265   4.723   0.402   0.227 -0.0128  0.8825 -0.0934
  279MPD2    C4 4266   0.012   0.283   0.277  0.1721 -0.0868 -0.0570
  279MPD2    C5 4267   0.001   0.255   0.412  0.3184  0.1101  0.5847
  279MPD2     H 4268   4.636   0.592   0.265  0.9235 -0.4225 -1.1515
  279MPD2    H1 4269   0.050   0.198   0.221  0.7212  0.9836 -1.3145
  279MPD2    H2 4270   4.711   0.334   0.608  3.1891 -2.1766 -0.4202
  279MPD2    H3 4271   0.018   0.153   0.446 -0.9068  0.1402  1.3160
  279MPD2     N 4272   0.005   0.431   0.089  0.5357  0.5585  0.1365
  279MPD2    H5 4273   0.058   0.362   0.037 -0.6419 -0.5999  0.4801
  279MPD2    N1 4274   4.621   0.578   0.546 -0.1762  0.6755 -0.2179
  279MPD2    H7 4275   4.591   0.545   0.637 -0.2996  1.4561  0.0193
  280TMC3    C1 4276   4.543   0.778   0.625  0.4580 -0.0721 -0.2834
  280TMC3    C2 4277   4.415   0.727   0.650 -0.2817 -0.2425 -0.0859
  280TMC3    C3 4278   4.318   0.815   0.682  0.0581 -0.2518  0.2633
  280TMC3    C4 4279   4.565   0.914   0.632  0.0050 -0.9274 -0.7885
  280TMC3    C5 4280   4.464   0.993   0.673  0.1149  0.9767  0.0886
  280TMC3    C6 4281   4.338   0.951   0.700 -0.3518  0.1035 -0.3750
  280TMC3     C 4282   4.617   0.711   0.521 -1.0135  0.0378 -0.6191
  280TMC3     O 4283   4.658   0.775   0.427 -0.2586  0.5107 -0.0666
  280TMC3     H 4284   4.398   0.621   0.640 -0.0886 -0.1893 -1.0001
  280TMC3    H1 4285   4.664   0.953   0.608  0.1341  0.4679  2.0123
  280TMC3    H2 4286   4.260   1.023   0.719  0.0027  0.0442  1.2560
  280TMC3    C7 4287   4.481   1.139   0.664 -0.7976 -0.1355  0.4466
  280TMC3    C8 4288   4.193   0.765   0.726 -1.0841 -0.4371 -0.0400
  280TMC3    O1 4289   4.593   1.180   0.676  0.0188  0.1412 -0.1870
  280TMC3    O2 4290   4.131   0.832   0.805  0.4626  0.3873  0.1883
  281TMC3    C1 4291   3.505   0.415  13.764  0.4248 -0.0331 -0.1475
  281TMC3    C2 4292   3.493   0.505  13.665  0.2947 -0.2851 -0.0647
  281TMC3    C3 4293   3.383   0.495  13.592  0.6714 -0.0898  0.4746
  281TMC3    C4 4294   3.419   0.323  13.801  0.3107  0.0419  0.0811
  281TMC3    C5 4295   3.301   0.326  13.732 -0.2274  0.3198  0.3536
  281TMC3    C6 4296   3.287   0.403  13.621  1.0926  0.0900  0.0367
  281TMC3     C 4297   3.625   0.412  13.855  0.0282 -0.2211  0.4484
  281TMC3     O 4298   3.642   0.318  13.933 -0.1735  0.0334 -0.4763
  281TMC3     H 4299   3.580   0.560  13.630 -1.5985  1.2942 -2.3258
  281TMC3    H1 4300   3.435   0.276  13.898 -1.6112 -2.8014 -1.0036
  281TMC3    H2 4301   3.191   0.402  13.571  0.6931  0.1201  0.8033
  281TMC3    C7 4302   3.186   0.252  13.794 -0.4600 -0.3669 -0.1606
  281TMC3    C8 4303   3.346   0.587  13.484  0.2798  0.1334 -0.8412
  281TMC3    O1 4304   3.070   0.282  13.761 -0.0035  0.6056  0.3652
  281TMC3    O2 4305   3.252   0.540  13.415 -0.0025  0.1361 -0.4185
  282MPD2     C 4306   1.060   2.341  15.190 -0.6430 -0.8937 -0.1729
  282MPD2    C1 4307   0.932   2.368  15.231 -0.2499 -0.1857  0.4229
  282MPD2    C2 4308   0.829   2.413  15.141  0.0349 -0.1904 -0.0736
  282MPD2    C3 4309   0.858   2.397  15.008  0.0069 -0.2976 -0.0820
  282MPD2    C4 4310   0.983   2.363  14.966 -0.2261 -0.6079 -0.9093
  282MPD2    C5 4311   1.087   2.344  15.054 -0.2594  0.4867 -0.5487
  282MPD2     H 4312   0.730   2.438  15.177 -0.7077 -1.9640 -0.8842
  282MPD2    H1 4313   1.014   2.357  14.862 -1.5871  1.4605 -1.4423
  282MPD2    H2 4314   1.148   2.312  15.247 -1.3943 -1.6205  0.6233
  282MPD2    H3 4315   1.183   2.328  15.006 -0.2467 -1.2265  0.0829
  282MPD2     N 4316   0.748   2.408  14.917  0.9502 -0.0347  0.1986
  282MPD2    H5 4317   0.658   2.421  14.963  0.2544 -1.3603 -0.8001
  282MPD2    N1 4318   0.895   2.369  15.366  0.0481 -0.0259  0.2701
  282MPD2    H7 4319   0.808   2.416  15.387  0.1999  0.0261  0.7693
  283TMC3    C1 4320   0.908   2.345  15.600 -1.0796 -0.0193  0.1071
  283TMC3    C2 4321   0.848   2.462  15.616  1.2029  0.6699 -0.4045
  283TMC3    C3 4322   0.770   2.469  15.726 -0.0679 -0.1269 -0.2922
  283TMC3    C4 4323   0.901   2.239  15.688  0.2912  0.0681  0.1054
  283TMC3    C5 4324   0.819   2.259  15.793 -0.3955  0.6308  0.3824
  283TMC3    C6 4325   0.753   2.375  15.819  0.0950 -0.2074 -0.3834
  283TMC3     C 4326   0.975   2.318  15.466 -0.0996 -0.6008  0.0626
  283TMC3     O 4327   1.059   2.230  15.467  0.1853  0.0178  0.1590
  283TMC3     H 4328   0.865   2.540  15.542  1.2247  1.4759  0.4622
  283TMC3    H1 4329   0.952   2.145  15.673 -0.0857  0.0852 -1.2224
  283TMC3    H2 4330   0.673   2.391  15.890 -1.2345 -0.9249 -1.7343
  283TMC3    C7 4331   0.796   2.155  15.890 -0.2728 -0.2197 -0.1839
  283TMC3    C8 4332   0.740   2.603  15.767 -0.5978  0.7358  0.0874
  283TMC3    O1 4333   0.744   2.195  15.991 -0.5356 -0.0035  0.4487
  283TMC3    O2 4334   0.733   2.613  15.886  0.4999  0.3379  0.2535
  284MPD2     C 4335   3.822   0.992  12.062 -0.0988 -0.9760 -0.0806
  284MPD2    C1 4336   3.818   0.928  11.940 -0.3776  0.4449 -0.0329
  284MPD2    C2 4337   3.870   0.800  11.934 -0.1156  0.5578 -0.8167
  284MPD2    C3 4338   3.922   0.740  12.045 -1.1004  0.1049 -0.4951
  284MPD2    C4 4339   3.921   0.803  12.169  0.6458  0.3038 -0.1310
  284MPD2    C5 4340   3.876   0.933  12.175 -0.8035 -0.2312 -0.3584
  284MPD2     H 4341   3.870   0.739  11.844 -1.2757 -1.0525  0.2865
  284MPD2    H1 4342   3.957   0.759  12.261 -1.5217 -2.8307 -0.7914
  284MPD2    H2 4343   3.793   1.096  12.069 -0.3243 -0.9493 -1.3713
  284MPD2    H3 4344   3.883   0.988  12.268  1.7908 -0.7504 -0.2484
  284MPD2     N 4345   3.980   0.610  12.044  0.0576 -0.0286  0.0810
  284MPD2    H5 4346   4.013   0.578  12.135 -0.5297  0.4417  0.4575
  284MPD2    N1 4347   3.754   0.972  11.823  0.3597  0.3220 -0.0929
  284MPD2    H7 4348   3.744   0.913  11.741  3.0677 -0.8323  0.4154
  285TMC3    C1 4349   3.678   1.113  11.645  0.3192  0.4511 -0.0578
  285TMC3    C2 4350   3.689   1.014  11.553 -0.1773 -0.1547  0.8263
  285TMC3    C3 4351   3.630   1.023  11.431 -0.1808  0.1346 -0.0366
  285TMC3    C4 4352   3.618   1.235  11.617 -0.2015  0.2042  0.0908
  285TMC3    C5 4353   3.562   1.244  11.493  0.4937  0.0615 -0.3986
  285TMC3    C6 4354   3.573   1.142  11.395 -0.3565 -0.4994 -0.3644
  285TMC3     C 4355   3.714   1.104  11.790 -0.7774  0.1758  0.0329
  285TMC3     O 4356   3.728   1.203  11.862 -0.1583 -0.8632  0.0089
  285TMC3     H 4357   3.748   0.926  11.575 -1.7359 -1.1339  1.0718
  285TMC3    H1 4358   3.612   1.319  11.686  1.1598 -0.8001  1.4155
  285TMC3    H2 4359   3.532   1.151  11.295 -3.9724 -0.1450  1.1492
  285TMC3    C7 4360   3.475   1.354  11.474 -0.6132  0.0541  0.6090
  285TMC3    C8 4361   3.638   0.920  11.328  0.7184 -0.5889  0.8602
  285TMC3    O1 4362   3.472   1.437  11.561  0.0882  0.4832 -0.1631
  285TMC3    O2 4363   3.560   0.929  11.236 -0.1565 -0.0852 -0.1834
  286MPD2     C 4364   3.639   0.610   1.543 -0.1303  0.1566  0.2549
  286MPD2    C1 4365   3.638   0.583   1.409  0.6398  0.5763  0.0536
  286MPD2    C2 4366   3.685   0.457   1.366 -0.1257  0.1532  0.7139
  286MPD2    C3 4367   3.741   0.369   1.454  0.0748  0.5697 -0.2378
  286MPD2    C4 4368   3.754   0.411   1.584 -0.2962 -0.6939 -0.6120
  286MPD2    C5 4369   3.701   0.529   1.629 -0.1040 -0.5284 -0.6199
  286MPD2     H 4370   3.664   0.431   1.263 -2.3468 -0.5119  1.3334
  286MPD2    H1 4371   3.796   0.346   1.661  0.3681  0.3234 -0.1121
  286MPD2    H2 4372   3.593   0.701   1.580 -0.2962  0.0559  0.2940
  286MPD2    H3 4373   3.708   0.561   1.732 -0.9529  0.2515 -0.8069
  286MPD2     N 4374   3.769   0.230   1.416  0.3172  0.0527 -0.2533
  286MPD2    H5 4375   3.787   0.165   1.492 -0.7339  0.8250  0.6447
  286MPD2    N1 4376   3.591   0.669   1.309  0.3191 -0.4713  0.5652
  286MPD2    H7 4377   3.578   0.628   1.218  0.9151  2.1612 -0.6920
  287TMC3    C1 4378   3.783   0.030   1.295 -0.1495  0.0515  0.8489
  287TMC3    C2 4379   3.722   4.696   1.192 -0.3182 -0.7506 -0.1722
  287TMC3    C3 4380   3.760   4.569   1.165  0.1052  0.1942 -0.1827
  287TMC3    C4 4381   3.882   4.714   1.368 -0.0345  0.1606 -0.4452
  287TMC3    C5 4382   3.903   4.582   1.350 -0.4826  0.3865  0.4597
  287TMC3    C6 4383   3.844   4.502   1.248 -0.5181  0.3096  0.6392
  287TMC3     C 4384   3.762   0.175   1.293  0.1189 -0.0604  0.7106
  287TMC3     O 4385   3.757   0.231   1.184  0.0559  0.1938  0.1035
  287TMC3     H 4386   3.641   0.004   1.138  1.8150  0.6160 -2.2155
  287TMC3    H1 4387   3.928   0.030   1.449  0.5597  0.7493 -1.1868
  287TMC3    H2 4388   3.872   4.400   1.223 -1.0516  0.4285 -0.4685
  287TMC3    C7 4389   4.008   4.529   1.429 -0.6914 -0.5119  1.0197
  287TMC3    C8 4390   3.729   4.513   1.041  1.1782  0.6711 -0.4637
  287TMC3    O1 4391   4.040   4.593   1.530  0.0885 -0.1156  0.1916
  287TMC3    O2 4392   3.719   4.391   1.044 -0.4438 -0.5088 -0.2553
  288TMC3    C1 4393   1.289   0.317  14.242  0.3818 -0.0783 -0.5627
  288TMC3    C2 4394   1.175   0.279  14.302 -0.3826 -0.5053 -0.4005
  288TMC3    C3 4395   1.068   0.358  14.298 -0.1548 -0.2906 -0.2127
  288TMC3    C4 4396   1.295   0.424  14.157 -0.1704 -0.4047  0.0868
  288TMC3    C5 4397   1.183   0.494  14.141 -0.0804 -0.0636 -0.7872
  288TMC3    C6 4398   1.064   0.461  14.206  0.5961 -0.0297  0.3295
  288TMC3     C 4399   1.416   0.276  14.308 -0.5518 -0.6558  0.4293
  288TMC3     O 4400   1.407   0.214  14.414 -0.4815 -0.4114  0.2125
  288TMC3     H 4401   1.182   0.199  14.374 -0.6145  0.0552  0.2399
  288TMC3    H1 4402   1.383   0.463  14.106  1.4099 -1.0701  2.3435
  288TMC3    H2 4403   0.975   0.521  14.198  0.5530  0.0429  1.4623
  288TMC3    C7 4404   1.176   0.583  14.020  0.1548 -1.1057 -0.3508
  288TMC3    C8 4405   0.982   0.358  14.409 -0.3346 -0.3900  0.4085
  288TMC3    O1 4406   1.274   0.593  13.948  0.2848  0.3788 -0.2479
  288TMC3    O2 4407   0.932   0.466  14.442 -0.2829 -0.3136 -0.2274
  289MPD2     C 4408   1.044   3.935  14.546 -0.7326 -0.2182 -0.3069
  289MPD2    C1 4409   1.064   4.050  14.466 -0.9241 -0.7409  0.5121
  289MPD2    C2 4410   0.982   4.080  14.362  0.5555 -0.9708  0.3189
  289MPD2    C3 4411   0.865   4.009  14.359 -0.5277  0.3034  0.2108
  289MPD2    C4 4412   0.841   3.893  14.434  0.1241 -0.8731 -0.0485
  289MPD2    C5 4413   0.928   3.862  14.535 -0.2642  0.4715  0.2650
  289MPD2     H 4414   1.000   4.166  14.299 -0.5907 -1.2265 -0.3569
  289MPD2    H1 4415   0.764   3.825  14.402 -0.9797  0.2322  0.2492
  289MPD2    H2 4416   1.116   3.909  14.623  1.3837  0.3196 -2.1227
  289MPD2    H3 4417   0.907   3.778  14.601 -0.8573  0.2581 -0.1918
  289MPD2     N 4418   0.770   4.034  14.261 -0.3229  0.0143 -0.4268
  289MPD2    H5 4419   0.695   3.966  14.258  0.2126 -0.5866  0.0255
  289MPD2    N1 4420   1.180   4.120  14.502  0.0018  0.4363  0.1480
  289MPD2    H7 4421   1.221   4.099  14.592 -3.2937 -2.6259  0.9203
  290TMC3    C1 4422   0.637   4.134  14.099 -0.0483  0.0729  0.4065
  290TMC3    C2 4423   0.619   4.230  14.004  0.5797  0.6539 -0.2867
  290TMC3    C3 4424   0.508   4.232  13.917 -0.0664  0.3428 -0.5124
  290TMC3    C4 4425   0.550   4.025  14.097 -0.0792  0.0402 -0.2893
  290TMC3    C5 4426   0.456   4.015  13.997  0.0541 -0.1739 -0.0381
  290TMC3    C6 4427   0.436   4.120  13.905  0.5018 -0.4109 -0.2599
  290TMC3     C 4428   0.755   4.148  14.185  0.5213  1.0022  0.3181
  290TMC3     O 4429   0.828   4.245  14.166 -0.5589 -0.2892 -0.0533
  290TMC3     H 4430   0.690   4.312  13.998  1.5659 -0.1618  0.2582
  290TMC3    H1 4431   0.564   3.943  14.166  0.0753  0.5049  0.2357
  290TMC3    H2 4432   0.363   4.107  13.826  1.0974  1.8991 -1.2162
  290TMC3    C7 4433   0.360   3.904  13.984 -0.0057  0.0113  0.7602
  290TMC3    C8 4434   0.414   4.343  13.920 -0.3649 -0.5740 -0.3501
  290TMC3    O1 4435   0.269   3.924  13.903  0.0005  0.3124  0.1069
  290TMC3    O2 4436   0.304   4.327  13.862 -0.1736  0.3272  0.3584
  291MPD2     C 4437   0.104   3.992  17.465  0.4013 -0.1269 -0.1899
  291MPD2    C1 4438   0.134   3.870  17.520 -0.0515  0.2574  0.7174
  291MPD2    C2 4439   0.119   3.763  17.432 -0.4111  0.6864 -0.0501
  291MPD2    C3 4440   0.076   3.780  17.296 -0.1052 -0.0421 -1.0449
  291MPD2    C4 4441   0.030   3.907  17.253  0.0104 -0.1615  0.0992
  291MPD2    C5 4442   0.044   4.010  17.344  0.3141 -0.0777  0.0183
  291MPD2     H 4443   0.139   3.664  17.472 -0.7892  1.2561  1.5559
  291MPD2    H1 4444   4.730   3.920  17.153  4.2965  1.9806 -1.2793
  291MPD2    H2 4445   0.120   4.082  17.524  1.7136 -0.0370 -0.6795
  291MPD2    H3 4446   0.003   4.108  17.324  0.8842  0.8889  3.6306
  291MPD2     N 4447   0.066   3.673  17.207  0.6565 -0.4074  0.8121
  291MPD2    H5 4448   0.022   3.683  17.116 -0.8919  0.6250  1.6699
  291MPD2    N1 4449   0.176   3.841  17.659 -0.1528  0.4117  0.0106
  291MPD2    H7 4450   0.213   3.749  17.682 -2.0813 -0.6816 -1.3238
  292TMC3    C1 4451   0.229   3.882   0.128  1.1758 -0.9313  0.5072
  292TMC3    C2 4452   0.177   3.921   0.253 -0.8832 -0.4970 -0.2630
  292TMC3    C3 4453   0.219   3.843   0.360  0.4276 -0.4348  0.0597
  292TMC3    C4 4454   0.325   3.784   0.112  0.2124 -0.2909  0.0512
  292TMC3    C5 4455   0.353   3.704   0.215 -0.6883 -0.0331  0.3461
  292TMC3    C6 4456   0.300   3.731   0.342  0.5641 -0.0518 -0.2941
  292TMC3     C 4457   0.177   3.934   0.011  0.2523  0.2287  0.0110
  292TMC3     O 4458   0.109   4.034   0.021  0.1532 -0.4835  0.0635
  292TMC3     H 4459   0.110   4.005   0.267  0.0955  1.1836 -5.6424
  292TMC3    H1 4460   0.377   3.768   0.018 -2.2089 -0.7508 -1.2171
  292TMC3    H2 4461   0.303   3.659   0.422 -2.4153 -0.1563 -0.2901
  292TMC3    C7 4462   0.434   3.581   0.191 -0.0410 -0.1632  0.0588
  292TMC3    C8 4463   0.151   3.866   0.491 -0.6358  0.0084 -0.0535
  292TMC3    O1 4464   0.442   3.532   0.078 -0.2632 -0.3069 -0.2794
  292TMC3    O2 4465   0.064   3.945   0.470 -0.3845  0.5691  0.2541
  293MPD2     C 4466   1.824   0.324  12.436  0.1412 -0.1232  0.5494
  293MPD2    C1 4467   1.721   0.331  12.527  0.0394  0.6521 -0.0048
  293MPD2    C2 4468   1.749   0.401  12.647  0.1616  0.4346 -0.1440
  293MPD2    C3 4469   1.888   0.437  12.676 -0.3388 -0.6454  0.2065
  293MPD2    C4 4470   1.985   0.423  12.585  0.0238  0.0919 -0.3124
  293MPD2    C5 4471   1.952   0.365  12.461 -0.0829  0.7509 -0.2087
  293MPD2     H 4472   1.676   0.423  12.725  0.0981 -0.1004 -0.0486
  293MPD2    H1 4473   2.085   0.463  12.594  0.1686 -0.4623  0.5622
  293MPD2    H2 4474   1.803   0.288  12.336  1.5718 -2.2601  1.0295
  293MPD2    H3 4475   2.026   0.382  12.384 -1.2128  0.3018 -1.4061
  293MPD2     N 4476   1.911   0.500  12.801  0.0620  0.3049 -0.6100
  293MPD2    H5 4477   1.830   0.530  12.854  1.8641 -0.9226  2.7890
  293MPD2    N1 4478   1.593   0.277  12.500 -0.8266 -0.1735  0.8750
  293MPD2    H7 4479   1.583   0.230  12.410 -0.5448 -0.3845  0.9554
  294TMC3    C1 4480   1.391   0.170  12.553 -0.2457  0.1362  0.5763
  294TMC3    C2 4481   1.274   0.172  12.617 -0.6060 -1.0586  0.0037
  294TMC3    C3 4482   1.166   0.095  12.570 -0.0316 -0.5755  0.1723
  294TMC3    C4 4483   1.411   0.085  12.449 -0.0704 -0.3120  0.3065
  294TMC3    C5 4484   1.315   4.735  12.419  0.0163  0.9003 -0.2076
  294TMC3    C6 4485   1.191   4.738  12.475 -0.4885 -0.3794  0.2102
  294TMC3     C 4486   1.490   0.271  12.593 -0.5577  0.5899  0.8240
  294TMC3     O 4487   1.476   0.325  12.704 -0.4451 -0.3056 -0.0128
  294TMC3     H 4488   1.249   0.257  12.681  3.4759  1.1964 -1.4387
  294TMC3    H1 4489   1.512   0.065  12.415 -0.5765  1.5648 -2.3334
  294TMC3    H2 4490   1.112   4.669  12.444 -1.7208  1.4002 -0.6152
  294TMC3    C7 4491   1.330   4.631  12.320 -0.0887  0.4741  0.3884
  294TMC3    C8 4492   1.050   0.096  12.655 -0.0148  0.2493 -0.3089
  294TMC3    O1 4493   1.256   4.536  12.335  0.4205 -0.3288  0.1540
  294TMC3    O2 4494   1.058   0.178  12.746 -0.3779  0.0507 -1.1372
  295MPD2     C 4495   2.805   4.053   1.263 -0.3229  0.2755  0.1438
  295MPD2    C1 4496   2.832   3.946   1.174 -0.1768 -0.1579  0.0968
  295MPD2    C2 4497   2.868   3.829   1.239  0.5423  1.4716  0.4639
  295MPD2    C3 4498   2.890   3.818   1.375 -0.0695 -0.3573  0.1591
  295MPD2    C4 4499   2.890   3.931   1.448 -0.6169  0.0207 -0.9866
  295MPD2    C5 4500   2.844   4.051   1.399  0.1208 -0.0061  0.0485
  295MPD2     H 4501   2.880   3.742   1.176 -0.4857  0.7733  1.2318
  295MPD2    H1 4502   2.918   3.925   1.552  2.3947 -0.0439 -1.8049
  295MPD2    H2 4503   2.750   4.141   1.231  1.2747  1.5727  0.9640
  295MPD2    H3 4504   2.825   4.136   1.462 -1.1505  0.2652 -0.7074
  295MPD2     N 4505   2.900   3.694   1.440 -0.0794  0.0349  0.3850
  295MPD2    H5 4506   2.922   3.701   1.539 -0.3456 -0.6239  0.4895
  295MPD2    N1 4507   2.829   3.952   1.033 -0.3753 -0.3262  0.6112
  295MPD2    H7 4508   2.857   3.871   0.977 -1.6978 -0.8840  0.7663
  296TMC3    C1 4509   2.927   3.467   1.463  0.7201  0.2479 -0.4483
  296TMC3    C2 4510   3.042   3.485   1.526 -0.7838  0.1353 -0.3885
  296TMC3    C3 4511   3.102   3.375   1.588  0.5323  1.2070 -0.1579
  296TMC3    C4 4512   2.875   3.344   1.450 -0.3958  0.1411 -0.0230
  296TMC3    C5 4513   2.928   3.238   1.519  0.7568 -0.6281 -0.2737
  296TMC3    C6 4514   3.044   3.250   1.587 -0.3097  0.2046  0.7166
  296TMC3     C 4515   2.874   3.574   1.386  0.3139 -0.2882  0.1318
  296TMC3     O 4516   2.812   3.548   1.284 -0.0813 -0.0255 -0.2844
  296TMC3     H 4517   3.095   3.580   1.531 -0.9235  0.1268  1.2334
  296TMC3    H1 4518   2.795   3.334   1.378 -0.4483  0.7699 -0.0468
  296TMC3    H2 4519   3.093   3.165   1.635  1.7056  0.9172 -0.1098
  296TMC3    C7 4520   2.862   3.108   1.513 -0.0870 -0.6442 -0.8938
  296TMC3    C8 4521   3.208   3.398   1.683  0.3993  0.1325  0.3936
  296TMC3    O1 4522   2.918   3.009   1.560 -0.2011 -0.0132  0.0906
  296TMC3    O2 4523   3.273   3.302   1.705 -0.0706  0.4024  0.0384
  297MPD2     C 4524   4.588   0.988  16.646  0.3669  0.1472 -0.0955
  297MPD2    C1 4525   4.586   1.035  16.514  0.0445 -0.4735  0.3020
  297MPD2    C2 4526   4.704   1.084  16.459 -0.2999 -0.5919 -0.1671
  297MPD2    C3 4527   0.085   1.082  16.535  1.0402 -0.8161 -0.2138
  297MPD2    C4 4528   0.082   1.026  16.659  0.0733  0.9158 -0.0674
  297MPD2    C5 4529   4.702   0.992  16.717 -0.0792 -0.0671 -0.5051
  297MPD2     H 4530   4.705   1.128  16.360 -2.5714  1.7569  0.8395
  297MPD2    H1 4531   0.172   1.019  16.718  1.1551  1.5432 -1.6406
  297MPD2    H2 4532   4.495   0.962  16.696 -0.1879 -0.6356 -1.5432
  297MPD2    H3 4533   4.704   0.958  16.819  1.8385  0.9344 -0.2017
  297MPD2     N 4534   0.204   1.150  16.483  0.2251  0.9411  0.1591
  297MPD2    H5 4535   0.188   1.198  16.396 -1.5980  1.2606  0.6645
  297MPD2    N1 4536   4.459   1.038  16.441 -0.3436 -0.2066 -0.0205
  297MPD2    H7 4537   4.458   1.067  16.344  0.7105  0.7123  0.2432
  298TMC3    C1 4538   4.225   1.037  16.404 -0.3054  0.6935  0.0369
  298TMC3    C2 4539   4.244   1.007  16.270  0.2021 -0.1002 -0.3437
  298TMC3    C3 4540   4.163   1.083  16.179 -0.3678 -0.4725  0.0273
  298TMC3    C4 4541   4.138   1.140  16.449 -0.4506  0.0716 -0.4162
  298TMC3    C5 4542   4.055   1.201  16.352  0.2351 -0.0501 -0.5167
  298TMC3    C6 4543   4.067   1.184  16.214 -0.0437  0.7195 -0.6413
  298TMC3     C 4544   4.336   1.021  16.492 -0.1309 -0.1138  0.1751
  298TMC3     O 4545   4.304   1.016  16.612  0.1804 -0.7124 -0.3794
  298TMC3     H 4546   4.293   0.916  16.237  0.6055 -0.0767  0.1961
  298TMC3    H1 4547   4.116   1.161  16.553  1.4128  1.3188 -0.2838
  298TMC3    H2 4548   4.004   1.233  16.140  1.1893  0.8812 -1.5892
  298TMC3    C7 4549   3.962   1.293  16.397 -0.5924 -0.3835 -0.5266
  298TMC3    C8 4550   4.171   1.035  16.042 -0.0120  0.2634  0.2423
  298TMC3    O1 4551   3.967   1.326  16.516 -0.5409  0.3345  0.4080
  298TMC3    O2 4552   4.268   0.968  16.014  0.7538 -0.3019 -0.1422
  299MPD2     C 4553   0.022   0.171  10.506  0.2146 -0.8344 -0.3005
  299MPD2    C1 4554   0.024   0.301  10.458 -0.3303 -0.3284  0.4596
  299MPD2    C2 4555   4.678   0.332  10.352  0.6397 -0.0569 -0.2824
  299MPD2    C3 4556   4.584   0.240  10.307  0.6275 -0.4493  0.4151
  299MPD2    C4 4557   4.582   0.117  10.361 -0.0526 -0.0219  0.2251
  299MPD2    C5 4558   4.676   0.078  10.451  0.4067 -0.3078  0.5141
  299MPD2     H 4559   4.691   0.427  10.302 -1.6916 -0.5313 -1.8515
  299MPD2    H1 4560   4.508   0.045  10.328 -1.0163  0.0228  2.3066
  299MPD2    H2 4561   0.087   0.137  10.586 -1.2330 -0.2014  1.1386
  299MPD2    H3 4562   4.676   4.715  10.485  1.0274 -1.1054 -1.8782
  299MPD2     N 4563   4.499   0.258  10.195  0.6571  0.0490 -0.3505
  299MPD2    H5 4564   4.446   0.174  10.177 -0.1142  0.2404  1.0721
  299MPD2    N1 4565   0.116   0.390  10.513 -0.3683  0.0412  0.1699
  299MPD2    H7 4566   0.193   0.354  10.569  0.0892  1.2783  0.3450
  300TMC3    C1 4567   4.396   0.363  10.006 -0.2602  0.6112  0.6028
  300TMC3    C2 4568   4.418   0.445   9.907 -0.3111 -0.4126 -0.4266
  300TMC3    C3 4569   4.315   0.465   9.822 -0.3210 -0.0907  0.6262
  300TMC3    C4 4570   4.284   0.285  10.019 -0.3472  0.5270 -0.7180
  300TMC3    C5 4571   4.183   0.310   9.933 -0.4886 -0.7009  0.2195
  300TMC3    C6 4572   4.192   0.403   9.835  0.3242  0.4099  0.5635
  300TMC3     C 4573   4.493   0.370  10.116  0.1732 -0.1356  0.4231
  300TMC3     O 4574   4.562   0.470  10.125  0.6748  0.0434  0.0910
  300TMC3     H 4575   4.509   0.502   9.917 -0.3255 -0.7809  1.9104
  300TMC3    H1 4576   4.254   0.234  10.109 -0.2888  0.3564 -0.7953
  300TMC3    H2 4577   4.107   0.426   9.773  0.2694  2.4297  1.3809
  300TMC3    C7 4578   4.056   0.252   9.950  0.1627  0.0450  0.0508
  300TMC3    C8 4579   4.303   0.595   9.760 -0.0576  0.2716  0.0063
  300TMC3    O1 4580   3.988   0.221   9.850  0.1932  0.0533  0.1269
  300TMC3    O2 4581   4.224   0.606   9.667 -0.3412 -0.1497  0.0925
  301MPD2     C 4582   2.315   2.172   0.964 -0.7559  0.0946  0.6326
  301MPD2    C1 4583   2.197   2.103   0.949  0.6212 -0.1975 -0.0040
  301MPD2    C2 4584   2.203   1.961   0.948 -1.0937  0.3320  0.0254
  301MPD2    C3 4585   2.317   1.891   0.987  0.7501 -0.6387 -0.2893
  301MPD2    C4 4586   2.433   1.966   0.997 -0.1231 -0.3403 -0.6680
  301MPD2    C5 4587   2.431   2.102   0.983  0.3227  0.8234 -0.3544
  301MPD2     H 4588   2.109   1.910   0.928 -0.6508 -0.1285 -0.8514
  301MPD2    H1 4589   2.529   1.916   1.007 -0.5966 -0.8015  1.4780
  301MPD2    H2 4590   2.329   2.278   0.982  0.2105 -0.1932  1.5563
  301MPD2    H3 4591   2.529   2.148   0.980  1.0098 -0.8275 -3.0487
  301MPD2     N 4592   2.323   1.752   1.000 -0.6208 -0.6108  0.4584
  301MPD2    H5 4593   2.417   1.717   1.009 -0.5616 -1.0246 -1.7518
  301MPD2    N1 4594   2.067   2.163   0.943  0.4350  0.2594 -0.0553
  301MPD2    H7 4595   1.994   2.094   0.954  1.5048 -0.7883  0.5348
  302TMC3    C1 4596   2.241   1.531   0.980  0.2013  0.0223  0.3466
  302TMC3    C2 4597   2.359   1.478   1.040 -0.2651  0.2131 -0.3619
  302TMC3    C3 4598   2.370   1.343   1.022 -0.7412  0.4592 -0.0025
  302TMC3    C4 4599   2.159   1.461   0.901 -0.9986  0.1669 -0.1924
  302TMC3    C5 4600   2.185   1.330   0.879 -0.0291 -0.8989 -0.0498
  302TMC3    C6 4601   2.294   1.271   0.936  0.1762  0.5056 -1.1034
  302TMC3     C 4602   2.217   1.668   0.972  0.1063 -0.2106 -0.0377
  302TMC3     O 4603   2.099   1.686   0.951 -0.3824 -0.2248 -0.2162
  302TMC3     H 4604   2.413   1.516   1.126 -0.0336  0.2634 -0.5290
  302TMC3    H1 4605   2.080   1.512   0.846 -1.1994 -1.2730 -1.2332
  302TMC3    H2 4606   2.313   1.168   0.908  2.4178  0.6886 -0.2313
  302TMC3    C7 4607   2.134   1.275   0.762  0.0661  0.0187  0.0447
  302TMC3    C8 4608   2.488   1.285   1.087  0.1568  0.2546 -0.4358
  302TMC3    O1 4609   2.209   1.247   0.671 -0.0640  0.3797  0.1480
  302TMC3    O2 4610   2.543   1.342   1.180  0.1734 -0.1636 -0.2037
  303MPD2     C 4611   2.491   3.988  10.032 -0.0275 -0.1978  0.6981
  303MPD2    C1 4612   2.423   4.064  10.119  1.3815 -0.2572  0.2910
  303MPD2    C2 4613   2.319   4.133  10.074  0.1975 -0.3337  0.3743
  303MPD2    C3 4614   2.271   4.118   9.948 -0.3548  0.2733  1.4239
  303MPD2    C4 4615   2.337   4.035   9.859  0.7443  0.3428 -0.1158
  303MPD2    C5 4616   2.442   3.972   9.908 -0.0252  0.2586 -0.2296
  303MPD2     H 4617   2.264   4.206  10.132  0.1457 -0.1167  0.0536
  303MPD2    H1 4618   2.304   4.018   9.757  1.2264 -1.4851  0.0289
  303MPD2    H2 4619   2.579   3.929  10.056  0.1446 -0.9684 -1.8635
  303MPD2    H3 4620   2.489   3.901   9.840  0.6880  0.7869 -0.2895
  303MPD2     N 4621   2.140   4.166   9.909  0.1749  0.1843  0.3341
  303MPD2    H5 4622   2.092   4.119   9.833  0.3063  1.8035 -0.7511
  303MPD2    N1 4623   2.459   4.052  10.252 -0.0978  0.1604  0.1655
  303MPD2    H7 4624   2.529   3.985  10.280 -0.0089  0.7263  1.3090
  304TMC3    C1 4625   2.446   4.073  10.492 -0.2347 -0.2986  0.0295
  304TMC3    C2 4626   2.391   4.163  10.582  0.2249 -0.1787  0.5639
  304TMC3    C3 4627   2.350   4.115  10.698 -0.0594  0.1477 -0.6315
  304TMC3    C4 4628   2.455   3.939  10.513 -0.6683 -0.2444 -0.4945
  304TMC3    C5 4629   2.430   3.898  10.639  0.0278 -0.9931 -0.6830
  304TMC3    C6 4630   2.382   3.987  10.729 -0.2820 -0.2352  0.1538
  304TMC3     C 4631   2.402   4.118  10.362  0.0602 -0.2379  0.0224
  304TMC3     O 4632   2.321   4.211  10.357 -0.0608 -0.0941 -0.3288
  304TMC3     H 4633   2.370   4.267  10.559 -4.4027 -1.1880  0.3326
  304TMC3    H1 4634   2.493   3.874  10.436 -1.3024 -0.0519 -0.9735
  304TMC3    H2 4635   2.343   3.961  10.827 -1.7831 -0.8414 -0.6116
  304TMC3    C7 4636   2.353   3.776  10.648 -0.3400 -0.1049 -0.2920
  304TMC3    C8 4637   2.214   4.150  10.714 -1.0537 -0.9598  0.1383
  304TMC3    O1 4638   2.246   3.784  10.705 -0.1361 -0.2434  0.5563
  304TMC3    O2 4639   2.186   4.268  10.703  0.0070 -0.5727  0.1209
  305MPD2     C 4640   0.625   2.761  13.807  0.3165 -0.2181  0.0767
  305MPD2    C1 4641   0.642   2.624  13.821  0.2435 -0.3396 -0.3499
  305MPD2    C2 4642   0.650   2.545  13.709 -0.0238  0.3355  0.1612
  305MPD2    C3 4643   0.654   2.600  13.584  0.2170 -0.6489 -0.1227
  305MPD2    C4 4644   0.658   2.736  13.569  0.7837 -0.1887 -0.3455
  305MPD2    C5 4645   0.643   2.819  13.681  0.0116  0.2327  0.4565
  305MPD2     H 4646   0.658   2.437  13.719  0.4235  0.4279  0.8031
  305MPD2    H1 4647   0.675   2.784  13.473 -1.5917 -0.9109 -1.1352
  305MPD2    H2 4648   0.614   2.835  13.886  0.2027  2.3974 -2.3645
  305MPD2    H3 4649   0.663   2.924  13.664 -2.0497  0.3927 -0.9029
  305MPD2     N 4650   0.672   2.512  13.472 -0.4559 -0.0617  0.3041
  305MPD2    H5 4651   0.676   2.554  13.380 -1.5620 -1.1089 -0.2284
  305MPD2    N1 4652   0.645   2.584  13.957  0.2171 -0.0942 -0.2874
  305MPD2    H7 4653   0.628   2.655  14.027  0.6080 -1.5882  1.3106
  306TMC3    C1 4654   0.712   2.456  14.141 -0.2699  0.3544  0.0189
  306TMC3    C2 4655   0.832   2.387  14.167  0.3013  0.5800  0.6867
  306TMC3    C3 4656   0.876   2.400  14.302 -0.1349  0.3532 -0.0045
  306TMC3    C4 4657   0.636   2.533  14.231  0.0940 -0.0674 -0.3091
  306TMC3    C5 4658   0.689   2.540  14.357 -0.1135 -0.9365 -0.3094
  306TMC3    C6 4659   0.808   2.473  14.393 -0.5002 -0.2834 -0.1115
  306TMC3     C 4660   0.684   2.463  13.999 -0.1540 -0.2417 -0.1170
  306TMC3     O 4661   0.731   2.373  13.933 -0.0377  0.2758 -0.0431
  306TMC3     H 4662   0.891   2.339  14.090 -0.7363  1.3324 -0.5707
  306TMC3    H1 4663   0.534   2.565  14.213  0.5107  1.2767 -0.2822
  306TMC3    H2 4664   0.858   2.495  14.487  1.2434  0.3570 -1.2106
  306TMC3    C7 4665   0.625   2.630  14.452 -0.1964 -0.1062 -0.0792
  306TMC3    C8 4666   1.018   2.370  14.339 -0.5907 -0.0926 -0.0149
  306TMC3    O1 4667   0.508   2.655  14.425  0.1321  0.5421 -0.2243
  306TMC3    O2 4668   1.110   2.375  14.256  0.0439  0.0757 -0.4190
  307MPD2     C 4669   3.455   0.941   0.061 -0.3908  0.1039 -0.0023
  307MPD2    C1 4670   3.402   1.041   0.143  0.3226  0.2007 -0.3862
  307MPD2    C2 4671   3.327   1.002   0.250 -0.6506  0.1578 -0.1634
  307MPD2    C3 4672   3.313   0.874   0.286 -0.4093  0.0297 -0.1047
  307MPD2    C4 4673   3.376   0.774   0.215  0.2343  0.0569  0.3599
  307MPD2    C5 4674   3.442   0.807   0.101  0.1926 -0.4578  0.5339
  307MPD2     H 4675   3.290   1.076   0.320 -1.0260 -0.9573  0.8116
  307MPD2    H1 4676   3.378   0.671   0.247 -0.8749  0.1868  0.8864
  307MPD2    H2 4677   3.503   0.966  17.720  0.4780  0.8759  0.6415
  307MPD2    H3 4678   3.487   0.737   0.032 -0.3968 -0.0536 -0.2608
  307MPD2     N 4679   3.224   0.855   0.394  0.3975  0.0252 -0.2058
  307MPD2    H5 4680   3.192   0.932   0.450  2.5802  1.3805 -0.8139
  307MPD2    N1 4681   3.401   1.184   0.125  0.2671 -0.8726  0.0403
  307MPD2    H7 4682   3.369   1.242   0.202 -2.7564 -0.8811 -1.1966
  308TMC3    C1 4683   2.919   0.684   0.680  0.1035 -0.9283 -1.0920
  308TMC3    C2 4684   2.914   0.806   0.756 -0.5498 -0.9474 -0.2912
  308TMC3    C3 4685   3.022   0.886   0.726 -0.1967 -0.0265  0.1636
  308TMC3    C4 4686   3.011   0.657   0.585 -0.5860 -1.0843 -0.6080
  308TMC3    C5 4687   3.123   0.737   0.568 -0.6796  0.6963 -0.3889
  308TMC3    C6 4688   3.125   0.856   0.641 -0.4983 -0.1982  0.3647
  308TMC3     C 4689   2.803   0.602   0.682  0.6164 -0.3092 -0.2410
  308TMC3     O 4690   2.819   0.487   0.725  0.7649  0.0884  0.1494
  308TMC3     H 4691   2.837   0.845   0.821  0.0264 -0.5045  0.1248
  308TMC3    H1 4692   2.994   0.575   0.516  0.5183  0.3038 -2.5136
  308TMC3    H2 4693   3.202   0.932   0.630 -1.3437  0.3404 -1.9070
  308TMC3    C7 4694   3.192   0.732   0.443 -0.3070 -0.2705  0.4050
  308TMC3    C8 4695   3.026   1.018   0.777 -0.0617 -0.4033 -0.1027
  308TMC3    O1 4696   3.200   0.626   0.385  0.3802  0.0192  0.3183
  308TMC3    O2 4697   3.136   1.059   0.822 -0.1417  0.1182  0.5000
  309MPD2     C 4698   2.286   1.087  17.144  0.5831 -0.5217  0.1263
  309MPD2    C1 4699   2.210   1.028  17.049 -0.6616  0.0158 -0.8202
  309MPD2    C2 4700   2.081   0.995  17.078  0.1315 -0.3163  0.4143
  309MPD2    C3 4701   2.034   1.013  17.203  0.0970 -0.1377 -0.6470
  309MPD2    C4 4702   2.117   1.065  17.305 -0.0429  0.4099 -0.3287
  309MPD2    C5 4703   2.244   1.105  17.273  0.0005  0.3626 -0.1406
  309MPD2     H 4704   2.022   0.964  16.992  0.2703 -0.9807  0.5515
  309MPD2    H1 4705   2.077   1.092  17.401 -0.2799 -0.1142 -0.2810
  309MPD2    H2 4706   2.387   1.124  17.128  1.4413 -1.8825  2.4224
  309MPD2    H3 4707   2.305   1.157  17.345  0.6185  2.4414 -2.1525
  309MPD2     N 4708   1.900   0.997  17.227 -0.6423 -0.2624 -0.0255
  309MPD2    H5 4709   1.871   1.034  17.317 -0.0620  0.6975 -0.2220
  309MPD2    N1 4710   2.253   0.998  16.919  0.5734 -0.0093 -0.1931
  309MPD2    H7 4711   2.200   0.951  16.847 -0.1221  0.3946  0.0500
  310TMC3    C1 4712   2.380   1.010  16.727  0.3131 -0.1345  0.3751
  310TMC3    C2 4713   2.432   1.114  16.656  0.3909 -0.0375  0.5255
  310TMC3    C3 4714   2.375   1.136  16.533 -0.1481  0.2233 -0.4731
  310TMC3    C4 4715   2.294   0.918  16.673 -0.7313  0.4740  0.4641
  310TMC3    C5 4716   2.265   0.925  16.538  0.0983 -0.2394  0.1790
  310TMC3    C6 4717   2.287   1.046  16.474 -0.1321  0.3259  0.5096
  310TMC3     C 4718   2.378   1.032  16.869 -0.0381 -0.3710  0.0494
  310TMC3     O 4719   2.471   1.099  16.915 -0.0286  0.1528 -0.7823
  310TMC3     H 4720   2.455   1.203  16.713 -2.6211  2.7118 -2.5054
  310TMC3    H1 4721   2.275   0.824  16.724  0.0729 -0.3518 -0.7536
  310TMC3    H2 4722   2.261   1.054  16.369 -0.2726  1.3412  0.6205
  310TMC3    C7 4723   2.224   0.817  16.446 -0.2430 -0.3835 -0.0308
  310TMC3    C8 4724   2.420   1.245  16.447  0.6239  0.0936  0.1792
  310TMC3    O1 4725   2.234   0.839  16.324 -0.3546  0.2765  0.5738
  310TMC3    O2 4726   2.351   1.254  16.346 -0.5655 -0.0430 -0.9528
  311MPD2     C 4727   4.544   1.924  12.707 -0.4129 -0.1237  1.1021
  311MPD2    C1 4728   4.551   2.054  12.748 -0.1050 -0.9002 -0.2806
  311MPD2    C2 4729   4.448   2.113  12.819 -0.4310  0.0508  0.3041
  311MPD2    C3 4730   4.343   2.033  12.853  0.7163  0.6304  0.5879
  311MPD2    C4 4731   4.332   1.906  12.806 -0.2273 -0.4210  0.0907
  311MPD2    C5 4732   4.431   1.853  12.734 -0.7742  0.0108 -0.3759
  311MPD2     H 4733   4.452   2.212  12.863 -1.2420 -0.2139  0.9763
  311MPD2    H1 4734   4.246   1.843  12.826 -2.3716  2.0319 -1.3707
  311MPD2    H2 4735   4.612   1.882  12.633 -0.1643 -0.6733  1.6408
  311MPD2    H3 4736   4.417   1.756  12.687  2.2405 -0.8404  0.5083
  311MPD2     N 4737   4.238   2.101  12.925  0.0939 -0.6433  0.4281
  311MPD2    H5 4738   4.266   2.192  12.959 -1.2552  0.0919 -0.4558
  311MPD2    N1 4739   4.663   2.131  12.734 -0.0024  0.0111  0.0796
  311MPD2    H7 4740   4.656   2.224  12.775 -0.2097  1.3749 -3.0999
  312TMC3    C1 4741   4.035   2.151  13.020  0.6545  0.3734  0.0436
  312TMC3    C2 4742   3.900   2.143  13.012  0.0744 -0.0267 -0.6036
  312TMC3    C3 4743   3.831   2.251  13.054  0.5227  0.1684 -0.3744
  312TMC3    C4 4744   4.100   2.239  13.099 -0.2294  0.8080  0.7171
  312TMC3    C5 4745   4.027   2.342  13.146  0.5785  0.0099  0.8739
  312TMC3    C6 4746   3.895   2.354  13.120  0.3496 -0.5063 -0.4902
  312TMC3     C 4747   4.111   2.053  12.947  0.5853  0.6146 -0.1220
  312TMC3     O 4748   4.063   1.947  12.914 -0.1550 -0.7433  0.3023
  312TMC3     H 4749   3.845   2.074  12.948  1.2615  1.5072 -3.2444
  312TMC3    H1 4750   4.206   2.252  13.113 -0.0284  1.4968 -1.3953
  312TMC3    H2 4751   3.852   2.440  13.171  0.9270 -1.8427  2.2420
  312TMC3    C7 4752   4.076   2.423  13.261 -0.4501 -0.2738  0.2168
  312TMC3    C8 4753   3.689   2.248  13.033  0.3466  0.3105 -0.2420
  312TMC3    O1 4754   4.028   2.538  13.274 -0.0427  0.1393 -0.1388
  312TMC3    O2 4755   3.637   2.139  12.996  0.1689  0.1708  0.6144
  313MPD2     C 4756   3.766   1.160  11.101 -1.0446 -0.4087  0.1182
  313MPD2    C1 4757   3.689   1.232  11.008  0.1050 -0.1315 -0.2958
  313MPD2    C2 4758   3.647   1.176  10.894 -0.4354  0.1566 -0.6167
  313MPD2    C3 4759   3.695   1.056  10.856 -0.2029  0.0477 -0.1809
  313MPD2    C4 4760   3.769   0.979  10.945 -0.1038  0.3841  0.0472
  313MPD2    C5 4761   3.809   1.036  11.067  0.0603  0.0867  0.2177
  313MPD2     H 4762   3.575   1.229  10.833 -0.8101  2.7615  2.0602
  313MPD2    H1 4763   3.806   0.879  10.923 -1.1714 -0.3621  1.6654
  313MPD2    H2 4764   3.802   1.197  11.196 -0.9231  0.0981 -0.1242
  313MPD2    H3 4765   3.882   0.976  11.118  1.3960  0.6621 -1.0077
  313MPD2     N 4766   3.679   1.002  10.726 -0.4855  0.3978  0.6119
  313MPD2    H5 4767   3.689   0.901  10.718  2.5839  0.8772 -2.0310
  313MPD2    N1 4768   3.637   1.356  11.034  0.0389 -0.0156 -0.2657
  313MPD2    H7 4769   3.588   1.405  10.960 -1.0847  1.5016  1.4777
  314TMC3    C1 4770   3.555   1.545  11.142  0.2452  0.5993  0.0526
  314TMC3    C2 4771   3.584   1.658  11.219  0.0724 -0.3018 -0.2548
  314TMC3    C3 4772   3.486   1.763  11.215 -0.2638  0.7057 -0.2422
  314TMC3    C4 4773   3.440   1.543  11.072  0.2484  0.4725 -0.2801
  314TMC3    C5 4774   3.350   1.644  11.062 -0.4349 -0.5472  0.6229
  314TMC3    C6 4775   3.374   1.755  11.133 -0.6115  0.2664  0.1723
  314TMC3     C 4776   3.639   1.424  11.154 -0.2660  0.6453  0.1112
  314TMC3     O 4777   3.697   1.386  11.258  1.1678  0.2348 -0.3641
  314TMC3     H 4778   3.676   1.664  11.275 -2.0034 -1.2788  3.2821
  314TMC3    H1 4779   3.418   1.456  11.011 -2.7833 -0.0173  1.5411
  314TMC3    H2 4780   3.306   1.838  11.117  1.0691  1.4405 -0.7765
  314TMC3    C7 4781   3.254   1.641  10.951 -0.5942 -0.1955  0.1655
  314TMC3    C8 4782   3.493   1.879  11.303  0.6454 -0.2774 -0.6210
  314TMC3    O1 4783   3.211   1.527  10.931  0.6144 -0.3767 -0.2117
  314TMC3    O2 4784   3.410   1.966  11.285  0.1046 -0.1487 -0.1016
  315MPD2     C 4785   3.465   1.383   0.467  0.1439 -0.5338 -0.3340
  315MPD2    C1 4786   3.564   1.305   0.411  0.1437 -0.2060 -0.8264
  315MPD2    C2 4787   3.664   1.369   0.341  0.2469 -0.4150  0.3882
  315MPD2    C3 4788   3.658   1.503   0.308 -0.6102 -0.2210 -0.2116
  315MPD2    C4 4789   3.564   1.576   0.364 -0.6709 -0.0715  0.1129
  315MPD2    C5 4790   3.465   1.520   0.436  0.5446 -0.2217 -0.2909
  315MPD2     H 4791   3.748   1.311   0.304 -0.6649 -1.1358 -0.5617
  315MPD2    H1 4792   3.564   1.684   0.347  1.9743  0.0620  1.0954
  315MPD2    H2 4793   3.376   1.341   0.511 -0.4778  1.4936  0.3689
  315MPD2    H3 4794   3.390   1.588   0.475  1.7449  1.9875 -1.8548
  315MPD2     N 4795   3.773   1.556   0.241  0.0486 -1.1596 -0.4924
  315MPD2    H5 4796   3.862   1.511   0.255 -0.4580 -1.5648  1.3437
  315MPD2    N1 4797   3.593   1.169   0.437 -0.1609 -0.2509  0.8289
  315MPD2    H7 4798   3.674   1.126   0.393 -0.3227  0.5161 -0.1966
  316TMC3    C1 4799   3.901   1.714   0.110  0.2144 -0.2281 -0.0477
  316TMC3    C2 4800   3.999   1.674   0.194  1.0118 -0.6162 -0.3786
  316TMC3    C3 4801   4.125   1.691   0.141 -0.1388 -0.4132 -0.1042
  316TMC3    C4 4802   3.924   1.761  17.737 -0.1352  0.4024  0.0539
  316TMC3    C5 4803   4.051   1.790  17.696  1.3975  0.1867  0.2071
  316TMC3    C6 4804   4.156   1.749   0.022 -0.8865  0.0024  0.7365
  316TMC3     C 4805   3.769   1.670   0.158  0.0035  0.4905  0.0350
  316TMC3     O 4806   3.665   1.704   0.100  0.0534  0.5339 -0.2740
  316TMC3     H 4807   3.979   1.632   0.292 -0.3252 -1.1470 -0.8778
  316TMC3    H1 4808   3.847   1.780  17.663 -1.7315 -2.5895  0.9509
  316TMC3    H2 4809   4.259   1.757  17.744 -1.1313 -1.7915 -0.4978
  316TMC3    C7 4810   4.085   1.833  17.556 -0.2944  0.5696  0.3209
  316TMC3    C8 4811   4.237   1.645   0.221  0.4490  0.5898  0.5773
  316TMC3    O1 4812   4.186   1.905  17.537 -0.0054  0.6564 -0.5360
  316TMC3    O2 4813   4.348   1.693   0.199  0.7029  0.8481 -0.2214
  317MPD2     C 4814   0.525   4.226  13.047  0.4369 -0.4130  0.0121
  317MPD2    C1 4815   0.587   4.104  13.024  0.0639 -0.2659 -0.0738
  317MPD2    C2 4816   0.684   4.069  13.112  0.0376 -0.1064  0.0610
  317MPD2    C3 4817   0.716   4.137  13.227 -0.4735  0.0759  0.2390
  317MPD2    C4 4818   0.644   4.251  13.258 -0.0614 -0.0152 -0.1788
  317MPD2    C5 4819   0.561   4.297  13.164 -0.1451  0.6229 -0.5900
  317MPD2     H 4820   0.729   3.971  13.098  0.5452  0.4614 -2.3167
  317MPD2    H1 4821   0.661   4.305  13.350  0.7784  0.3712 -0.5522
  317MPD2    H2 4822   0.462   4.269  12.970 -0.3901 -0.3099  0.7493
  317MPD2    H3 4823   0.515   4.394  13.182  0.8047  0.6623  1.6949
  317MPD2     N 4824   0.822   4.083  13.301  0.3630  0.4225 -0.0717
  317MPD2    H5 4825   0.862   4.001  13.257 -2.1828 -1.3055  0.8290
  317MPD2    N1 4826   0.574   4.024  12.909  0.1794 -0.1621  0.0647
  317MPD2    H7 4827   0.623   3.936  12.899  0.1800  0.0394 -1.7099
  318TMC3    C1 4828   0.964   4.051  13.478 -0.0135  0.1025 -0.0211
  318TMC3    C2 4829   0.919   3.918  13.491 -0.3778  0.2214  0.4721
  318TMC3    C3 4830   0.986   3.827  13.566  0.0636  0.0264 -0.1101
  318TMC3    C4 4831   1.087   4.089  13.528 -0.1580 -0.7738 -0.2626
  318TMC3    C5 4832   1.152   3.987  13.587  0.0227  0.4349  0.3203
  318TMC3    C6 4833   1.106   3.861  13.626 -0.3167  0.0136  0.0369
  318TMC3     C 4834   0.881   4.147  13.409 -0.3965 -0.4648 -0.5188
  318TMC3     O 4835   0.866   4.253  13.465  0.1668 -0.0433 -0.4240
  318TMC3     H 4836   0.817   3.895  13.463  0.2202 -0.2558 -1.3114
  318TMC3    H1 4837   1.127   4.189  13.519  0.7354 -1.0571  0.7606
  318TMC3    H2 4838   1.166   3.785  13.673  2.3552  0.9811 -1.7826
  318TMC3    C7 4839   1.290   4.028  13.615  0.0393  1.5549  0.0884
  318TMC3    C8 4840   0.933   3.694  13.577 -0.8562  0.4760 -0.5546
  318TMC3    O1 4841   1.332   4.139  13.587  0.8040 -0.7648 -0.2206
  318TMC3    O2 4842   0.994   3.618  13.658  0.5456  0.5100  0.5712
  319MPD2     C 4843   1.334   0.494  17.084  0.4120 -0.1097  0.1229
  319MPD2    C1 4844   1.415   0.403  17.020  0.3271  0.0333 -0.0944
  319MPD2    C2 4845   1.361   0.329  16.920 -0.9775  0.0893 -0.3160
  319MPD2    C3 4846   1.226   0.324  16.895  0.3874  0.0194  1.1995
  319MPD2    C4 4847   1.145   0.417  16.962  0.5181 -0.4231 -0.0109
  319MPD2    C5 4848   1.201   0.505  17.053  0.2408  0.8845 -0.4699
  319MPD2     H 4849   1.411   0.240  16.883  1.1096  0.9588  0.4360
  319MPD2    H1 4850   1.037   0.415  16.950  0.4752 -1.8949  0.7007
  319MPD2    H2 4851   1.376   0.565  17.155  0.7032 -0.9904  0.8328
  319MPD2    H3 4852   1.152   0.593  17.091 -2.2251 -0.4110 -0.6392
  319MPD2     N 4853   1.160   0.231  16.812  0.6673 -0.0091 -0.2622
  319MPD2    H5 4854   1.058   0.228  16.812  0.7435 -2.5424  0.1627
  319MPD2    N1 4855   1.544   0.376  17.055 -0.3831  0.1291  0.3407
  319MPD2    H7 4856   1.586   0.297  17.005  0.0563 -0.0504  0.9983
  320TMC3    C1 4857   1.120   0.074  16.647  0.1310  0.2902  0.1865
  320TMC3    C2 4858   1.064   0.151  16.551 -0.0661 -0.4647  0.1133
  320TMC3    C3 4859   1.002   0.084  16.444  0.0417 -0.0511  0.1132
  320TMC3    C4 4860   1.135   4.677  16.626  0.0083 -0.9868  0.0071
  320TMC3    C5 4861   1.078   4.620  16.517  0.2868  0.8976 -0.0779
  320TMC3    C6 4862   1.010   4.692  16.423 -0.3312 -0.0274  1.1317
  320TMC3     C 4863   1.221   0.132  16.743 -0.1908  0.1730 -0.8704
  320TMC3     O 4864   1.341   0.102  16.728  0.1881 -0.2774  0.4772
  320TMC3     H 4865   1.071   0.259  16.554 -0.9861 -0.3815 -0.8305
  320TMC3    H1 4866   1.211   4.632  16.689 -0.3080 -2.3096 -0.5469
  320TMC3    H2 4867   0.947   4.646  16.347  1.9580  1.2092 -1.4885
  320TMC3    C7 4868   1.143   4.509  16.457 -0.6686 -0.1155  0.6177
  320TMC3    C8 4869   0.997   0.157  16.323 -0.0421 -0.7833 -0.3162
  320TMC3    O1 4870   1.142   4.501  16.336 -0.4458  0.5264  0.6735
  320TMC3    O2 4871   0.972   0.276  16.320  0.1179  0.0791 -0.5445
  321TMC3    C1 4872   1.751   0.410  17.154  0.3130  0.1358 -0.4807
  321TMC3    C2 4873   1.773   0.274  17.149 -0.0271  0.4608 -0.0729
  321TMC3    C3 4874   1.905   0.234  17.174  0.0789 -0.4845 -0.7984
  321TMC3    C4 4875   1.852   0.501  17.170 -0.3176  0.6826  0.5142
  321TMC3    C5 4876   1.979   0.459  17.192  0.1173  0.5220 -0.4685
  321TMC3    C6 4877   2.011   0.320  17.185 -0.4470  0.4553 -0.2106
  321TMC3     C 4878   1.621   0.459  17.126 -1.0048 -0.5149  0.3966
  321TMC3     O 4879   1.605   0.578  17.155  0.1658 -0.0646 -0.0929
  321TMC3     H 4880   1.695   0.202  17.130 -0.6380  1.3350 -0.8334
  321TMC3    H1 4881   1.838   0.608  17.160 -2.9657  0.0226 -2.7747
  321TMC3    H2 4882   2.110   0.278  17.176 -0.2233  1.5696 -2.8307
  321TMC3    C7 4883   2.079   0.562  17.229  0.7427  1.2650  0.0630
  321TMC3    C8 4884   1.931   0.103  17.224  0.0994 -0.3087 -0.0051
  321TMC3    O1 4885   2.037   0.673  17.242 -0.6896  0.3026 -0.1600
  321TMC3    O2 4886   1.899   0.007  17.152 -0.5129  0.5185  0.0755
  322MPD2     C 4887   0.560   1.838  13.682 -1.1632 -0.4554  0.5193
  322MPD2    C1 4888   0.623   1.799  13.803  0.6544  0.9403 -0.4059
  322MPD2    C2 4889   0.675   1.671  13.804 -0.0669 -0.0595  0.0855
  322MPD2    C3 4890   0.665   1.585  13.698  0.0534  0.4277  0.2672
  322MPD2    C4 4891   0.594   1.622  13.587  0.3558 -0.4198 -0.3248
  322MPD2    C5 4892   0.542   1.747  13.581  0.6974 -0.6038 -0.0190
  322MPD2     H 4893   0.745   1.635  13.879  0.6599  0.4414 -0.3497
  322MPD2    H1 4894   0.584   1.556  13.501 -0.5206 -1.1174  0.3128
  322MPD2    H2 4895   0.519   1.938  13.671  0.5791  0.2614  0.6151
  322MPD2    H3 4896   0.494   1.774  13.487  1.2677  1.8626  0.4020
  322MPD2     N 4897   0.733   1.466  13.716 -0.2018 -0.1767 -0.0133
  322MPD2    H5 4898   0.775   1.456  13.808 -1.3143 -0.0792  0.4933
  322MPD2    N1 4899   0.665   1.899  13.892  0.1876 -0.1318  0.2795
  322MPD2    H7 4900   0.646   1.996  13.869 -1.9154 -1.2294 -2.6328
  323TMC3    C1 4901   0.800   1.989  14.066  0.1431 -0.3622 -0.0968
  323TMC3    C2 4902   0.869   2.072  13.981  0.3610  0.3199  0.2489
  323TMC3    C3 4903   0.989   2.130  14.017 -0.4124  0.1010 -0.0511
  323TMC3    C4 4904   0.844   1.964  14.187 -0.0730  1.0104  0.4260
  323TMC3    C5 4905   0.966   2.021  14.223  0.6351  0.5056 -0.1162
  323TMC3    C6 4906   1.044   2.099  14.140 -0.4059 -0.0572 -0.6006
  323TMC3     C 4907   0.728   1.872  14.011 -0.3445 -0.0306  0.0940
  323TMC3     O 4908   0.740   1.764  14.065  0.4085 -0.8124  0.3795
  323TMC3     H 4909   0.848   2.071  13.875  0.9729 -0.0682  0.1306
  323TMC3    H1 4910   0.773   1.907  14.245 -0.8756  1.2317 -0.3357
  323TMC3    H2 4911   1.138   2.141  14.175 -0.7770 -0.2222  0.5787
  323TMC3    C7 4912   1.035   1.942  14.321 -0.8069  0.1842  0.3598
  323TMC3    C8 4913   1.077   2.201  13.930 -0.3270  0.0223  0.3158
  323TMC3    O1 4914   0.961   1.871  14.390 -0.9893 -0.1005 -0.4056
  323TMC3    O2 4915   1.194   2.222  13.960 -0.3715  0.4911 -0.0874
  324MPD2     C 4916   2.226   2.470  14.106 -0.4193  0.3035 -0.5982
  324MPD2    C1 4917   2.256   2.536  14.221 -0.3967  0.5209  0.1678
  324MPD2    C2 4918   2.155   2.585  14.305  0.0724 -0.1456 -1.1399
  324MPD2    C3 4919   2.023   2.550  14.281  0.1390 -1.0509  0.0871
  324MPD2    C4 4920   1.984   2.483  14.163  0.2210  0.7793 -1.0333
  324MPD2    C5 4921   2.093   2.441  14.085  0.4157  0.2758  0.2516
  324MPD2     H 4922   2.183   2.644  14.391  3.4757 -2.0288 -0.9409
  324MPD2    H1 4923   1.881   2.463  14.138 -0.1008  0.0315  0.9301
  324MPD2    H2 4924   2.304   2.428  14.045 -0.0432 -0.0387  0.1189
  324MPD2    H3 4925   2.072   2.391  13.992 -1.0851 -0.3496  0.9302
  324MPD2     N 4926   1.923   2.593  14.364  0.3410 -0.2407 -0.2492
  324MPD2    H5 4927   1.826   2.588  14.337 -0.1465  0.7267  1.3221
  324MPD2    N1 4928   2.392   2.565  14.251  0.0873 -0.0898 -0.6941
  324MPD2    H7 4929   2.416   2.630  14.325 -0.8735 -0.5049 -0.0204
  325TMC3    C1 4930   1.813   2.637  14.566 -0.5498  0.9238  0.3183
  325TMC3    C2 4931   1.702   2.667  14.491 -0.3324 -0.8170  0.2308
  325TMC3    C3 4932   1.581   2.679  14.560 -0.3591 -0.2721  0.3125
  325TMC3    C4 4933   1.815   2.651  14.702  0.4528  0.0500 -0.2479
  325TMC3    C5 4934   1.699   2.667  14.761 -0.3522  0.1049  0.0213
  325TMC3    C6 4935   1.574   2.684  14.697  1.0611  0.0129 -0.3751
  325TMC3     C 4936   1.940   2.613  14.498 -0.4222 -0.3314 -0.0310
  325TMC3     O 4937   2.039   2.596  14.565 -0.0730  0.0582  0.0052
  325TMC3     H 4938   1.701   2.665  14.382  0.1711 -0.4250  0.2203
  325TMC3    H1 4939   1.906   2.636  14.759  0.1320  1.7611  0.7296
  325TMC3    H2 4940   1.481   2.699  14.751  1.5017 -0.7946  0.6239
  325TMC3    C7 4941   1.699   2.684  14.905 -0.6619  0.1201  0.5297
  325TMC3    C8 4942   1.461   2.689  14.480 -0.7966 -0.9353 -0.0106
  325TMC3    O1 4943   1.780   2.618  14.971  0.0792 -0.3425  0.0137
  325TMC3    O2 4944   1.475   2.684  14.357 -0.6785  0.5410  0.3558
  326MPD2     C 4945   3.635   3.950  10.583 -0.2794  0.1672 -0.7881
  326MPD2    C1 4946   3.556   3.841  10.546 -0.5327  0.0931  0.1439
  326MPD2    C2 4947   3.617   3.716  10.524 -0.0990 -0.1127 -0.8717
  326MPD2    C3 4948   3.755   3.707  10.542 -0.6617  0.2040  0.1616
  326MPD2    C4 4949   3.826   3.815  10.581  0.1306 -0.3488  0.0946
  326MPD2    C5 4950   3.767   3.936  10.590  0.0553 -0.4011  0.4388
  326MPD2     H 4951   3.557   3.631  10.492 -0.1594 -0.0026 -1.0519
  326MPD2    H1 4952   3.931   3.807  10.607  0.3553 -1.9986 -1.3475
  326MPD2    H2 4953   3.600   4.051  10.603 -1.0274  0.3231 -2.9053
  326MPD2    H3 4954   3.821   4.023  10.624 -0.3686  0.0818 -0.1260
  326MPD2     N 4955   3.828   3.596  10.501  0.0405  0.0083  0.9004
  326MPD2    H5 4956   3.928   3.610  10.498 -0.2109  1.4383 -0.5354
  326MPD2    N1 4957   3.418   3.842  10.523  0.0057 -0.4998  0.0857
  326MPD2    H7 4958   3.367   3.755  10.513 -0.5300 -0.2705  0.7940
  327TMC3    C1 4959   3.204   3.928  10.562 -0.0124 -0.3632 -1.1036
  327TMC3    C2 4960   3.117   3.988  10.482  0.4241  0.1900  0.6927
  327TMC3    C3 4961   2.987   3.956  10.501 -0.1604  0.0919  0.2246
  327TMC3    C4 4962   3.171   3.842  10.658  0.3946 -0.3536  0.0515
  327TMC3    C5 4963   3.040   3.803  10.660 -0.9976  0.4868  0.2713
  327TMC3    C6 4964   2.941   3.865  10.589  0.1326 -0.0406  0.1643
  327TMC3     C 4965   3.342   3.951  10.537 -0.0791  0.0968 -0.2248
  327TMC3     O 4966   3.377   4.067  10.542  0.5192 -0.1234 -0.2411
  327TMC3     H 4967   3.149   4.060  10.407 -0.6697  0.1066  0.1520
  327TMC3    H1 4968   3.243   3.804  10.729  0.1020 -0.1439  0.4626
  327TMC3    H2 4969   2.839   3.837  10.609  0.4018 -1.3482 -0.2931
  327TMC3    C7 4970   3.004   3.663  10.694 -0.4607 -0.1561 -0.1988
  327TMC3    C8 4971   2.889   4.011  10.420 -0.1213  0.1396 -0.2996
  327TMC3    O1 4972   2.916   3.603  10.630  0.1068  0.5590  0.1974
  327TMC3    O2 4973   2.772   4.010  10.458  0.4716  0.0435 -0.1448
  328MPD2     C 4974   1.089   3.584  17.124  0.2351 -0.8568 -0.8171
  328MPD2    C1 4975   1.045   3.590  16.992 -0.2214  0.0492  0.2517
  328MPD2    C2 4976   0.963   3.691  16.949  0.1237  0.4735 -0.2385
  328MPD2    C3 4977   0.950   3.802  17.032 -0.2629  0.6131 -0.5378
  328MPD2    C4 4978   1.003   3.794  17.159  0.6194  0.2105 -0.6318
  328MPD2    C5 4979   1.065   3.687  17.209  0.8484  0.4547 -0.3895
  328MPD2     H 4980   0.928   3.695  16.846 -1.5946  1.0180  0.3591
  328MPD2    H1 4981   0.987   3.873  17.232  2.0861  0.5092 -0.6301
  328MPD2    H2 4982   1.154   3.499  17.140  0.4599 -0.6983 -0.8850
  328MPD2    H3 4983   1.087   3.681  17.315  0.9600  0.8426 -0.3905
  328MPD2     N 4984   0.869   3.910  17.004  0.0661 -0.0494 -0.1736
  328MPD2    H5 4985   0.870   3.991  17.066  0.2919 -0.0211 -0.2120
  328MPD2    N1 4986   1.079   3.483  16.908 -0.0122 -0.0690  0.8478
  328MPD2    H7 4987   1.112   3.400  16.957  1.1488 -1.3009 -1.9690
  329TMC3    C1 4988   1.069   3.341  16.733 -0.2431  0.1347 -0.2811
  329TMC3    C2 4989   1.022   3.240  16.809  0.6834  0.1219  0.4531
  329TMC3    C3 4990   1.045   3.118  16.757 -0.0010  0.5247 -0.0445
  329TMC3    C4 4991   1.133   3.321  16.616  0.6762  0.1300 -0.1778
  329TMC3    C5 4992   1.153   3.198  16.568 -0.2284 -0.1002 -0.2013
  329TMC3    C6 4993   1.114   3.090  16.643  0.4808  0.3650  0.0004
  329TMC3     C 4994   1.071   3.480  16.772  0.9738 -0.6737  0.2116
  329TMC3     O 4995   1.039   3.560  16.686 -1.0875 -0.9599  0.8604
  329TMC3     H 4996   0.967   3.252  16.901 -0.6534  0.1194 -0.3491
  329TMC3    H1 4997   1.176   3.411  16.572 -1.4056  1.2113 -0.0340
  329TMC3    H2 4998   1.125   2.988  16.610  0.3984  0.3148  0.1313
  329TMC3    C7 4999   1.282   3.178  16.506 -0.1766  0.7643 -0.2438
  329TMC3    C8 5000   0.953   3.023  16.800 -0.1114 -0.3409  0.4062
  329TMC3    O1 5001   1.333   3.070  16.526  0.0909 -0.4041  0.1536
  329TMC3    O2 5002   0.972   2.906  16.777 -0.3858  0.0189  0.2024
  330TMC3    C1 5003   2.953   3.515   9.483  0.1520  0.7169 -0.0155
  330TMC3    C2 5004   2.836   3.449   9.516 -1.0760 -0.6787 -0.4595
  330TMC3    C3 5005   2.859   3.361   9.617  0.1638  0.1031  0.3774
  330TMC3    C4 5006   3.080   3.499   9.534 -0.0513  0.0403  0.3287
  330TMC3    C5 5007   3.085   3.399   9.629  0.6854  0.4484  0.5961
  330TMC3    C6 5008   2.977   3.329   9.674  0.3221  0.3989  0.0919
  330TMC3     C 5009   2.959   3.577   9.348 -0.5827  0.0705  0.7001
  330TMC3     O 5010   3.066   3.633   9.318 -0.1225 -0.6882  0.2097
  330TMC3     H 5011   2.735   3.471   9.483 -0.9406 -1.9265 -1.6906
  330TMC3    H1 5012   3.169   3.549   9.500  1.3688 -1.6793  1.5427
  330TMC3    H2 5013   2.981   3.261   9.758  2.7326  1.0125  0.4798
  330TMC3    C7 5014   3.212   3.389   9.695  0.7799 -0.2644  0.0365
  330TMC3    C8 5015   2.750   3.272   9.645  0.0118  0.4257 -0.4785
  330TMC3    O1 5016   3.297   3.470   9.663 -0.1643 -0.3154  0.3496
  330TMC3    O2 5017   2.644   3.297   9.596 -0.2763  0.0169 -0.2801
  331MPD2     C 5018   2.322   2.723  12.010 -0.8122 -0.1514 -0.5781
  331MPD2    C1 5019   2.201   2.685  11.957 -0.1615 -0.1149 -0.7809
  331MPD2    C2 5020   2.167   2.553  11.967  0.9487 -0.2218 -0.2081
  331MPD2    C3 5021   2.250   2.464  12.029 -0.1014  0.2298  0.2512
  331MPD2    C4 5022   2.374   2.500  12.077 -0.3940 -0.2475  0.2462
  331MPD2    C5 5023   2.409   2.627  12.059  0.7117  0.4108 -0.3533
  331MPD2     H 5024   2.068   2.523  11.933 -0.6791  1.3924  3.0929
  331MPD2    H1 5025   2.447   2.441  12.131 -1.3059 -1.7624 -0.2015
  331MPD2    H2 5026   2.345   2.827  12.031  1.9186 -0.7488 -0.6266
  331MPD2    H3 5027   2.488   2.664  12.123  0.9215 -1.6464  0.5594
  331MPD2     N 5028   2.191   2.339  12.051 -0.3162 -0.6053 -0.3843
  331MPD2    H5 5029   2.094   2.332  12.023 -0.7896  1.0620  0.8413
  331MPD2    N1 5030   2.124   2.794  11.897 -0.2731 -0.1112  0.1866
  331MPD2    H7 5031   2.158   2.888  11.917 -2.6884  1.2654 -2.1167
  332TMC3    C1 5032   2.125   2.166  12.195  0.6508  0.2133  0.0120
  332TMC3    C2 5033   1.998   2.160  12.143  0.6346  0.4328  0.6827
  332TMC3    C3 5034   1.903   2.099  12.220  0.4016  0.2311 -0.2921
  332TMC3    C4 5035   2.157   2.096  12.309 -0.2748 -0.4613 -0.5584
  332TMC3    C5 5036   2.060   2.019  12.372 -0.1674  0.0692  0.4657
  332TMC3    C6 5037   1.929   2.029  12.336  0.4623 -0.0711 -0.1711
  332TMC3     C 5038   2.231   2.242  12.138 -0.0252  0.5353  0.1218
  332TMC3     O 5039   2.340   2.229  12.191 -0.0516  0.2206  0.1843
  332TMC3     H 5040   1.965   2.209  12.052 -1.2717 -0.4825  0.8720
  332TMC3    H1 5041   2.259   2.093  12.346  0.2820 -1.4180 -2.1836
  332TMC3    H2 5042   1.854   1.971  12.390  0.1812 -0.8567 -1.4164
  332TMC3    C7 5043   2.094   1.926  12.476 -0.7636 -0.4602  0.2529
  332TMC3    C8 5044   1.772   2.098  12.157  0.7939 -0.2645 -0.2951
  332TMC3    O1 5045   2.015   1.833  12.509 -0.4398 -0.4570 -0.3808
  332TMC3    O2 5046   1.761   2.105  12.035 -0.0661 -0.1608 -0.0896
  333MPD2     C 5047   1.797   2.210  11.226  0.7498 -0.4119 -0.4728
  333MPD2    C1 5048   1.911   2.152  11.285  0.2924  0.5668  1.0184
  333MPD2    C2 5049   1.886   2.036  11.365  0.3483  0.7151 -0.1135
  333MPD2    C3 5050   1.761   1.975  11.381 -0.5897  0.3812  0.1790
  333MPD2    C4 5051   1.655   2.027  11.307  0.3019  0.7113  0.6679
  333MPD2    C5 5052   1.674   2.144  11.243  0.5480  0.3101 -0.8336
  333MPD2     H 5053   1.964   1.982  11.419 -1.3316  0.1274  1.7314
  333MPD2    H1 5054   1.556   1.983  11.312 -0.2044  1.5888 -1.5610
  333MPD2    H2 5055   1.801   2.309  11.182  1.7048 -0.1284  0.2480
  333MPD2    H3 5056   1.585   2.191  11.203  1.6163  0.1663 -3.4072
  333MPD2     N 5057   1.757   1.858  11.461  0.1202  0.1812  0.0385
  333MPD2    H5 5058   1.846   1.826  11.498  0.2550  0.0015 -0.4427
  333MPD2    N1 5059   2.039   2.201  11.250  0.0669 -0.5208  0.3459
  333MPD2    H7 5060   2.045   2.290  11.200  0.4001  1.0872  3.2828
  334TMC3    C1 5061   2.270   2.214  11.238  0.3962 -0.3466  0.4314
  334TMC3    C2 5062   2.373   2.134  11.189  0.1022  0.6930  0.0909
  334TMC3    C3 5063   2.486   2.199  11.149  0.5384  0.6046  0.1739
  334TMC3    C4 5064   2.264   2.351  11.238  0.2122  0.3111 -0.2643
  334TMC3    C5 5065   2.383   2.408  11.202 -1.3223 -0.4532 -0.0975
  334TMC3    C6 5066   2.490   2.336  11.159 -0.0580  0.2568  0.5909
  334TMC3     C 5067   2.153   2.139  11.285 -0.1216 -0.4086 -0.3792
  334TMC3     O 5068   2.175   2.027  11.329  0.7604 -0.5881 -0.2697
  334TMC3     H 5069   2.353   2.030  11.168 -1.0920  0.5070  2.1823
  334TMC3    H1 5070   2.192   2.409  11.295  2.4242  0.3774  2.4973
  334TMC3    H2 5071   2.581   2.388  11.131 -1.2829  0.8970 -2.1935
  334TMC3    C7 5072   2.397   2.553  11.178  0.1395  0.0889 -0.3334
  334TMC3    C8 5073   2.583   2.128  11.071 -0.7192  0.6798  1.1516
  334TMC3    O1 5074   2.508   2.605  11.178  0.4125  0.5267  0.0618
  334TMC3    O2 5075   2.588   2.004  11.079 -0.8621  0.3823  0.2316
  335TMC3    C1 5076   1.514   3.922  17.374 -0.4218  0.5835 -0.3919
  335TMC3    C2 5077   1.470   3.836  17.278  0.2091  0.5669  0.1960
  335TMC3    C3 5078   1.559   3.803  17.179  0.1714  1.0075  0.0233
  335TMC3    C4 5079   1.646   3.946  17.382  0.4424  0.1169  0.3535
  335TMC3    C5 5080   1.734   3.911  17.283  0.7599  0.4097  0.0108
  335TMC3    C6 5081   1.697   3.834  17.183  0.3309 -0.5305  0.2557
  335TMC3     C 5082   1.421   4.005  17.452 -0.2219  0.0294 -0.1150
  335TMC3     O 5083   1.470   4.110  17.500  0.0836  0.4703  0.0707
  335TMC3     H 5084   1.362   3.825  17.269  0.1022 -0.3526  2.6278
  335TMC3    H1 5085   1.673   4.019  17.457  1.9426 -1.5504  1.4258
  335TMC3    H2 5086   1.771   3.789  17.119  1.2746 -1.3046  1.8942
  335TMC3    C7 5087   1.871   3.894  17.333 -0.2797  0.3211  0.6132
  335TMC3    C8 5088   1.510   3.732  17.058  0.1239  0.5229  0.2144
  335TMC3    O1 5089   1.962   3.877  17.249  0.0475  0.2587  0.4691
  335TMC3    O2 5090   1.549   3.763  16.946  0.2375  0.2087 -0.4549
  336MPD2     C 5091   1.581   1.617  16.311  0.6504  0.4360  0.2376
  336MPD2    C1 5092   1.585   1.577  16.182  0.2300 -0.1376  0.0503
  336MPD2    C2 5093   1.608   1.441  16.170  0.7034 -1.0620  0.0323
  336MPD2    C3 5094   1.609   1.352  16.280  0.7292  0.1417  0.6961
  336MPD2    C4 5095   1.592   1.396  16.408 -0.6749 -0.2380 -0.4584
  336MPD2    C5 5096   1.590   1.531  16.420  0.4291  0.1586 -0.3754
  336MPD2     H 5097   1.622   1.412  16.067  0.2505  1.1737 -0.6460
  336MPD2    H1 5098   1.595   1.330  16.494 -3.4472 -0.2664 -0.3822
  336MPD2    H2 5099   1.585   1.723  16.336 -1.7436  0.7252 -0.6304
  336MPD2    H3 5100   1.593   1.580  16.516  0.5307  0.6766 -0.6422
  336MPD2     N 5101   1.623   1.211  16.263  0.6859 -0.1749 -0.5646
  336MPD2    H5 5102   1.611   1.156  16.347 -2.6694  1.5711  0.0882
  336MPD2    N1 5103   1.584   1.657  16.064  0.5308  0.0753  0.3083
  336MPD2    H7 5104   1.605   1.608  15.977  0.9395 -0.4983  0.7234
  337TMC3    C1 5105   1.526   1.828  15.912 -0.6250 -0.5137  0.4213
  337TMC3    C2 5106   1.479   1.729  15.825 -0.4040 -0.1063 -0.1843
  337TMC3    C3 5107   1.409   1.770  15.722 -0.3018 -0.1642 -0.4844
  337TMC3    C4 5108   1.493   1.958  15.894  0.2135  0.2189 -0.0380
  337TMC3    C5 5109   1.420   1.997  15.787 -0.5315 -0.3887  0.0864
  337TMC3    C6 5110   1.378   1.906  15.694  0.3008 -0.0989  0.3666
  337TMC3     C 5111   1.556   1.789  16.051  0.0311  0.1143 -0.3721
  337TMC3     O 5112   1.559   1.870  16.142 -0.3295 -0.6727  0.0552
  337TMC3     H 5113   1.494   1.622  15.841  1.2842  0.2985  1.0371
  337TMC3    H1 5114   1.526   2.020  15.977  0.3430  1.1344 -0.7751
  337TMC3    H2 5115   1.324   1.939  15.607  0.8484 -0.7050 -0.2041
  337TMC3    C7 5116   1.350   2.122  15.779 -0.2041 -0.3469 -0.0009
  337TMC3    C8 5117   1.307   1.673  15.684 -0.1134  0.1300  0.2263
  337TMC3    O1 5118   1.245   2.132  15.716  0.2399 -0.3716  0.1688
  337TMC3    O2 5119   1.307   1.566  15.743 -0.3605 -0.3063 -0.3840
  338MPD2     C 5120   1.617   1.053   0.957 -0.3145  0.2818 -0.0699
  338MPD2    C1 5121   1.601   1.019   0.824  0.3529  0.0394 -0.0152
  338MPD2    C2 5122   1.471   1.023   0.769  0.2759  0.2929 -0.8307
  338MPD2    C3 5123   1.359   1.043   0.841  0.3436  0.6126  0.0147
  338MPD2    C4 5124   1.372   1.058   0.981  0.4746 -0.2378  0.8193
  338MPD2    C5 5125   1.503   1.067   1.032  0.8210  0.9455  0.1412
  338MPD2     H 5126   1.467   1.015   0.661  0.4288 -1.7573 -0.6786
  338MPD2    H1 5127   1.284   1.071   1.043  0.1682 -1.8208  0.7196
  338MPD2    H2 5128   1.709   1.083   1.004 -1.0966  0.1329  1.5515
  338MPD2    H3 5129   1.526   1.093   1.135 -0.6439  0.6028  0.5678
  338MPD2     N 5130   1.233   1.040   0.784 -0.4685  0.3018  0.1574
  338MPD2    H5 5131   1.223   1.055   0.684 -3.0375 -2.1491  0.0447
  338MPD2    N1 5132   1.707   0.994   0.737 -0.3314 -0.5829  0.2064
  338MPD2    H7 5133   1.682   0.976   0.640 -0.4883  1.9164 -0.2113
  339TMC3    C1 5134   1.008   1.030   0.755 -0.1297 -1.1665 -0.0004
  339TMC3    C2 5135   0.926   0.923   0.748  0.1204 -0.0892 -0.2624
  339TMC3    C3 5136   0.867   0.898   0.622  1.3219 -0.1570  0.0021
  339TMC3    C4 5137   1.031   1.111   0.646 -0.5166 -0.6898 -1.3229
  339TMC3    C5 5138   0.982   1.085   0.526 -0.1397  0.0542  0.0964
  339TMC3    C6 5139   0.903   0.970   0.514  0.3374  0.3100 -0.7009
  339TMC3     C 5140   1.115   1.021   0.854  0.1158  0.0721  0.0864
  339TMC3     O 5141   1.091   0.977   0.964  0.1451 -0.5225  0.0147
  339TMC3     H 5142   0.912   0.853   0.830 -2.4462  0.7813  0.0121
  339TMC3    H1 5143   1.087   1.202   0.663 -2.0276 -0.2425  1.2784
  339TMC3    H2 5144   0.844   0.955   0.424 -1.9091  0.1901  0.7828
  339TMC3    C7 5145   1.018   1.173   0.414 -0.3044  0.2698 -0.4852
  339TMC3    C8 5146   0.850   0.760   0.607  0.4776  0.3536  0.0054
  339TMC3    O1 5147   1.063   1.281   0.438 -0.0361  0.0086 -0.1287
  339TMC3    O2 5148   0.894   0.719   0.499 -0.3116 -0.2134 -0.2222
  340MPD2     C 5149   0.626   2.704   9.510 -0.0794 -0.4981 -0.3367
  340MPD2    C1 5150   0.705   2.814   9.545 -0.0892  0.3058  0.5276
  340MPD2    C2 5151   0.696   2.928   9.466 -0.1032 -0.2815  0.2357
  340MPD2    C3 5152   0.605   2.936   9.361  0.6783  0.8222 -0.2498
  340MPD2    C4 5153   0.530   2.827   9.323 -0.4264 -0.7258 -0.0591
  340MPD2    C5 5154   0.539   2.708   9.403 -0.4629 -0.3384  0.3910
  340MPD2     H 5155   0.759   3.015   9.483 -1.0866  0.9807 -2.6221
  340MPD2    H1 5156   0.470   2.818   9.233 -0.2291 -2.9079  0.0247
  340MPD2    H2 5157   0.642   2.605   9.552 -1.2623 -1.1170 -1.3481
  340MPD2    H3 5158   0.481   2.618   9.381 -2.7703  1.4565 -0.9511
  340MPD2     N 5159   0.610   3.041   9.264  0.2985 -0.4945 -0.2208
  340MPD2    H5 5160   0.586   3.021   9.168 -0.9135  3.1084 -0.6818
  340MPD2    N1 5161   0.810   2.795   9.643  0.0118 -0.8160 -0.6588
  340MPD2    H7 5162   0.811   2.706   9.692  2.3415 -0.1378  0.5186
  341TMC3    C1 5163   1.004   2.852   9.776  0.1818 -0.2677 -0.1023
  341TMC3    C2 5164   1.060   2.724   9.771  0.2849 -0.2378  0.1450
  341TMC3    C3 5165   1.199   2.713   9.791  0.6401 -0.5342 -0.4015
  341TMC3    C4 5166   1.082   2.960   9.807 -0.0197  0.7558 -0.1853
  341TMC3    C5 5167   1.215   2.938   9.839  0.0936  0.3056  0.1466
  341TMC3    C6 5168   1.275   2.816   9.830 -0.3217  0.9123 -0.9276
  341TMC3     C 5169   0.902   2.891   9.680 -0.7489 -0.5045  0.2475
  341TMC3     O 5170   0.917   3.004   9.635 -0.2720 -0.8029  0.3901
  341TMC3     H 5171   1.006   2.636   9.736 -0.5433 -0.4943  2.0776
  341TMC3    H1 5172   1.021   3.045   9.836 -2.0149 -0.8401  0.3532
  341TMC3    H2 5173   1.382   2.812   9.849 -0.5005 -1.5786 -0.4465
  341TMC3    C7 5174   1.305   3.046   9.799  0.8046 -0.6247 -0.0056
  341TMC3    C8 5175   1.243   2.574   9.809  0.1184 -0.3415 -0.9751
  341TMC3    O1 5176   1.424   3.031   9.832  0.3915  0.7710 -1.1081
  341TMC3    O2 5177   1.163   2.494   9.846 -0.3529 -0.0754  0.1663
  342MPD2     C 5178   0.146   2.183   0.093  0.7420 -0.3414 -0.3884
  342MPD2    C1 5179   0.212   2.199  17.727 -0.2320  0.1239  0.4477
  342MPD2    C2 5180   0.279   2.320  17.695  0.5353  0.0899 -0.6768
  342MPD2    C3 5181   0.270   2.426   0.032 -0.5526  0.2343  0.3372
  342MPD2    C4 5182   0.190   2.408   0.143  0.7046  0.4445  0.0123
  342MPD2    C5 5183   0.137   2.286   0.175 -0.5516 -0.2928 -0.5133
  342MPD2     H 5184   0.333   2.334  17.602 -2.5780 -2.6616 -2.8987
  342MPD2    H1 5185   0.171   2.493   0.209 -0.4427 -0.9848  1.5057
  342MPD2    H2 5186   0.098   2.091   0.125 -0.2779  0.4900  0.4614
  342MPD2    H3 5187   0.079   2.287   0.267 -0.1395 -0.4283 -0.2482
  342MPD2     N 5188   0.325   2.557   0.011 -0.5271 -0.2463  0.0093
  342MPD2    H5 5189   0.301   2.631   0.076 -2.1805  0.9344 -1.9310
  342MPD2    N1 5190   0.213   2.096  17.629 -0.4352 -0.7203  0.6016
  342MPD2    H7 5191   0.276   2.120  17.552  0.5659 -1.7721  1.0866
  343TMC3    C1 5192   0.169   1.883  17.528  0.7231  0.9077  0.2339
  343TMC3    C2 5193   0.224   1.914  17.407  0.0743 -0.3349 -0.5988
  343TMC3    C3 5194   0.220   1.818  17.307  0.5651  0.2781 -0.8729
  343TMC3    C4 5195   0.098   1.767  17.547 -0.3397 -0.0307  0.1186
  343TMC3    C5 5196   0.083   1.679  17.443 -0.2325  0.0547  0.4511
  343TMC3    C6 5197   0.150   1.697  17.326 -0.0173 -0.3766  0.6689
  343TMC3     C 5198   0.162   1.967  17.650  0.1629  0.2027 -0.5356
  343TMC3     O 5199   0.091   1.919  17.740  0.2333 -0.1099 -0.0123
  343TMC3     H 5200   0.290   2.000  17.405  1.6543 -1.5387  0.2323
  343TMC3    H1 5201   0.041   1.742  17.635  2.8094 -2.6874  1.3981
  343TMC3    H2 5202   0.151   1.615  17.256  0.4208  0.3593 -0.1798
  343TMC3    C7 5203   4.735   1.564  17.451 -0.1061  0.9665  0.3644
  343TMC3    C8 5204   0.316   1.834  17.191  0.2468 -0.4495  0.1413
  343TMC3    O1 5205   4.702   1.510  17.342 -0.4793  0.6178 -0.2483
  343TMC3    O2 5206   0.370   1.943  17.192  0.9437  1.0887 -0.2710
  344MPD2     C 5207   0.825   0.894  10.539 -0.3397 -0.6920 -0.4168
  344MPD2    C1 5208   0.701   0.928  10.490  0.0054 -1.4042 -0.0498
  344MPD2    C2 5209   0.687   1.045  10.415  0.4621 -0.1467 -0.1991
  344MPD2    C3 5210   0.793   1.126  10.388  0.1897 -0.0799  0.5216
  344MPD2    C4 5211   0.915   1.091  10.444  0.1869  0.6866  0.8525
  344MPD2    C5 5212   0.930   0.973  10.509 -1.0056  0.8076  0.1627
  344MPD2     H 5213   0.589   1.060  10.372 -1.7807 -0.0257  5.0690
  344MPD2    H1 5214   1.003   1.154  10.434  1.5172 -1.2043  0.4938
  344MPD2    H2 5215   0.842   0.803  10.596 -0.9460 -0.6582 -0.1821
  344MPD2    H3 5216   1.023   0.952  10.560 -0.9293  0.3898 -0.1467
  344MPD2     N 5217   0.789   1.239  10.305  0.1412 -0.6042  0.2674
  344MPD2    H5 5218   0.876   1.289  10.321  0.0461 -0.5051  0.4628
  344MPD2    N1 5219   0.593   0.842  10.529  0.6305  0.3780 -0.6037
  344MPD2    H7 5220   0.617   0.780  10.606 -2.5019  0.1682  0.2163
  345TMC3    C1 5221   0.710   1.396  10.145  0.7749 -0.3569 -0.5799
  345TMC3    C2 5222   0.840   1.446  10.140  0.2223  0.0892  0.5088
  345TMC3    C3 5223   0.862   1.565  10.078  0.0657 -0.1568  0.3726
  345TMC3    C4 5224   0.604   1.475  10.106  0.1056 -0.3483 -0.3049
  345TMC3    C5 5225   0.629   1.603  10.054 -0.0672  0.1912 -0.2818
  345TMC3    C6 5226   0.758   1.643  10.035 -0.2596 -0.5437 -0.3422
  345TMC3     C 5227   0.683   1.277  10.225  0.6616  0.4819 -0.5183
  345TMC3     O 5228   0.586   1.209  10.190 -0.0367 -0.1848  0.0629
  345TMC3     H 5229   0.920   1.382  10.177 -0.3188 -1.9439 -1.8245
  345TMC3    H1 5230   0.505   1.432  10.114 -0.5972  1.6907  1.9329
  345TMC3    H2 5231   0.776   1.742   9.995 -0.6530 -1.8187 -3.7642
  345TMC3    C7 5232   0.533   1.705  10.063  0.1921  0.6464 -0.5314
  345TMC3    C8 5233   0.986   1.642  10.082  1.0398  0.2091  0.1137
  345TMC3    O1 5234   0.575   1.821  10.057  0.2321  0.1746  0.2000
  345TMC3    O2 5235   0.992   1.739  10.012 -0.3970  0.5436  0.4695
  346MPD2     C 5236   0.748   3.542  14.560  0.9248 -0.6582 -0.3803
  346MPD2    C1 5237   0.855   3.482  14.500 -0.0627  0.2186  0.6944
  346MPD2    C2 5238   0.974   3.465  14.571 -0.2970  0.1222  0.2513
  346MPD2    C3 5239   0.985   3.514  14.701 -0.3014  0.0493 -0.7809
  346MPD2    C4 5240   0.876   3.580  14.752  0.0429  0.2432 -0.4760
  346MPD2    C5 5241   0.758   3.588  14.688  0.3035  0.4200  0.6736
  346MPD2     H 5242   1.053   3.413  14.517 -1.5200  0.9689 -2.3545
  346MPD2    H1 5243   0.878   3.614  14.854 -0.4334 -2.0675  0.2995
  346MPD2    H2 5244   0.653   3.543  14.506  0.3479  0.0405  0.6609
  346MPD2    H3 5245   0.673   3.632  14.738 -0.8220  0.9408 -1.6618
  346MPD2     N 5246   1.108   3.507  14.765  0.5468  1.1901 -0.2422
  346MPD2    H5 5247   1.186   3.456  14.724 -0.5889 -0.0965 -0.7828
  346MPD2    N1 5248   0.852   3.448  14.366 -0.0621  0.2569  0.1040
  346MPD2    H7 5249   0.929   3.402  14.318  0.1179 -0.5099  1.1129
  347TMC3    C1 5250   1.259   3.520  14.951  0.1475  0.2510 -0.8863
  347TMC3    C2 5251   1.271   3.386  14.961 -0.4956 -0.8330 -0.3626
  347TMC3    C3 5252   1.349   3.339  15.058 -0.5556 -0.0508 -0.5471
  347TMC3    C4 5253   1.314   3.614  15.040 -0.5801  0.6535 -0.5929
  347TMC3    C5 5254   1.388   3.563  15.136 -0.3331 -0.2004 -0.1572
  347TMC3    C6 5255   1.409   3.427  15.145 -0.4975  0.0635  0.0569
  347TMC3     C 5256   1.138   3.570  14.888 -0.3918  0.4647 -0.0545
  347TMC3     O 5257   1.065   3.633  14.962  0.2935  0.4909 -0.5814
  347TMC3     H 5258   1.217   3.325  14.889 -0.1911 -1.1867 -0.2864
  347TMC3    H1 5259   1.291   3.720  15.042  0.6976  0.9411 -1.2551
  347TMC3    H2 5260   1.485   3.397  15.216 -0.6204 -1.8320 -0.6195
  347TMC3    C7 5261   1.465   3.652  15.227  0.3003  0.3249  0.0195
  347TMC3    C8 5262   1.372   3.199  15.060  0.7298  0.2272 -0.9538
  347TMC3    O1 5263   1.483   3.610  15.342  0.1483  0.0893 -0.1472
  347TMC3    O2 5264   1.318   3.137  14.969  0.0876 -0.2109 -0.0364
  348MPD2     C 5265   4.172   2.723  12.263  0.2335  0.7398 -0.2557
  348MPD2    C1 5266   4.090   2.665  12.164 -0.1467 -0.0357  0.0121
  348MPD2    C2 5267   4.059   2.743  12.049  0.1688  0.1841 -0.3183
  348MPD2    C3 5268   4.118   2.870  12.046 -0.2020 -0.9647  0.0178
  348MPD2    C4 5269   4.192   2.923  12.150  0.1263  0.5089 -0.3978
  348MPD2    C5 5270   4.218   2.855  12.261  0.2508 -0.8295  0.6363
  348MPD2     H 5271   3.999   2.707  11.966 -3.0940  1.2103  1.5906
  348MPD2    H1 5272   4.222   3.027  12.154 -2.2611  1.2259 -1.4409
  348MPD2    H2 5273   4.194   2.674  12.357  0.6224 -0.6477 -1.0679
  348MPD2    H3 5274   4.270   2.901  12.345  0.1694 -0.7572  0.6481
  348MPD2     N 5275   4.108   2.936  11.920 -0.7134 -0.3711  0.1106
  348MPD2    H5 5276   4.069   2.878  11.847 -2.2308  1.3087 -0.4076
  348MPD2    N1 5277   4.050   2.537  12.167 -0.3809 -0.0011  0.3805
  348MPD2    H7 5278   3.994   2.500  12.091  0.2541  2.2895 -1.1706
  349TMC3    C1 5279   4.038   2.316  12.230 -0.0408 -0.2173 -0.6235
  349TMC3    C2 5280   4.123   2.211  12.246  0.2089 -0.5898 -0.1086
  349TMC3    C3 5281   4.073   2.082  12.234  0.7320 -0.0316  0.6079
  349TMC3    C4 5282   3.902   2.295  12.210  0.2728  0.2322 -0.5408
  349TMC3    C5 5283   3.855   2.165  12.196 -0.2942  0.0632  0.1222
  349TMC3    C6 5284   3.937   2.056  12.209  0.8410  0.1607  0.4222
  349TMC3     C 5285   4.096   2.444  12.258 -0.7057 -0.1228 -0.2668
  349TMC3     O 5286   4.200   2.448  12.329  0.2174  1.1055 -0.4635
  349TMC3     H 5287   4.213   2.230  12.304 -0.6547 -0.0261  1.0380
  349TMC3    H1 5288   3.841   2.382  12.193  0.4152  0.3615 -0.3900
  349TMC3    H2 5289   3.897   1.956  12.198 -1.2623  1.1799 -1.3826
  349TMC3    C7 5290   3.725   2.142  12.146  0.6171 -0.3930  0.3254
  349TMC3    C8 5291   4.165   1.981  12.285  0.3609  0.5768  0.0984
  349TMC3    O1 5292   3.695   2.043  12.081  0.4838  0.1215  0.1100
  349TMC3    O2 5293   4.284   2.011  12.278 -0.0514  0.3506  0.5624
  350MPD2     C 5294   2.753   0.972  10.306  0.3889  0.5516 -0.9111
  350MPD2    C1 5295   2.812   0.851  10.255 -0.3421 -0.4697  0.0486
  350MPD2    C2 5296   2.947   0.848  10.256 -0.3161 -0.1170  0.3102
  350MPD2    C3 5297   3.030   0.951  10.307  0.0349 -0.2109 -0.1416
  350MPD2    C4 5298   2.972   1.064  10.366  0.4085 -0.0253 -0.0051
  350MPD2    C5 5299   2.832   1.065  10.369  0.1577  0.9671 -0.0834
  350MPD2     H 5300   2.998   0.760  10.218  0.3280 -0.2433  1.4559
  350MPD2    H1 5301   3.025   1.137  10.426  1.1215 -1.7530  1.5046
  350MPD2    H2 5302   2.651   1.002  10.330  0.4802  1.1006 -1.2130
  350MPD2    H3 5303   2.777   1.147  10.414 -2.9921 -2.0566  1.5224
  350MPD2     N 5304   3.174   0.939  10.288 -0.1064  0.0180  0.2904
  350MPD2    H5 5305   3.214   0.858  10.240 -0.1427  0.5093 -0.5616
  350MPD2    N1 5306   2.736   0.752  10.183  0.0506  0.1723  0.0191
  350MPD2    H7 5307   2.781   0.682  10.125  1.4904  1.1871 -0.0816
  351TMC3    C1 5308   2.548   0.663  10.077  0.7503  1.1378 -0.0506
  351TMC3    C2 5309   2.586   0.537  10.115  0.0394 -0.6536  0.1489
  351TMC3    C3 5310   2.506   0.444  10.055 -0.1044 -0.2493 -0.3657
  351TMC3    C4 5311   2.445   0.698   9.997 -0.0808 -0.3789  0.3058
  351TMC3    C5 5312   2.364   0.606   9.949  0.3209  0.3855 -0.2429
  351TMC3    C6 5313   2.398   0.474   9.975  0.6724 -0.4359 -0.2743
  351TMC3     C 5314   2.603   0.771  10.152  0.5047  0.2447 -0.3632
  351TMC3     O 5315   2.526   0.856  10.187  0.4948  0.7213  0.6033
  351TMC3     H 5316   2.690   0.513  10.136 -0.0301 -3.2423 -2.4228
  351TMC3    H1 5317   2.440   0.802   9.966  0.7405  0.1650  1.9895
  351TMC3    H2 5318   2.348   0.394   9.921 -0.5119  1.4762 -1.9707
  351TMC3    C7 5319   2.291   0.645   9.831  0.9351 -0.4449 -0.2609
  351TMC3    C8 5320   2.536   0.299  10.061 -0.5239 -0.4449 -0.3711
  351TMC3    O1 5321   2.275   0.764   9.803  0.9180 -0.5134 -0.1656
  351TMC3    O2 5322   2.487   0.232   9.970 -0.2254  0.0071  0.1157
  352MPD2     C 5323   1.753   3.049   1.287 -0.0683  1.0766  0.5968
  352MPD2    C1 5324   1.654   3.001   1.207  0.3642  0.2541 -0.3605
  352MPD2    C2 5325   1.653   2.868   1.176 -0.6341 -0.3940  0.4370
  352MPD2    C3 5326   1.763   2.791   1.223 -0.7510  0.1122 -0.0394
  352MPD2    C4 5327   1.869   2.849   1.278  0.5781  0.2687  0.1650
  352MPD2    C5 5328   1.862   2.981   1.322  0.1655 -0.1883 -0.5340
  352MPD2     H 5329   1.569   2.815   1.133 -1.0281 -0.4639  1.2984
  352MPD2    H1 5330   1.957   2.788   1.290 -0.2354 -1.1068 -0.8708
  352MPD2    H2 5331   1.747   3.151   1.322 -0.4006  1.2258  0.0927
  352MPD2    H3 5332   1.949   3.025   1.370  0.5850  0.2717 -1.7106
  352MPD2     N 5333   1.781   2.655   1.178  0.7031 -0.0163  0.1162
  352MPD2    H5 5334   1.871   2.609   1.191  0.0170 -0.8993  1.6852
  352MPD2    N1 5335   1.550   3.085   1.166  0.5080 -0.1289  0.1046
  352MPD2    H7 5336   1.547   3.178   1.207  1.1401  0.4286 -1.1219
  353TMC3    C1 5337   1.738   2.449   1.070  0.2904 -0.3724  0.4147
  353TMC3    C2 5338   1.861   2.439   1.019 -0.2922 -0.0767 -0.2118
  353TMC3    C3 5339   1.894   2.324   0.956 -0.7872  0.0922  0.0333
  353TMC3    C4 5340   1.653   2.350   1.036  0.3813  0.4135  0.3875
  353TMC3    C5 5341   1.679   2.256   0.946 -0.0152 -0.1930 -0.1611
  353TMC3    C6 5342   1.807   2.231   0.906 -0.0950  0.5902 -0.3099
  353TMC3     C 5343   1.681   2.577   1.115  0.3300  0.5793 -0.3892
  353TMC3     O 5344   1.566   2.600   1.081 -0.3681  0.0804  0.1075
  353TMC3     H 5345   1.935   2.519   1.015 -1.7676  1.2786 -0.5412
  353TMC3    H1 5346   1.550   2.366   1.066 -0.2438 -2.5772 -0.1088
  353TMC3    H2 5347   1.836   2.150   0.840 -1.4620 -0.4427  0.3685
  353TMC3    C7 5348   1.581   2.148   0.920 -0.0184  0.3343 -0.4024
  353TMC3    C8 5349   2.040   2.300   0.943  0.4565 -0.5027  0.8026
  353TMC3    O1 5350   1.636   2.050   0.872 -0.4955  0.1668  0.0589
  353TMC3    O2 5351   2.115   2.398   0.944  0.0239  0.2219 -0.5579
  354TMC3    C1 5352   3.704   3.731  13.728  0.5411  0.6629  0.9210
  354TMC3    C2 5353   3.648   3.830  13.648  0.2177  0.1291 -0.1995
  354TMC3    C3 5354   3.657   3.836  13.510  0.3699 -0.3749  0.3386
  354TMC3    C4 5355   3.756   3.623  13.670  0.0581 -0.2147  0.4861
  354TMC3    C5 5356   3.770   3.633  13.532 -0.1028  0.2840 -0.2030
  354TMC3    C6 5357   3.734   3.737  13.446 -0.5709  0.4290 -0.2273
  354TMC3     C 5358   3.673   3.731  13.866  0.1121 -0.6861 -0.2356
  354TMC3     O 5359   3.562   3.776  13.894 -0.2808  0.1823  0.0637
  354TMC3     H 5360   3.595   3.911  13.697  1.0335  0.0765  0.7581
  354TMC3    H1 5361   3.809   3.547  13.727 -0.0192  0.8167  1.9343
  354TMC3    H2 5362   3.736   3.731  13.338 -1.0079 -1.0212 -0.1461
  354TMC3    C7 5363   3.837   3.517  13.482 -0.1331  0.5373  0.2633
  354TMC3    C8 5364   3.682   3.969  13.460 -0.7123  0.0400  0.1266
  354TMC3    O1 5365   3.825   3.419  13.550 -0.4054  0.1260  0.3651
  354TMC3    O2 5366   3.699   4.052  13.549 -0.0417  0.2392  0.0099
  355MPD2     C 5367   3.750   4.527  11.016  0.3282 -0.4888 -1.1941
  355MPD2    C1 5368   3.871   4.462  11.000  0.6512  0.2376 -0.9722
  355MPD2    C2 5369   3.949   4.421  11.111 -0.0627  0.1879  0.9493
  355MPD2    C3 5370   3.905   4.449  11.242 -0.1689 -0.2328  0.1110
  355MPD2    C4 5371   3.780   4.500  11.260 -0.0986  0.3062 -0.4579
  355MPD2    C5 5372   3.702   4.524  11.143 -0.7926 -0.8422 -0.2787
  355MPD2     H 5373   4.051   4.387  11.098 -0.3562 -0.8123  1.2397
  355MPD2    H1 5374   3.740   4.507  11.360 -0.5040 -1.1330 -0.5162
  355MPD2    H2 5375   3.688   4.537  10.928 -1.4113  2.0021  0.2976
  355MPD2    H3 5376   3.602   4.562  11.162 -0.7159 -0.3559 -0.8192
  355MPD2     N 5377   3.988   4.417  11.364  0.7570 -0.2002 -0.4169
  355MPD2    H5 5378   3.959   4.448  11.456  0.8951 -0.7960 -0.1702
  355MPD2    N1 5379   3.929   4.442  10.872 -0.1397 -0.2443  0.3074
  355MPD2    H7 5380   3.903   4.514  10.805 -1.1078 -1.2885 -0.4221
  356TMC3    C1 5381   4.204   4.392  11.473 -0.3322  0.1655 -0.2394
  356TMC3    C2 5382   4.325   4.427  11.425 -0.1043  1.1371  0.0618
  356TMC3    C3 5383   4.404   4.515  11.493 -0.3238 -0.1943 -0.3820
  356TMC3    C4 5384   4.164   4.430  11.600 -0.3431  0.1061  0.2621
  356TMC3    C5 5385   4.248   4.512  11.670 -0.3791  0.9907  0.5221
  356TMC3    C6 5386   4.364   4.554  11.618 -0.2991  0.1712  0.1202
  356TMC3     C 5387   4.114   4.363  11.365  0.1373  0.0928  0.9792
  356TMC3     O 5388   4.158   4.293  11.274 -0.0984  0.3075 -0.1252
  356TMC3     H 5389   4.329   4.403  11.319  1.7792 -2.2588  0.8873
  356TMC3    H1 5390   4.071   4.393  11.641 -0.8707 -0.4298 -1.4008
  356TMC3    H2 5391   4.433   4.613  11.678  0.3724  0.0883 -0.5618
  356TMC3    C7 5392   4.208   4.548  11.809  0.4349  0.2088 -0.3184
  356TMC3    C8 5393   4.504   4.587  11.414  0.1786 -0.1452  0.6881
  356TMC3    O1 5394   4.151   4.461  11.872 -0.0900  0.3727 -0.0835
  356TMC3    O2 5395   4.532   4.536  11.305  0.3822 -0.5660  0.7957
  357MPD2     C 5396   3.405   0.004   0.793  0.0976 -0.5023 -0.1713
  357MPD2    C1 5397   3.402   4.706   0.928 -0.2779  0.1844  0.5030
  357MPD2    C2 5398   3.410   0.068   1.026  0.2027  0.2503  0.2156
  357MPD2    C3 5399   3.418   0.205   0.987 -0.5135  0.1654  0.9642
  357MPD2    C4 5400   3.431   0.233   0.848 -0.1572  0.3580  0.4594
  357MPD2    C5 5401   3.420   0.133   0.755  0.3354  0.9360  0.3171
  357MPD2     H 5402   3.415   0.035   1.129 -3.3818  0.8094  0.5703
  357MPD2    H1 5403   3.456   0.333   0.813  1.1430 -1.3428 -3.4440
  357MPD2    H2 5404   3.393   4.661   0.722 -0.4939 -1.7920  1.4089
  357MPD2    H3 5405   3.421   0.158   0.649  1.2792  3.3213  0.8772
  357MPD2     N 5406   3.401   0.316   1.079  0.0534  0.1061 -0.6387
  357MPD2    H5 5407   3.423   0.403   1.032 -0.4685  0.5582 -0.0286
  357MPD2    N1 5408   3.389   4.569   0.958  0.4546  0.8104 -0.6216
  357MPD2    H7 5409   3.391   4.503   0.880 -1.1782 -0.8503  0.7404
  358TMC3    C1 5410   3.348   4.368   1.065  0.4343  0.2503  0.4928
  358TMC3    C2 5411   3.250   4.329   0.972  0.3282  0.9943 -0.0942
  358TMC3    C3 5412   3.240   4.192   0.946  0.2180 -0.3766  0.5384
  358TMC3    C4 5413   3.427   4.285   1.137  0.8948  0.3845  0.1222
  358TMC3    C5 5414   3.403   4.155   1.106  0.2186  0.8818  0.5135
  358TMC3    C6 5415   3.306   4.101   1.026  0.5307  0.1382  0.0379
  358TMC3     C 5416   3.375   4.512   1.080 -0.0455 -0.3786  0.6691
  358TMC3     O 5417   3.384   4.556   1.193  0.2626  0.2912  0.2173
  358TMC3     H 5418   3.199   4.402   0.910 -0.8054 -0.1985 -0.5823
  358TMC3    H1 5419   3.505   4.315   1.206  0.5890  0.5731  0.3877
  358TMC3    H2 5420   3.329   4.004   0.984  1.0571 -0.1820  1.0535
  358TMC3    C7 5421   3.517   4.061   1.123  0.2447  0.2469 -0.8075
  358TMC3    C8 5422   3.187   4.160   0.813 -0.3262  0.5008 -0.3092
  358TMC3    O1 5423   3.484   3.942   1.139  0.4079  0.2363  0.5624
  358TMC3    O2 5424   3.149   4.256   0.744  0.5666  0.0747  0.2438
  359MPD2     C 5425   3.798   3.774  12.717  0.3546  0.0741 -0.0171
  359MPD2    C1 5426   3.769   3.696  12.602  0.2224 -0.1264 -0.2062
  359MPD2    C2 5427   3.645   3.640  12.594 -0.9755  0.1370  0.0020
  359MPD2    C3 5428   3.554   3.642  12.702  0.5651  0.1823  0.3170
  359MPD2    C4 5429   3.580   3.719  12.817  0.2540  0.9697  0.2389
  359MPD2    C5 5430   3.707   3.778  12.821  0.3764  0.6388 -0.2000
  359MPD2     H 5431   3.612   3.597  12.500 -0.1526  1.7918 -1.0356
  359MPD2    H1 5432   3.506   3.728  12.896 -0.7218 -1.4312 -0.3857
  359MPD2    H2 5433   3.888   3.832  12.732 -0.2567  1.2699 -0.9501
  359MPD2    H3 5434   3.733   3.840  12.906 -1.1432  2.1230 -0.8127
  359MPD2     N 5435   3.433   3.566  12.704 -0.4286  0.0255  0.5764
  359MPD2    H5 5436   3.388   3.568  12.795  1.0854 -0.6017  1.3366
  359MPD2    N1 5437   3.842   3.683  12.483  0.0660  0.3513 -0.2143
  359MPD2    H7 5438   3.802   3.619  12.416  0.6046 -2.0892  1.7980
  360TMC3    C1 5439   3.995   3.723  12.319 -0.3846  0.0780 -0.6887
  360TMC3    C2 5440   4.123   3.759  12.283 -0.1846  0.1537  0.2314
  360TMC3    C3 5441   4.180   3.722  12.163 -0.6522 -0.7443  0.1288
  360TMC3    C4 5442   3.909   3.681  12.221  0.2596  0.5803 -0.3743
  360TMC3    C5 5443   3.959   3.661  12.092  0.4647  0.3023  0.5245
  360TMC3    C6 5444   4.094   3.670  12.066  0.2412  0.8662  0.5608
  360TMC3     C 5445   3.962   3.745  12.458 -0.1779  0.4474 -0.2458
  360TMC3     O 5446   4.032   3.810  12.536 -0.7848 -0.2698  0.5803
  360TMC3     H 5447   4.185   3.790  12.366  0.5154 -0.0832 -0.1993
  360TMC3    H1 5448   3.805   3.659  12.244  0.5403 -0.6442 -0.3143
  360TMC3    H2 5449   4.133   3.649  11.967  0.3017 -0.8009  0.9329
  360TMC3    C7 5450   3.856   3.614  11.999 -0.7477 -0.7672 -0.2520
  360TMC3    C8 5451   4.313   3.775  12.127  1.0596 -0.7437 -0.1550
  360TMC3    O1 5452   3.902   3.590  11.890  0.6202 -1.0203 -0.1811
  360TMC3    O2 5453   4.324   3.897  12.135  0.4229 -0.3830  0.2869
  361MPD2     C 5454   1.149   2.499  16.389  0.8869  0.5852  0.0333
  361MPD2    C1 5455   1.091   2.502  16.512 -0.9108 -0.1328 -0.4573
  361MPD2    C2 5456   1.156   2.440  16.615  0.3420  0.7496 -0.9109
  361MPD2    C3 5457   1.254   2.344  16.593  0.4792 -0.5536 -0.3702
  361MPD2    C4 5458   1.314   2.336  16.470 -0.0550  0.1061  0.0734
  361MPD2    C5 5459   1.262   2.415  16.368 -0.1619  0.4738 -0.4570
  361MPD2     H 5460   1.113   2.448  16.714  0.1598  1.2742 -1.0315
  361MPD2    H1 5461   1.408   2.282  16.464 -0.7607 -1.2405  0.8765
  361MPD2    H2 5462   1.122   2.563  16.306  1.3717  1.2197  0.3658
  361MPD2    H3 5463   1.297   2.413  16.266 -2.7437 -0.0689 -1.3234
  361MPD2     N 5464   1.303   2.268  16.698 -0.0553 -0.0029 -0.4564
  361MPD2    H5 5465   1.385   2.217  16.667 -0.0766 -0.3198  0.0109
  361MPD2    N1 5466   0.996   2.598  16.531 -0.0997 -0.2948  0.0836
  361MPD2    H7 5467   0.988   2.629  16.627  2.5916  0.0949  0.1939
  362TMC3    C1 5468   0.832   2.766  16.496 -0.7955  0.1794  0.6885
  362TMC3    C2 5469   0.762   2.716  16.601  0.0483  0.1264  0.7864
  362TMC3    C3 5470   0.647   2.786  16.630 -0.5759 -0.5443 -0.2264
  362TMC3    C4 5471   0.800   2.868  16.415 -0.7689 -0.7013 -0.9992
  362TMC3    C5 5472   0.698   2.946  16.459  0.2973 -0.1138  0.5652
  362TMC3    C6 5473   0.617   2.906  16.562 -0.2304  0.0233  0.7449
  362TMC3     C 5474   0.925   2.673  16.436 -0.4127  0.0159  0.2114
  362TMC3     O 5475   0.918   2.668  16.314 -0.6628 -0.5841 -0.8340
  362TMC3     H 5476   0.794   2.624  16.650  0.8535  0.5921  1.1320
  362TMC3    H1 5477   0.837   2.885  16.315 -3.7039 -0.1287 -1.9915
  362TMC3    H2 5478   0.542   2.975  16.597  1.0867  2.2948 -0.9102
  362TMC3    C7 5479   0.655   3.063  16.386  0.2998 -0.5630 -0.1987
  362TMC3    C8 5480   0.562   2.736  16.736 -0.5185 -0.1094  0.4036
  362TMC3    O1 5481   0.549   3.111  16.430  0.5051 -0.1931 -0.1923
  362TMC3    O2 5482   0.597   2.633  16.793  0.2012 -0.4813  0.3567
  363TMC3    C1 5483   3.305   4.450   9.315 -0.2454 -0.0499 -0.2918
  363TMC3    C2 5484   3.385   4.380   9.401  0.5233  0.1869 -0.2564
  363TMC3    C3 5485   3.407   4.429   9.526  0.0325  0.1737  0.1138
  363TMC3    C4 5486   3.246   4.569   9.354  0.0505 -0.7777  0.6924
  363TMC3    C5 5487   3.271   4.612   9.487 -0.7434 -1.6011  0.3151
  363TMC3    C6 5488   3.351   4.547   9.571  0.4048  0.1669  0.2230
  363TMC3     C 5489   3.318   4.430   9.171 -0.1710 -0.1793  0.8818
  363TMC3     O 5490   3.320   4.535   9.111 -0.2722  0.0888 -0.0402
  363TMC3     H 5491   3.431   4.286   9.372  2.3605  0.8253  0.6332
  363TMC3    H1 5492   3.195   4.639   9.290  0.2901 -0.2860  1.0436
  363TMC3    H2 5493   3.393   4.591   9.661 -0.2919  1.2131  0.0217
  363TMC3    C7 5494   3.172   4.705   9.536  0.4765  0.2809  0.0747
  363TMC3    C8 5495   3.471   4.353   9.626  0.2667 -0.5327  0.4085
  363TMC3    O1 5496   3.096   0.015   9.450  0.2052 -0.8418 -0.5804
  363TMC3    O2 5497   3.459   4.396   9.739 -0.3414 -0.1537 -0.8275
  364MPD2     C 5498   2.755   4.211   9.974 -0.1833 -0.6818 -0.0867
  364MPD2    C1 5499   2.715   4.244  10.106  0.7418  0.5711  0.0412
  364MPD2    C2 5500   2.774   4.189  10.211 -0.4712  1.0471  0.3458
  364MPD2    C3 5501   2.869   4.090  10.190 -0.3391  0.4981  0.7621
  364MPD2    C4 5502   2.910   4.063  10.063 -0.4414 -0.0556 -0.7904
  364MPD2    C5 5503   2.854   4.122   9.948 -0.4199 -0.4702  0.6326
  364MPD2     H 5504   2.758   4.225  10.312 -0.7181  0.9547  0.3404
  364MPD2    H1 5505   2.987   3.989  10.044 -1.3762 -1.4299  0.7922
  364MPD2    H2 5506   2.715   4.253   9.882 -1.5170 -0.9211  0.3818
  364MPD2    H3 5507   2.896   4.100   9.851  3.2692 -2.1704  2.6390
  364MPD2     N 5508   2.937   4.025  10.296 -0.0318 -0.0707  0.1640
  364MPD2    H5 5509   3.027   3.983  10.272  0.9129  2.0780 -0.0387
  364MPD2    N1 5510   2.617   4.352  10.116  0.3674  0.1164 -0.1410
  364MPD2    H7 5511   2.590   4.391  10.026 -1.2700  0.3690  0.4559
  365TMC3    C1 5512   2.486   4.524  10.212 -0.5937 -0.9778  0.3282
  365TMC3    C2 5513   2.419   4.551  10.090  0.5493  0.2230 -0.8150
  365TMC3    C3 5514   2.335   4.655  10.094  0.0085  0.3555 -0.1984
  365TMC3    C4 5515   2.489   4.614  10.313  0.2771 -0.3267 -0.4066
  365TMC3    C5 5516   2.411   4.725  10.295  0.2695 -0.0380  0.9226
  365TMC3    C6 5517   2.325   0.007  10.196  0.4192  0.2609 -0.7831
  365TMC3     C 5518   2.560   4.403  10.233  0.0934  0.5503  0.2461
  365TMC3     O 5519   2.587   4.372  10.351 -0.2173 -0.0458 -0.5430
  365TMC3     H 5520   2.418   4.479  10.009 -1.2115  0.2372 -0.8066
  365TMC3    H1 5521   2.566   4.597  10.387  3.4534  2.7827 -3.0032
  365TMC3    H2 5522   2.261   0.094  10.191  0.7237  0.5903  0.7879
  365TMC3    C7 5523   2.415   0.086  10.405  0.7157  0.4661 -0.0489
  365TMC3    C8 5524   2.256   4.689   9.975 -0.1660 -0.2295  0.2888
  365TMC3    O1 5525   2.401   0.203  10.384  0.1680  0.1081  0.5574
  365TMC3    O2 5526   2.179   0.045   9.981  0.2045 -0.4332 -1.2413
  366MPD2     C 5527   0.932   1.140  15.460  0.3640 -0.5545  0.1784
  366MPD2    C1 5528   1.068   1.118  15.435 -0.5384  0.1554 -0.6758
  366MPD2    C2 5529   1.110   0.996  15.391 -0.1855 -0.1855 -0.1372
  366MPD2    C3 5530   1.023   0.887  15.396 -0.7065 -0.0550  0.6607
  366MPD2    C4 5531   0.887   0.902  15.437 -0.9819  0.3126  0.6271
  366MPD2    C5 5532   0.843   1.030  15.464 -0.2832  0.1049 -0.4511
  366MPD2     H 5533   1.217   0.977  15.386 -0.8612 -2.8940 -4.4908
  366MPD2    H1 5534   0.817   0.822  15.460  1.0592 -1.1349  1.8543
  366MPD2    H2 5535   0.897   1.239  15.484 -0.2706 -0.8422  0.4477
  366MPD2    H3 5536   0.741   1.064  15.478 -0.2263  0.5004 -0.9875
  366MPD2     N 5537   1.067   0.759  15.360 -0.1795  0.0468  0.0574
  366MPD2    H5 5538   1.164   0.752  15.329 -0.3752  0.8441 -0.7030
  366MPD2    N1 5539   1.156   1.231  15.429 -0.2454  0.1972 -0.1253
  366MPD2    H7 5540   1.104   1.318  15.427  1.2176  1.0041 -2.2994
  367TMC3    C1 5541   1.339   1.358  15.394  0.0044  0.7334 -0.4230
  367TMC3    C2 5542   1.470   1.391  15.425  0.3743  0.5556  0.6086
  367TMC3    C3 5543   1.528   1.508  15.384  0.8016  0.0720 -0.0245
  367TMC3    C4 5544   1.264   1.438  15.313  0.1700 -0.3771 -0.8671
  367TMC3    C5 5545   1.319   1.557  15.270  0.6220 -0.3318 -0.1094
  367TMC3    C6 5546   1.447   1.598  15.312  0.1632  0.0893 -0.1791
  367TMC3     C 5547   1.290   1.227  15.415  0.1843  0.0452  0.6439
  367TMC3     O 5548   1.374   1.136  15.414 -0.0968 -0.0140  0.1802
  367TMC3     H 5549   1.526   1.325  15.489 -1.7482 -2.9454 -1.1195
  367TMC3    H1 5550   1.168   1.411  15.272 -0.8242  2.1293 -0.2191
  367TMC3    H2 5551   1.479   1.685  15.255 -0.1011  0.7753  0.7074
  367TMC3    C7 5552   1.220   1.649  15.214 -0.2258 -0.9207  0.4737
  367TMC3    C8 5553   1.627   1.569  15.471  0.2452  0.2393 -0.8530
  367TMC3    O1 5554   1.105   1.633  15.246  0.3684 -0.0977 -0.4355
  367TMC3    O2 5555   1.707   1.490  15.522 -0.3748  0.7121  0.4058
  368MPD2     C 5556   2.191   3.174  13.827  1.0742  1.0852 -0.4595
  368MPD2    C1 5557   2.205   3.134  13.698 -0.0359 -0.4529 -0.1387
  368MPD2    C2 5558   2.333   3.098  13.651  0.2852  0.5175  0.2205
  368MPD2    C3 5559   2.441   3.105  13.739 -0.7639 -0.1373  0.2628
  368MPD2    C4 5560   2.426   3.147  13.867  0.8352  0.3092  0.5093
  368MPD2    C5 5561   2.299   3.182  13.907 -0.2120 -0.3427 -0.4638
  368MPD2     H 5562   2.358   3.072  13.549 -1.0700 -1.8370  0.5046
  368MPD2    H1 5563   2.506   3.173  13.936  1.1279 -0.4681  0.4561
  368MPD2    H2 5564   2.097   3.212  13.866  2.4569  1.1607  2.7691
  368MPD2    H3 5565   2.286   3.223  14.006 -0.8175 -0.8091 -0.3501
  368MPD2     N 5566   2.575   3.077  13.700 -0.1073  0.0391 -0.5368
  368MPD2    H5 5567   2.652   3.105  13.761 -0.7213 -0.2413  0.3507
  368MPD2    N1 5568   2.090   3.126  13.620  0.0793  0.3528 -0.7282
  368MPD2    H7 5569   2.005   3.153  13.669  0.5787  0.9355 -0.1699
  369TMC3    C1 5570   1.949   3.112  13.426 -0.4457 -0.2760  0.0573
  369TMC3    C2 5571   1.929   3.042  13.311  0.7005 -0.1745  0.0989
  369TMC3    C3 5572   1.820   3.068  13.234 -0.8519 -0.4480  0.2688
  369TMC3    C4 5573   1.852   3.193  13.482 -0.9742 -0.2997  0.6337
  369TMC3    C5 5574   1.742   3.217  13.403 -0.3036 -0.1621 -0.1840
  369TMC3    C6 5575   1.725   3.156  13.275  0.3701  0.5658 -0.1214
  369TMC3     C 5576   2.078   3.094  13.487  0.1433  0.1163  0.2422
  369TMC3     O 5577   2.170   3.071  13.412 -0.1625  0.0541  0.2566
  369TMC3     H 5578   1.999   2.968  13.276  1.2602  0.3077  0.2098
  369TMC3    H1 5579   1.864   3.257  13.568  1.2927 -2.1308  1.6601
  369TMC3    H2 5580   1.630   3.166  13.222  1.0732 -0.4650 -1.5863
  369TMC3    C7 5581   1.623   3.239  13.477 -0.6466 -0.3338 -0.4525
  369TMC3    C8 5582   1.804   2.984  13.123  0.4256  0.0252 -0.0359
  369TMC3    O1 5583   1.634   3.192  13.589 -0.4111  0.6845  0.1576
  369TMC3    O2 5584   1.903   2.923  13.078  0.2409  0.4988  0.5186
  370TMC3    C1 5585   2.053   3.454  16.444  0.7028 -0.3705 -0.0037
  370TMC3    C2 5586   1.962   3.370  16.503  0.0341  0.1567  0.3265
  370TMC3    C3 5587   1.939   3.253  16.437  0.3252 -0.2342 -0.2482
  370TMC3    C4 5588   2.104   3.438  16.314 -0.7876 -0.0824  0.6684
  370TMC3    C5 5589   2.073   3.321  16.253 -0.9457  1.0108 -0.6470
  370TMC3    C6 5590   2.005   3.228  16.321 -0.0192  0.7951  0.8310
  370TMC3     C 5591   2.131   3.530  16.539 -0.9455  0.0750  0.3250
  370TMC3     O 5592   2.122   3.494  16.653 -0.1165  0.4982 -0.0201
  370TMC3     H 5593   1.934   3.390  16.605  0.8630 -0.0109  0.5882
  370TMC3    H1 5594   2.181   3.498  16.267  0.2591  0.0090  2.5013
  370TMC3    H2 5595   1.986   3.132  16.273  2.2370  0.3171  0.8927
  370TMC3    C7 5596   2.156   3.276  16.140 -0.4023  0.3348  0.2476
  370TMC3    C8 5597   1.877   3.142  16.502 -0.4102 -0.1559 -0.1998
  370TMC3    O1 5598   2.196   3.363  16.063 -0.0265  0.0541  0.3655
  370TMC3    O2 5599   1.894   3.028  16.457  0.2534  0.0550  0.1725
  371TMC3    C1 5600   3.212   1.719  15.479  0.0391 -0.6661 -0.2232
  371TMC3    C2 5601   3.079   1.707  15.511  0.2164 -0.2529  0.4816
  371TMC3    C3 5602   3.016   1.817  15.551 -0.0383 -0.7927  0.0209
  371TMC3    C4 5603   3.278   1.837  15.491  0.1946 -0.6561 -0.0202
  371TMC3    C5 5604   3.217   1.946  15.544  0.1812  0.5499 -0.1706
  371TMC3    C6 5605   3.083   1.931  15.571  0.5507  0.4089  0.3578
  371TMC3     C 5606   3.288   1.599  15.447 -0.1522  0.5953  0.1481
  371TMC3     O 5607   3.401   1.623  15.409  0.1646  0.0876  0.9158
  371TMC3     H 5608   3.028   1.614  15.485 -2.7507  1.3599  0.6060
  371TMC3    H1 5609   3.378   1.847  15.451  0.0212  1.3618  0.0448
  371TMC3    H2 5610   3.033   2.014  15.618  0.1012  2.0490 -3.0289
  371TMC3    C7 5611   3.259   2.075  15.486  0.6326 -0.0603 -0.2868
  371TMC3    C8 5612   2.866   1.817  15.563  0.5547  0.1866 -0.5367
  371TMC3    O1 5613   3.166   2.152  15.495  0.2237 -0.0400  0.4484
  371TMC3    O2 5614   2.792   1.731  15.512 -0.2187 -0.2992  0.6114
  372MPD2     C 5615   2.960   2.497  13.343  0.3260 -0.0443 -0.1112
  372MPD2    C1 5616   2.954   2.460  13.477  0.2922  0.0214  0.3590
  372MPD2    C2 5617   3.057   2.385  13.531  0.1961  0.2537 -0.0532
  372MPD2    C3 5618   3.160   2.350  13.454  0.3429 -1.3173  0.4042
  372MPD2    C4 5619   3.153   2.365  13.319 -0.0643 -0.1182 -0.3866
  372MPD2    C5 5620   3.056   2.443  13.266  0.0918  0.5208 -0.5682
  372MPD2     H 5621   3.061   2.365  13.638  0.6969 -0.5477 -0.2243
  372MPD2    H1 5622   3.220   2.336  13.239  1.1860  2.6198 -0.3303
  372MPD2    H2 5623   2.893   2.570  13.298 -1.2891 -0.3516  1.7918
  372MPD2    H3 5624   3.047   2.468  13.161 -1.0984 -0.1533 -0.6306
  372MPD2     N 5625   3.261   2.275  13.517 -0.1253 -0.3996  0.0839
  372MPD2    H5 5626   3.263   2.288  13.618 -1.4096  0.0345  0.0516
  372MPD2    N1 5627   2.852   2.507  13.568  0.6728  0.1889 -0.4023
  372MPD2    H7 5628   2.862   2.486  13.667  0.2175 -0.2186 -0.4452
  373TMC3    C1 5629   3.440   2.115  13.526  0.5547  0.2447  0.1404
  373TMC3    C2 5630   3.434   2.115  13.664  0.1796  0.3430  0.0516
  373TMC3    C3 5631   3.543   2.066  13.729 -0.0710  0.1888  0.3459
  373TMC3    C4 5632   3.536   2.055  13.457 -0.9165 -0.0481 -0.2750
  373TMC3    C5 5633   3.641   2.002  13.533  0.3755  0.4381 -0.1185
  373TMC3    C6 5634   3.647   2.010  13.668  0.4205 -0.1573  0.4713
  373TMC3     C 5635   3.348   2.195  13.444 -0.3353  0.3452  0.7234
  373TMC3     O 5636   3.351   2.166  13.324  0.6304  0.4982  0.4938
  373TMC3     H 5637   3.344   2.147  13.715  0.3009  0.5293  0.1491
  373TMC3    H1 5638   3.530   2.043  13.349  0.1861 -0.4474 -0.2899
  373TMC3    H2 5639   3.737   1.974  13.716  2.0139  1.2091 -1.4997
  373TMC3    C7 5640   3.738   1.930  13.459 -0.1238  0.2114 -0.6427
  373TMC3    C8 5641   3.542   2.093  13.869 -0.2735  0.2962 -0.7693
  373TMC3    O1 5642   3.760   1.971  13.347 -0.2869 -0.4862  0.5640
  373TMC3    O2 5643   3.457   2.173  13.909 -0.2131 -0.2666  0.4135
  374TMC3    C1 5644   2.720   2.978  10.142 -0.6266  0.6628  0.4859
  374TMC3    C2 5645   2.840   3.033  10.122  0.3177  0.5485  0.7586
  374TMC3    C3 5646   2.836   3.163  10.073 -0.8902 -0.1860 -0.4910
  374TMC3    C4 5647   2.602   3.043  10.127  0.3095 -0.6202  0.2076
  374TMC3    C5 5648   2.596   3.172  10.083  0.0693 -0.6189  0.5872
  374TMC3    C6 5649   2.722   3.230  10.056 -0.3435  1.0609 -0.0651
  374TMC3     C 5650   2.725   2.846  10.210 -0.0249  0.0407  0.4507
  374TMC3     O 5651   2.834   2.814  10.258 -0.1499  0.5667  0.0193
  374TMC3     H 5652   2.936   2.983  10.123  1.2271  2.2284 -1.2041
  374TMC3    H1 5653   2.511   2.989  10.154 -0.4264  1.0070  0.9986
  374TMC3    H2 5654   2.725   3.335  10.026  0.7289  0.7062 -1.2117
  374TMC3    C7 5655   2.479   3.262  10.095 -0.6804  0.2781  0.0615
  374TMC3    C8 5656   2.963   3.229  10.056 -0.2807  0.6436  0.8079
  374TMC3    O1 5657   2.487   3.368  10.031 -0.2587 -0.7185 -0.0039
  374TMC3    O2 5658   2.963   3.333   9.991 -0.4667  0.4115 -0.1678
  375MPD2     C 5659   3.144   3.418  17.585 -0.0832  0.8644 -0.3495
  375MPD2    C1 5660   3.101   3.495  17.478 -0.1690 -0.0525  0.5390
  375MPD2    C2 5661   3.181   3.516  17.369  0.4993 -0.3255 -0.6260
  375MPD2    C3 5662   3.303   3.454  17.354 -0.3933 -0.2529  0.1392
  375MPD2    C4 5663   3.336   3.361  17.453  0.3553  0.0356  0.2703
  375MPD2    C5 5664   3.264   3.353  17.566  0.0514  0.2441  0.6318
  375MPD2     H 5665   3.145   3.564  17.279 -0.8069 -0.9564 -0.4333
  375MPD2    H1 5666   3.428   3.304  17.448 -0.3653 -1.3894  3.2537
  375MPD2    H2 5667   3.087   3.388  17.673  2.4054 -1.4691  0.4757
  375MPD2    H3 5668   3.305   3.296  17.648 -0.7974  1.2826  1.7791
  375MPD2     N 5669   3.388   3.476  17.240 -0.0534  0.5145 -1.0702
  375MPD2    H5 5670   3.477   3.428  17.240  0.0895  0.7708  0.1034
  375MPD2    N1 5671   2.979   3.559  17.480 -0.8166 -0.4044 -0.3640
  375MPD2    H7 5672   2.963   3.606  17.391  3.0044 -0.3197 -1.0068
  376TMC3    C1 5673   3.471   3.571  17.032 -0.0380 -0.5144  0.2164
  376TMC3    C2 5674   3.606   3.530  17.066  0.0282 -0.6832 -0.4438
  376TMC3    C3 5675   3.706   3.600  17.004 -0.1302 -0.6701 -0.4335
  376TMC3    C4 5676   3.448   3.658  16.925  0.1958  0.0056  0.5706
  376TMC3    C5 5677   3.561   3.708  16.860  0.4333  0.0513 -0.1704
  376TMC3    C6 5678   3.692   3.690  16.897 -0.3896  0.1852  0.1435
  376TMC3     C 5679   3.360   3.559  17.129  0.2459  0.1487  0.3124
  376TMC3     O 5680   3.261   3.628  17.107 -0.0106  0.4214  0.1545
  376TMC3     H 5681   3.636   3.477  17.156  0.3504 -0.2388 -0.2892
  376TMC3    H1 5682   3.348   3.698  16.917 -0.0420 -0.8398 -0.8021
  376TMC3    H2 5683   3.778   3.724  16.841  0.2564 -1.0359  0.3972
  376TMC3    C7 5684   3.544   3.765  16.727 -0.7202 -0.0245  0.2977
  376TMC3    C8 5685   3.827   3.520  17.005  0.5096  0.4588 -0.2532
  376TMC3    O1 5686   3.625   3.847  16.687 -0.7169 -0.3729  0.3176
  376TMC3    O2 5687   3.931   3.585  16.999  0.2037 -0.1356 -0.7034
  377MPD2     C 5688   1.659   3.186  12.593  0.3756  0.4679  0.0584
  377MPD2    C1 5689   1.565   3.285  12.572 -0.6743  0.1038  0.2403
  377MPD2    C2 5690   1.488   3.323  12.678 -0.4332  0.0814 -0.1762
  377MPD2    C3 5691   1.506   3.257  12.802  0.0823 -0.4999  0.3273
  377MPD2    C4 5692   1.598   3.166  12.817  0.5089  0.0356 -0.3027
  377MPD2    C5 5693   1.679   3.131  12.716 -0.2914 -0.6099 -0.6370
  377MPD2     H 5694   1.409   3.397  12.670  1.1911  1.7335 -0.9102
  377MPD2    H1 5695   1.627   3.109  12.904 -1.0675  0.3275  0.4138
  377MPD2    H2 5696   1.725   3.156  12.512  0.6709  0.1503  0.4140
  377MPD2    H3 5697   1.750   3.050  12.728  1.6206  1.2385  0.5757
  377MPD2     N 5698   1.422   3.282  12.915 -0.4281 -0.8179  0.0035
  377MPD2    H5 5699   1.421   3.216  12.991 -0.8495 -0.1093  0.6173
  377MPD2    N1 5700   1.546   3.336  12.437  0.9432  0.7560  0.4168
  377MPD2    H7 5701   1.580   3.272  12.366 -1.8025 -0.2940  0.0744
  378TMC3    C1 5702   1.249   3.434  12.109  0.1384  0.7804  0.4134
  378TMC3    C2 5703   1.277   3.441  12.242 -0.0141 -0.1877  0.0855
  378TMC3    C3 5704   1.410   3.424  12.273  0.3806  0.8273  0.5953
  378TMC3    C4 5705   1.336   3.404  12.010 -0.7108  0.1238 -0.1551
  378TMC3    C5 5706   1.469   3.399  12.052  0.5991 -0.2686 -0.6123
  378TMC3    C6 5707   1.508   3.407  12.182 -0.5977  0.0692  0.0667
  378TMC3     C 5708   1.115   3.407  12.068  0.0210  0.5093  0.8041
  378TMC3     O 5709   1.092   3.349  11.964  0.1236  0.5371 -0.5103
  378TMC3     H 5710   1.205   3.461  12.320  0.1042 -2.1360  0.7019
  378TMC3    H1 5711   1.298   3.399  11.908 -2.6996  1.7505  0.5011
  378TMC3    H2 5712   1.611   3.407  12.215 -0.6826  0.3463  0.3274
  378TMC3    C7 5713   1.573   3.359  11.967  0.0334 -0.0992 -0.4856
  378TMC3    C8 5714   1.456   3.439  12.401  0.0687 -0.2416 -1.1522
  378TMC3    O1 5715   1.679   3.416  11.980 -0.6816  0.3239 -0.2165
  378TMC3    O2 5716   1.391   3.514  12.473 -0.2167  0.0815 -0.7910
  379MPD2     C 5717   2.765   1.510  16.206  0.0878 -0.6943  0.4852
  379MPD2    C1 5718   2.631   1.509  16.180 -1.0765 -0.2058 -0.4542
  379MPD2    C2 5719   2.562   1.446  16.279  0.4961  0.4957 -0.0024
  379MPD2    C3 5720   2.616   1.376  16.387 -0.5479  0.1880  0.0590
  379MPD2    C4 5721   2.756   1.390  16.401  0.5611 -0.8843  0.4683
  379MPD2    C5 5722   2.829   1.462  16.313 -0.5168  0.5729  0.5188
  379MPD2     H 5723   2.455   1.440  16.261  0.4226  0.6383  0.3974
  379MPD2    H1 5724   2.801   1.336  16.483  0.4292  0.6722  1.5572
  379MPD2    H2 5725   2.830   1.554  16.131 -1.3949 -2.5482 -1.8897
  379MPD2    H3 5726   2.937   1.458  16.317 -0.3973  3.1677 -0.5381
  379MPD2     N 5727   2.548   1.291  16.470 -0.3964  0.3691  0.0004
  379MPD2    H5 5728   2.596   1.252  16.550 -0.0122  0.6205 -0.1063
  379MPD2    N1 5729   2.571   1.570  16.067  0.2045 -0.0245  0.3390
  379MPD2    H7 5730   2.638   1.615  16.005  0.8814  1.6579  2.2829
  380TMC3    C1 5731   2.396   1.645  15.927  0.3386  1.2230  1.0818
  380TMC3    C2 5732   2.444   1.585  15.816  0.0120  0.5812  0.0710
  380TMC3    C3 5733   2.386   1.624  15.692  0.1670 -0.3792  0.3485
  380TMC3    C4 5734   2.297   1.743  15.928 -0.2472  0.3818 -0.3308
  380TMC3    C5 5735   2.245   1.776  15.807 -0.0795 -0.1733 -0.3013
  380TMC3    C6 5736   2.287   1.721  15.692 -0.3495  0.3810  0.0632
  380TMC3     C 5737   2.436   1.587  16.054  1.0719  0.6422  0.0534
  380TMC3     O 5738   2.336   1.573  16.130  0.0223 -0.1767  0.1363
  380TMC3     H 5739   2.515   1.503  15.820 -0.7785 -0.0772  0.5169
  380TMC3    H1 5740   2.258   1.782  16.022  1.7094 -3.2187  1.9280
  380TMC3    H2 5741   2.253   1.761  15.597 -2.2604  1.3785  1.1758
  380TMC3    C7 5742   2.116   1.844  15.800  0.0824 -0.6930  0.3177
  380TMC3    C8 5743   2.396   1.558  15.563 -0.2542  0.2004  0.3111
  380TMC3    O1 5744   2.094   1.934  15.879  0.3359  0.4155  0.0677
  380TMC3    O2 5745   2.375   1.634  15.466  0.2011 -0.1315 -0.2352
  381TMC3    C1 5746   1.790   2.722  16.296  0.5958 -0.4123  0.4909
  381TMC3    C2 5747   1.919   2.766  16.296 -0.8641 -0.1306  0.3417
  381TMC3    C3 5748   2.013   2.687  16.357 -0.6459  0.5539 -0.1115
  381TMC3    C4 5749   1.759   2.595  16.337 -0.2085  0.2719  0.1761
  381TMC3    C5 5750   1.854   2.516  16.398 -0.6689  0.2251  0.7022
  381TMC3    C6 5751   1.985   2.560  16.406  1.0499 -0.6666  0.0333
  381TMC3     C 5752   1.692   2.800  16.227  0.2604 -0.3727  0.6139
  381TMC3     O 5753   1.752   2.871  16.146  0.0837 -0.1270  0.1384
  381TMC3     H 5754   1.954   2.861  16.258 -3.4715  1.3154  1.5569
  381TMC3    H1 5755   1.654   2.567  16.333 -0.2338  0.8385 -3.1901
  381TMC3    H2 5756   2.052   2.500  16.466  1.0062 -1.0903 -0.3438
  381TMC3    C7 5757   1.823   2.422  16.503  0.1786 -0.1948  0.0890
  381TMC3    C8 5758   2.143   2.741  16.396 -0.6614  0.6474 -0.6539
  381TMC3    O1 5759   1.897   2.328  16.517 -0.0690  0.1876 -0.3988
  381TMC3    O2 5760   2.245   2.670  16.395 -0.3484  0.4907  0.3194
  382MPD2     C 5761   0.463   0.329   0.065 -0.2658  0.4075 -0.1072
  382MPD2    C1 5762   0.571   0.347  17.739  0.3959  0.1815 -0.0062
  382MPD2    C2 5763   0.638   0.237  17.703 -0.6528 -0.2061 -0.1606
  382MPD2    C3 5764   0.599   0.109  17.741  0.2033 -0.2593  0.7532
  382MPD2    C4 5765   0.490   0.094   0.064 -0.4213 -0.2657 -0.6863
  382MPD2    C5 5766   0.428   0.205   0.112  0.6316  0.2955  0.7964
  382MPD2     H 5767   0.709   0.242  17.622 -1.3457  1.1092 -0.6863
  382MPD2    H1 5768   0.448   0.003   0.105 -1.1502  0.6557  0.5953
  382MPD2    H2 5769   0.400   0.412   0.092 -0.7391 -0.6060  1.8773
  382MPD2    H3 5770   0.345   0.188   0.179 -0.4759  0.1275 -0.6046
  382MPD2     N 5771   0.668   4.735  17.692 -0.3238 -0.3663  0.3469
  382MPD2    H5 5772   0.639   4.641  17.718  2.3425 -1.0504  0.7704
  382MPD2    N1 5773   0.609   0.472  17.683  0.0979  0.0092 -0.2599
  382MPD2    H7 5774   0.693   0.474  17.626  0.7019  0.9081  0.6600
  383TMC3    C1 5775   0.815   4.616  17.552 -0.1650 -0.3776  0.4538
  383TMC3    C2 5776   0.726   4.512  17.540 -0.7899 -0.3870 -0.7963
  383TMC3    C3 5777   0.764   4.395  17.469  0.7890 -0.4059 -0.0118
  383TMC3    C4 5778   0.942   4.604  17.496  0.2964  0.0162 -0.1140
  383TMC3    C5 5779   0.968   4.497  17.415 -0.1086 -0.6621 -0.0295
  383TMC3    C6 5780   0.885   4.385  17.409  0.8490 -0.0225  0.8028
  383TMC3     C 5781   0.796   4.734  17.638  0.1359 -0.1786 -0.1571
  383TMC3     O 5782   0.876   0.088  17.626  0.0013 -0.3358 -0.7686
  383TMC3     H 5783   0.626   4.511  17.581 -0.1424  1.0198  0.8027
  383TMC3    H1 5784   1.022   4.674  17.511 -0.1392  0.3621  0.5962
  383TMC3    H2 5785   0.891   4.324  17.320  3.4061  0.5908  0.5730
  383TMC3    C7 5786   1.082   4.493  17.334 -0.7957  0.8000 -0.6919
  383TMC3    C8 5787   0.653   4.317  17.412 -0.1801  0.3386 -0.8240
  383TMC3    O1 5788   1.120   4.383  17.305  0.8067 -0.9895 -0.1170
  383TMC3    O2 5789   0.542   4.337  17.462  0.4944 -0.4264 -0.2833
  384MPD2     C 5790   2.676   1.143  11.924  0.1122 -0.1397 -0.6930
  384MPD2    C1 5791   2.596   1.055  11.983 -0.4213  0.1951  0.7010
  384MPD2    C2 5792   2.596   0.917  11.959 -0.2822 -0.7833  0.4444
  384MPD2    C3 5793   2.699   0.869  11.884  0.0715  0.2501 -0.7430
  384MPD2    C4 5794   2.780   0.960  11.819 -0.2737 -0.3179  0.1433
  384MPD2    C5 5795   2.760   1.094  11.833 -0.1422  0.4646  0.1017
  384MPD2     H 5796   2.526   0.849  12.006 -0.7966  0.6396  1.7337
  384MPD2    H1 5797   2.860   0.927  11.753 -1.5119 -0.3399 -1.3605
  384MPD2    H2 5798   2.675   1.250  11.937  1.7832  0.0416 -2.1395
  384MPD2    H3 5799   2.824   1.159  11.774  0.9805  0.4637  1.3261
  384MPD2     N 5800   2.725   0.732  11.861 -0.1008 -0.2149  0.5173
  384MPD2    H5 5801   2.818   0.712  11.826 -1.5405  1.3660 -4.1328
  384MPD2    N1 5802   2.516   1.115  12.088  1.0114 -0.0531  0.5392
  384MPD2    H7 5803   2.538   1.211  12.113  0.1912  0.2816 -0.0110
  385TMC3    C1 5804   2.732   0.506  11.942  0.6300  0.4679  0.0808
  385TMC3    C2 5805   2.658   0.390  11.965 -0.5728 -0.7900 -0.2116
  385TMC3    C3 5806   2.713   0.299  12.052  0.0538 -0.1344 -0.3270
  385TMC3    C4 5807   2.848   0.527  12.008  0.4540 -0.4301  0.0276
  385TMC3    C5 5808   2.897   0.436  12.096 -0.7023 -0.5820  0.7262
  385TMC3    C6 5809   2.831   0.321  12.113 -0.6837  0.4379 -0.2112
  385TMC3     C 5810   2.654   0.624  11.917  1.1605 -0.0250 -0.3789
  385TMC3     O 5811   2.538   0.620  11.955 -0.0347 -0.4204  0.1309
  385TMC3     H 5812   2.559   0.385  11.922 -0.6620 -0.2856 -0.0544
  385TMC3    H1 5813   2.895   0.624  12.000 -0.5780  0.1389  0.7652
  385TMC3    H2 5814   2.867   0.241  12.177 -1.9189  0.3802  0.4150
  385TMC3    C7 5815   2.961   0.506  12.211 -0.4537 -0.1312 -0.0178
  385TMC3    C8 5816   2.669   0.171  12.042 -0.0419  0.1529  0.0112
  385TMC3    O1 5817   3.082   0.507  12.208  0.0788 -0.2183 -0.0967
  385TMC3    O2 5818   2.717   0.089  12.118 -0.4652  0.1534 -0.1076
  386TMC3    C1 5819   2.894   2.329  11.939  0.7076  0.3320  0.3903
  386TMC3    C2 5820   2.937   2.434  11.858  0.0644 -0.4771 -0.1522
  386TMC3    C3 5821   2.929   2.560  11.917  0.3514 -0.5165 -0.3956
  386TMC3    C4 5822   2.861   2.341  12.073  0.0044  0.3580 -0.1374
  386TMC3    C5 5823   2.856   2.465  12.119 -0.5397 -0.4912  0.0828
  386TMC3    C6 5824   2.890   2.574  12.045  0.2262  0.0792  0.2285
  386TMC3     C 5825   2.897   2.199  11.883  0.2913 -0.1560  0.4031
  386TMC3     O 5826   2.866   2.178  11.770  0.1077 -0.1711  0.8119
  386TMC3     H 5827   2.955   2.414  11.753  0.5271  0.7652 -0.3085
  386TMC3    H1 5828   2.821   2.257  12.129  2.5521 -1.1884 -0.6183
  386TMC3    H2 5829   2.879   2.671  12.091 -0.7171 -0.3996  0.9881
  386TMC3    C7 5830   2.755   2.481  12.228 -0.1981  0.7080 -0.3498
  386TMC3    C8 5831   2.940   2.674  11.831  0.4869 -0.0792 -0.0823
  386TMC3    O1 5832   2.664   2.399  12.231  0.4978  0.4487 -0.7896
  386TMC3    O2 5833   2.879   2.773  11.873  0.3509 -0.2909  0.6574
  387MPD2     C 5834   0.194   3.195   9.862  0.0901 -0.8368 -0.1224
  387MPD2    C1 5835   0.257   3.160   9.979  0.3720 -0.5977 -0.1325
  387MPD2    C2 5836   0.237   3.034  10.027  0.8387 -0.0497 -0.0289
  387MPD2    C3 5837   0.155   2.941   9.981 -0.1965  0.3702  0.6288
  387MPD2    C4 5838   0.086   2.973   9.864 -0.2404 -0.1305 -0.4941
  387MPD2    C5 5839   0.110   3.098   9.812 -0.2218  0.2644 -0.0546
  387MPD2     H 5840   0.291   3.003  10.116  1.1229 -1.0876 -0.5667
  387MPD2    H1 5841   0.014   2.906   9.819 -0.7106  0.7255 -1.0180
  387MPD2    H2 5842   0.217   3.286   9.809 -2.6849 -0.5373 -0.7698
  387MPD2    H3 5843   0.060   3.112   9.717 -3.2443  1.0063  1.6353
  387MPD2     N 5844   0.152   2.814  10.045  0.2689 -0.4656  0.2549
  387MPD2    H5 5845   0.201   2.799  10.133  1.4249  0.4400 -0.2341
  387MPD2    N1 5846   0.352   3.227  10.043  0.2504  0.4377  0.3783
  387MPD2    H7 5847   0.386   3.181  10.127  0.4811  0.1203  0.1105
  388TMC3    C1 5848   0.547   3.354  10.061 -0.0895  0.0425 -0.4709
  388TMC3    C2 5849   0.593   3.479  10.088  0.4522 -0.9959  0.1855
  388TMC3    C3 5850   0.725   3.494  10.132 -0.8562  0.5389  0.4269
  388TMC3    C4 5851   0.613   3.237  10.091  0.0783 -0.0984 -0.1572
  388TMC3    C5 5852   0.738   3.258  10.135 -0.7337  0.2412  0.5111
  388TMC3    C6 5853   0.800   3.382  10.151 -0.5829  0.7640 -0.3360
  388TMC3     C 5854   0.413   3.342  10.005  0.0064  0.6024 -0.4523
  388TMC3     O 5855   0.393   3.416   9.908  0.2729  0.6597 -0.0593
  388TMC3     H 5856   0.529   3.565  10.074  2.3732 -0.1069 -3.2492
  388TMC3    H1 5857   0.574   3.141  10.057  1.2423 -0.8943  0.7306
  388TMC3    H2 5858   0.906   3.380  10.172 -0.7407 -1.4654  0.2720
  388TMC3    C7 5859   0.817   3.141  10.156 -0.0057  0.2407 -0.2256
  388TMC3    C8 5860   0.790   3.621  10.150 -0.4846  0.4448 -0.1875
  388TMC3    O1 5861   0.932   3.137  10.108 -0.2883  0.5042  0.5819
  388TMC3    O2 5862   0.892   3.626  10.218 -0.0676 -0.0031 -0.0487
  389MPD2     C 5863   4.123   1.043  10.643 -0.0917 -0.5279  0.4448
  389MPD2    C1 5864   4.258   1.033  10.611  0.3684 -0.2660 -0.3558
  389MPD2    C2 5865   4.328   0.933  10.677  0.6217  0.0667  0.8599
  389MPD2    C3 5866   4.267   0.857  10.774 -0.0717  0.0928  0.4480
  389MPD2    C4 5867   4.132   0.872  10.805 -0.3274 -0.2818  0.9052
  389MPD2    C5 5868   4.057   0.960  10.731 -0.5945 -0.5408 -0.7969
  389MPD2     H 5869   4.435   0.929  10.666  0.3794 -2.9150 -0.4925
  389MPD2    H1 5870   4.084   0.799  10.869 -1.1945 -0.9742 -0.5191
  389MPD2    H2 5871   4.062   1.111  10.585  2.8777 -0.9958 -3.2351
  389MPD2    H3 5872   3.949   0.958  10.746 -0.4425  0.9009  0.3982
  389MPD2     N 5873   4.342   0.749  10.840  0.2312 -0.5652 -0.1439
  389MPD2    H5 5874   4.294   0.716  10.923 -1.0226 -1.2405 -1.1221
  389MPD2    N1 5875   4.302   1.102  10.497  0.1410 -0.1767 -0.2499
  389MPD2    H7 5876   4.237   1.163  10.449 -0.2514  0.0231  0.5353
  390TMC3    C1 5877   4.509   0.591  10.896 -0.6925  0.3564 -0.2990
  390TMC3    C2 5878   4.633   0.538  10.879 -0.0043 -0.3688 -0.0264
  390TMC3    C3 5879   4.681   0.445  10.962  0.2515 -0.6210 -0.8147
  390TMC3    C4 5880   4.416   0.544  10.989  0.1733  0.2065  0.4049
  390TMC3    C5 5881   4.471   0.454  11.071  0.8859  0.3688  0.5771
  390TMC3    C6 5882   4.596   0.416  11.064  0.3915 -0.4170  0.3279
  390TMC3     C 5883   4.465   0.697  10.803 -0.0259  0.1332  0.0015
  390TMC3     O 5884   4.538   0.731  10.714 -0.4737 -0.8035  0.0973
  390TMC3     H 5885   4.692   0.577  10.797 -0.7056  0.2658 -0.2270
  390TMC3    H1 5886   4.316   0.571  11.020  0.4446  1.0970  0.4943
  390TMC3    H2 5887   4.640   0.362  11.147 -0.1792 -0.6440  0.4869
  390TMC3    C7 5888   4.377   0.357  11.111  0.0363 -0.1515 -0.4444
  390TMC3    C8 5889   4.681   0.327  10.873  0.1226 -0.0992 -0.2462
  390TMC3    O1 5890   4.305   0.310  11.024  0.4861  0.4785  0.5389
  390TMC3    O2 5891   4.600   0.342  10.784 -0.5384 -0.2314 -0.2286
  391MPD2     C 5892   3.591   2.941  11.471  0.6805 -0.6596 -0.0504
  391MPD2    C1 5893   3.716   2.967  11.411 -0.2641  0.0089  0.5413
  391MPD2    C2 5894   3.720   2.978  11.275  1.0346  0.9694  0.0648
  391MPD2    C3 5895   3.604   2.982  11.199 -0.5674  0.4992  0.5880
  391MPD2    C4 5896   3.482   2.971  11.265  0.7235 -0.4881 -0.4475
  391MPD2    C5 5897   3.475   2.944  11.395 -0.0040  0.2513 -0.8117
  391MPD2     H 5898   3.815   2.977  11.222 -0.8855  0.1914 -3.4178
  391MPD2    H1 5899   3.388   2.960  11.212 -1.0405 -1.6869  2.9311
  391MPD2    H2 5900   3.586   2.916  11.576  2.8343 -1.7674 -0.2160
  391MPD2    H3 5901   3.386   2.914  11.450  1.1686  0.6486  1.3348
  391MPD2     N 5902   3.618   2.987  11.058  0.1109 -0.1806 -0.4455
  391MPD2    H5 5903   3.714   2.970  11.029  0.1930 -0.3823 -0.0648
  391MPD2    N1 5904   3.833   2.964  11.499  0.3887  0.4819  0.1270
  391MPD2    H7 5905   3.813   2.988  11.595 -3.2789  0.2822 -0.5574
  392TMC3    C1 5906   3.564   3.027  10.834 -0.6560 -0.0295  0.0850
  392TMC3    C2 5907   3.472   3.066  10.737  0.4924  0.5582 -1.0135
  392TMC3    C3 5908   3.515   3.105  10.616  0.4184  0.0480 -0.2135
  392TMC3    C4 5909   3.701   3.016  10.804  0.0537  0.0904 -0.6313
  392TMC3    C5 5910   3.731   3.035  10.674 -0.3408 -0.4415  0.3835
  392TMC3    C6 5911   3.645   3.091  10.579  0.4565 -0.3540  0.3713
  392TMC3     C 5912   3.513   3.000  10.969 -0.4908 -0.0285 -0.0051
  392TMC3     O 5913   3.397   3.027  10.986 -0.1287  0.2261  0.2745
  392TMC3     H 5914   3.370   3.091  10.761  1.1956  1.1929  1.2651
  392TMC3    H1 5915   3.772   2.968  10.870 -0.0742  0.3118 -0.3380
  392TMC3    H2 5916   3.673   3.112  10.476  1.1776  0.8859  0.8131
  392TMC3    C7 5917   3.870   3.036  10.647  0.0467 -0.8851  0.6043
  392TMC3    C8 5918   3.413   3.124  10.517  0.0167 -0.2038 -0.2250
  392TMC3    O1 5919   3.946   3.056  10.740  0.2121  0.2165 -0.2246
  392TMC3    O2 5920   3.309   3.070  10.538  0.1313 -0.9124  0.5163
  393TMC3    C1 5921   2.566   0.780  10.649  0.2438  0.1517  0.1822
  393TMC3    C2 5922   2.440   0.737  10.642  0.0273  0.9878  0.1189
  393TMC3    C3 5923   2.416   0.624  10.571  0.7444 -0.1438 -0.2419
  393TMC3    C4 5924   2.670   0.733  10.568  0.3615 -0.0852  0.9050
  393TMC3    C5 5925   2.639   0.611  10.504  0.5987  0.5038 -0.0579
  393TMC3    C6 5926   2.508   0.564  10.496 -0.0711  0.6498 -0.0438
  393TMC3     C 5927   2.572   0.918  10.695  0.4098 -0.5290 -0.3284
  393TMC3     O 5928   2.468   0.963  10.726  0.1228 -0.0834 -0.1936
  393TMC3     H 5929   2.348   0.774  10.685 -0.5468 -2.3791  1.7768
  393TMC3    H1 5930   2.772   0.771  10.563  0.8917 -1.8406 -2.1379
  393TMC3    H2 5931   2.493   0.465  10.453  2.7328 -0.0340  0.5315
  393TMC3    C7 5932   2.741   0.515  10.439 -0.2089 -0.6025  0.3494
  393TMC3    C8 5933   2.286   0.561  10.567 -0.0434  0.2109  0.6482
  393TMC3    O1 5934   2.699   0.421  10.371 -0.3351 -0.8183 -0.0826
  393TMC3    O2 5935   2.252   0.504  10.463 -0.9748  0.2464  0.0794
  394TMC3    C1 5936   4.468   1.235  10.385 -0.8637 -0.4252 -0.5830
  394TMC3    C2 5937   4.413   1.219  10.263  0.5809 -0.7164 -0.2314
  394TMC3    C3 5938   4.464   1.292  10.159  0.4412 -0.3352 -0.1818
  394TMC3    C4 5939   4.577   1.312  10.404  0.1369  0.3842 -0.3899
  394TMC3    C5 5940   4.621   1.389  10.293  0.0679  0.0379 -0.2305
  394TMC3    C6 5941   4.558   1.386  10.172  0.7719 -0.2441  0.4906
  394TMC3     C 5942   4.433   1.146  10.494  0.2886 -0.3127  0.1799
  394TMC3     O 5943   4.517   1.142  10.582  0.1316  0.0746 -0.5001
  394TMC3     H 5944   4.334   1.145  10.252 -0.4762  0.6344 -1.6331
  394TMC3    H1 5945   4.618   1.322  10.503 -2.0377 -2.1110  0.7755
  394TMC3    H2 5946   4.600   1.437  10.086  1.1363 -1.2559  0.0660
  394TMC3    C7 5947   0.014   1.455  10.300  0.0945 -1.0529 -0.4231
  394TMC3    C8 5948   4.429   1.251  10.023  0.5606  0.0363  0.1824
  394TMC3    O1 5949   0.056   1.522  10.203  0.1316 -0.1585  0.3708
  394TMC3    O2 5950   4.455   1.326   9.931 -0.5781 -0.1753 -0.4135
  395TMC3    C1 5951   4.656   3.429  14.422  0.4265 -0.4594 -0.0471
  395TMC3    C2 5952   4.536   3.436  14.360  0.8089  0.6134  0.3372
  395TMC3    C3 5953   4.497   3.569  14.334  0.6817  0.4275 -0.8502
  395TMC3    C4 5954   0.009   3.529  14.420 -0.3347 -0.3803 -0.2788
  395TMC3    C5 5955   4.716   3.642  14.360 -1.0733  0.2199 -0.1636
  395TMC3    C6 5956   4.585   3.665  14.321 -0.6333 -0.3799  0.4616
  395TMC3     C 5957   4.668   3.354  14.545 -0.1928  0.3706 -0.5836
  395TMC3     O 5958   4.736   3.406  14.633 -0.2362 -1.1820 -0.0598
  395TMC3     H 5959   4.475   3.347  14.352  1.2377  0.4774 -1.3189
  395TMC3    H1 5960   0.101   3.516  14.476  1.1712 -1.3205 -2.9788
  395TMC3    H2 5961   4.548   3.761  14.286  2.4145  1.1955  1.5718
  395TMC3    C7 5962   0.063   3.749  14.394  0.5362  0.2749 -0.4999
  395TMC3    C8 5963   4.385   3.605  14.425  0.0081  0.6269  0.8403
  395TMC3    O1 5964   0.146   3.737  14.482 -0.0408 -0.6618 -0.2143
  395TMC3    O2 5965   4.386   3.713  14.479 -0.4177 -0.2161  0.3927
  396MPD2     C 5966   3.428   0.178  17.184  0.3760 -0.2466  0.4489
  396MPD2    C1 5967   3.558   0.202  17.226  0.6508 -0.8438 -0.4610
  396MPD2    C2 5968   3.659   0.254  17.142  0.2468 -0.9613  0.4163
  396MPD2    C3 5969   3.619   0.301  17.019 -0.1566 -0.3260 -1.0441
  396MPD2    C4 5970   3.484   0.289  16.978  0.4411 -0.5816 -0.3706
  396MPD2    C5 5971   3.395   0.222  17.057  0.6408 -0.7662  0.5357
  396MPD2     H 5972   3.760   0.271  17.179  1.0093  1.2843 -2.6710
  396MPD2    H1 5973   3.456   0.324  16.879  1.1955  1.9407  0.3002
  396MPD2    H2 5974   3.351   0.143  17.251 -0.8772  0.9284 -0.3836
  396MPD2    H3 5975   3.290   0.211  17.030  1.1725 -0.0307 -1.7438
  396MPD2     N 5976   3.725   0.350  16.942 -0.0557  0.0305  0.1651
  396MPD2    H5 5977   3.821   0.336  16.970  0.1710  1.2285 -0.0152
  396MPD2    N1 5978   3.581   0.166  17.361  0.2717 -0.0489 -0.0474
  396MPD2    H7 5979   3.499   0.129  17.410 -0.2292  0.9140 -0.1627
  397TMC3    C1 5980   3.696   0.095  17.547  0.0460 -0.5758 -0.6852
  397TMC3    C2 5981   3.826   0.081  17.578 -0.2300 -1.0794  0.1548
  397TMC3    C3 5982   3.872   4.693  17.616  0.2347 -0.4791 -0.0600
  397TMC3    C4 5983   3.620   4.722  17.535  0.2171 -0.0566  0.2814
  397TMC3    C5 5984   3.666   4.601  17.587  0.0122  0.2062 -0.3059
  397TMC3    C6 5985   3.794   4.580  17.622 -0.5642  0.1552 -0.0031
  397TMC3     C 5986   3.695   0.171  17.426 -0.2379  0.9540  0.2637
  397TMC3     O 5987   3.806   0.205  17.393 -0.0302  0.4132 -0.6773
  397TMC3     H 5988   3.883   0.167  17.611 -0.5188 -0.5555 -0.7069
  397TMC3    H1 5989   3.519   4.721  17.496  0.4699  1.8854 -0.4320
  397TMC3    H2 5990   3.835   4.484  17.649  1.2683  1.0060  0.2365
  397TMC3    C7 5991   3.576   4.480  17.571  0.2890 -0.9228 -0.2869
  397TMC3    C8 5992   4.002   4.671  17.561 -0.1520  0.1372  0.2131
  397TMC3    O1 5993   3.491   4.491  17.484  0.6814  0.1830  0.1670
  397TMC3    O2 5994   4.079   4.586  17.614  0.5133  0.5553 -0.3386
  398MPD2     C 5995   2.324   1.204  17.752  0.4266 -1.6330  0.2795
  398MPD2    C1 5996   2.347   1.135   0.111  0.3624 -0.3767 -0.2436
  398MPD2    C2 5997   2.396   1.204   0.221 -0.0988  0.0809  0.7913
  398MPD2    C3 5998   2.396   1.344   0.225  0.5221 -0.2421 -0.3271
  398MPD2    C4 5999   2.380   1.411   0.101 -0.4034  0.0969 -0.3457
  398MPD2    C5 6000   2.346   1.335  17.744  0.1444 -0.2834 -0.2513
  398MPD2     H 6001   2.419   1.154   0.314 -0.1225  1.5062  1.5633
  398MPD2    H1 6002   2.395   1.518   0.093 -1.5787  0.1996 -1.1292
  398MPD2    H2 6003   2.299   1.159  17.656 -0.6049  1.4203 -0.9165
  398MPD2    H3 6004   2.344   1.383  17.647 -2.1513  2.3232  1.0875
  398MPD2     N 6005   2.447   1.410   0.344  0.0934  0.2930  0.2177
  398MPD2    H5 6006   2.471   1.352   0.424  1.5420 -0.0911 -0.4972
  398MPD2    N1 6007   2.326   1.005   0.131  0.7282  0.1519 -0.0226
  398MPD2    H7 6008   2.345   0.964   0.222  0.7883 -1.2919 -0.6840
  399TMC3    C1 6009   2.274   0.776   0.084 -0.1519 -0.0291 -0.3287
  399TMC3    C2 6010   2.371   0.745   0.176 -0.0904 -0.2706  0.3566
  399TMC3    C3 6011   2.404   0.614   0.188 -0.6517  0.3087 -0.0205
  399TMC3    C4 6012   2.202   0.687   0.011 -0.0457  0.5834  0.0576
  399TMC3    C5 6013   2.240   0.549   0.027 -0.3575  0.0471  0.6932
  399TMC3    C6 6014   2.343   0.516   0.112 -0.0217  0.6204 -1.2366
  399TMC3     C 6015   2.260   0.920   0.051  0.3080 -0.1086  0.1697
  399TMC3     O 6016   2.201   0.941  17.699 -0.0570 -0.0923  0.2732
  399TMC3     H 6017   2.433   0.819   0.225 -1.3291  1.2304 -0.3527
  399TMC3    H1 6018   2.133   0.731  17.694  1.0835 -0.6177 -1.7710
  399TMC3    H2 6019   2.386   0.417   0.120 -1.2817  0.1228 -0.7095
  399TMC3    C7 6020   2.155   0.451  17.725 -0.1474  0.7055  0.1797
  399TMC3    C8 6021   2.530   0.586   0.249 -0.2137  0.9867  0.1472
  399TMC3    O1 6022   2.192   0.332  17.747 -0.2545  0.3769 -0.1139
  399TMC3    O2 6023   2.617   0.670   0.240 -0.0490 -0.3869  0.1112
  400TMC3    C1 6024   0.720   4.045  16.890  0.1933  0.0868 -0.3900
  400TMC3    C2 6025   0.606   4.053  16.813  0.3775 -0.4103 -0.6194
  400TMC3    C3 6026   0.553   4.173  16.805  0.1653 -0.0403 -0.2725
  400TMC3    C4 6027   0.773   4.158  16.952 -0.4090  0.0267 -0.0443
  400TMC3    C5 6028   0.699   4.267  16.955  0.5954  0.1223 -0.2385
  400TMC3    C6 6029   0.593   4.282  16.875 -0.4512 -0.1777  0.0101
  400TMC3     C 6030   0.777   3.913  16.905  0.1542  0.5378  0.6728
  400TMC3     O 6031   0.731   3.822  16.837  0.3588 -0.4849  0.0790
  400TMC3     H 6032   0.551   3.962  16.793  1.7747 -1.7738  1.7788
  400TMC3    H1 6033   0.870   4.158  17.001 -1.7676  0.6649  2.6507
  400TMC3    H2 6034   0.550   4.381  16.864 -2.3363 -1.0839 -0.7970
  400TMC3    C7 6035   0.742   4.377  17.040  0.6931  0.9463  0.0894
  400TMC3    C8 6036   0.465   4.208  16.697 -0.3911  0.0007 -0.5671
  400TMC3    O1 6037   0.862   4.390  17.060 -0.5345  0.3130 -0.1410
  400TMC3    O2 6038   0.415   4.318  16.699 -0.1948 -0.2519 -0.0906
  401MPD2     C 6039   4.111   3.214   0.968  0.2364 -0.2612  0.0302
  401MPD2    C1 6040   4.187   3.123   1.048  0.2011 -0.6193 -0.2295
  401MPD2    C2 6041   4.112   3.019   1.100 -0.2281 -0.2530  0.6357
  401MPD2    C3 6042   3.979   2.994   1.078 -0.1762 -0.1052  0.3173
  401MPD2    C4 6043   3.915   3.088   1.002 -0.3507  0.2151 -0.2551
  401MPD2    C5 6044   3.976   3.194   0.942 -0.4605  0.5636  0.0722
  401MPD2     H 6045   4.170   2.953   1.164  1.5757 -0.1625 -0.9255
  401MPD2    H1 6046   3.811   3.070   0.978  0.0762  0.3237 -2.1115
  401MPD2    H2 6047   4.160   3.295   0.913 -0.1625  0.6439  1.0094
  401MPD2    H3 6048   3.916   3.255   0.875  1.6171  0.2267 -2.0887
  401MPD2     N 6049   3.916   2.887   1.143  0.0372  0.3443 -0.1563
  401MPD2    H5 6050   3.975   2.818   1.189 -0.1056 -1.2603 -2.3756
  401MPD2    N1 6051   4.322   3.147   1.088 -0.6504  0.3035  0.2886
  401MPD2    H7 6052   4.363   3.094   1.164 -1.2238 -0.9372 -0.2578
  402TMC3    C1 6053   3.746   2.729   1.190  0.0258 -0.1811 -0.1278
  402TMC3    C2 6054   3.824   2.683   1.294  0.2123  0.3172 -0.0399
  402TMC3    C3 6055   3.806   2.560   1.343 -0.1694 -0.2256 -0.0673
  402TMC3    C4 6056   3.661   2.644   1.132  0.2281 -0.2747  0.4357
  402TMC3    C5 6057   3.656   2.515   1.179  0.1528  0.1125 -0.6331
  402TMC3    C6 6058   3.730   2.468   1.283 -0.0359  0.0019  0.2802
  402TMC3     C 6059   3.785   2.848   1.118 -0.7016 -0.0969  0.4284
  402TMC3     O 6060   3.698   2.879   1.037  1.0462  0.3805  0.4977
  402TMC3     H 6061   3.890   2.748   1.350 -1.1159  0.1385  1.7456
  402TMC3    H1 6062   3.595   2.688   1.058 -1.8221  0.9901  3.0068
  402TMC3    H2 6063   3.717   2.374   1.336  0.5910 -0.5907 -0.6194
  402TMC3    C7 6064   3.636   2.415   1.078  0.8439 -0.2368  0.2677
  402TMC3    C8 6065   3.907   2.506   1.419  0.0763  0.4790  0.5993
  402TMC3    O1 6066   3.569   2.442   0.981 -0.2484  0.2641  0.5619
  402TMC3    O2 6067   3.947   2.395   1.395  0.3719  0.3153 -0.0536
  403MPD2     C 6068   2.553   0.634  13.015  0.0777 -0.6493  0.3228
  403MPD2    C1 6069   2.479   0.717  13.096  0.1617 -0.4952  0.5521
  403MPD2    C2 6070   2.547   0.786  13.196  0.2080 -0.1019  0.2526
  403MPD2    C3 6071   2.686   0.760  13.220 -0.7200  0.1249  0.0532
  403MPD2    C4 6072   2.748   0.662  13.150 -0.5740 -0.5881  0.7820
  403MPD2    C5 6073   2.684   0.607  13.043 -0.4217  0.6689  0.1362
  403MPD2     H 6074   2.500   0.865  13.252 -0.4114  0.1627 -0.6453
  403MPD2    H1 6075   2.855   0.644  13.154 -0.4323  0.3317  0.9463
  403MPD2    H2 6076   2.509   0.600  12.922  0.6671  0.8574 -0.5045
  403MPD2    H3 6077   2.737   0.551  12.967 -1.1013 -0.2229  0.3307
  403MPD2     N 6078   2.749   0.822  13.326  0.5701  0.2723 -0.4368
  403MPD2    H5 6079   2.689   0.895  13.363 -0.7800 -1.2383  0.3614
  403MPD2    N1 6080   2.340   0.736  13.069  0.0711 -0.4046 -0.1695
  403MPD2    H7 6081   2.295   0.675  13.001  0.6505 -0.5836 -0.3912
  404TMC3    C1 6082   2.120   0.773  13.110 -0.7372 -0.4663  0.0089
  404TMC3    C2 6083   2.045   0.722  13.212  0.8378 -0.2894  0.0728
  404TMC3    C3 6084   1.975   0.603  13.191 -0.2842  0.8235  0.5282
  404TMC3    C4 6085   2.111   0.708  12.987 -0.1577 -0.3111 -0.2298
  404TMC3    C5 6086   2.031   0.603  12.962  0.3935 -0.8756 -0.3228
  404TMC3    C6 6087   1.968   0.540  13.069 -0.2158 -0.5343  0.6602
  404TMC3     C 6088   2.253   0.805  13.150  0.1725 -0.3296 -0.4652
  404TMC3     O 6089   2.277   0.859  13.258  0.3339  0.2759  0.4259
  404TMC3     H 6090   2.069   0.755  13.313 -0.2051  3.0082 -0.7632
  404TMC3    H1 6091   2.165   0.760  12.908 -0.0306  2.2707  1.5550
  404TMC3    H2 6092   1.908   0.450  13.059 -1.6274  0.6667 -1.4812
  404TMC3    C7 6093   2.040   0.539  12.840 -0.1977  0.4094 -0.2781
  404TMC3    C8 6094   1.981   0.511  13.305 -0.3590 -0.0715 -0.0947
  404TMC3    O1 6095   2.136   0.566  12.773 -0.0985  0.1770 -0.2661
  404TMC3    O2 6096   1.983   0.391  13.273 -0.1574  0.1942 -0.4551
  405MPD2     C 6097   2.879   1.290  14.375  0.0974  0.6663 -0.6666
  405MPD2    C1 6098   2.860   1.329  14.245  0.4791  0.4747  0.4374
  405MPD2    C2 6099   2.893   1.461  14.219 -0.1175  0.1359 -0.7472
  405MPD2    C3 6100   2.938   1.555  14.314 -0.4563  0.1391 -0.7983
  405MPD2    C4 6101   2.952   1.513  14.439 -0.1741  0.0225  0.1180
  405MPD2    C5 6102   2.930   1.379  14.468 -0.6486  0.6957 -0.1372
  405MPD2     H 6103   2.880   1.497  14.117  2.9070 -0.3666 -1.3238
  405MPD2    H1 6104   2.973   1.579  14.522  0.8069  0.8999 -0.8337
  405MPD2    H2 6105   2.864   1.187  14.404  0.0964  1.1282  0.9858
  405MPD2    H3 6106   2.942   1.336  14.567  2.2585 -0.7992 -1.1362
  405MPD2     N 6107   2.952   1.688  14.275 -0.6517 -0.0390 -0.2774
  405MPD2    H5 6108   2.929   1.696  14.176  1.0711  3.4244 -0.3809
  405MPD2    N1 6109   2.809   1.238  14.152 -0.3960  0.1675  0.2084
  405MPD2    H7 6110   2.786   1.147  14.192 -0.3235 -0.6364 -1.6032
  406TMC3    C1 6111   2.807   2.121  14.327  0.1747 -0.5386 -0.2399
  406TMC3    C2 6112   2.747   2.123  14.206 -0.4808  0.5526 -0.1382
  406TMC3    C3 6113   2.779   2.017  14.121 -0.4200 -0.5111  0.0301
  406TMC3    C4 6114   2.884   2.023  14.381 -0.1170  0.2068  0.3463
  406TMC3    C5 6115   2.926   1.927  14.290 -0.4326 -0.1183  0.6223
  406TMC3    C6 6116   2.875   1.923  14.163 -0.2554  0.0426 -0.5003
  406TMC3     C 6117   2.753   2.219  14.404 -0.0326  0.4142 -0.2105
  406TMC3     O 6118   2.833   2.302  14.448  0.0116 -0.1284  0.0205
  406TMC3     H 6119   2.674   2.200  14.184 -1.3233 -0.0204  0.6139
  406TMC3    H1 6120   2.932   2.021  14.478 -0.1163 -1.0204  0.3241
  406TMC3    H2 6121   2.917   1.852  14.092 -1.9622 -0.7825 -0.6895
  406TMC3    C7 6122   2.972   1.800  14.357  0.5017  0.0354  0.1292
  406TMC3    C8 6123   2.678   1.979  14.023  0.4451 -0.2790 -0.6040
  406TMC3    O1 6124   3.002   1.803  14.479  0.7440 -0.5611  0.3387
  406TMC3    O2 6125   2.588   2.059  13.993 -0.0932 -0.0862 -0.0657
  407MPD2     C 6126   4.423   2.235   9.660 -0.1530  0.4517 -0.7007
  407MPD2    C1 6127   4.521   2.271   9.751 -0.0559  0.5209  0.2741
  407MPD2    C2 6128   4.502   2.382   9.837 -0.1177 -0.3403  0.1139
  407MPD2    C3 6129   4.395   2.467   9.806 -0.1220  0.1049 -0.2571
  407MPD2    C4 6130   4.302   2.425   9.714  0.1606 -0.5962 -0.6866
  407MPD2    C5 6131   4.312   2.313   9.644 -0.6238  0.4497  0.5611
  407MPD2     H 6132   4.573   2.401   9.917 -1.4398 -0.0220  1.2110
  407MPD2    H1 6133   4.209   2.479   9.702  1.0310  1.0776  0.1536
  407MPD2    H2 6134   4.421   2.140   9.608 -0.9883  0.9808 -1.6361
  407MPD2    H3 6135   4.237   2.278   9.575 -0.2476  1.1872 -0.2193
  407MPD2     N 6136   4.382   2.595   9.869  1.1476 -0.2872 -0.3980
  407MPD2    H5 6137   4.313   2.658   9.829  0.1810 -0.9219  0.2535
  407MPD2    N1 6138   4.629   2.181   9.772 -0.6178  0.1269 -0.0811
  407MPD2    H7 6139   4.700   2.206   9.841  1.3745 -2.0370 -1.3401
  408TMC3    C1 6140   0.060   2.041   9.686  0.3334  0.4486  0.2360
  408TMC3    C2 6141   0.141   2.144   9.695 -0.2235 -0.1978 -0.0466
  408TMC3    C3 6142   0.275   2.129   9.673  0.1367  0.4406  0.6279
  408TMC3    C4 6143   0.106   1.920   9.641 -0.0978  0.1971 -0.7654
  408TMC3    C5 6144   0.240   1.901   9.623 -0.0509  0.5652  0.2149
  408TMC3    C6 6145   0.324   2.010   9.647  0.7176 -0.3587  0.5821
  408TMC3     C 6146   4.657   2.072   9.686  0.4900  0.1716 -0.3398
  408TMC3     O 6147   4.585   1.987   9.636  0.2875 -0.2746 -0.0691
  408TMC3     H 6148   0.104   2.242   9.720  1.8713  0.4595  0.5158
  408TMC3    H1 6149   0.034   1.839   9.634  1.8281 -1.5186 -0.6807
  408TMC3    H2 6150   0.432   2.004   9.631  0.4828  0.8865 -1.5747
  408TMC3    C7 6151   0.286   1.769   9.627  0.5267 -0.2703  0.6821
  408TMC3    C8 6152   0.368   2.217   9.736  0.0753 -0.1641 -0.7219
  408TMC3    O1 6153   0.200   1.681   9.633 -0.0276  0.3756  0.3277
  408TMC3    O2 6154   0.458   2.159   9.792  0.4935  0.1712 -0.4385
  409MPD2     C 6155   4.641   3.701  16.530 -0.1076  0.3062  0.0048
  409MPD2    C1 6156   4.603   3.698  16.666 -0.4223 -0.0031  0.2558
  409MPD2    C2 6157   4.599   3.817  16.738  0.0188 -0.3176  0.2701
  409MPD2    C3 6158   4.638   3.940  16.679 -0.0542 -0.0459  0.4600
  409MPD2    C4 6159   4.650   3.937  16.541 -0.2744 -0.2121 -0.6342
  409MPD2    C5 6160   4.661   3.821  16.468 -0.5265  0.0114 -0.0885
  409MPD2     H 6161   4.580   3.826  16.844  0.7387 -1.9410  0.5364
  409MPD2    H1 6162   4.674   4.034  16.498  0.1185 -0.1196 -0.2075
  409MPD2    H2 6163   4.652   3.615  16.465  1.0563  1.1516 -0.9097
  409MPD2    H3 6164   4.665   3.827  16.360 -0.6389  0.7817 -0.0473
  409MPD2     N 6165   4.646   4.070  16.742 -0.3738  0.2209 -0.0281
  409MPD2    H5 6166   4.687   4.144  16.685 -1.5604  2.3504  1.8936
  409MPD2    N1 6167   4.568   3.579  16.742 -0.0387 -0.3185 -0.3704
  409MPD2    H7 6168   4.554   3.588  16.842 -0.8899  1.2378 -0.6377
  410TMC3    C1 6169   4.697   4.222  16.900 -0.1570 -0.4952  0.7875
  410TMC3    C2 6170   0.064   4.198  16.988  0.4832  0.3323  0.1064
  410TMC3    C3 6171   0.173   4.279  16.959 -0.8039 -0.6607 -0.3314
  410TMC3    C4 6172   4.697   4.313  16.796 -0.9009  0.8418 -0.1579
  410TMC3    C5 6173   0.076   4.387  16.780 -0.0992  0.2116  1.3594
  410TMC3    C6 6174   0.180   4.378  16.865 -0.4597  0.0677 -0.7018
  410TMC3     C 6175   4.637   4.099  16.872  0.3085  0.2696 -0.5182
  410TMC3     O 6176   4.615   4.021  16.960  0.6609  0.5479 -0.2258
  410TMC3     H 6177   0.076   4.113  17.053 -0.7232 -0.4814 -0.7426
  410TMC3    H1 6178   4.607   4.328  16.736 -0.9257  3.4693  0.5352
  410TMC3    H2 6179   0.268   4.440  16.850 -0.4668 -0.3258 -2.3281
  410TMC3    C7 6180   0.093   4.469  16.659  0.2043 -0.2270 -0.6899
  410TMC3    C8 6181   0.292   4.263  17.048 -0.0644 -0.3285  0.1348
  410TMC3    O1 6182   0.019   4.439  16.567  0.1336  0.1173 -0.3384
  410TMC3    O2 6183   0.366   4.355  17.075 -0.7845  0.0349 -0.2774
  411MPD2     C 6184   0.295   4.726  14.666 -0.5719  0.4709 -0.2588
  411MPD2    C1 6185   0.214   4.684  14.768  0.1666 -0.2360  0.3947
  411MPD2    C2 6186   0.121   4.581  14.748  0.1315  0.2564 -0.1387
  411MPD2    C3 6187   0.128   4.512  14.629 -0.0709 -0.2701  0.0021
  411MPD2    C4 6188   0.206   4.557  14.521  0.5396 -0.3213  0.2822
  411MPD2    C5 6189   0.287   4.662  14.546  0.4624 -0.0778 -0.1357
  411MPD2     H 6190   0.041   4.550  14.813  0.8429 -0.6301  0.3205
  411MPD2    H1 6191   0.228   4.491  14.437  0.9140 -0.1986  0.2811
  411MPD2    H2 6192   0.354   0.075  14.686 -0.0674  0.0064  0.3142
  411MPD2    H3 6193   0.359   4.700  14.475  0.2937  1.3879  0.4744
  411MPD2     N 6194   0.043   4.400  14.594  0.1135  0.4118 -0.1315
  411MPD2    H5 6195   0.032   4.386  14.494 -2.4143  1.1122  0.0275
  411MPD2    N1 6196   0.210   0.026  14.890 -0.0950  0.2127  0.1909
  411MPD2    H7 6197   0.253   0.118  14.886  1.0653 -0.3322 -0.0489
  412TMC3    C1 6198   4.638   4.208  14.633 -0.4001 -0.4931 -0.2563
  412TMC3    C2 6199   4.574   4.112  14.708 -0.0648 -0.3324  0.8435
  412TMC3    C3 6200   4.503   4.011  14.645  0.0264  0.6677  0.2416
  412TMC3    C4 6201   4.626   4.214  14.494  0.1698 -0.1863 -0.3008
  412TMC3    C5 6202   4.584   4.104  14.444 -0.3214  0.2745 -0.6112
  412TMC3    C6 6203   4.527   3.994  14.512  0.4921 -0.0097  0.6467
  412TMC3     C 6204   4.725   4.309  14.686  0.5141  0.2350 -0.3447
  412TMC3     O 6205   4.739   4.303  14.805  0.0066 -0.0429  0.1721
  412TMC3     H 6206   4.561   4.130  14.814  1.1394  0.4373  0.8627
  412TMC3    H1 6207   4.634   4.305  14.435  3.3679  0.1288  0.6137
  412TMC3    H2 6208   4.504   3.902  14.461  1.2475  0.2786 -0.2170
  412TMC3    C7 6209   4.517   4.124  14.322  0.9737  0.4952 -0.4759
  412TMC3    C8 6210   4.362   4.015  14.677  0.0785  0.0394 -0.5197
  412TMC3    O1 6211   4.428   4.044  14.307 -0.3314 -0.4088  0.1776
  412TMC3    O2 6212   4.326   4.012  14.793 -0.4693  0.0064  0.3206
  413MPD2     C 6213   1.462   2.473  15.516 -0.1398 -0.6431  0.5274
  413MPD2    C1 6214   1.453   2.532  15.393 -0.4219 -0.4062  0.3852
  413MPD2    C2 6215   1.545   2.482  15.299  0.1091 -0.2746 -0.2245
  413MPD2    C3 6216   1.636   2.386  15.333 -0.6778  1.0640 -0.4667
  413MPD2    C4 6217   1.651   2.331  15.461 -0.2950 -0.3500  0.2892
  413MPD2    C5 6218   1.557   2.376  15.550 -0.4993 -0.2225  0.3434
  413MPD2     H 6219   1.555   2.530  15.203 -0.8527 -0.9425 -0.6633
  413MPD2    H1 6220   1.723   2.255  15.489  0.4094 -0.1977 -1.1247
  413MPD2    H2 6221   1.396   2.509  15.595  0.0206 -0.2378  0.4800
  413MPD2    H3 6222   1.564   2.332  15.649  0.1464 -1.4816 -0.2675
  413MPD2     N 6223   1.708   2.340  15.221 -0.1414  0.3299  0.0213
  413MPD2    H5 6224   1.678   2.376  15.131  2.3868  1.2278 -0.4615
  413MPD2    N1 6225   1.352   2.636  15.372 -0.6797 -0.1310 -0.6242
  413MPD2    H7 6226   1.289   2.653  15.449  0.7174 -0.7893  0.6568
  414TMC3    C1 6227   1.881   2.206  15.111 -0.1693  0.3393  1.0706
  414TMC3    C2 6228   1.925   2.077  15.072  0.2931  0.7319  0.1058
  414TMC3    C3 6229   1.981   2.070  14.942 -0.0436 -0.1953 -0.5846
  414TMC3    C4 6230   1.900   2.316  15.033 -0.5527  0.4187  0.5657
  414TMC3    C5 6231   1.959   2.296  14.911  0.5500  0.1056 -0.0656
  414TMC3    C6 6232   1.999   2.175  14.864 -0.3570  0.2942 -0.2004
  414TMC3     C 6233   1.794   2.228  15.225 -0.2075  0.8960  1.0249
  414TMC3     O 6234   1.804   2.135  15.303  0.8451 -0.6049 -0.3910
  414TMC3     H 6235   1.928   2.001  15.150 -1.2891  0.6067  0.0396
  414TMC3    H1 6236   1.873   2.413  15.072 -1.0224  0.7451 -0.5856
  414TMC3    H2 6237   2.007   2.157  14.758  3.1386  0.2209  0.0531
  414TMC3    C7 6238   2.054   2.386  14.873  0.2828  0.2164 -0.1238
  414TMC3    C8 6239   2.100   1.990  14.932  0.1225 -0.0622 -0.7466
  414TMC3    O1 6240   2.155   2.346  14.819 -0.1459 -0.0257 -0.4175
  414TMC3    O2 6241   2.094   1.875  14.967 -0.1211  0.4743 -0.3269
  415TMC3    C1 6242   1.938   4.290   9.933 -0.1864 -0.6703  0.6065
  415TMC3    C2 6243   1.901   4.422   9.908  0.0506 -0.1928  0.3936
  415TMC3    C3 6244   1.762   4.435   9.884  0.8486  0.3985 -0.1513
  415TMC3    C4 6245   1.851   4.182   9.954 -0.7472 -0.3633 -0.0346
  415TMC3    C5 6246   1.719   4.206   9.937  0.0651 -0.7622 -0.8823
  415TMC3    C6 6247   1.677   4.329   9.892 -0.2631 -0.4058  0.5086
  415TMC3     C 6248   2.073   4.274   9.977 -0.4773 -0.2675 -0.1658
  415TMC3     O 6249   2.124   4.364  10.049 -0.1183  0.1220  0.0122
  415TMC3     H 6250   1.976   4.487   9.865  0.7593 -0.6072  1.0116
  415TMC3    H1 6251   1.881   4.081   9.979 -1.6177 -0.6098  0.0365
  415TMC3    H2 6252   1.573   4.339   9.863  0.2333  2.8274 -0.0871
  415TMC3    C7 6253   1.634   4.089   9.923 -0.2229  0.0529  0.0009
  415TMC3    C8 6254   1.718   4.552   9.807 -0.0128  1.0646 -0.0027
  415TMC3    O1 6255   1.537   4.097   9.847 -0.0623  0.2134  0.1893
  415TMC3    O2 6256   1.631   4.531   9.723  0.1623  0.1653 -0.1185
  416MPD2     C 6257   4.063   3.635  11.449 -0.2142  0.0820 -0.4340
  416MPD2    C1 6258   3.935   3.641  11.400  0.8368 -0.1468 -0.1101
  416MPD2    C2 6259   3.908   3.554  11.299  0.6536  0.4865  0.8258
  416MPD2    C3 6260   3.996   3.449  11.261 -0.4527  0.7103 -0.4486
  416MPD2    C4 6261   4.119   3.451  11.320 -0.4464  0.1521  0.5948
  416MPD2    C5 6262   4.160   3.549  11.405  0.3151  0.2645 -0.0609
  416MPD2     H 6263   3.812   3.559  11.247  0.0317 -1.4573  1.8040
  416MPD2    H1 6264   4.193   3.382  11.281  0.6663  1.1730  0.9247
  416MPD2    H2 6265   4.084   3.704  11.530 -1.3019  0.0357 -0.1205
  416MPD2    H3 6266   4.257   3.542  11.452  1.4321  2.4001 -2.0446
  416MPD2     N 6267   3.968   3.331  11.189 -0.3383  0.1731 -0.4235
  416MPD2    H5 6268   4.053   3.289  11.154 -0.8175 -1.8875  0.8641
  416MPD2    N1 6269   3.837   3.716  11.467  0.2774 -0.0737 -0.2295
  416MPD2    H7 6270   3.854   3.753  11.559  0.1641 -0.3697 -0.0892
  417TMC3    C1 6271   3.642   3.846  11.469  0.0048  0.3924 -0.3888
  417TMC3    C2 6272   3.655   3.859  11.607  0.4712 -0.5366  0.2832
  417TMC3    C3 6273   3.565   3.943  11.669 -0.1851  0.2870 -0.3083
  417TMC3    C4 6274   3.572   3.937  11.390 -0.0211 -0.1696 -0.4735
  417TMC3    C5 6275   3.480   4.011  11.456  0.5154 -0.3016  0.2514
  417TMC3    C6 6276   3.478   4.019  11.591  0.0787  0.1495  0.0984
  417TMC3     C 6277   3.725   3.754  11.399  0.2489 -0.5681  0.2207
  417TMC3     O 6278   3.706   3.754  11.277  0.0238 -0.4920 -0.6081
  417TMC3     H 6279   3.711   3.786  11.664  1.6446 -0.2296 -0.4907
  417TMC3    H1 6280   3.563   3.921  11.283 -1.4067 -1.1526 -0.2065
  417TMC3    H2 6281   3.394   4.064  11.644 -0.9628 -0.6643 -0.8452
  417TMC3    C7 6282   3.385   4.090  11.375  0.2241 -0.4426 -0.4614
  417TMC3    C8 6283   3.578   3.977  11.809 -0.3391  0.5984 -0.6818
  417TMC3    O1 6284   3.409   4.096  11.257 -0.9113 -0.3702  0.2297
  417TMC3    O2 6285   3.481   4.031  11.866 -0.0052  0.2940 -0.0457
  418TMC3    C1 6286   2.624   1.778   0.584  0.3922  0.2697  0.9875
  418TMC3    C2 6287   2.609   1.696   0.480 -0.9457 -0.3945 -0.1010
  418TMC3    C3 6288   2.528   1.588   0.481  0.4033 -0.1555 -0.6064
  418TMC3    C4 6289   2.552   1.767   0.702  1.1563  0.9210  0.2310
  418TMC3    C5 6290   2.483   1.651   0.710  0.5207  0.6035  0.4286
  418TMC3    C6 6291   2.464   1.567   0.597 -0.7352 -0.1929  0.5012
  418TMC3     C 6292   2.751   1.843   0.606 -0.0343 -0.3111 -0.3377
  418TMC3     O 6293   2.763   1.919   0.700  0.2692  0.3224 -0.7036
  418TMC3     H 6294   2.662   1.719   0.389  0.0856 -1.5750  0.1972
  418TMC3    H1 6295   2.583   1.823   0.791  3.2424 -0.6060  0.4750
  418TMC3    H2 6296   2.400   1.480   0.605  0.6129 -1.2596 -0.2548
  418TMC3    C7 6297   2.549   1.576   0.818  0.1784  0.1479  0.1121
  418TMC3    C8 6298   2.481   1.546   0.350  0.2459 -0.7776 -0.0253
  418TMC3    O1 6299   2.577   1.629   0.922 -0.4751  0.0379  0.3231
  418TMC3    O2 6300   2.459   1.644   0.281 -0.0037  0.0209  0.5444
  419MPD2     C 6301   1.320   4.467  12.684  0.1719 -0.5598 -0.2029
  419MPD2    C1 6302   1.210   4.448  12.764  0.7179 -0.0811 -0.4045
  419MPD2    C2 6303   1.198   4.536  12.870 -0.5824  0.0524  0.4566
  419MPD2    C3 6304   1.284   4.635  12.896  0.5955 -0.4450  0.4433
  419MPD2    C4 6305   1.392   4.652  12.811 -0.2893  0.2264  0.7868
  419MPD2    C5 6306   1.409   4.570  12.702  1.0531  0.1268  0.1451
  419MPD2     H 6307   1.113   4.529  12.937 -1.4033  0.5103 -0.5462
  419MPD2    H1 6308   1.451   0.003  12.819  1.3795 -0.6701 -1.3306
  419MPD2    H2 6309   1.324   4.405  12.595  0.1531 -0.1221 -0.5107
  419MPD2    H3 6310   1.487   4.592  12.630  1.6974  2.3844  1.5055
  419MPD2     N 6311   1.243   4.722  13.000  0.0844  0.2685 -0.1930
  419MPD2    H5 6312   1.153   4.710  13.045  1.7984 -1.3628  2.8370
  419MPD2    N1 6313   1.118   4.337  12.757  0.7256 -0.3287  0.8566
  419MPD2    H7 6314   1.030   4.345  12.808  0.5568 -1.4719  0.7507
  420TMC3    C1 6315   1.251   0.157  13.162 -0.2126 -0.2046 -0.0835
  420TMC3    C2 6316   1.119   0.188  13.143 -0.3110 -0.4261  0.1259
  420TMC3    C3 6317   1.035   0.209  13.247 -0.1884 -0.0925 -1.1473
  420TMC3    C4 6318   1.300   0.163  13.290  0.0992 -0.2780 -0.0825
  420TMC3    C5 6319   1.217   0.197  13.396  0.1446  0.6024  0.4797
  420TMC3    C6 6320   1.084   0.225  13.378 -0.2982  0.4297  0.2622
  420TMC3     C 6321   1.316   0.093  13.046  0.4753  0.5140  0.1419
  420TMC3     O 6322   1.437   0.120  13.035  0.4135  0.4339 -0.1073
  420TMC3     H 6323   1.093   0.190  13.037 -0.0567 -1.5770  0.0452
  420TMC3    H1 6324   1.394   0.111  13.306 -0.3558 -1.0692 -0.0342
  420TMC3    H2 6325   1.014   0.241  13.460 -0.7622  1.3265 -0.3009
  420TMC3    C7 6326   1.250   0.134  13.525 -0.0526  0.2201 -0.4275
  420TMC3    C8 6327   0.898   0.250  13.217  0.8787 -0.7225 -0.1101
  420TMC3    O1 6328   1.307   0.028  13.516  0.6594  0.5853  0.0342
  420TMC3    O2 6329   0.872   0.304  13.112 -0.1264 -0.7004 -0.6409
  421TMC3    C1 6330   2.930   0.877  13.458 -0.4224  1.1213 -0.1442
  421TMC3    C2 6331   2.905   1.011  13.437 -0.2000 -0.2304  0.2806
  421TMC3    C3 6332   2.985   1.096  13.514 -0.2908  0.8987 -0.2219
  421TMC3    C4 6333   3.024   0.830  13.548 -0.6471  0.1659  0.1647
  421TMC3    C5 6334   3.098   0.921  13.614 -0.3375 -0.2504 -0.7774
  421TMC3    C6 6335   3.079   1.050  13.595 -0.3081  0.4068  0.0254
  421TMC3     C 6336   2.869   0.787  13.369  0.3625  0.2131  0.1300
  421TMC3     O 6337   2.927   0.681  13.359  0.1147 -0.2597  0.7459
  421TMC3     H 6338   2.845   1.047  13.354 -0.0990  2.1804  1.2343
  421TMC3    H1 6339   3.051   0.725  13.551 -1.0059  0.1346  2.3887
  421TMC3    H2 6340   3.128   1.118  13.664  1.0082 -0.8470  0.3279
  421TMC3    C7 6341   3.191   0.880  13.714  0.5266  0.5191 -0.2855
  421TMC3    C8 6342   2.944   1.233  13.529  0.4027  0.0720 -0.1249
  421TMC3    O1 6343   3.264   0.965  13.761 -0.4476 -0.2994 -0.2709
  421TMC3    O2 6344   3.024   1.316  13.572  0.2968 -0.6440  0.8152
  422TMC3    C1 6345   0.272   2.336  12.512 -0.3639 -0.0766  0.0307
  422TMC3    C2 6346   0.285   2.432  12.609 -0.3665 -0.0905 -0.3805
  422TMC3    C3 6347   0.203   2.419  12.720 -0.0589 -0.4186 -0.5203
  422TMC3    C4 6348   0.198   2.225  12.520 -0.0331  0.1966  0.1789
  422TMC3    C5 6349   0.124   2.215  12.634  0.1093  0.4483  0.8612
  422TMC3    C6 6350   0.123   2.309  12.741 -0.2859  0.0430  0.2388
  422TMC3     C 6351   0.345   2.363  12.389 -0.2078  0.2191 -0.0815
  422TMC3     O 6352   0.444   2.432  12.396  0.0899 -0.1317 -0.4111
  422TMC3     H 6353   0.356   2.513  12.599  0.7062 -1.0704 -0.7686
  422TMC3    H1 6354   0.192   2.145  12.447  2.2146 -2.3088  2.7144
  422TMC3    H2 6355   0.047   2.303  12.817 -0.6268  1.4475  0.0072
  422TMC3    C7 6356   0.029   2.102  12.651  0.6133 -0.6648 -0.4528
  422TMC3    C8 6357   0.183   2.540  12.798  1.3449 -0.0835  0.3512
  422TMC3    O1 6358   0.050   2.010  12.572 -0.4893  0.1340  0.0622
  422TMC3    O2 6359   0.226   2.642  12.744  0.0198  0.0115 -0.2035
  423MPD2     C 6360   1.069   3.356   0.504  0.8771 -0.4978  0.2569
  423MPD2    C1 6361   1.180   3.280   0.547  0.2887 -0.1062 -0.0760
  423MPD2    C2 6362   1.238   3.202   0.451 -0.3813 -0.2682 -0.2504
  423MPD2    C3 6363   1.195   3.200   0.321  0.2494  0.3118 -0.2651
  423MPD2    C4 6364   1.101   3.286   0.278  0.5321 -0.0568  0.3859
  423MPD2    C5 6365   1.033   3.359   0.373 -0.6203 -0.8413  0.4889
  423MPD2     H 6366   1.308   3.132   0.494  1.7053  1.6417 -0.5403
  423MPD2    H1 6367   1.069   3.299   0.176 -2.8747 -1.2677  1.3009
  423MPD2    H2 6368   1.008   3.406   0.578 -0.4671 -0.8723 -0.6060
  423MPD2    H3 6369   0.948   3.419   0.343  1.7093  1.9019 -0.5902
  423MPD2     N 6370   1.250   3.105   0.228  0.0407  0.6570 -0.2977
  423MPD2    H5 6371   1.252   3.131   0.130 -0.8719  2.4911  0.1594
  423MPD2    N1 6372   1.230   3.278   0.678  0.7698 -0.1702 -0.4211
  423MPD2    H7 6373   1.321   3.236   0.693  0.8731  0.0155 -0.5340
  424TMC3    C1 6374   1.245   3.307   0.910  0.1618 -0.4283  0.0472
  424TMC3    C2 6375   1.323   3.197   0.917 -0.3669  0.6354  0.0787
  424TMC3    C3 6376   1.359   3.149   1.042  0.6183  0.6915 -0.7054
  424TMC3    C4 6377   1.202   3.374   1.018  0.7468  0.6600  0.2236
  424TMC3    C5 6378   1.245   3.323   1.136  0.4764 -0.3457  0.0618
  424TMC3    C6 6379   1.337   3.222   1.152  1.1577  0.6067  0.1455
  424TMC3     C 6380   1.167   3.327   0.792 -0.3157 -0.6493  0.5282
  424TMC3     O 6381   1.062   3.388   0.809 -0.0730 -0.0839  0.7327
  424TMC3     H 6382   1.355   3.154   0.823  0.2459 -0.0632  0.6113
  424TMC3    H1 6383   1.131   3.455   1.008 -1.0352 -1.1306 -1.5551
  424TMC3    H2 6384   1.348   3.178   1.250  1.4307  2.0490  0.7597
  424TMC3    C7 6385   1.182   3.378   1.252 -0.0199  0.3291  0.7311
  424TMC3    C8 6386   1.468   3.054   1.055  0.1860 -0.3409  0.0615
  424TMC3    O1 6387   1.232   3.342   1.357 -0.0653 -0.6890  0.0857
  424TMC3    O2 6388   1.475   2.960   0.979 -0.4074  0.3266  0.4631
  425MPD2     C 6389   0.916   2.472  17.123 -0.4422  0.6937  0.4059
  425MPD2    C1 6390   0.826   2.410  17.207  0.3917  0.0415 -0.4395
  425MPD2    C2 6391   0.749   2.476  17.299  0.0683 -0.2228 -0.6599
  425MPD2    C3 6392   0.772   2.613  17.316 -0.0469 -0.1880  0.6559
  425MPD2    C4 6393   0.864   2.674  17.237 -0.7610  0.0056  0.0320
  425MPD2    C5 6394   0.935   2.606  17.141 -0.0632  0.6488  0.0062
  425MPD2     H 6395   0.680   2.418  17.360 -0.0168 -0.1502 -0.6884
  425MPD2    H1 6396   0.874   2.782  17.247  0.8505 -0.2114  0.8157
  425MPD2    H2 6397   0.982   2.420  17.055 -0.8075 -2.0037  2.1328
  425MPD2    H3 6398   1.013   2.658  17.088  0.4739 -1.4766 -1.2799
  425MPD2     N 6399   0.694   2.675  17.416  0.1120 -0.0750 -0.0211
  425MPD2    H5 6400   0.629   2.612  17.462 -0.5341  0.7013  0.1216
  425MPD2    N1 6401   0.824   2.270  17.195 -0.1328  0.1226 -0.1273
  425MPD2    H7 6402   0.886   2.230  17.126  0.4462 -1.2889  1.2122
  426TMC3    C1 6403   0.787   2.034  17.233 -0.0052  0.1573  0.3220
  426TMC3    C2 6404   0.895   2.007  17.157 -1.3026 -0.1110 -0.6332
  426TMC3    C3 6405   0.915   1.877  17.119  0.7289  0.3444 -0.4519
  426TMC3    C4 6406   0.699   1.935  17.264  0.2423 -0.1562  0.3450
  426TMC3    C5 6407   0.729   1.802  17.237 -0.3748 -0.1102 -0.3620
  426TMC3    C6 6408   0.836   1.772  17.155 -0.3246 -0.1067  0.1930
  426TMC3     C 6409   0.749   2.173  17.268  0.6006 -0.4232 -0.2265
  426TMC3     O 6410   0.668   2.191  17.362 -0.5365 -0.1297 -0.1637
  426TMC3     H 6411   0.966   2.085  17.133 -0.3371 -0.1664  2.0483
  426TMC3    H1 6412   0.609   1.968  17.313 -0.0354 -1.3491  0.6492
  426TMC3    H2 6413   0.855   1.670  17.124 -0.1797  0.6324 -2.1195
  426TMC3    C7 6414   0.644   1.689  17.278 -0.3171 -0.1690 -0.2243
  426TMC3    C8 6415   0.995   1.854  17.003 -0.9389 -0.6968  0.5305
  426TMC3    O1 6416   0.645   1.575  17.218 -0.2818 -0.3168 -0.7965
  426TMC3    O2 6417   1.042   1.741  16.994 -0.0478 -0.6847  0.2644
  427MPD2     C 6418   3.985   0.034  15.021  0.0447  0.3412 -0.3151
  427MPD2    C1 6419   3.926   4.684  15.118 -0.8229  0.4646  0.1925
  427MPD2    C2 6420   3.787   4.680  15.127 -0.3495 -0.1294  0.1399
  427MPD2    C3 6421   3.708   0.018  15.042 -0.1276  0.2347  0.2622
  427MPD2    C4 6422   3.767   0.103  14.955 -0.0668  0.4460 -0.2860
  427MPD2    C5 6423   3.900   0.118  14.952 -0.0949 -0.6418 -0.3889
  427MPD2     H 6424   3.744   4.616  15.204 -0.6328  0.2371  0.2812
  427MPD2    H1 6425   3.706   0.169  14.893 -1.4082  0.3208  0.8937
  427MPD2    H2 6426   4.092   0.040  15.009  0.2183 -2.4499 -0.3644
  427MPD2    H3 6427   3.933   0.200  14.890  0.2862  0.4267  1.2403
  427MPD2     N 6428   3.563   0.017  15.055  0.3846  0.1615  0.7035
  427MPD2    H5 6429   3.513   0.073  14.987 -1.3400  0.4520  2.1969
  427MPD2    N1 6430   3.995   4.591  15.197  0.3944  0.4402 -0.2256
  427MPD2    H7 6431   3.944   4.529  15.258 -3.5479  0.7499 -3.2032
  428TMC3    C1 6432   4.192   4.478  15.251 -0.0420  0.1538 -0.5132
  428TMC3    C2 6433   4.131   4.361  15.226 -0.3406 -0.0847 -0.0414
  428TMC3    C3 6434   4.192   4.243  15.262  0.2841 -0.4958  0.2717
  428TMC3    C4 6435   4.315   4.484  15.305  0.2756  0.6849  0.6890
  428TMC3    C5 6436   4.377   4.367  15.343  0.3819  0.1493 -0.5487
  428TMC3    C6 6437   4.319   4.239  15.320 -0.1991 -0.1598  0.9345
  428TMC3     C 6438   4.124   4.603  15.220  0.3820 -0.4265 -0.8406
  428TMC3     O 6439   4.200   4.701  15.213 -0.5334  0.5238  0.6586
  428TMC3     H 6440   4.028   4.359  15.192  0.2046 -0.4566 -1.6849
  428TMC3    H1 6441   4.364   4.579  15.322 -2.0671  1.6572  1.9348
  428TMC3    H2 6442   4.377   4.149  15.338 -0.3908 -0.6758 -1.1036
  428TMC3    C7 6443   4.480   4.378  15.442  0.4696  0.4711 -0.0880
  428TMC3    C8 6444   4.132   4.126  15.209 -0.5462 -0.6509  0.3999
  428TMC3    O1 6445   4.474   4.295  15.531  0.4088 -0.2099 -0.6804
  428TMC3    O2 6446   4.041   4.149  15.131 -0.1396 -0.2700  0.0090
  429MPD2     C 6447   4.408   4.216   0.067  0.0035 -0.2001 -0.0043
  429MPD2    C1 6448   4.511   4.175  17.737 -0.1206 -0.4713 -0.2436
  429MPD2    C2 6449   4.566   4.262  17.642 -1.0094  0.3493 -0.1252
  429MPD2    C3 6450   4.530   4.397  17.650 -0.2647  0.2893 -0.4201
  429MPD2    C4 6451   4.447   4.433  17.749 -0.5032 -0.0910  0.0242
  429MPD2    C5 6452   4.390   4.347   0.084  0.7226  0.4471  0.8913
  429MPD2     H 6453   4.626   4.228  17.558 -3.2619 -1.8279 -0.8290
  429MPD2    H1 6454   4.444   4.536   0.029 -0.4480  0.1264 -0.6364
  429MPD2    H2 6455   4.349   4.161   0.140 -2.2355  0.5849 -1.2262
  429MPD2    H3 6456   4.319   4.383   0.157  1.0358 -0.3991  1.6289
  429MPD2     N 6457   4.588   4.489  17.558  0.1116  0.2413  0.3098
  429MPD2    H5 6458   4.653   4.449  17.491  1.5891  3.4539 -0.1913
  429MPD2    N1 6459   4.547   4.044  17.735 -0.2804 -0.5961  0.0186
  429MPD2    H7 6460   4.615   4.011  17.667 -2.6966  0.5307 -2.9600
  430TMC3    C1 6461   4.664   4.692  17.463  0.3257 -0.5609 -0.2847
  430TMC3    C2 6462   4.635   0.083  17.424  0.2101  0.3940 -0.0598
  430TMC3    C3 6463   4.737   0.164  17.395 -1.0256 -0.9257  0.3252
  430TMC3    C4 6464   0.055   4.647  17.474  1.0717 -0.2601 -0.2718
  430TMC3    C5 6465   0.155   4.731  17.436  0.0908 -0.5259  0.9119
  430TMC3    C6 6466   0.131   0.123  17.398  0.5177 -0.1862 -0.6775
  430TMC3     C 6467   4.562   4.624  17.543 -0.8502 -0.8667 -0.4910
  430TMC3     O 6468   4.474   4.693  17.598  0.0141  0.2019  0.6640
  430TMC3     H 6469   4.533   0.118  17.434 -0.5961 -1.7614 -0.7319
  430TMC3    H1 6470   0.087   4.554  17.520  1.3803 -1.4455 -2.8575
  430TMC3    H2 6471   0.207   0.184  17.351  1.6998 -1.3234 -0.2563
  430TMC3    C7 6472   0.276   4.671  17.398  0.4590 -0.5442 -0.8737
  430TMC3    C8 6473   4.720   0.272  17.299  1.1557 -0.1879  0.5455
  430TMC3    O1 6474   0.265   4.549  17.403 -0.0034  0.2353 -0.1213
  430TMC3    O2 6475   0.083   0.329  17.267 -0.0415 -0.1739 -0.5323
  431MPD2     C 6476   0.851   4.725  12.850  0.1001  0.3992 -0.8789
  431MPD2    C1 6477   0.880   4.666  12.727 -0.4509 -0.4216 -0.1475
  431MPD2    C2 6478   0.820   4.546  12.692  0.2959 -0.7616  0.0857
  431MPD2    C3 6479   0.735   4.490  12.785  0.6510 -0.1196  0.3217
  431MPD2    C4 6480   0.710   4.550  12.903  0.0770 -0.1576  0.9633
  431MPD2    C5 6481   0.763   4.674  12.934  0.7161  0.2371  0.0946
  431MPD2     H 6482   0.836   4.512  12.590  0.3432 -1.2233  0.2481
  431MPD2    H1 6483   0.642   4.513  12.980 -1.6264 -0.3426 -0.6347
  431MPD2    H2 6484   0.885   0.086  12.877  0.1135 -0.4137  2.1217
  431MPD2    H3 6485   0.739   4.728  13.024  0.2188 -1.8240  1.1833
  431MPD2     N 6486   0.673   4.368  12.763  0.3114  0.6082  0.0764
  431MPD2    H5 6487   0.594   4.346  12.823 -0.2009 -2.1237 -1.5982
  431MPD2    N1 6488   0.977   4.717  12.637 -0.1935 -0.3248  0.7858
  431MPD2    H7 6489   0.996   4.673  12.548 -1.2057  0.2563  0.2912
  432TMC3    C1 6490   0.792   4.243  12.589 -0.1162 -0.3710  0.4442
  432TMC3    C2 6491   0.788   4.175  12.473 -0.3320 -0.3732 -0.6525
  432TMC3    C3 6492   0.897   4.096  12.450 -0.1841 -0.2681  0.2456
  432TMC3    C4 6493   0.893   4.222  12.678 -0.5814 -0.1818  0.3455
  432TMC3    C5 6494   1.003   4.158  12.652  0.3661 -0.4756 -0.3710
  432TMC3    C6 6495   1.008   4.093  12.532  0.4033  0.1624 -0.1479
  432TMC3     C 6496   0.669   4.286  12.649 -0.2757  0.0478 -1.2406
  432TMC3     O 6497   0.573   4.226  12.607  0.2202  0.2608 -0.1018
  432TMC3     H 6498   0.709   4.187  12.400  0.6384  1.6582 -1.3859
  432TMC3    H1 6499   0.894   4.275  12.773 -3.1319 -1.0776  0.8776
  432TMC3    H2 6500   1.099   4.039  12.511 -0.8171 -2.3005  0.9548
  432TMC3    C7 6501   1.130   4.229  12.674 -0.6999 -0.0882 -0.2367
  432TMC3    C8 6502   0.887   4.005  12.340 -0.4699  0.6242  0.5547
  432TMC3    O1 6503   1.219   4.198  12.600  0.4237  0.1484  0.3067
  432TMC3    O2 6504   0.779   3.961  12.313 -0.2225 -0.5733 -0.3115
  433MPD2     C 6505   4.699   3.101  10.861 -0.1398  0.3540 -0.0536
  433MPD2    C1 6506   4.580   3.085  10.936 -0.5526  0.0013  0.5161
  433MPD2    C2 6507   4.584   3.117  11.069 -0.0390 -0.4375 -0.2469
  433MPD2    C3 6508   4.698   3.169  11.125  0.4754 -0.0294 -0.5243
  433MPD2    C4 6509   0.076   3.195  11.048 -0.6065  0.1830 -0.4501
  433MPD2    C5 6510   0.067   3.169  10.913 -0.4557 -0.1420 -0.1247
  433MPD2     H 6511   4.505   3.086  11.136 -1.2126  2.0207 -0.4892
  433MPD2    H1 6512   0.167   3.235  11.089 -1.6924 -0.0387  2.1782
  433MPD2    H2 6513   4.702   3.079  10.755  0.2474  0.9314 -0.1636
  433MPD2    H3 6514   0.154   3.185  10.852 -1.2811 -0.3511 -1.3687
  433MPD2     N 6515   4.718   3.175  11.270  0.8946  0.0612  0.2357
  433MPD2    H5 6516   4.657   3.122  11.332 -2.2396 -0.3860 -3.2248
  433MPD2    N1 6517   4.483   3.001  10.882  0.4141  0.5710  0.1327
  433MPD2    H7 6518   4.516   2.968  10.792 -0.5885 -2.4373  0.8636
  434TMC3    C1 6519   4.318   2.850  10.859  0.1817 -0.3179  0.5017
  434TMC3    C2 6520   4.281   2.739  10.927  0.3929  0.8610 -0.0720
  434TMC3    C3 6521   4.273   2.621  10.852  0.0708 -0.4737  0.3685
  434TMC3    C4 6522   4.341   2.852  10.722 -0.9225  0.4691 -0.3816
  434TMC3    C5 6523   4.314   2.736  10.651 -0.3071  0.4062 -0.2774
  434TMC3    C6 6524   4.278   2.621  10.716 -0.1189 -0.5952 -0.3372
  434TMC3     C 6525   4.375   2.948  10.947 -0.0861  0.0941 -0.0542
  434TMC3     O 6526   4.331   2.974  11.058  0.1300 -0.9214  0.4227
  434TMC3     H 6527   4.274   2.739  11.035 -2.0201 -0.9017 -0.2360
  434TMC3    H1 6528   4.378   2.935  10.663  1.5636 -1.1968 -1.1520
  434TMC3    H2 6529   4.275   2.527  10.662 -2.0544 -0.3768 -0.6161
  434TMC3    C7 6530   4.329   2.742  10.510  0.2235 -0.3580 -0.4637
  434TMC3    C8 6531   4.303   2.495  10.920  0.3931 -0.2001  0.3094
  434TMC3    O1 6532   4.353   2.847  10.458  0.3910 -0.1738  0.1746
  434TMC3    O2 6533   4.272   2.499  11.039  0.0397 -0.4444  0.0303
  435MPD2     C 6534   2.393   3.468  15.663  0.3473  0.4637  0.2229
  435MPD2    C1 6535   2.364   3.470  15.800  0.9764 -0.2441  0.1559
  435MPD2    C2 6536   2.451   3.405  15.877  0.4985 -0.2252  0.4572
  435MPD2    C3 6537   2.560   3.327  15.825  0.7056  0.3007 -0.1585
  435MPD2    C4 6538   2.583   3.321  15.684  0.1498 -0.3588 -0.7642
  435MPD2    C5 6539   2.501   3.397  15.611 -0.4519  0.1995 -1.1423
  435MPD2     H 6540   2.444   3.389  15.984 -3.0068  1.7650  0.5150
  435MPD2    H1 6541   2.659   3.259  15.637  1.2734 -0.4644  1.2242
  435MPD2    H2 6542   2.340   3.529  15.591  0.2909  1.6214  1.2315
  435MPD2    H3 6543   2.514   3.402  15.503 -1.3294 -0.1245 -1.2622
  435MPD2     N 6544   2.627   3.232  15.919 -0.2599  0.4262 -0.3038
  435MPD2    H5 6545   2.608   3.236  16.019 -2.2437 -0.7678 -0.6309
  435MPD2    N1 6546   2.251   3.537  15.861  0.3003  0.1070 -0.0216
  435MPD2    H7 6547   2.255   3.535  15.962  0.4188  0.3681 -0.0214
  436TMC3    C1 6548   1.892   3.677  16.050 -0.0191 -0.1355  0.4103
  436TMC3    C2 6549   2.014   3.643  15.998 -0.5959 -0.7234  0.3683
  436TMC3    C3 6550   2.039   3.663  15.863  0.2421 -0.2257  0.0113
  436TMC3    C4 6551   1.788   3.742  15.976  0.0441 -0.2123  0.1937
  436TMC3    C5 6552   1.832   3.774  15.843 -0.2983  0.0835 -0.4475
  436TMC3    C6 6553   1.949   3.732  15.791 -0.1891 -0.8474  0.0667
  436TMC3     C 6554   1.903   3.703  16.194  0.0184 -0.2979 -0.5339
  436TMC3     O 6555   2.019   3.727  16.239 -0.3736  0.0309  0.4951
  436TMC3     H 6556   2.071   3.577  16.062 -0.1025  1.2041  1.8978
  436TMC3    H1 6557   1.699   3.784  16.021  0.8614  1.7961 -0.0450
  436TMC3    H2 6558   1.955   3.749  15.684 -1.7114 -1.2347 -0.0775
  436TMC3    C7 6559   1.739   3.832  15.744 -0.1013 -0.2513  0.6996
  436TMC3    C8 6560   2.148   3.600  15.792 -0.8265  0.1041 -0.4987
  436TMC3    O1 6561   1.775   3.918  15.671  0.0179  0.5822  0.2980
  436TMC3    O2 6562   2.139   3.603  15.671 -0.0074  0.1533 -0.3728
  437TMC3    C1 6563   0.579   0.092  12.373  0.5574 -0.0758  0.2625
  437TMC3    C2 6564   0.498   0.061  12.269  0.2034 -0.2591 -0.1687
  437TMC3    C3 6565   0.540   0.092  12.142 -0.5838 -0.5183 -0.7440
  437TMC3    C4 6566   0.695   0.168  12.358  0.1863 -0.1804 -0.4781
  437TMC3    C5 6567   0.734   0.179  12.234  0.2820  0.6252 -0.3899
  437TMC3    C6 6568   0.665   0.137  12.120 -0.0423  1.0698 -0.1675
  437TMC3     C 6569   0.553   0.058  12.512  0.2313  0.5442  0.8266
  437TMC3     O 6570   0.613   0.125  12.595 -0.1269  0.3151 -0.0789
  437TMC3     H 6571   0.407   0.004  12.277 -0.5307  0.7806 -1.0568
  437TMC3    H1 6572   0.749   0.200  12.447  1.4307 -1.1347 -0.8929
  437TMC3    H2 6573   0.700   0.148  12.018  0.5050  0.9519  0.0089
  437TMC3    C7 6574   0.872   0.215  12.211  0.4602  0.5178 -0.3048
  437TMC3    C8 6575   0.492   0.008  12.034  0.2430 -0.6187 -0.1773
  437TMC3    O1 6576   0.925   0.152  12.119 -0.7522  0.6272  0.0346
  437TMC3    O2 6577   0.560   0.017  11.933 -0.1141  0.0749  0.1098
  438MPD2     C 6578   3.222   1.627  16.811  0.0886 -0.0779 -0.4706
  438MPD2    C1 6579   3.301   1.523  16.847  0.0960  0.0049 -0.4255
  438MPD2    C2 6580   3.308   1.486  16.979  0.9861  0.6922  0.0801
  438MPD2    C3 6581   3.236   1.566  17.072 -0.0234 -0.2407 -0.2714
  438MPD2    C4 6582   3.158   1.671  17.031  0.1652 -0.1487 -0.5668
  438MPD2    C5 6583   3.152   1.699  16.898 -0.0677 -0.6851  0.2889
  438MPD2     H 6584   3.371   1.405  17.012 -0.6997 -1.5129 -2.1431
  438MPD2    H1 6585   3.099   1.733  17.098 -1.2834  1.9451 -3.7881
  438MPD2    H2 6586   3.225   1.660  16.708 -2.3082  0.2486 -0.4246
  438MPD2    H3 6587   3.087   1.774  16.855  1.3703  0.6962  0.5707
  438MPD2     N 6588   3.239   1.543  17.219 -0.0941 -0.4103  0.1045
  438MPD2    H5 6589   3.191   1.608  17.281  0.6357 -0.3071  0.5552
  438MPD2    N1 6590   3.379   1.436  16.764  0.3949  0.3691  0.5141
  438MPD2    H7 6591   3.421   1.353  16.805 -2.2802 -1.0327  0.4034
  439TMC3    C1 6592   3.473   1.352  16.569 -0.5854 -0.5179  0.5312
  439TMC3    C2 6593   3.437   1.279  16.457  0.5622  0.3482  0.3385
  439TMC3    C3 6594   3.513   1.169  16.428  0.7740 -0.2869  0.9126
  439TMC3    C4 6595   3.579   1.312  16.646 -0.5396 -0.0187 -0.2376
  439TMC3    C5 6596   3.663   1.205  16.614 -0.2531 -0.2939  1.1133
  439TMC3    C6 6597   3.620   1.132  16.509 -0.1623 -0.0311  0.4398
  439TMC3     C 6598   3.374   1.440  16.627  0.1786  0.9252  0.2370
  439TMC3     O 6599   3.309   1.515  16.556 -0.7168 -0.2521  0.1285
  439TMC3     H 6600   3.345   1.309  16.408  1.0961 -0.1787 -0.9950
  439TMC3    H1 6601   3.615   1.377  16.725 -1.3940  0.1398  0.0271
  439TMC3    H2 6602   3.690   1.058  16.473  1.6891  2.1018 -0.3578
  439TMC3    C7 6603   3.716   1.141  16.733  0.6555 -0.6247  0.1861
  439TMC3    C8 6604   3.488   1.098  16.308 -0.0359 -1.0210  0.2356
  439TMC3    O1 6605   3.774   1.219  16.811  0.0160 -0.3085  0.0602
  439TMC3    O2 6606   3.527   0.982  16.308  0.0664  0.3742 -0.3897
  440MPD2     C 6607   2.068   1.362  14.427  0.0179  0.4621  0.1069
  440MPD2    C1 6608   2.100   1.441  14.540 -0.0109 -1.0104 -1.1626
  440MPD2    C2 6609   2.235   1.446  14.559 -0.2206  0.1139  0.2588
  440MPD2    C3 6610   2.329   1.355  14.501 -0.0198 -0.8166  0.9581
  440MPD2    C4 6611   2.290   1.269  14.402  0.2341  0.5728 -0.0825
  440MPD2    C5 6612   2.157   1.275  14.363  0.4804  0.5809  0.3919
  440MPD2     H 6613   2.268   1.517  14.635 -0.0164  0.0041  0.2727
  440MPD2    H1 6614   2.359   1.198  14.359 -0.3796 -0.4314  0.5941
  440MPD2    H2 6615   1.964   1.344  14.401  0.4367 -0.9854 -0.5855
  440MPD2    H3 6616   2.136   1.202  14.286 -3.1816  1.9248  0.1571
  440MPD2     N 6617   2.464   1.352  14.549 -0.3099  0.2955 -0.4322
  440MPD2    H5 6618   2.521   1.272  14.525  2.1662  1.9955 -0.1332
  440MPD2    N1 6619   2.005   1.520  14.615 -0.2326 -0.1408  0.0058
  440MPD2    H7 6620   2.045   1.589  14.678  0.1288  0.8585 -1.3099
  441TMC3    C1 6621   2.649   1.423  14.655 -0.1841 -0.1937  0.6064
  441TMC3    C2 6622   2.704   1.544  14.682  0.1369  0.1235 -0.2202
  441TMC3    C3 6623   2.722   1.585  14.808  0.3806 -0.1246 -0.1899
  441TMC3    C4 6624   2.621   1.329  14.757 -0.6783  0.4450  0.0347
  441TMC3    C5 6625   2.615   1.383  14.885  0.8649  0.1935 -0.3351
  441TMC3    C6 6626   2.673   1.511  14.913 -0.6754  0.4408  0.2588
  441TMC3     C 6627   2.528   1.462  14.591 -0.1667  0.1501 -0.9447
  441TMC3     O 6628   2.490   1.575  14.598  0.2321 -0.4786 -0.2455
  441TMC3     H 6629   2.733   1.608  14.600  0.6571  0.6544  0.3772
  441TMC3    H1 6630   2.574   1.235  14.732  2.0663 -0.5780 -1.1491
  441TMC3    H2 6631   2.693   1.553  15.011  2.7048  0.3478 -0.3840
  441TMC3    C7 6632   2.604   1.296  14.995 -0.3645  0.3592 -0.0429
  441TMC3    C8 6633   2.724   1.733  14.828  0.4098 -0.5506 -1.1968
  441TMC3    O1 6634   2.628   1.176  14.977  0.0042  0.1460 -0.5221
  441TMC3    O2 6635   2.810   1.790  14.763 -0.6643 -0.1504 -0.3337
  442MPD2     C 6636   0.562   2.131  16.554  0.5425  0.5483 -0.1973
  442MPD2    C1 6637   0.472   2.051  16.627  0.0635 -0.6968 -0.1008
  442MPD2    C2 6638   0.470   1.916  16.605  0.0603  0.1989  0.5856
  442MPD2    C3 6639   0.551   1.860  16.510  0.3548  0.3840  0.7845
  442MPD2    C4 6640   0.634   1.937  16.433  0.0566 -0.1394 -0.0789
  442MPD2    C5 6641   0.633   2.078  16.451 -0.0943  0.4441 -0.1571
  442MPD2     H 6642   0.392   1.864  16.658  0.2158 -1.5271 -0.8765
  442MPD2    H1 6643   0.710   1.903  16.364  2.1514  3.6533  0.3274
  442MPD2    H2 6644   0.569   2.238  16.572  0.9444  0.4650  0.1433
  442MPD2    H3 6645   0.709   2.142  16.409  2.1180 -0.0107  3.1042
  442MPD2     N 6646   0.551   1.716  16.481 -0.0931 -0.7259 -0.7441
  442MPD2    H5 6647   0.620   1.680  16.416 -0.2410 -1.8149 -0.2904
  442MPD2    N1 6648   0.400   2.097  16.735  0.1920 -0.1126  0.1554
  442MPD2    H7 6649   0.324   2.040  16.769  2.0007 -1.9532  1.1518
  443TMC3    C1 6650   0.298   2.250  16.881  0.1830  0.1830 -0.9926
  443TMC3    C2 6651   0.223   2.361  16.863  0.7411  0.0449  0.4151
  443TMC3    C3 6652   0.091   2.366  16.907 -0.4149  0.6207  0.3357
  443TMC3    C4 6653   0.247   2.141  16.950 -0.1374  0.2788  0.7165
  443TMC3    C5 6654   0.127   2.166  17.012  0.1566  0.2295 -0.0972
  443TMC3    C6 6655   0.046   2.277  16.999 -0.3763 -0.0658  0.1820
  443TMC3     C 6656   0.399   2.227  16.782 -0.7073 -0.2840 -0.4678
  443TMC3     O 6657   0.453   2.329  16.739 -0.3238  0.4840  0.1327
  443TMC3     H 6658   0.253   2.438  16.793 -0.1492  0.1956  0.2002
  443TMC3    H1 6659   0.299   2.047  16.963  1.6164  1.0084 -1.1631
  443TMC3    H2 6660   4.686   2.281  17.043 -0.0573  2.2407  0.6788
  443TMC3    C7 6661   0.070   2.062  17.087 -0.5437 -1.0258  0.2182
  443TMC3    C8 6662   0.009   2.485  16.886  0.0213  0.2963 -0.1952
  443TMC3    O1 6663   0.072   1.957  17.029 -0.0362  0.1483 -0.2708
  443TMC3    O2 6664   4.666   2.506  16.977  0.6739 -0.4938  0.0244
  444MPD2     C 6665   0.502   1.825  16.964 -0.4542 -0.6086  0.0335
  444MPD2    C1 6666   0.444   1.720  17.017  0.3359 -0.2269 -0.4652
  444MPD2    C2 6667   0.481   1.598  16.968  0.4335  0.3216 -0.1007
  444MPD2    C3 6668   0.587   1.580  16.886 -0.5430 -0.2193 -0.9058
  444MPD2    C4 6669   0.645   1.696  16.834  0.5205 -0.3930  0.0805
  444MPD2    C5 6670   0.599   1.814  16.874 -0.9352  1.0026 -0.2710
  444MPD2     H 6671   0.423   1.511  16.998  1.4750 -0.4418 -0.3062
  444MPD2    H1 6672   0.734   1.695  16.772 -1.3524 -3.9752 -2.5815
  444MPD2    H2 6673   0.471   1.925  16.994 -2.5466 -1.5378  0.9525
  444MPD2    H3 6674   0.646   1.905  16.840  1.1100  0.1441  0.2954
  444MPD2     N 6675   0.623   1.445  16.844 -0.0951 -0.9105 -0.0307
  444MPD2    H5 6676   0.568   1.376  16.894  0.3078 -0.5743  0.8914
  444MPD2    N1 6677   0.341   1.725  17.113  0.3453  0.0039 -0.3658
  444MPD2    H7 6678   0.285   1.641  17.121 -0.5633  0.7560  1.1918
  445TMC3    C1 6679   0.759   1.269  16.778 -0.2145  0.1336 -0.8520
  445TMC3    C2 6680   0.655   1.182  16.807 -0.2638 -0.2806 -0.1923
  445TMC3    C3 6681   0.675   1.049  16.776  0.2743  0.4059  0.4660
  445TMC3    C4 6682   0.887   1.219  16.755 -0.1786 -0.7081 -0.7755
  445TMC3    C5 6683   0.908   1.082  16.743  0.7733  0.3052 -0.3616
  445TMC3    C6 6684   0.800   0.999  16.754 -0.7394 -0.6031  0.3832
  445TMC3     C 6685   0.738   1.410  16.776 -0.3675  0.0585  0.2718
  445TMC3     O 6686   0.833   1.485  16.739 -0.4767  0.4262 -0.0752
  445TMC3     H 6687   0.561   1.223  16.839  0.0532  1.5745 -1.6368
  445TMC3    H1 6688   0.969   1.288  16.740  0.3194 -0.7067  1.9136
  445TMC3    H2 6689   0.808   0.893  16.733  0.5771 -0.5480  0.5778
  445TMC3    C7 6690   1.038   1.031  16.687 -0.1586  0.1595  0.0414
  445TMC3    C8 6691   0.576   0.952  16.821 -0.3512 -0.3892  0.2812
  445TMC3    O1 6692   1.119   1.111  16.640  0.0637 -0.0002 -0.1573
  445TMC3    O2 6693   0.602   0.835  16.796  0.5168 -0.3888 -0.1929
  446MPD2     C 6694   4.220   2.665  11.588  0.4253 -0.0449 -0.1078
  446MPD2    C1 6695   4.169   2.638  11.464  0.5660  0.3608  0.0014
  446MPD2    C2 6696   4.256   2.614  11.361 -0.1692 -0.2979 -0.4998
  446MPD2    C3 6697   4.388   2.607  11.376  0.2473  0.1689  0.8700
  446MPD2    C4 6698   4.444   2.646  11.498 -0.0538  0.1400 -0.8388
  446MPD2    C5 6699   4.351   2.679  11.596  0.2915 -0.0772 -0.1758
  446MPD2     H 6700   4.206   2.600  11.265 -1.6671  0.7619  0.1187
  446MPD2    H1 6701   4.550   2.665  11.512 -0.5291  1.1262  1.4024
  446MPD2    H2 6702   4.161   2.679  11.678  1.3152  0.2098  0.4399
  446MPD2    H3 6703   4.375   2.708  11.698 -0.2492  0.1155 -0.1016
  446MPD2     N 6704   4.475   2.565  11.268 -0.7761  0.0984  0.1163
  446MPD2    H5 6705   4.432   2.565  11.176 -1.1414  0.5865  0.2866
  446MPD2    N1 6706   4.030   2.617  11.442  0.3938 -0.3692 -0.0629
  446MPD2    H7 6707   3.993   2.590  11.352 -0.8664  0.8505  0.0876
  447TMC3    C1 6708   4.685   2.513  11.155  0.1447 -0.1551  0.4782
  447TMC3    C2 6709   4.633   2.563  11.040  0.2856  0.4218 -0.1652
  447TMC3    C3 6710   4.720   2.560  10.930 -0.1933  0.2521 -0.2771
  447TMC3    C4 6711   0.070   2.453  11.159 -0.0886 -0.7713  0.4325
  447TMC3    C5 6712   0.146   2.442  11.043 -0.6131  0.2437 -0.1591
  447TMC3    C6 6713   0.102   2.499  10.927  0.1677  0.6868  0.2033
  447TMC3     C 6714   4.617   2.536  11.284 -0.1106 -0.1161  0.2287
  447TMC3     O 6715   4.686   2.541  11.386 -0.2360 -0.4468 -0.0435
  447TMC3     H 6716   4.544   2.626  11.045 -1.2597 -1.9040  1.4746
  447TMC3    H1 6717   0.106   2.426  11.258  5.2964  0.9564 -1.0441
  447TMC3    H2 6718   0.160   2.496  10.836 -1.7168 -0.4436 -0.9809
  447TMC3    C7 6719   0.272   2.364  11.048  0.0547 -0.0633  0.4369
  447TMC3    C8 6720   4.686   2.640  10.814 -0.0515  0.2930  0.6278
  447TMC3    O1 6721   0.340   2.368  10.945  0.1033 -0.5301  0.4115
  447TMC3    O2 6722   4.580   2.616  10.756  0.1933  0.1845  0.6438
  448TMC3    C1 6723   3.004   2.663  17.481 -0.3590 -0.2380 -0.5219
  448TMC3    C2 6724   3.033   2.576  17.380  0.1537  0.3058 -0.0399
  448TMC3    C3 6725   3.145   2.493  17.388 -0.1009 -0.2668 -0.4174
  448TMC3    C4 6726   3.085   2.662  17.592 -0.0180  0.6091  0.7426
  448TMC3    C5 6727   3.189   2.571  17.596 -0.0959 -0.0817  0.4485
  448TMC3    C6 6728   3.225   2.485  17.495  0.0109  0.2869  0.7483
  448TMC3     C 6729   2.892   2.754  17.478 -0.3385  0.6016 -0.4817
  448TMC3     O 6730   2.851   2.789  17.588  0.1200  0.4668 -0.3370
  448TMC3     H 6731   2.976   2.584  17.288 -1.9056 -0.5678  1.1750
  448TMC3    H1 6732   3.068   2.727  17.677  0.4642  0.9960  0.5430
  448TMC3    H2 6733   3.311   2.420  17.500  0.1159  0.1478 -2.5392
  448TMC3    C7 6734   3.305   2.605  17.679 -0.7348  0.6491  0.3051
  448TMC3    C8 6735   3.186   2.420  17.273  0.1435 -0.2831  0.0830
  448TMC3    O1 6736   3.423   2.585  17.647 -0.2746  0.1582 -0.3394
  448TMC3    O2 6737   3.267   2.331  17.287  0.2673  0.2825 -0.1871
  449MPD2     C 6738   0.416   1.211  14.151 -0.1918  0.1059  0.5112
  449MPD2    C1 6739   0.285   1.253  14.170 -1.1598 -0.2287  0.4388
  449MPD2    C2 6740   0.192   1.156  14.178  0.0055 -0.0020 -0.2578
  449MPD2    C3 6741   0.222   1.018  14.169 -0.2491 -0.6278  0.4544
  449MPD2    C4 6742   0.349   0.979  14.141 -0.2717 -0.2419  0.2196
  449MPD2    C5 6743   0.442   1.078  14.117  1.1316  0.5527 -0.0734
  449MPD2     H 6744   0.089   1.182  14.200 -0.0482 -1.0639  0.7642
  449MPD2    H1 6745   0.371   0.873  14.133 -2.3185 -0.5845 -0.9463
  449MPD2    H2 6746   0.496   1.284  14.140 -0.1526 -0.3928 -2.5820
  449MPD2    H3 6747   0.547   1.051  14.112  1.5771  2.0093  1.2989
  449MPD2     N 6748   0.112   0.932  14.168  0.5595  0.4227 -0.3619
  449MPD2    H5 6749   0.022   0.972  14.192  0.3553  0.9090 -1.9334
  449MPD2    N1 6750   0.241   1.383  14.198 -0.3221  0.0080 -0.6169
  449MPD2    H7 6751   0.141   1.387  14.215 -0.1374  0.9266  0.2387
  450TMC3    C1 6752   0.217   1.608  14.182 -0.5507 -0.5156  0.2273
  450TMC3    C2 6753   0.210   1.686  14.070  0.0961  0.4689  0.3500
  450TMC3    C3 6754   0.085   1.726  14.027 -0.3656 -1.0623 -0.5628
  450TMC3    C4 6755   0.100   1.577  14.246  0.4873  0.4552 -0.1152
  450TMC3    C5 6756   4.715   1.604  14.193  0.2990  0.3932 -0.2058
  450TMC3    C6 6757   4.710   1.677  14.075 -0.1333  0.4059  1.3142
  450TMC3     C 6758   0.309   1.497  14.167 -0.5931  0.1747 -0.3073
  450TMC3     O 6759   0.416   1.503  14.106  0.2631 -0.6177 -0.1384
  450TMC3     H 6760   0.307   1.720  14.035 -0.5246 -0.2969 -2.1309
  450TMC3    H1 6761   0.117   1.531  14.343 -1.2560 -0.1214 -0.0891
  450TMC3    H2 6762   4.617   1.707  14.028 -0.8857  0.3702  2.7768
  450TMC3    C7 6763   4.628   1.493  14.220  0.5866 -0.1817 -0.4671
  450TMC3    C8 6764   0.081   1.779  13.893  0.4072  0.1679  0.4765
  450TMC3    O1 6765   4.686   1.400  14.281 -0.4331  0.1373 -0.2994
  450TMC3    O2 6766   4.729   1.852  13.864  0.0088  0.1208  0.2616
  451MPD2     C 6767   0.840   4.011   1.310 -0.3724  0.4153  0.2588
  451MPD2    C1 6768   0.858   4.087   1.199  0.3658 -0.3905 -0.1594
  451MPD2    C2 6769   0.953   4.047   1.103  0.2746 -0.0590  0.4494
  451MPD2    C3 6770   1.028   3.932   1.122 -0.2951 -0.4379  0.0986
  451MPD2    C4 6771   0.998   3.853   1.227  0.0715  0.1711 -0.3864
  451MPD2    C5 6772   0.909   3.892   1.330 -1.0183  0.2078 -0.1196
  451MPD2     H 6773   0.963   4.109   1.015 -1.6246 -1.0105 -0.4254
  451MPD2    H1 6774   1.033   3.751   1.221  3.2507  1.3027 -0.6360
  451MPD2    H2 6775   0.754   4.030   1.374 -1.2384  1.1214 -1.1237
  451MPD2    H3 6776   0.876   3.822   1.406  1.6672 -0.0037  0.8483
  451MPD2     N 6777   1.118   3.886   1.025  0.2103  0.2661  0.1265
  451MPD2    H5 6778   1.157   3.793   1.036 -1.6744 -0.7768 -1.9519
  451MPD2    N1 6779   0.765   4.193   1.175  0.5611  0.1757 -0.2679
  451MPD2    H7 6780   0.701   4.215   1.251  0.3574 -0.2789 -0.3051
  452TMC3    C1 6781   1.243   3.883   0.818  0.1686  0.3566 -0.2216
  452TMC3    C2 6782   1.165   3.797   0.746  0.2452 -0.4152 -0.1594
  452TMC3    C3 6783   1.172   3.793   0.613 -0.5625 -0.6982  0.2863
  452TMC3    C4 6784   1.325   3.967   0.752 -0.1651 -0.3055  0.4225
  452TMC3    C5 6785   1.322   3.980   0.616 -0.0484  0.0816 -0.1764
  452TMC3    C6 6786   1.241   3.895   0.548  0.0296  0.0705 -0.0933
  452TMC3     C 6787   1.161   3.958   0.915 -0.1872 -0.1708  0.5071
  452TMC3     O 6788   1.146   4.079   0.892 -0.4479  0.3767 -0.2509
  452TMC3     H 6789   1.101   3.732   0.805  0.4397 -1.4689 -1.1287
  452TMC3    H1 6790   1.383   4.027   0.821  0.4044 -0.0592 -0.2610
  452TMC3    H2 6791   1.223   3.923   0.445  2.4318 -3.1611 -1.4090
  452TMC3    C7 6792   1.423   4.048   0.536  0.5174  0.4618 -0.4112
  452TMC3    C8 6793   1.044   3.772   0.552  0.2612 -0.1050  0.3103
  452TMC3    O1 6794   1.398   4.060   0.416 -0.1146  0.7896 -0.1011
  452TMC3    O2 6795   0.947   3.795   0.621 -0.2484 -0.7149 -0.6707
  453TMC3    C1 6796   2.183   1.754  12.002  0.4710  0.0419  0.0556
  453TMC3    C2 6797   2.089   1.659  11.963  0.3093  0.3675  0.3073
  453TMC3    C3 6798   1.989   1.690  11.889  0.1727 -0.7832 -0.2787
  453TMC3    C4 6799   2.167   1.883  11.958 -0.4660  0.0040  0.1706
  453TMC3    C5 6800   2.069   1.911  11.873 -0.0052 -0.7062  0.0184
  453TMC3    C6 6801   1.967   1.823  11.838 -0.1064  0.0981 -0.0052
  453TMC3     C 6802   2.274   1.732  12.111  0.0252  1.3975  0.3227
  453TMC3     O 6803   2.366   1.809  12.106  0.7719 -0.6979  0.1640
  453TMC3     H 6804   2.095   1.565  12.018  0.4287 -1.0274 -2.0958
  453TMC3    H1 6805   2.233   1.962  11.993 -1.5780  0.5239  1.1019
  453TMC3    H2 6806   1.882   1.843  11.775 -0.7171  1.6046  1.3008
  453TMC3    C7 6807   2.090   2.039  11.803 -0.2125 -0.2817  1.0798
  453TMC3    C8 6808   1.886   1.589  11.877  0.7218 -0.0220 -0.3855
  453TMC3    O1 6809   2.195   2.097  11.818 -0.2426  0.0055 -0.1650
  453TMC3    O2 6810   1.769   1.628  11.851  0.3244  0.4168 -0.2665
  454MPD2     C 6811   1.394   1.130  15.765 -0.0672 -0.0545  0.7936
  454MPD2    C1 6812   1.336   1.040  15.849 -0.6644  0.2136 -0.4201
  454MPD2    C2 6813   1.327   1.079  15.987  0.7137 -0.1444 -0.2570
  454MPD2    C3 6814   1.360   1.206  16.024  0.0316  1.0402  0.4116
  454MPD2    C4 6815   1.408   1.297  15.929 -0.3938  0.0590 -0.3991
  454MPD2    C5 6816   1.431   1.255  15.806 -0.3384  0.0876  0.3918
  454MPD2     H 6817   1.286   1.010  16.060 -0.9853 -1.4945 -2.4940
  454MPD2    H1 6818   1.421   1.401  15.954 -1.1119  0.1619 -0.4422
  454MPD2    H2 6819   1.421   1.110  15.662  1.3201  1.4097  0.8567
  454MPD2    H3 6820   1.468   1.325  15.732  2.5825 -0.5243  1.2854
  454MPD2     N 6821   1.323   1.253  16.155  0.0987 -0.0869 -0.6420
  454MPD2    H5 6822   1.317   1.353  16.168 -0.7344 -0.2962  0.6206
  454MPD2    N1 6823   1.285   0.913  15.809 -0.0200 -0.0651 -0.0615
  454MPD2    H7 6824   1.233   0.860  15.878  1.9637 -0.6009  0.9976
  455TMC3    C1 6825   1.183   1.246  16.357  0.7538 -0.6897 -0.1710
  455TMC3    C2 6826   1.200   1.379  16.374 -0.0129 -0.7989  0.0840
  455TMC3    C3 6827   1.092   1.440  16.429 -0.1535  0.5658  0.1909
  455TMC3    C4 6828   1.059   1.186  16.379 -0.2666 -0.0785  0.1309
  455TMC3    C5 6829   0.948   1.254  16.417 -0.1769  0.1071  0.3806
  455TMC3    C6 6830   0.970   1.384  16.457  0.2352  0.5520  0.1475
  455TMC3     C 6831   1.272   1.179  16.262 -0.6290  0.5123 -0.0394
  455TMC3     O 6832   1.277   1.058  16.279  0.1023 -0.0986  0.3472
  455TMC3     H 6833   1.292   1.429  16.346 -0.0759 -0.4619  0.4755
  455TMC3    H1 6834   1.061   1.079  16.364  0.9967 -0.1143  0.5696
  455TMC3    H2 6835   0.896   1.437  16.516  1.2031  1.7284  0.3057
  455TMC3    C7 6836   0.825   1.184  16.428  1.1710  0.5910 -0.4494
  455TMC3    C8 6837   1.112   1.583  16.450  0.4570  0.5526 -0.0067
  455TMC3    O1 6838   0.733   1.235  16.491  0.1611 -0.8259  0.2786
  455TMC3    O2 6839   1.193   1.646  16.382 -0.4565 -0.4491  0.1766
  456MPD2     C 6840   3.674   1.431  16.211 -0.6853  0.7447  0.4729
  456MPD2    C1 6841   3.756   1.415  16.317  0.0116  0.4438  0.8028
  456MPD2    C2 6842   3.741   1.499  16.423 -0.2211 -0.1722  0.5948
  456MPD2    C3 6843   3.637   1.592  16.435  0.0479  0.1381 -0.2173
  456MPD2    C4 6844   3.566   1.619  16.325  0.2152  0.1178 -0.4133
  456MPD2    C5 6845   3.581   1.533  16.213  0.0764  0.0135  0.0962
  456MPD2     H 6846   3.798   1.472  16.511  1.0120  0.3454 -0.0580
  456MPD2    H1 6847   3.503   1.706  16.316  0.6411  0.3777 -0.8326
  456MPD2    H2 6848   3.676   1.360  16.130  1.3691  1.9035 -0.4994
  456MPD2    H3 6849   3.527   1.544  16.121  1.3062  2.0991 -0.3824
  456MPD2     N 6850   3.635   1.676  16.549 -0.2908 -0.0734 -0.2511
  456MPD2    H5 6851   3.708   1.664  16.617 -1.1332 -1.5512  0.4146
  456MPD2    N1 6852   3.857   1.315  16.308  0.4571 -0.5779  0.2384
  456MPD2    H7 6853   3.856   1.254  16.226 -1.0604  0.8681 -0.8362
  457TMC3    C1 6854   3.548   1.802  16.723 -0.4432 -0.9805 -0.3392
  457TMC3    C2 6855   3.457   1.897  16.754 -0.4717  0.3516 -0.6328
  457TMC3    C3 6856   3.413   1.907  16.886 -0.7050 -0.6467 -0.3436
  457TMC3    C4 6857   3.609   1.728  16.818  0.1447  0.4857  0.0390
  457TMC3    C5 6858   3.563   1.729  16.947  0.0502  0.3544 -0.2803
  457TMC3    C6 6859   3.464   1.822  16.986  0.0378  0.4688 -0.2064
  457TMC3     C 6860   3.545   1.771  16.578  0.1079 -0.1090  0.2648
  457TMC3     O 6861   3.455   1.813  16.508 -0.1397 -0.1273  0.7852
  457TMC3     H 6862   3.426   1.976  16.687 -4.0497 -1.9965 -1.8015
  457TMC3    H1 6863   3.677   1.647  16.795  1.1852  1.5501 -0.6093
  457TMC3    H2 6864   3.440   1.824  17.091 -0.1377 -0.3175 -0.2332
  457TMC3    C7 6865   3.663   1.706  17.050  0.2941  0.3615  0.7197
  457TMC3    C8 6866   3.362   2.030  16.945 -0.1145 -0.4398  0.4532
  457TMC3    O1 6867   3.623   1.688  17.167  0.7406 -0.3704 -0.1145
  457TMC3    O2 6868   3.404   2.053  17.057  1.2442 -0.4464 -0.9757
  458MPD2     C 6869   1.313   0.454  12.298  0.4389 -0.5321 -0.1790
  458MPD2    C1 6870   1.229   0.486  12.397 -0.5766  0.2041 -0.5242
  458MPD2    C2 6871   1.099   0.446  12.400 -0.9204 -0.0217  0.2885
  458MPD2    C3 6872   1.049   0.372  12.294 -0.1133  0.1089  0.5140
  458MPD2    C4 6873   1.139   0.339  12.192  0.3364  0.8403  0.1770
  458MPD2    C5 6874   1.270   0.382  12.190  0.1312  0.6991  0.0628
  458MPD2     H 6875   1.036   0.456  12.488  0.1264 -2.8840  1.3426
  458MPD2    H1 6876   1.122   0.273  12.108  1.5522  2.4490 -1.3294
  458MPD2    H2 6877   1.421   0.465  12.307  0.4159  0.1609 -0.7065
  458MPD2    H3 6878   1.333   0.337  12.114 -0.0381  0.5391  0.0165
  458MPD2     N 6879   0.924   0.314  12.303 -0.4313  0.0787 -0.9043
  458MPD2    H5 6880   0.857   0.355  12.368 -1.3742 -0.0122 -1.8136
  458MPD2    N1 6881   1.288   0.556  12.503 -0.5329 -0.4994 -0.4061
  458MPD2    H7 6882   1.380   0.597  12.489 -0.0988 -0.6620  1.9667
  459TMC3    C1 6883   1.315   0.641  12.725 -0.5632  0.5185  0.0391
  459TMC3    C2 6884   1.432   0.698  12.679 -0.1292 -0.2181  0.2350
  459TMC3    C3 6885   1.542   0.704  12.754 -0.4003  0.4277  0.0531
  459TMC3    C4 6886   1.317   0.586  12.846 -0.2468  0.2891 -0.7287
  459TMC3    C5 6887   1.432   0.590  12.922  0.1118 -0.3883 -0.2060
  459TMC3    C6 6888   1.549   0.653  12.873  0.0189 -0.7333  0.4753
  459TMC3     C 6889   1.225   0.576  12.629  0.2235 -0.4368  0.4606
  459TMC3     O 6890   1.108   0.567  12.670 -0.1178  0.0606  0.4376
  459TMC3     H 6891   1.428   0.739  12.579 -0.5696 -1.0411 -0.0807
  459TMC3    H1 6892   1.226   0.538  12.881  0.2968 -0.1739  0.0637
  459TMC3    H2 6893   1.641   0.672  12.928  0.4570 -2.6911  0.4004
  459TMC3    C7 6894   1.416   0.564  13.061 -0.7928 -0.3856  0.2407
  459TMC3    C8 6895   1.644   0.790  12.711 -0.2536 -0.0504  0.3142
  459TMC3    O1 6896   1.307   0.575  13.115  0.5031 -0.2105 -0.6538
  459TMC3    O2 6897   1.755   0.768  12.755 -0.2194 -0.6332 -0.6570
  460MPD2     C 6898   0.154   2.898  10.665 -0.3158 -0.1563  0.4591
  460MPD2    C1 6899   0.043   2.819  10.673 -0.2535 -0.8904  0.2419
  460MPD2    C2 6900   4.684   2.839  10.580  0.4701  0.3869  0.2221
  460MPD2    C3 6901   4.696   2.933  10.474 -0.0644  0.0165  0.3501
  460MPD2    C4 6902   0.071   3.014  10.463 -0.0635  0.1284 -0.5348
  460MPD2    C5 6903   0.166   2.994  10.565  0.2057  0.9892  0.2070
  460MPD2     H 6904   4.601   2.769  10.578  1.3245 -0.7115  2.9020
  460MPD2    H1 6905   0.079   3.101  10.399 -0.8659 -0.1378 -1.0021
  460MPD2    H2 6906   0.231   2.897  10.741 -1.0510 -3.3236  1.1593
  460MPD2    H3 6907   0.244   3.068  10.567  0.2354  0.9749 -0.7533
  460MPD2     N 6908   4.597   2.934  10.372 -0.3060  0.4288 -0.1703
  460MPD2    H5 6909   4.526   2.865  10.396 -0.4066  0.7934  0.5770
  460MPD2    N1 6910   0.041   2.735  10.788  0.1497 -0.3257 -0.5409
  460MPD2    H7 6911   0.124   2.738  10.847  0.1725 -2.0850 -0.4929
  461TMC3    C1 6912   4.522   2.953  10.153  0.0986 -0.0092  0.3864
  461TMC3    C2 6913   4.495   2.814  10.138 -0.7801  0.4162 -0.1523
  461TMC3    C3 6914   4.441   2.773  10.013  0.3124 -0.1481  0.0519
  461TMC3    C4 6915   4.498   3.043  10.052 -0.0100  0.4030 -0.5981
  461TMC3    C5 6916   4.452   3.001   9.932  0.1359  0.2255 -0.7089
  461TMC3    C6 6917   4.423   2.869   9.914  0.4205  0.7274  0.3450
  461TMC3     C 6918   4.609   2.999  10.255 -0.4693 -0.1980 -0.5239
  461TMC3     O 6919   4.673   3.098  10.226 -0.5211 -0.3236  0.3711
  461TMC3     H 6920   4.539   2.734  10.197 -1.4239 -0.0370 -0.2852
  461TMC3    H1 6921   4.511   3.148  10.074  0.3985  0.5593 -1.5719
  461TMC3    H2 6922   4.376   2.846   9.819 -2.0368  1.3492  1.4089
  461TMC3    C7 6923   4.424   3.107   9.839  0.0857 -0.5371  0.0551
  461TMC3    C8 6924   4.462   2.636   9.974 -0.0818 -0.1019  0.4378
  461TMC3    O1 6925   4.347   3.075   9.748  0.1830 -0.0429  0.2468
  461TMC3    O2 6926   4.557   2.582  10.031  0.5460  0.1003 -0.2367
  462TMC3    C1 6927   0.131   3.465  16.888 -0.1798 -0.2146  0.4174
  462TMC3    C2 6928   0.189   3.342  16.896  0.3957 -0.0092 -0.0135
  462TMC3    C3 6929   0.182   3.267  17.016 -1.1667 -0.0031  0.0227
  462TMC3    C4 6930   0.071   3.530  16.991 -0.5408 -0.4984  0.2000
  462TMC3    C5 6931   0.071   3.459  17.113  0.2253 -0.3478  0.1792
  462TMC3    C6 6932   0.120   3.329  17.127 -0.0400  0.4493 -0.2207
  462TMC3     C 6933   0.198   3.556  16.804 -0.5924  0.2219  0.4375
  462TMC3     O 6934   0.225   3.666  16.857  0.3575  0.0630  0.7583
  462TMC3     H 6935   0.220   3.296  16.803  3.8748  0.8443  0.7244
  462TMC3    H1 6936   0.041   3.634  16.989  0.5744 -0.1675  0.9440
  462TMC3    H2 6937   0.148   3.291  17.224 -1.2905  0.8026  0.2877
  462TMC3    C7 6938   0.101   3.543  17.231 -0.2742  0.0881 -0.7287
  462TMC3    C8 6939   0.266   3.151  17.039 -0.2387  0.4653  0.5593
  462TMC3    O1 6940   0.170   3.494  17.317 -0.1889  0.4662  0.3463
  462TMC3    O2 6941   0.241   3.084  17.138  0.1544  1.0211  0.0575
  463MPD2     C 6942   2.242   1.622   1.371 -0.1637 -0.0787 -0.3162
  463MPD2    C1 6943   2.184   1.735   1.327 -0.7299 -1.0167 -0.3970
  463MPD2    C2 6944   2.264   1.844   1.314 -0.3435  0.5014 -0.3483
  463MPD2    C3 6945   2.402   1.840   1.338  0.5848 -0.3955 -0.3692
  463MPD2    C4 6946   2.460   1.720   1.367 -0.2572  0.6300 -0.3836
  463MPD2    C5 6947   2.376   1.613   1.389 -0.2146 -0.2830 -0.5798
  463MPD2     H 6948   2.214   1.932   1.276 -0.0480  1.0668  0.5592
  463MPD2    H1 6949   2.568   1.710   1.367 -0.2719  0.3856 -2.8535
  463MPD2    H2 6950   2.191   1.528   1.383 -1.3323  0.5080 -0.6900
  463MPD2    H3 6951   2.418   1.521   1.428  1.0710  0.1854 -0.8534
  463MPD2     N 6952   2.485   1.962   1.332  0.1548 -0.2581  0.9409
  463MPD2    H5 6953   2.586   1.948   1.335  0.2024  0.0734  0.7625
  463MPD2    N1 6954   2.038   1.742   1.315 -0.3835  0.0048  0.1519
  463MPD2    H7 6955   2.006   1.837   1.297 -1.4452 -0.4944 -0.5448
  464TMC3    C1 6956   1.822   1.677   1.287  0.8085 -0.2425 -0.5956
  464TMC3    C2 6957   1.777   1.803   1.314  0.0366  0.0768  0.5858
  464TMC3    C3 6958   1.676   1.854   1.238  0.1905  0.5456 -0.5635
  464TMC3    C4 6959   1.760   1.591   1.202 -0.3992 -0.6600 -0.2275
  464TMC3    C5 6960   1.650   1.644   1.140 -0.3433  0.5812  0.3285
  464TMC3    C6 6961   1.609   1.779   1.150 -0.1218  0.2560 -0.4731
  464TMC3     C 6962   1.952   1.636   1.313 -0.0070 -0.8916 -0.4528
  464TMC3     O 6963   1.971   1.516   1.314  0.6136  0.5446  0.5864
  464TMC3     H 6964   1.827   1.871   1.383  1.8997  0.0981 -0.8134
  464TMC3    H1 6965   1.798   1.491   1.181  0.6639 -0.4802  0.8080
  464TMC3    H2 6966   1.522   1.822   1.101  1.2315  1.2629 -2.0183
  464TMC3    C7 6967   1.549   1.545   1.108  0.2433  1.3183 -0.2766
  464TMC3    C8 6968   1.605   1.979   1.275 -0.0956 -0.4447 -0.0820
  464TMC3    O1 6969   1.591   1.436   1.074 -0.2458  0.2822 -0.2991
  464TMC3    O2 6970   1.482   1.973   1.280 -0.3823 -0.3689  0.6157
  465MPD2     C 6971   2.868   2.036  17.185 -0.1328  0.4737 -0.5350
  465MPD2    C1 6972   2.783   1.921  17.211  0.3621  0.7685  0.4111
  465MPD2    C2 6973   2.761   1.830  17.109 -0.1300  0.2530  0.1515
  465MPD2    C3 6974   2.818   1.850  16.982 -0.1365  0.2105  0.0301
  465MPD2    C4 6975   2.889   1.970  16.957  0.0648  0.9650  0.1631
  465MPD2    C5 6976   2.918   2.055  17.062  0.2852 -0.3456 -0.2049
  465MPD2     H 6977   2.696   1.744  17.125 -0.3512  0.5050  0.5930
  465MPD2    H1 6978   2.927   1.997  16.859 -3.8530  2.5439 -0.9308
  465MPD2    H2 6979   2.897   2.108  17.261  0.2006 -0.7688  0.5237
  465MPD2    H3 6980   2.971   2.149  17.050  0.7294 -0.5018  0.4951
  465MPD2     N 6981   2.783   1.755  16.885 -0.8043  0.0365 -0.1275
  465MPD2    H5 6982   2.728   1.673  16.911 -0.9102  0.1142 -0.1076
  465MPD2    N1 6983   2.726   1.903  17.337 -0.1687 -0.4179 -0.1025
  465MPD2    H7 6984   2.664   1.823  17.342 -0.0236 -0.3975  1.7943
  466TMC3    C1 6985   2.532   1.588  16.686  0.0691  0.4392  0.0085
  466TMC3    C2 6986   2.487   1.666  16.578 -0.6328  0.1277 -0.0418
  466TMC3    C3 6987   2.582   1.731  16.505 -0.1436 -0.1512  0.9193
  466TMC3    C4 6988   2.661   1.598  16.726  0.4705  0.0809 -0.2161
  466TMC3    C5 6989   2.752   1.673  16.659 -0.4880 -0.3609  0.3633
  466TMC3    C6 6990   2.716   1.728  16.541  0.8014  0.1335 -0.0271
  466TMC3     C 6991   2.435   1.540  16.785  0.0969  0.6756  0.2957
  466TMC3     O 6992   2.470   1.525  16.902  0.5566 -0.0071 -0.0146
  466TMC3     H 6993   2.382   1.667  16.551 -0.2274  2.0736 -1.5772
  466TMC3    H1 6994   2.681   1.538  16.814 -1.8288 -0.2048  0.1073
  466TMC3    H2 6995   2.773   1.804  16.490 -2.5791  3.4582  1.1733
  466TMC3    C7 6996   2.822   1.764  16.749  0.3213  0.5978  0.2910
  466TMC3    C8 6997   2.530   1.843  16.422 -0.4849  0.2087  0.1572
  466TMC3    O1 6998   2.885   1.853  16.693 -0.0653  0.6436 -0.4958
  466TMC3    O2 6999   2.567   1.873  16.313 -0.1692 -0.4269 -0.6635
  467TMC3    C1 7000   3.584   4.282  14.368  0.0352 -0.6028 -0.4422
  467TMC3    C2 7001   3.509   4.342  14.267 -0.2470  0.5440  0.1158
  467TMC3    C3 7002   3.383   4.395  14.290 -0.3571 -0.2454 -0.3868
  467TMC3    C4 7003   3.534   4.292  14.494  0.5652 -0.0445  0.3184
  467TMC3    C5 7004   3.400   4.330  14.512  0.5956  0.8795  0.1090
  467TMC3    C6 7005   3.336   4.399  14.412  0.0797 -0.0156  1.0593
  467TMC3     C 7006   3.732   4.269  14.345 -0.7850 -0.7147 -0.0235
  467TMC3     O 7007   3.755   4.259  14.224 -0.0837 -0.7168 -0.0850
  467TMC3     H 7008   3.552   4.361  14.170  0.0928 -1.0510 -0.0421
  467TMC3    H1 7009   3.587   4.238  14.571  0.3818 -1.5678 -0.6160
  467TMC3    H2 7010   3.256   4.472  14.424  0.7447  1.0012 -0.6833
  467TMC3    C7 7011   3.342   4.325  14.647 -0.5934 -0.3060  0.4455
  467TMC3    C8 7012   3.339   4.499  14.197 -0.4854  0.8098 -0.1828
  467TMC3    O1 7013   3.414   4.318  14.745  0.5998  0.4218 -0.2849
  467TMC3    O2 7014   3.432   4.559  14.139 -0.1300 -0.3161 -0.6158
  468MPD2     C 7015   2.194   3.025  11.121  0.7222 -0.2107 -0.2022
  468MPD2    C1 7016   2.323   2.974  11.133  0.3224 -0.4207  0.7969
  468MPD2    C2 7017   2.350   2.844  11.155 -0.3436  0.2589  0.1662
  468MPD2    C3 7018   2.249   2.750  11.153  0.0504 -0.0518 -0.7883
  468MPD2    C4 7019   2.118   2.801  11.131 -0.1830 -0.0710  0.2791
  468MPD2    C5 7020   2.090   2.937  11.128  0.6728  0.0967 -0.4116
  468MPD2     H 7021   2.452   2.810  11.147 -1.2331 -2.7176  1.5663
  468MPD2    H1 7022   2.033   2.734  11.135 -0.3520  0.1379  0.2560
  468MPD2    H2 7023   2.171   3.126  11.091 -0.0923 -0.0419  0.9465
  468MPD2    H3 7024   1.989   2.972  11.114  0.8542  0.6106 -0.4227
  468MPD2     N 7025   2.268   2.608  11.167 -0.1849  0.0561 -0.2050
  468MPD2    H5 7026   2.186   2.550  11.159  0.8219 -1.3431 -0.3842
  468MPD2    N1 7027   2.432   3.057  11.134  0.0219 -0.2115  0.4525
  468MPD2    H7 7028   2.522   3.014  11.152 -1.0356 -2.7261 -0.2226
  469TMC3    C1 7029   2.548   3.238  11.217 -0.4608 -0.1886  0.1697
  469TMC3    C2 7030   2.653   3.155  11.218 -0.1603  0.0917 -0.2730
  469TMC3    C3 7031   2.731   3.154  11.334 -0.3493 -0.8388 -0.0850
  469TMC3    C4 7032   2.525   3.326  11.322  0.7669  0.1197 -0.3319
  469TMC3    C5 7033   2.616   3.334  11.423  0.2288 -0.1904  0.0667
  469TMC3    C6 7034   2.721   3.252  11.427 -0.0272 -0.2308  0.7051
  469TMC3     C 7035   2.431   3.192  11.144  0.4856 -0.1187  0.7359
  469TMC3     O 7036   2.340   3.273  11.125 -0.6804  0.3475  0.3421
  469TMC3     H 7037   2.682   3.090  11.136 -0.4976 -0.9557  0.4490
  469TMC3    H1 7038   2.439   3.392  11.312  1.4520  1.4525  2.5937
  469TMC3    H2 7039   2.805   3.267  11.494  0.7241  1.8860 -0.7253
  469TMC3    C7 7040   2.575   3.386  11.554 -0.1239  0.1177 -0.4456
  469TMC3    C8 7041   2.851   3.069  11.325  0.5205  0.3436  0.0900
  469TMC3    O1 7042   2.467   3.448  11.550  0.1359  0.2760 -0.1652
  469TMC3    O2 7043   2.906   3.054  11.220 -0.1445  0.9965 -0.7504
  470TMC3    C1 7044   4.095   4.221   0.410  0.3602  0.7938  0.3324
  470TMC3    C2 7045   4.042   4.318   0.495  1.2976 -0.3016 -0.0498
  470TMC3    C3 7046   4.067   4.301   0.628  0.2722  0.1779 -0.7054
  470TMC3    C4 7047   4.151   4.109   0.452  0.0276 -1.0859 -0.0062
  470TMC3    C5 7048   4.186   4.099   0.586 -0.4306 -0.0350  0.3922
  470TMC3    C6 7049   4.132   4.188   0.673  0.1757 -0.1254  0.3132
  470TMC3     C 7050   4.075   4.246   0.269  0.2698 -0.1168  0.0146
  470TMC3     O 7051   4.076   4.358   0.230  0.0363  0.1428  0.2864
  470TMC3     H 7052   3.992   4.405   0.453  0.0758 -0.7884  0.4035
  470TMC3    H1 7053   4.196   4.045   0.377 -0.4424 -1.4106 -0.0049
  470TMC3    H2 7054   4.155   4.175   0.778 -0.9402 -1.6134  0.3879
  470TMC3    C7 7055   4.227   3.967   0.629 -0.0415  0.3268 -0.3137
  470TMC3    C8 7056   4.073   4.417   0.721  0.0621 -0.4005  0.0335
  470TMC3    O1 7057   4.227   3.883   0.542  0.7756  0.0784 -0.5899
  470TMC3    O2 7058   4.124   4.402   0.832 -0.0619  0.2428  0.1665
  471MPD2     C 7059   4.484   0.480  16.896  0.0385 -0.2293 -0.3934
  471MPD2    C1 7060   4.616   0.489  16.942 -0.1908  0.5774 -0.2560
  471MPD2    C2 7061   4.653   0.430  17.061 -0.0080 -0.0490 -0.7201
  471MPD2    C3 7062   4.565   0.344  17.129  0.6468 -0.2065 -0.0039
  471MPD2    C4 7063   4.432   0.335  17.079  0.0559  0.2111  0.4911
  471MPD2    C5 7064   4.398   0.409  16.974 -0.2813 -0.2490  0.1103
  471MPD2     H 7065   0.017   0.443  17.090 -0.2966 -1.7835  1.0815
  471MPD2    H1 7066   4.356   0.291  17.142 -0.6734 -0.2370 -0.6991
  471MPD2    H2 7067   4.450   0.528  16.805 -1.8503  1.0483  0.9903
  471MPD2    H3 7068   4.294   0.408  16.942 -0.7957  2.3651  1.7515
  471MPD2     N 7069   4.593   0.282  17.248  0.3862  0.0699 -0.4229
  471MPD2    H5 7070   4.525   0.219  17.289 -0.7652  1.9983  0.5708
  471MPD2    N1 7071   4.716   0.574  16.874 -0.0156 -0.2610  0.0567
  471MPD2    H7 7072   0.064   0.585  16.925 -1.1813 -2.4844  2.5516
  472TMC3    C1 7073   0.111   0.630  16.690 -0.0860 -0.6649  0.0033
  472TMC3    C2 7074   0.092   0.670  16.558  0.4669  0.1855  0.5961
  472TMC3    C3 7075   0.181   0.625  16.465  1.1578  0.2731 -0.1514
  472TMC3    C4 7076   0.205   0.532  16.712 -0.0068 -0.2729  0.1759
  472TMC3    C5 7077   0.293   0.488  16.615 -0.3321  0.1816 -0.0466
  472TMC3    C6 7078   0.295   0.549  16.498  0.2271 -1.0013  0.2117
  472TMC3     C 7079   4.718   0.602  16.740 -0.0819 -0.0732  0.0635
  472TMC3     O 7080   4.638   0.571  16.652 -0.2190  0.5006  0.5545
  472TMC3     H 7081   0.007   0.728  16.522  1.2115 -1.4910 -3.8194
  472TMC3    H1 7082   0.203   0.478  16.806 -0.4139  1.1853  1.0001
  472TMC3    H2 7083   0.361   0.525  16.415  1.7132  1.1573  0.7601
  472TMC3    C7 7084   0.325   0.343  16.623  0.1399 -0.5001 -0.2894
  472TMC3    C8 7085   0.122   0.541  16.364  0.5869  0.6483 -0.1702
  472TMC3    O1 7086   0.336   0.289  16.734 -0.5119 -0.4840  0.0871
  472TMC3    O2 7087   0.196   0.498  16.276 -0.1801 -0.3966  0.0687
  473MPD2     C 7088   0.022   2.524  14.104  1.1942 -0.1010 -0.0110
  473MPD2    C1 7089   0.110   2.580  14.010  0.4972 -0.1548  0.4772
  473MPD2    C2 7090   0.221   2.653  14.043  0.5986 -0.5303 -0.0603
  473MPD2    C3 7091   0.232   2.682  14.182 -0.1630 -0.9775 -0.1419
  473MPD2    C4 7092   0.154   2.620  14.278 -0.0485 -0.5078  0.3979
  473MPD2    C5 7093   0.055   2.539  14.239  0.6415 -0.5465 -0.1810
  473MPD2     H 7094   0.277   2.712  13.972 -0.6974 -1.0900 -1.5651
  473MPD2    H1 7095   0.160   2.657  14.380 -0.9604  0.1758  0.1966
  473MPD2    H2 7096   4.670   2.470  14.079  2.1376  0.5281 -4.9392
  473MPD2    H3 7097   4.723   2.505  14.314  0.0861  1.8197  0.3649
  473MPD2     N 7098   0.320   2.783  14.229  0.6626 -0.6218 -0.2025
  473MPD2    H5 7099   0.305   2.814  14.324 -0.8694  0.5352 -0.8222
  473MPD2    N1 7100   0.078   2.575  13.869 -0.6859 -0.4277  0.0474
  473MPD2    H7 7101   0.137   2.635  13.812 -0.8003 -0.5962 -0.2446
  474TMC3    C1 7102   0.442   2.978  14.218 -0.6997 -0.1787  0.6871
  474TMC3    C2 7103   0.335   3.046  14.259  0.2609  0.1105 -0.2309
  474TMC3    C3 7104   0.361   3.165  14.327 -0.3024 -0.1501 -0.1989
  474TMC3    C4 7105   0.570   3.007  14.251 -0.2720  0.4736 -0.3355
  474TMC3    C5 7106   0.589   3.114  14.334 -0.4144  0.1842  0.2319
  474TMC3    C6 7107   0.486   3.204  14.371  0.9533  0.7343 -0.5496
  474TMC3     C 7108   0.413   2.851  14.159 -0.0960 -0.6077  0.0858
  474TMC3     O 7109   0.499   2.816  14.077  0.7232 -0.0660 -0.1154
  474TMC3     H 7110   0.241   3.025  14.210  0.7950 -1.7092 -0.4872
  474TMC3    H1 7111   0.656   2.945  14.228 -0.5398 -0.6007  1.5323
  474TMC3    H2 7112   0.504   3.289  14.436 -0.5476 -1.1395  2.2877
  474TMC3    C7 7113   0.717   3.127  14.394  0.2943  0.3628  0.7588
  474TMC3    C8 7114   0.259   3.263  14.313 -0.4735  0.5281 -0.7976
  474TMC3    O1 7115   0.809   3.062  14.346 -0.1595 -0.0263 -0.0853
  474TMC3    O2 7116   0.142   3.228  14.301  0.1693  0.2053  0.0074
  475MPD2     C 7117   3.229   0.393  10.317 -0.2843  0.0941  1.0714
  475MPD2    C1 7118   3.233   0.492  10.408 -0.1012 -0.2976 -0.5352
  475MPD2    C2 7119   3.112   0.527  10.471 -0.3408  0.2341  0.0451
  475MPD2    C3 7120   2.991   0.479  10.428  0.4773  0.8412 -0.3617
  475MPD2    C4 7121   2.994   0.390  10.330  0.0797 -0.1293  0.2020
  475MPD2    C5 7122   3.110   0.343  10.273  0.1233  0.0242  0.2163
  475MPD2     H 7123   3.111   0.597  10.553 -0.1684 -0.6008  0.7636
  475MPD2    H1 7124   2.901   0.349  10.294  0.5433 -1.5214  0.5739
  475MPD2    H2 7125   3.316   0.354  10.266 -0.0154  1.6200  0.3455
  475MPD2    H3 7126   3.109   0.256  10.209  0.4608  0.2630 -0.1149
  475MPD2     N 7127   2.872   0.547  10.481 -0.3941 -0.1632  0.8853
  475MPD2    H5 7128   2.890   0.623  10.546 -2.3348  2.0716 -1.1908
  475MPD2    N1 7129   3.353   0.565  10.427  0.0722  0.5736  0.3739
  475MPD2    H7 7130   3.422   0.557  10.353  1.6708 -1.0218  2.0439
  476TMC3    C1 7131   3.460   0.763  10.473 -0.5322  0.3335  0.0292
  476TMC3    C2 7132   3.398   0.816  10.361 -0.1180  0.7259  0.3855
  476TMC3    C3 7133   3.406   0.955  10.346  0.5409 -0.0259 -0.1185
  476TMC3    C4 7134   3.532   0.835  10.562 -0.1949 -0.1588  0.3972
  476TMC3    C5 7135   3.564   0.968  10.525 -0.1292 -0.4405  0.9575
  476TMC3    C6 7136   3.500   1.024  10.415  0.4617 -0.2230  0.0171
  476TMC3     C 7137   3.385   0.651  10.522  0.1661  0.5743  0.4082
  476TMC3     O 7138   3.337   0.662  10.632  0.3615 -0.6651  0.3162
  476TMC3     H 7139   3.332   0.757  10.299  0.1052 -0.2798  1.1070
  476TMC3    H1 7140   3.580   0.780  10.642 -1.3338  2.1361  2.6385
  476TMC3    H2 7141   3.523   1.127  10.388  0.9600 -0.1456  0.7327
  476TMC3    C7 7142   3.613   1.062  10.626 -0.1771 -0.2822 -0.1222
  476TMC3    C8 7143   3.281   1.023  10.341  0.2952 -0.0232 -0.0558
  476TMC3    O1 7144   3.583   1.180  10.614  0.3995 -0.4479 -0.6781
  476TMC3    O2 7145   3.274   1.138  10.382 -1.1013  0.1703 -0.0957
  477MPD2     C 7146   0.388   2.238  11.635 -0.0285 -0.1391 -0.2020
  477MPD2    C1 7147   0.324   2.149  11.717  0.0424 -0.3222  0.6055
  477MPD2    C2 7148   0.390   2.088  11.818 -0.0939  0.2664 -0.3733
  477MPD2    C3 7149   0.522   2.110  11.841  0.2130  0.1010 -0.4270
  477MPD2    C4 7150   0.593   2.199  11.759  0.2961 -0.0398  0.1932
  477MPD2    C5 7151   0.527   2.250  11.650  0.3454  0.2133  0.3294
  477MPD2     H 7152   0.335   2.018  11.881  0.3288  1.5314  1.4218
  477MPD2    H1 7153   0.695   2.234  11.764  0.4946 -0.5118 -0.4541
  477MPD2    H2 7154   0.340   2.273  11.543 -1.9378 -0.4051  0.6884
  477MPD2    H3 7155   0.576   2.320  11.584  0.5287 -0.1663  0.0686
  477MPD2     N 7156   0.586   2.052  11.950 -0.6776  0.1641  0.4766
  477MPD2    H5 7157   0.530   1.998  12.016 -1.8453  0.1964 -0.4892
  477MPD2    N1 7158   0.193   2.117  11.681  0.3337  0.0025 -0.6754
  477MPD2    H7 7159   0.154   2.155  11.596 -0.5082 -1.5063 -0.9600
  478TMC3    C1 7160   4.709   2.053  11.679 -0.1539  0.7982 -0.1191
  478TMC3    C2 7161   4.608   2.107  11.754 -0.5028  0.1045 -0.0769
  478TMC3    C3 7162   4.532   2.196  11.684  0.7385  0.1903  0.3056
  478TMC3    C4 7163   4.714   2.060  11.546 -0.0431  1.0256 -0.0717
  478TMC3    C5 7164   4.619   2.135  11.477  0.5112  0.4318  0.7788
  478TMC3    C6 7165   4.533   2.213  11.552 -0.1194  0.5546  0.7430
  478TMC3     C 7166   0.098   2.049  11.752 -0.0581  0.1772  0.3029
  478TMC3     O 7167   0.100   2.021  11.872 -0.4774 -0.0755 -0.1143
  478TMC3     H 7168   4.618   2.140  11.857 -1.4260 -0.7213  0.2789
  478TMC3    H1 7169   0.026   1.981  11.492 -0.0531  1.8477 -1.2830
  478TMC3    H2 7170   4.471   2.289  11.505 -1.1562  0.6099  2.2011
  478TMC3    C7 7171   4.655   2.168  11.345  0.1597  0.2740 -0.6116
  478TMC3    C8 7172   4.485   2.307  11.768  0.2884  0.2772 -0.6938
  478TMC3    O1 7173   0.040   2.166  11.323  0.0899 -0.0562  0.6982
  478TMC3    O2 7174   4.418   2.279  11.867  0.2957 -0.3762  0.0847
  479MPD2     C 7175   0.069   4.525  15.395 -0.1210 -0.2156  0.0895
  479MPD2    C1 7176   4.694   4.480  15.462  0.6572  0.3098 -0.6410
  479MPD2    C2 7177   4.709   4.464  15.599 -0.4521 -0.7935 -0.6292
  479MPD2    C3 7178   0.083   4.515  15.662 -0.0060 -0.8238  0.2437
  479MPD2    C4 7179   0.186   4.563  15.593  1.3805 -0.1888 -0.6044
  479MPD2    C5 7180   0.189   4.559  15.461 -0.1042  0.8375 -0.4703
  479MPD2     H 7181   4.633   4.419  15.662  0.2200  1.4610  1.7976
  479MPD2    H1 7182   0.276   4.600  15.641  0.2781  0.3455  1.0516
  479MPD2    H2 7183   0.065   4.537  15.287  1.0095  0.3836  0.1225
  479MPD2    H3 7184   0.276   4.593  15.406 -1.8444  4.5431 -0.9556
  479MPD2     N 7185   0.101   4.505  15.805  0.5869  0.4020 -0.4980
  479MPD2    H5 7186   0.173   4.571  15.834  0.8960  0.6364 -1.7774
  479MPD2    N1 7187   4.583   4.448  15.388 -0.2314  0.4286 -0.0396
  479MPD2    H7 7188   4.580   4.481  15.292  2.5313  3.2771  0.8635
  480TMC3    C1 7189   4.603   4.419  16.177 -0.2527 -0.0856 -0.1990
  480TMC3    C2 7190   4.549   4.539  16.163  0.4526  0.1228  0.8589
  480TMC3    C3 7191   4.604   4.635  16.072 -0.0113 -0.4510 -0.0302
  480TMC3    C4 7192   4.714   4.387  16.101  0.6560  0.5277 -0.3913
  480TMC3    C5 7193   0.034   4.482  16.023 -0.0902  1.1180  0.8551
  480TMC3    C6 7194   4.730   4.613  16.014 -0.0235  0.2340 -0.0973
  480TMC3     C 7195   4.538   4.310  16.242  0.1364 -1.1050 -0.6208
  480TMC3     O 7196   4.554   4.199  16.198 -0.3296 -0.5551 -0.0489
  480TMC3     H 7197   4.451   4.556  16.208 -1.1851 -0.7987 -2.3415
  480TMC3    H1 7198   4.738   4.282  16.085  1.3923  0.6963 -0.4068
  480TMC3    H2 7199   0.057   4.688  15.973 -1.0273  0.9435 -0.4348
  480TMC3    C7 7200   0.025   4.433  15.889 -0.7600  0.1351 -0.0487
  480TMC3    C8 7201   4.497   4.676  15.982  0.0003 -0.2969  0.1429
  480TMC3    O1 7202   4.680   4.343  15.864 -0.0639  0.2709  0.1081
  480TMC3    O2 7203   4.387   4.664  16.024 -0.7209  0.1529 -0.7826
  481MPD2     C 7204   1.849   4.332  14.219  0.0023  0.0955 -0.4779
  481MPD2    C1 7205   1.728   4.274  14.246  0.2324 -0.2366 -0.1181
  481MPD2    C2 7206   1.702   4.252  14.378  0.1124  0.3847  0.1955
  481MPD2    C3 7207   1.796   4.275  14.479 -1.0414  0.7454  0.2888
  481MPD2    C4 7208   1.915   4.335  14.444 -0.2337 -0.1118  0.4535
  481MPD2    C5 7209   1.942   4.370  14.313 -0.1326  0.0331 -0.2989
  481MPD2     H 7210   1.598   4.234  14.403 -0.5121  2.9421 -0.6498
  481MPD2    H1 7211   1.991   4.352  14.519  0.1637 -0.9139  0.2367
  481MPD2    H2 7212   1.876   4.362  14.118 -1.7106  0.7472 -0.7452
  481MPD2    H3 7213   2.034   4.418  14.282  0.8723 -0.9991  1.0588
  481MPD2     N 7214   1.770   4.255  14.612  0.6506 -0.9515  0.9023
  481MPD2    H5 7215   1.838   4.285  14.681  1.4111 -1.3474  0.3331
  481MPD2    N1 7216   1.637   4.262  14.137  0.2538  0.3673 -0.1266
  481MPD2    H7 7217   1.670   4.293  14.047  0.6871  1.1984  0.3251
  482TMC3    C1 7218   1.429   4.185  14.031 -0.2222 -0.3033 -0.9158
  482TMC3    C2 7219   1.318   4.107  14.038  0.1637 -0.5907 -0.6201
  482TMC3    C3 7220   1.206   4.152  13.988 -0.1582  0.6011 -0.6597
  482TMC3    C4 7221   1.420   4.304  13.955  0.1885 -0.2809 -0.4587
  482TMC3    C5 7222   1.305   4.326  13.888 -0.3090  0.1176 -0.0308
  482TMC3    C6 7223   1.190   4.265  13.912 -0.0529  0.6241  0.0586
  482TMC3     C 7224   1.523   4.178  14.145  0.2306  0.3163  0.4300
  482TMC3     O 7225   1.493   4.098  14.234 -0.5921  0.2251  0.7228
  482TMC3     H 7226   1.320   4.029  14.113 -0.0980  1.2096  1.2512
  482TMC3    H1 7227   1.497   4.381  13.957 -0.8388  0.6721  1.7993
  482TMC3    H2 7228   1.101   4.295  13.857 -0.4112  0.5289  0.5815
  482TMC3    C7 7229   1.297   4.467  13.844  0.0495  0.1940 -0.1069
  482TMC3    C8 7230   1.101   4.056  13.983  0.1923  0.0777 -0.3949
  482TMC3    O1 7231   1.387   4.511  13.777  0.1626 -0.0049 -0.3069
  482TMC3    O2 7232   1.133   3.948  14.030 -0.3514  0.0980  0.4390
  483TMC3    C1 7233   4.546   3.228   1.075 -0.0562 -0.0324  0.2534
  483TMC3    C2 7234   4.609   3.346   1.044  0.3412 -0.1442 -0.3370
  483TMC3    C3 7235   0.002   3.332   1.032  0.4947  0.3713 -0.1738
  483TMC3    C4 7236   4.603   3.104   1.101  0.1116  0.0214 -0.5918
  483TMC3    C5 7237   0.000   3.104   1.081  0.1834 -0.5387 -0.5403
  483TMC3    C6 7238   0.075   3.217   1.052  0.2859  0.1075  0.0443
  483TMC3     C 7239   4.413   3.223   1.021  0.1076  0.2716 -0.1787
  483TMC3     O 7240   4.390   3.287   0.917 -0.2913 -0.3251  0.1543
  483TMC3     H 7241   4.547   3.430   1.017  0.9368  0.7673  1.1141
  483TMC3    H1 7242   4.551   3.010   1.113  0.4530 -0.1744 -0.6540
  483TMC3    H2 7243   0.182   3.227   1.039  0.1938 -0.1901 -0.9729
  483TMC3    C7 7244   0.054   2.972   1.079  0.1589  0.5152 -0.2838
  483TMC3    C8 7245   0.075   3.435   0.969  0.2555  0.3092  0.0771
  483TMC3    O1 7246   0.007   2.888   1.157  0.4730 -0.6429 -0.6579
  483TMC3    O2 7247   0.160   3.404   0.891  0.1092  0.2697  0.0776
  484MPD2     C 7248   1.616   1.091  12.515  0.3965 -0.0265  0.1967
  484MPD2    C1 7249   1.684   0.986  12.563  0.0744 -0.2945  0.2911
  484MPD2    C2 7250   1.824   0.975  12.547 -0.1633 -0.0791  0.2013
  484MPD2    C3 7251   1.893   1.078  12.476  0.7995 -0.5558 -0.5415
  484MPD2    C4 7252   1.813   1.170  12.414  0.3336 -0.1391 -0.1881
  484MPD2    C5 7253   1.682   1.187  12.433  0.3482  0.3444  0.7069
  484MPD2     H 7254   1.874   0.881  12.565 -0.2516 -0.0736  0.4694
  484MPD2    H1 7255   1.851   1.259  12.364  2.8670 -0.8708  0.4417
  484MPD2    H2 7256   1.513   1.112  12.538  0.7160  0.0540  1.5383
  484MPD2    H3 7257   1.633   1.273  12.389  0.0850 -0.0713  0.1881
  484MPD2     N 7258   2.033   1.086  12.452 -0.3405  0.2209  0.0304
  484MPD2    H5 7259   2.057   1.156  12.382 -1.7846 -0.3704 -1.0627
  484MPD2    N1 7260   1.603   0.885  12.627  0.1523  0.2602  0.0743
  484MPD2    H7 7261   1.503   0.900  12.620 -0.0657 -1.3556 -0.2578
  485TMC3    C1 7262   2.259   1.054  12.462 -0.7979 -0.8088 -0.4628
  485TMC3    C2 7263   2.374   1.057  12.533  0.0056  0.6118  0.5296
  485TMC3    C3 7264   2.493   1.087  12.479 -0.1897 -0.2928 -0.3467
  485TMC3    C4 7265   2.264   1.079  12.326 -0.4435 -0.0558  1.1430
  485TMC3    C5 7266   2.381   1.121  12.281 -0.2343 -0.3330 -0.2092
  485TMC3    C6 7267   2.498   1.142  12.354  0.4290  0.0257 -0.1220
  485TMC3     C 7268   2.132   1.018  12.520 -0.0746 -0.1727  0.2921
  485TMC3     O 7269   2.126   0.963  12.628 -0.2742  0.7576  0.5002
  485TMC3     H 7270   2.363   1.031  12.638  0.5970  0.6419  0.5950
  485TMC3    H1 7271   2.179   1.064  12.261  0.9877 -2.4000 -0.1737
  485TMC3    H2 7272   2.591   1.152  12.300  0.2789 -3.0369 -0.9339
  485TMC3    C7 7273   2.411   1.054  12.157  0.0553  0.1523 -0.0680
  485TMC3    C8 7274   2.591   0.978  12.495 -0.3735  0.1586 -0.0269
  485TMC3    O1 7275   2.337   0.966  12.114  0.7890 -0.0466 -0.6031
  485TMC3    O2 7276   2.548   0.868  12.525  0.6685  0.2052  0.8133
  486MPD2     C 7277   4.464   4.245  13.273  0.4734 -0.3485  0.5780
  486MPD2    C1 7278   4.428   4.196  13.154  0.3470 -0.0551  0.3893
  486MPD2    C2 7279   4.348   4.273  13.063  0.4854  0.4392 -0.0169
  486MPD2    C3 7280   4.302   4.399  13.110 -0.0949  0.3911  0.5226
  486MPD2    C4 7281   4.349   4.445  13.229  0.1389  0.1741  0.1644
  486MPD2    C5 7282   4.420   4.365  13.312 -0.4139 -0.4385 -0.1440
  486MPD2     H 7283   4.324   4.243  12.962 -0.0701 -1.7720  0.7714
  486MPD2    H1 7284   4.327   4.544  13.269 -0.1109  1.4969 -3.3054
  486MPD2    H2 7285   4.510   4.175  13.342  0.4039 -0.0697  0.9080
  486MPD2    H3 7286   4.444   4.410  13.408  0.0698  0.0003 -0.4711
  486MPD2     N 7287   4.205   4.464  13.029 -0.5212 -0.0228  0.0293
  486MPD2    H5 7288   4.186   4.414  12.943 -0.8953 -0.1217  0.1697
  486MPD2    N1 7289   4.479   4.066  13.118 -0.3550 -0.0806 -0.1284
  486MPD2    H7 7290   4.557   4.029  13.172 -0.0215  2.1807  0.9183
  487TMC3    C1 7291   4.492   3.845  13.029  0.2227  0.2861 -0.3960
  487TMC3    C2 7292   4.435   3.747  12.951  0.1154  0.7221 -0.4382
  487TMC3    C3 7293   4.437   3.618  12.993 -0.1485 -0.2227 -0.2802
  487TMC3    C4 7294   4.564   3.808  13.137 -0.3869  0.2102  0.0997
  487TMC3    C5 7295   4.566   3.678  13.179  0.1468 -0.3129  0.0718
  487TMC3    C6 7296   4.526   3.581  13.095  0.2128  0.5928  0.1024
  487TMC3     C 7297   4.435   3.978  13.019 -0.0768 -0.1180 -0.6766
  487TMC3     O 7298   4.359   3.998  12.926 -0.0273  1.0354 -0.5817
  487TMC3     H 7299   4.374   3.761  12.862 -3.1935  0.1210  1.7445
  487TMC3    H1 7300   4.600   3.877  13.214  1.4448  0.0735 -0.6288
  487TMC3    H2 7301   4.524   3.479  13.132  2.1036  0.3427 -0.4639
  487TMC3    C7 7302   4.514   3.667  13.316  0.0390  0.5812  0.9975
  487TMC3    C8 7303   4.301   3.572  13.017  0.3181 -0.4386  0.8081
  487TMC3    O1 7304   4.515   3.770  13.380 -0.2775 -0.0094 -0.1161
  487TMC3    O2 7305   4.209   3.650  13.001 -0.0763  0.7331  0.0500
  488MPD2     C 7306   4.648   1.444  16.468  0.5309  0.2598  1.3667
  488MPD2    C1 7307   4.690   1.542  16.560  0.0170  0.1642 -0.3894
  488MPD2    C2 7308   4.619   1.555  16.686 -0.2395  1.2379 -0.6847
  488MPD2    C3 7309   4.525   1.463  16.721  0.3683  0.3361  0.3784
  488MPD2    C4 7310   4.489   1.362  16.635 -0.2046  0.4930  0.1506
  488MPD2    C5 7311   4.542   1.358  16.509 -0.5320 -0.2438 -0.2806
  488MPD2     H 7312   4.649   1.626  16.763  1.5672  0.0406 -0.2780
  488MPD2    H1 7313   4.408   1.295  16.657 -1.7425  1.6154 -2.0642
  488MPD2    H2 7314   4.689   1.447  16.368  0.6115  0.3475  1.4030
  488MPD2    H3 7315   4.509   1.280  16.442 -0.8528 -0.6362  0.3345
  488MPD2     N 7316   4.472   1.470  16.847  0.3858 -0.2951 -0.9634
  488MPD2    H5 7317   4.515   1.534  16.913  1.3831  0.2171 -2.1180
  488MPD2    N1 7318   0.044   1.642  16.523 -0.2898  0.0596  0.6651
  488MPD2    H7 7319   0.054   1.716  16.592 -3.1928 -0.4238  1.6296
  489TMC3    C1 7320   4.341   1.410  17.030  0.1523  0.6898  0.0006
  489TMC3    C2 7321   4.437   1.470  17.109 -0.3125 -0.4619  0.0561
  489TMC3    C3 7322   4.400   1.536  17.226  0.1760  0.3476 -0.4012
  489TMC3    C4 7323   4.211   1.408  17.070 -0.2424  0.0609 -0.6287
  489TMC3    C5 7324   4.181   1.462  17.196 -0.3745 -0.2493 -0.2952
  489TMC3    C6 7325   4.275   1.527  17.273  0.0989  0.3957 -0.2230
  489TMC3     C 7326   4.365   1.388  16.890 -0.2148 -0.2626 -0.3430
  489TMC3     O 7327   4.280   1.317  16.830 -0.0291 -0.1641  0.0078
  489TMC3     H 7328   4.541   1.478  17.080 -0.6840  0.1395 -1.1277
  489TMC3    H1 7329   4.135   1.350  17.019  0.7801  0.0269 -2.1178
  489TMC3    H2 7330   4.240   1.576  17.363  0.1161 -1.7916  0.9915
  489TMC3    C7 7331   4.065   1.419  17.267 -0.1264  0.5041  1.0365
  489TMC3    C8 7332   4.466   1.660  17.220  0.4725  0.7584  0.4191
  489TMC3    O1 7333   4.062   1.424  17.389 -0.4881  0.0149 -0.8848
  489TMC3    O2 7334   4.508   1.695  17.110 -0.3526  0.3608 -0.7739
  490MPD2     C 7335   0.497   0.696  17.304  0.3002 -0.4887 -0.2307
  490MPD2    C1 7336   0.415   0.787  17.363 -0.2188 -0.9109 -0.1523
  490MPD2    C2 7337   0.446   0.923  17.367  0.3508 -0.2196  0.1464
  490MPD2    C3 7338   0.565   0.967  17.316  0.3687 -0.4583  0.1157
  490MPD2    C4 7339   0.646   0.880  17.250 -0.0285 -1.2636 -0.0994
  490MPD2    C5 7340   0.608   0.746  17.238  0.0848  0.4101 -0.0560
  490MPD2     H 7341   0.371   1.000  17.385 -0.0541 -0.9267  1.4752
  490MPD2    H1 7342   0.735   0.905  17.194 -1.8011  3.1676 -0.8807
  490MPD2    H2 7343   0.474   0.592  17.289 -0.0365 -0.2196 -1.5971
  490MPD2    H3 7344   0.670   0.675  17.184 -2.0172 -1.6846  0.2473
  490MPD2     N 7345   0.617   1.099  17.333 -0.0636 -0.3894 -0.6623
  490MPD2    H5 7346   0.701   1.115  17.277  0.8271 -0.4025  0.6714
  490MPD2    N1 7347   0.292   0.756  17.422  0.3963 -0.0526  0.1223
  490MPD2    H7 7348   0.223   0.825  17.449  0.5830 -1.0908  3.1587
  491TMC3    C1 7349   0.118   0.624  17.502 -0.1437 -0.0074 -0.0305
  491TMC3    C2 7350   0.084   0.535  17.601 -0.1265 -0.3031  0.3785
  491TMC3    C3 7351   4.690   0.509  17.628  0.0708 -0.1394 -0.1791
  491TMC3    C4 7352   0.022   0.675  17.416 -0.5820  0.6568 -0.0179
  491TMC3    C5 7353   4.631   0.636  17.441  0.2484 -0.1634 -0.5818
  491TMC3    C6 7354   4.589   0.563  17.549  0.1915  0.0186 -0.4271
  491TMC3     C 7355   0.254   0.627  17.455 -0.0313 -0.4601 -0.1457
  491TMC3     O 7356   0.312   0.522  17.434 -0.6999  0.1191 -0.2246
  491TMC3     H 7357   0.168   0.491  17.653 -0.3057  0.3398  1.2219
  491TMC3    H1 7358   0.045   0.719  17.320 -0.0503  2.3298  0.8701
  491TMC3    H2 7359   4.486   0.545  17.578 -0.3467  2.3879 -0.8685
  491TMC3    C7 7360   4.525   0.678  17.357  0.1835  0.1466 -0.2501
  491TMC3    C8 7361   4.669   0.523   0.015  0.2678 -0.4988 -0.0632
  491TMC3    O1 7362   4.428   0.605  17.364  0.1056 -0.3203 -0.0226
  491TMC3    O2 7363   4.585   0.604   0.047  0.2453  0.0765 -0.4513
  492MPD2     C 7364   0.581   0.789  11.142 -0.3080 -0.0299 -0.3364
  492MPD2    C1 7365   0.501   0.678  11.100  0.0906 -0.6454 -0.1708
  492MPD2    C2 7366   0.506   0.559  11.169  0.1106 -0.0818  0.2271
  492MPD2    C3 7367   0.575   0.550  11.288 -0.5513  0.2474 -0.8029
  492MPD2    C4 7368   0.645   0.657  11.324 -0.2631  0.6879  0.4227
  492MPD2    C5 7369   0.654   0.773  11.256 -0.4908 -0.5671  0.3696
  492MPD2     H 7370   0.455   0.472  11.130 -0.0400 -0.6029  1.6041
  492MPD2    H1 7371   0.694   0.652  11.420  0.3609 -0.5528  0.0494
  492MPD2    H2 7372   0.590   0.883  11.088 -2.2868  1.4008  1.8245
  492MPD2    H3 7373   0.709   0.857  11.297 -0.3528  0.1315 -1.2441
  492MPD2     N 7374   0.567   0.443  11.380  0.6205  0.1171  0.5735
  492MPD2    H5 7375   0.620   0.460  11.465 -2.1183  1.7615  1.9161
  492MPD2    N1 7376   0.438   0.695  10.966  0.3228 -0.0684 -0.3458
  492MPD2    H7 7377   0.467   0.779  10.918  1.3797  1.7047  3.3700
  493TMC3    C1 7378   0.323   0.648  10.765 -0.0784 -0.0967  0.0800
  493TMC3    C2 7379   0.394   0.749  10.699  0.0775 -0.3886  0.1991
  493TMC3    C3 7380   0.374   0.764  10.563  0.3568 -0.5398  1.3528
  493TMC3    C4 7381   0.233   0.563  10.695  0.6783 -0.0574  0.2979
  493TMC3    C5 7382   0.224   0.591  10.565  0.0591 -0.0288  0.2958
  493TMC3    C6 7383   0.287   0.689  10.496 -0.4656  0.7728  0.3508
  493TMC3     C 7384   0.356   0.608  10.901  0.2397 -0.2940 -0.0645
  493TMC3     O 7385   0.307   0.508  10.948  0.0432 -0.0772 -0.0639
  493TMC3     H 7386   0.462   0.818  10.748  0.2453 -0.5279  0.1643
  493TMC3    H1 7387   0.189   0.476  10.741 -0.7203  1.1481  1.2391
  493TMC3    H2 7388   0.262   0.705  10.392  2.8792 -0.6385 -0.6807
  493TMC3    C7 7389   0.119   0.528  10.492  0.0807 -0.0570  1.0944
  493TMC3    C8 7390   0.458   0.852  10.491  0.2535  0.2681  0.8674
  493TMC3    O1 7391   0.064   0.591  10.401 -0.4272 -0.0692  0.3251
  493TMC3    O2 7392   0.417   0.888  10.383  0.4063  0.1667 -0.7414
  494TMC3    C1 7393   0.826   2.632   0.496  0.1965 -0.4348 -0.1675
  494TMC3    C2 7394   0.841   2.497   0.511  0.6614  0.3289  0.2882
  494TMC3    C3 7395   0.906   2.429   0.413  0.1748  0.0517 -0.2841
  494TMC3    C4 7396   0.877   2.704   0.386 -0.4132  0.1284 -0.0871
  494TMC3    C5 7397   0.947   2.630   0.298 -1.2028 -0.2860  0.9365
  494TMC3    C6 7398   0.952   2.490   0.302 -0.1726 -0.7545 -0.8105
  494TMC3     C 7399   0.770   2.705   0.609 -0.8448 -0.2420 -0.0862
  494TMC3     O 7400   0.713   2.808   0.583 -0.3691 -0.6349 -0.2737
  494TMC3     H 7401   0.782   2.451   0.590  0.3598  2.0125  1.0397
  494TMC3    H1 7402   0.857   2.810   0.392 -0.0609  0.2216 -0.6087
  494TMC3    H2 7403   0.994   2.439   0.216 -2.2827 -1.4834 -1.4163
  494TMC3    C7 7404   0.972   2.678   0.162  0.4870 -0.4051  0.3512
  494TMC3    C8 7405   0.902   2.282   0.425  0.7790  0.0712 -0.2498
  494TMC3    O1 7406   1.001   2.595   0.077  0.1330  0.8026 -0.1254
  494TMC3    O2 7407   0.923   2.232   0.534  0.4721  0.4787 -0.0647
  495TMC3    C1 7408   0.054   0.122  15.041  0.0889  0.4397  0.0508
  495TMC3    C2 7409   4.688   0.137  14.953  0.2188 -0.1799  0.0375
  495TMC3    C3 7410   4.568   0.167  15.008  0.2024 -0.3947  0.3986
  495TMC3    C4 7411   0.031   0.115  15.174  0.0483  1.1980  0.3126
  495TMC3    C5 7412   4.646   0.140  15.220 -0.2965 -0.1884 -0.1209
  495TMC3    C6 7413   4.543   0.176  15.143 -0.0879  0.6940 -0.3260
  495TMC3     C 7414   0.133   0.000  15.001  0.1473 -0.4367 -0.4354
  495TMC3     O 7415   0.085   4.629  15.034 -0.6375 -0.1368 -0.4822
  495TMC3     H 7416   4.701   0.134  14.845 -0.6501 -0.4778 -0.0575
  495TMC3    H1 7417   0.106   0.075  15.241 -1.2059 -2.9077 -0.8003
  495TMC3    H2 7418   4.446   0.210  15.178 -0.6201  0.7105 -1.8084
  495TMC3    C7 7419   4.619   0.113  15.360  0.1522  0.1505  0.0441
  495TMC3    C8 7420   4.474   0.091  14.939 -0.5374  0.1284 -0.4271
  495TMC3    O1 7421   4.719   0.103  15.431 -0.5601  0.1155  0.1870
  495TMC3    O2 7422   4.365   0.148  14.918 -0.2181  0.3386 -0.0799
  496MPD2     C 7423   2.016   0.222  15.562 -0.2541 -0.5642 -0.1473
  496MPD2    C1 7424   2.022   0.101  15.632 -0.0496  0.1306  0.8042
  496MPD2    C2 7425   2.019   0.107  15.769  0.1877 -0.1174  0.0168
  496MPD2    C3 7426   1.997   0.230  15.831  0.3043 -0.5149 -0.5182
  496MPD2    C4 7427   1.980   0.346  15.760  0.2107 -0.2846  0.9013
  496MPD2    C5 7428   1.994   0.346  15.622 -1.3300 -0.0397 -0.1660
  496MPD2     H 7429   2.018   0.010  15.818 -1.2994 -0.5808 -0.9566
  496MPD2    H1 7430   1.944   0.435  15.810  0.1595  0.3168 -0.2238
  496MPD2    H2 7431   2.047   0.217  15.458  0.5355 -0.4172  0.0784
  496MPD2    H3 7432   1.986   0.436  15.563  4.7509 -0.0454 -1.0372
  496MPD2     N 7433   1.973   0.244  15.971  0.0618 -0.1750  0.3998
  496MPD2    H5 7434   1.927   0.332  15.991 -0.5813 -0.0554 -1.5854
  496MPD2    N1 7435   2.036   4.718  15.551 -0.3191  0.6675 -0.4737
  496MPD2    H7 7436   2.040   4.722  15.450 -2.1129  0.2796 -0.5587
  497TMC3    C1 7437   1.965   0.211  16.199 -0.0907 -0.1515  0.2905
  497TMC3    C2 7438   1.998   0.147  16.317  0.2010  0.3335  0.9150
  497TMC3    C3 7439   1.981   0.209  16.429 -0.5150 -0.3931  0.7301
  497TMC3    C4 7440   1.936   0.347  16.202  1.0753 -0.1916  0.1643
  497TMC3    C5 7441   1.919   0.407  16.325 -0.5530  0.2264 -0.5212
  497TMC3    C6 7442   1.940   0.339  16.439 -0.1121  0.0550 -0.4291
  497TMC3     C 7443   1.995   0.151  16.075  0.6814 -0.6049 -0.0764
  497TMC3     O 7444   2.002   0.027  16.066 -0.1252 -0.3477  0.1789
  497TMC3     H 7445   2.024   0.042  16.311  1.4506  0.7116 -0.4438
  497TMC3    H1 7446   1.907   0.414  16.122 -0.2720  0.8615  1.5231
  497TMC3    H2 7447   1.943   0.386  16.537  0.5696  1.7936 -1.2936
  497TMC3    C7 7448   1.916   0.555  16.321 -0.1188  0.2347  0.1008
  497TMC3    C8 7449   1.984   0.134  16.563 -0.8283  1.1387 -0.2407
  497TMC3    O1 7450   1.961   0.606  16.218  0.3627 -0.3662 -0.4782
  497TMC3    O2 7451   1.891   0.173  16.640  0.0774 -0.2810 -0.2449
  498MPD2     C 7452   1.696   0.312   9.666  0.4571  0.0332 -0.2303
  498MPD2    C1 7453   1.783   0.305   9.777  0.0025 -0.3373 -0.8793
  498MPD2    C2 7454   1.809   0.182   9.835 -0.0497  1.0465  0.8584
  498MPD2    C3 7455   1.746   0.066   9.787  0.4180 -0.5746  0.0242
  498MPD2    C4 7456   1.674   0.069   9.671  0.6685 -0.6388 -0.2525
  498MPD2    C5 7457   1.653   0.191   9.614  0.3568 -0.1161  0.5103
  498MPD2     H 7458   1.854   0.186   9.933  0.4484 -0.9990  0.7136
  498MPD2    H1 7459   1.642   4.726   9.608 -1.2214  0.3932 -0.6576
  498MPD2    H2 7460   1.686   0.403   9.608 -0.2086  1.1696  1.7088
  498MPD2    H3 7461   1.592   0.181   9.526  0.2812  1.7454  0.3415
  498MPD2     N 7462   1.765   4.678   9.845 -0.6616 -0.6867 -0.2494
  498MPD2    H5 7463   1.826   4.678   9.926  0.1665 -2.2977 -0.8747
  498MPD2    N1 7464   1.849   0.425   9.826 -0.1579 -0.6675 -0.3846
  498MPD2    H7 7465   1.916   0.412   9.900 -0.7119 -1.1644  0.0380
  499TMC3    C1 7466   1.892   0.652   9.860 -0.1451 -0.3464 -0.0807
  499TMC3    C2 7467   1.956   0.628   9.978  0.0440 -1.0733 -0.5708
  499TMC3    C3 7468   2.037   0.728  10.040 -1.0792  0.1532  0.2460
  499TMC3    C4 7469   1.905   0.771   9.800  0.8839 -0.3437  0.1293
  499TMC3    C5 7470   1.984   0.865   9.863  0.2993 -0.5368 -0.3526
  499TMC3    C6 7471   2.053   0.845   9.979  0.4995 -0.2879  0.4315
  499TMC3     C 7472   1.811   0.552   9.793 -0.3029 -0.0360  0.4465
  499TMC3     O 7473   1.732   0.601   9.712  0.2633 -1.0739  0.1605
  499TMC3     H 7474   1.935   0.538  10.035  0.1680 -0.0895  1.0281
  499TMC3    H1 7475   1.843   0.790   9.713  0.2918  0.8638  0.8238
  499TMC3    H2 7476   2.103   0.929  10.025  2.4213  0.3389 -2.8039
  499TMC3    C7 7477   1.979   1.003   9.811  0.2882  0.6671 -0.0123
  499TMC3    C8 7478   2.038   0.731  10.184 -0.6458  1.0787  0.3308
  499TMC3    O1 7479   2.021   1.093   9.884  0.2823  0.0184  0.2699
  499TMC3    O2 7480   1.967   0.644  10.230 -0.0300  0.4636  0.0166
  500MPD2     C 7481   3.892   1.590  10.011  0.7134  1.2860  0.4716
  500MPD2    C1 7482   3.904   1.726  10.004 -0.8042  0.2532 -0.6779
  500MPD2    C2 7483   3.792   1.809  10.031  0.5513 -0.2957  0.1909
  500MPD2    C3 7484   3.665   1.745  10.050 -0.3178  0.4257 -0.0094
  500MPD2    C4 7485   3.664   1.607  10.059  0.0569 -0.3221 -0.7487
  500MPD2    C5 7486   3.775   1.528  10.048 -0.5634  0.6723  0.6162
  500MPD2     H 7487   3.807   1.915  10.044  1.2642 -0.0923 -2.2136
  500MPD2    H1 7488   3.574   1.551  10.080  0.5536 -1.6034 -2.0489
  500MPD2    H2 7489   3.981   1.530   9.997 -1.3378 -1.5611 -0.4130
  500MPD2    H3 7490   3.772   1.420  10.032 -2.8854  0.7199  0.8590
  500MPD2     N 7491   3.548   1.821  10.059  0.0977 -0.4694  0.7040
  500MPD2    H5 7492   3.469   1.769  10.095 -1.0462  1.1191  0.4946
  500MPD2    N1 7493   4.038   1.771   9.988 -0.2479  0.3603 -0.5665
  500MPD2    H7 7494   4.115   1.706  10.003 -1.7993 -1.0795  1.1765
  501TMC3    C1 7495   4.211   1.925   9.963  0.0138  0.6374 -0.3275
  501TMC3    C2 7496   4.248   2.054   9.985 -0.3278  0.9800 -0.0077
  501TMC3    C3 7497   4.369   2.092  10.044 -0.2768  0.0991 -0.7509
  501TMC3    C4 7498   4.302   1.825   9.998 -0.1268  0.7942 -0.0364
  501TMC3    C5 7499   4.419   1.866  10.061  0.3654 -0.1726  0.4859
  501TMC3    C6 7500   4.454   1.995  10.081 -0.0605 -0.6548 -0.6935
  501TMC3     C 7501   4.068   1.902   9.963 -0.6983 -0.5166 -0.3762
  501TMC3     O 7502   3.984   1.989   9.934  0.2538 -0.0418  0.2132
  501TMC3     H 7503   4.183   2.138   9.962 -1.7458  0.1099  0.8933
  501TMC3    H1 7504   4.289   1.719   9.978 -0.2101  1.0416 -1.2622
  501TMC3    H2 7505   4.546   2.019  10.133  0.9469  0.3614 -2.9247
  501TMC3    C7 7506   4.452   1.773  10.168  0.0313  0.5491  0.4016
  501TMC3    C8 7507   4.367   2.212  10.128 -0.3921  0.0361 -0.2901
  501TMC3    O1 7508   4.365   1.687  10.192 -0.0939  0.1754 -0.3147
  501TMC3    O2 7509   4.451   2.211  10.220  0.4453  0.0019  0.5346
  502TMC3    C1 7510   4.189   0.745  14.809  0.0221  0.0916 -0.0820
  502TMC3    C2 7511   4.194   0.872  14.769 -0.5035 -1.0809 -0.1734
  502TMC3    C3 7512   4.083   0.948  14.791  0.0423 -0.4848 -0.0980
  502TMC3    C4 7513   4.062   0.687  14.844 -0.5182 -0.4251 -0.1540
  502TMC3    C5 7514   3.950   0.759  14.860  0.0083  0.3357  0.1911
  502TMC3    C6 7515   3.966   0.895  14.835 -0.4246 -0.8930 -0.0583
  502TMC3     C 7516   4.287   0.732  14.915  0.7053  0.4453 -0.5999
  502TMC3     O 7517   4.383   0.806  14.910 -0.7121 -0.0543 -0.0593
  502TMC3     H 7518   4.284   0.909  14.723  0.5144 -1.9601  1.1292
  502TMC3    H1 7519   4.055   0.584  14.878  0.0404 -0.2331  0.5539
  502TMC3    H2 7520   3.884   0.960  14.865  2.0838  2.7848 -1.1888
  502TMC3    C7 7521   3.868   0.714  14.973  0.3205  0.0828 -0.5102
  502TMC3    C8 7522   4.114   1.084  14.831 -0.0713 -0.4960 -0.3996
  502TMC3    O1 7523   3.909   0.623  15.043 -0.3355 -0.0173 -0.7994
  502TMC3    O2 7524   4.018   1.155  14.849 -0.3453 -0.5923 -0.0822
  503MPD2     C 7525   1.357   1.526  16.757  0.2850  0.0958  0.4226
  503MPD2    C1 7526   1.360   1.558  16.893 -0.1603 -0.9349 -1.1443
  503MPD2    C2 7527   1.339   1.450  16.984 -1.1010  0.2455  0.4631
  503MPD2    C3 7528   1.339   1.322  16.936  0.3052  0.3921 -0.0587
  503MPD2    C4 7529   1.341   1.299  16.807 -0.3964  0.2180 -0.8132
  503MPD2    C5 7530   1.341   1.400  16.713 -0.0963  0.2662 -0.2406
  503MPD2     H 7531   1.318   1.467  17.089 -0.4547  1.1954  0.4454
  503MPD2    H1 7532   1.338   1.199  16.765 -1.0916  0.0374 -0.3210
  503MPD2    H2 7533   1.373   1.601  16.679 -0.1022 -1.4599 -1.1568
  503MPD2    H3 7534   1.330   1.379  16.607 -1.0980 -1.7892  0.2767
  503MPD2     N 7535   1.352   1.212  17.023  0.2840 -0.1255  0.0363
  503MPD2    H5 7536   1.342   1.235  17.121 -0.9177 -1.4102  0.2054
  503MPD2    N1 7537   1.369   1.691  16.943 -0.1542 -0.1884  0.1282
  503MPD2    H7 7538   1.362   1.710  17.043 -0.1958  1.1144 -0.1262
  504TMC3    C1 7539   1.460   1.020  17.100  0.4513 -0.3661  0.5745
  504TMC3    C2 7540   1.421   1.053  17.226  0.4856 -0.2212  0.4789
  504TMC3    C3 7541   1.512   1.040  17.331 -0.8701  0.1446  0.2978
  504TMC3    C4 7542   1.588   0.975  17.081  0.3446 -0.2802 -0.5243
  504TMC3    C5 7543   1.669   0.952  17.186 -0.0553  0.0227 -0.5618
  504TMC3    C6 7544   1.638   0.989  17.312 -0.5600 -0.3082  0.0638
  504TMC3     C 7545   1.399   1.082  16.989  0.5720 -0.1081 -0.7453
  504TMC3     O 7546   1.422   1.039  16.876  0.1805 -0.0950 -0.3064
  504TMC3     H 7547   1.322   1.092  17.245  1.1853  2.4019 -1.3107
  504TMC3    H1 7548   1.616   0.942  16.981 -0.4470  0.5542 -1.0242
  504TMC3    H2 7549   1.712   0.969  17.388 -3.2869  0.0066  2.7741
  504TMC3    C7 7550   1.809   0.932  17.147 -0.8959  0.5463 -0.0060
  504TMC3    C8 7551   1.473   1.091  17.459 -0.0928 -0.4788  0.1582
  504TMC3    O1 7552   1.829   0.875  17.042  0.4553 -0.1262  0.8698
  504TMC3    O2 7553   1.362   1.145  17.461 -0.4373  1.4974 -0.1362
  505MPD2     C 7554   1.716   4.010  10.727  0.0160 -0.2163  0.0053
  505MPD2    C1 7555   1.793   3.896  10.732 -0.3763 -0.0998 -0.7225
  505MPD2    C2 7556   1.929   3.911  10.732  0.6579 -0.0112  0.2155
  505MPD2    C3 7557   1.994   4.036  10.723 -0.6587 -0.1749  0.2309
  505MPD2    C4 7558   1.913   4.144  10.726  0.2152  0.4854  0.0476
  505MPD2    C5 7559   1.780   4.131  10.718 -0.3341  0.6635  0.4111
  505MPD2     H 7560   2.005   3.834  10.734  0.1359 -0.5281  0.1759
  505MPD2    H1 7561   1.953   4.245  10.735 -0.1419  0.6285  0.0384
  505MPD2    H2 7562   1.608   3.998  10.732 -0.1154  0.7936 -0.4694
  505MPD2    H3 7563   1.719   4.220  10.733 -2.0993 -0.5163  0.3108
  505MPD2     N 7564   2.137   4.041  10.718  0.2066 -0.4337 -0.0866
  505MPD2    H5 7565   2.186   3.953  10.731 -1.6373 -1.7191 -1.7862
  505MPD2    N1 7566   1.734   3.763  10.735  0.5117  0.3077 -0.5691
  505MPD2    H7 7567   1.635   3.750  10.716  0.1321  1.8680  0.3606
  506TMC3    C1 7568   1.741   3.531  10.669 -0.5712  0.7622 -0.0036
  506TMC3    C2 7569   1.687   3.557  10.549  0.3804 -0.3630  0.6869
  506TMC3    C3 7570   1.695   3.461  10.453 -0.5274 -0.8115 -0.0553
  506TMC3    C4 7571   1.795   3.410  10.704 -0.7465 -0.2490  0.6184
  506TMC3    C5 7572   1.800   3.313  10.605 -0.6585  0.5806  0.2822
  506TMC3    C6 7573   1.749   3.341  10.478  0.4440  0.4887  0.5267
  506TMC3     C 7574   1.804   3.648  10.734 -0.4044  0.7088 -0.3954
  506TMC3     O 7575   1.917   3.627  10.777  0.1337  0.1247  0.3671
  506TMC3     H 7576   1.625   3.643  10.529 -0.5835 -1.1367  0.3297
  506TMC3    H1 7577   1.837   3.391  10.802 -0.2979 -0.4463  0.3852
  506TMC3    H2 7578   1.765   3.257  10.412  0.1921  0.9558 -0.1268
  506TMC3    C7 7579   1.936   3.266  10.589 -0.7464 -0.5046  1.0546
  506TMC3    C8 7580   1.637   3.475  10.316 -0.3231  0.0733 -0.5284
  506TMC3    O1 7581   1.961   3.161  10.529 -0.0652  0.0043 -0.2952
  506TMC3    O2 7582   1.602   3.377  10.254 -0.0804 -0.0147 -0.4287
  507TMC3    C1 7583   2.522   1.048  14.008  0.0481 -0.2519  1.0135
  507TMC3    C2 7584   2.459   1.107  13.906  0.4032  0.2476  0.1451
  507TMC3    C3 7585   2.530   1.182  13.817 -0.4710  0.0752 -0.4430
  507TMC3    C4 7586   2.652   1.070  14.032  0.3160 -0.7436  0.4922
  507TMC3    C5 7587   2.719   1.147  13.949  0.2217 -0.0909 -0.1313
  507TMC3    C6 7588   2.660   1.194  13.839  0.2302  0.2782 -0.0841
  507TMC3     C 7589   2.438   1.001  14.118 -0.1614  0.3088  0.2393
  507TMC3     O 7590   2.491   1.017  14.229 -0.3201  0.5030  0.6270
  507TMC3     H 7591   2.352   1.110  13.891  0.6726  3.2619 -1.0400
  507TMC3    H1 7592   2.697   1.017  14.115  0.2410 -0.5333  0.6675
  507TMC3    H2 7593   2.720   1.251  13.770  3.0519 -1.9151  0.5451
  507TMC3    C7 7594   2.800   1.259  14.017  0.1600  0.5629 -0.3437
  507TMC3    C8 7595   2.466   1.315  13.795  0.6090  0.1483  0.6302
  507TMC3    O1 7596   2.806   1.358  13.947  0.0193  0.3352 -0.0102
  507TMC3    O2 7597   2.349   1.315  13.760 -0.3133 -0.3473  0.1090
  508MPD2     C 7598   3.294   3.643  16.504  0.1573  0.2654  0.4281
  508MPD2    C1 7599   3.394   3.725  16.530 -0.3947  0.9112 -0.4466
  508MPD2    C2 7600   3.434   3.831  16.459  0.5712  0.2536 -0.3026
  508MPD2    C3 7601   3.371   3.856  16.338  0.3924 -0.2730 -0.8636
  508MPD2    C4 7602   3.267   3.769  16.303 -0.2318 -0.0804  0.3073
  508MPD2    C5 7603   3.227   3.669  16.382 -0.0459  0.1436  0.0334
  508MPD2     H 7604   3.502   3.908  16.492  0.1506 -0.6784  2.7251
  508MPD2    H1 7605   3.206   3.782  16.214 -0.5742 -1.5884  0.3194
  508MPD2    H2 7606   3.264   3.560  16.567  1.8280 -1.3111 -0.8628
  508MPD2    H3 7607   3.138   3.611  16.356  0.4916 -0.6220 -0.1066
  508MPD2     N 7608   3.422   3.959  16.254 -0.0613  0.6558 -0.2706
  508MPD2    H5 7609   3.520   3.984  16.250 -0.0193  0.9748  2.4498
  508MPD2    N1 7610   3.451   3.698  16.657 -0.0680 -0.3996 -0.3773
  508MPD2    H7 7611   3.416   3.614  16.701 -0.0087 -0.1032  0.2311
  509TMC3    C1 7612   3.351   4.320  15.965  0.4512  0.0545 -0.5428
  509TMC3    C2 7613   3.466   4.385  16.005 -0.1108  0.1878 -0.2355
  509TMC3    C3 7614   3.554   4.321  16.095  0.0215  0.0389 -0.2082
  509TMC3    C4 7615   3.318   4.198  16.008 -0.3118  0.1289  0.7593
  509TMC3    C5 7616   3.399   4.139  16.104 -0.0163 -0.7722 -0.6831
  509TMC3    C6 7617   3.518   4.198  16.147 -0.0820  0.1578  0.4273
  509TMC3     C 7618   3.292   4.360  15.838 -1.0130 -0.5587 -0.0269
  509TMC3     O 7619   3.381   4.395  15.760  0.3420  0.3801 -0.3579
  509TMC3     H 7620   3.501   4.474  15.954 -3.5064  1.1291 -0.8892
  509TMC3    H1 7621   3.231   4.144  15.973  0.2614 -0.9989  1.0692
  509TMC3    H2 7622   3.567   4.162  16.237 -1.4108 -1.4211  0.5124
  509TMC3    C7 7623   3.340   4.026  16.173 -0.3208  0.0713  0.1947
  509TMC3    C8 7624   3.687   4.370  16.115 -0.0459 -0.1369  0.0331
  509TMC3    O1 7625   3.216   4.019  16.184  0.1284  0.6266  0.5490
  509TMC3    O2 7626   3.763   4.294  16.171  0.1161  0.4852 -0.2380
  510MPD2     C 7627   1.208   0.647  14.494 -0.0315 -0.5767  0.5163
  510MPD2    C1 7628   1.283   0.546  14.549  0.9484 -0.7542 -0.0258
  510MPD2    C2 7629   1.416   0.551  14.524  0.1878  0.0360  0.3345
  510MPD2    C3 7630   1.470   0.641  14.435  0.6018  0.3919  0.1354
  510MPD2    C4 7631   1.385   0.722  14.370  0.1616 -0.0815  0.0528
  510MPD2    C5 7632   1.253   0.724  14.399 -0.9802 -0.0720  0.5235
  510MPD2     H 7633   1.482   0.474  14.563 -1.0688 -0.9618  0.5148
  510MPD2    H1 7634   1.416   0.788  14.289 -0.0815  2.3495  1.9337
  510MPD2    H2 7635   1.102   0.648  14.515 -0.4466  0.3783 -1.5859
  510MPD2    H3 7636   1.193   0.795  14.345 -0.9811 -1.0420 -0.7387
  510MPD2     N 7637   1.603   0.621  14.394  0.1447  0.1091 -0.4568
  510MPD2    H5 7638   1.667   0.575  14.458 -1.8264  2.0592  2.9493
  510MPD2    N1 7639   1.225   0.461  14.643  0.5389  0.3726  0.3311
  510MPD2    H7 7640   1.127   0.483  14.658 -0.4099 -1.5063 -3.1526
  511TMC3    C1 7641   1.176   0.273  14.763  0.1926  0.0720  0.2044
  511TMC3    C2 7642   1.095   0.321  14.868  0.2400 -0.0786  0.5648
  511TMC3    C3 7643   1.019   0.228  14.938  0.0026 -0.0079 -0.1910
  511TMC3    C4 7644   1.197   0.140  14.740 -0.1754  0.1093 -0.2251
  511TMC3    C5 7645   1.121   0.048  14.814 -0.0170  0.1043 -0.2050
  511TMC3    C6 7646   1.032   0.089  14.912  0.2429  0.4097  0.5791
  511TMC3     C 7647   1.287   0.355  14.709 -0.3919  0.4643  0.5506
  511TMC3     O 7648   1.394   0.299  14.702 -0.4884 -0.4798  0.4018
  511TMC3     H 7649   1.066   0.425  14.875  0.5802  0.0536 -0.0020
  511TMC3    H1 7650   1.263   0.103  14.663  0.4656 -1.5765  1.1193
  511TMC3    H2 7651   0.944   0.029  14.932  1.7868 -1.6688  1.2540
  511TMC3    C7 7652   1.093   4.662  14.742 -0.0733  0.0060  0.4578
  511TMC3    C8 7653   0.949   0.265  15.067  0.1297  0.5863 -0.6095
  511TMC3    O1 7654   1.144   4.647  14.635  0.1090  0.3372  0.0852
  511TMC3    O2 7655   0.903   0.376  15.070  0.0796  0.0572 -0.7568
  512TMC3    C1 7656   4.687   4.508  13.169 -0.0402 -0.5369 -0.4685
  512TMC3    C2 7657   0.046   4.488  13.260 -0.3072 -0.7668  0.6691
  512TMC3    C3 7658   0.133   4.386  13.239  0.4804 -0.6295 -0.1973
  512TMC3    C4 7659   4.680   4.430  13.055 -0.2137  0.0935 -0.6890
  512TMC3    C5 7660   0.021   4.319  13.035  0.3290  0.2319  0.5740
  512TMC3    C6 7661   0.119   4.295  13.131 -0.2162 -0.3446  0.2449
  512TMC3     C 7662   4.610   4.631  13.195 -1.0403 -0.6748  0.5539
  512TMC3     O 7663   4.622   4.669  13.312 -0.9309 -0.3492  0.1230
  512TMC3     H 7664   0.049   4.542  13.354  0.5699 -0.3001  0.3727
  512TMC3    H1 7665   4.602   4.438  12.980 -0.1081 -3.4960 -1.1381
  512TMC3    H2 7666   0.200   4.226  13.111 -0.9594 -1.6625  1.7740
  512TMC3    C7 7667   4.717   4.219  12.935  0.4587 -0.3022  0.4177
  512TMC3    C8 7668   0.225   4.348  13.332  0.5577 -0.0725 -0.3119
  512TMC3    O1 7669   4.645   4.245  12.842 -0.1268 -0.8512 -0.0230
  512TMC3    O2 7670   0.274   4.236  13.319 -0.1483  0.2767 -1.0068
  513MPD2     C 7671   2.462   0.003  12.782 -0.6907 -0.6034 -0.4570
  513MPD2    C1 7672   2.472   4.605  12.768  0.4880  0.1122 -0.2736
  513MPD2    C2 7673   2.597   4.546  12.781  0.1568  0.0511 -0.3777
  513MPD2    C3 7674   2.705   4.610  12.837 -0.2257  0.0820 -0.4485
  513MPD2    C4 7675   2.701   0.011  12.851 -0.2276  0.1285 -0.0617
  513MPD2    C5 7676   2.578   0.072  12.822  0.4639 -0.4701 -0.9868
  513MPD2     H 7677   2.615   4.441  12.761  2.1501  0.2287  0.5143
  513MPD2    H1 7678   2.785   0.078  12.868  0.0150  0.1923 -1.5657
  513MPD2    H2 7679   2.379   0.070  12.764  0.8138  1.4765  0.3719
  513MPD2    H3 7680   2.576   0.180  12.833 -1.1651 -0.7264  1.1339
  513MPD2     N 7681   2.821   4.530  12.862  0.1181 -0.5089  0.3136
  513MPD2    H5 7682   2.818   4.434  12.831  0.0850 -0.7501  1.0536
  513MPD2    N1 7683   2.366   4.511  12.731  0.2131  0.3323 -0.2556
  513MPD2    H7 7684   2.394   4.414  12.727  0.5124  0.4461 -0.8745
  514TMC3    C1 7685   2.154   4.421  12.687  0.0240 -0.0491 -0.2709
  514TMC3    C2 7686   2.087   4.403  12.570  0.2934 -0.4515 -0.4951
  514TMC3    C3 7687   2.095   4.271  12.525 -0.1118 -0.5150  0.2625
  514TMC3    C4 7688   2.204   4.322  12.759 -0.7163 -0.0042  0.5963
  514TMC3    C5 7689   2.203   4.192  12.723 -0.2381  0.3479  0.8967
  514TMC3    C6 7690   2.141   4.164  12.600  0.1020 -0.2050  0.3457
  514TMC3     C 7691   2.234   4.539  12.703 -0.2623  0.3535 -0.1772
  514TMC3     O 7692   2.183   4.647  12.692  0.2343 -0.3471  0.0951
  514TMC3     H 7693   2.040   4.491  12.526  2.1382 -0.3952 -2.3524
  514TMC3    H1 7694   2.244   4.350  12.856  0.8155  0.5280 -0.1920
  514TMC3    H2 7695   2.148   4.068  12.551 -2.7789 -0.1414 -0.1914
  514TMC3    C7 7696   2.342   4.158  12.725  0.1276  0.9021 -0.6687
  514TMC3    C8 7697   2.037   4.247  12.402  0.0677  0.0206 -0.2701
  514TMC3    O1 7698   2.422   4.247  12.740  0.4144  0.6436  0.2339
  514TMC3    O2 7699   1.981   4.138  12.385 -0.0886 -0.5864  0.3247
  515MPD2     C 7700   0.243   1.882  14.502 -0.2545 -0.1144  0.0666
  515MPD2    C1 7701   0.204   1.818  14.623 -0.2091  0.3337 -0.1237
  515MPD2    C2 7702   0.277   1.843  14.737 -0.3130  0.9024 -0.4601
  515MPD2    C3 7703   0.394   1.916  14.739 -0.0582 -0.6431  0.8536
  515MPD2    C4 7704   0.428   1.976  14.619  0.3196 -0.3134 -0.3258
  515MPD2    C5 7705   0.355   1.963  14.501 -0.7656  0.5295 -0.1591
  515MPD2     H 7706   0.251   1.796  14.832  0.3933  1.6342  0.1003
  515MPD2    H1 7707   0.524   2.024  14.602  1.2383 -2.3728 -1.0155
  515MPD2    H2 7708   0.203   1.861  14.403 -2.8597 -0.0143  1.0926
  515MPD2    H3 7709   0.398   2.002  14.410  0.2262 -0.3738 -0.0772
  515MPD2     N 7710   0.485   1.944  14.850  1.0489  0.3532 -0.0820
  515MPD2    H5 7711   0.565   2.004  14.829  0.5469  1.0714  0.0783
  515MPD2    N1 7712   0.093   1.732  14.627  0.7900  0.2215 -0.3925
  515MPD2    H7 7713   0.089   1.672  14.709  1.6601 -0.6914 -1.0175
  516TMC3    C1 7714   4.608   1.662  14.562 -0.3703 -0.0924  0.0672
  516TMC3    C2 7715   4.481   1.716  14.541  0.6917  0.4925  0.2565
  516TMC3    C3 7716   4.378   1.634  14.555 -0.2263  0.3998  0.0801
  516TMC3    C4 7717   4.633   1.530  14.585 -0.1984  0.7763  0.1511
  516TMC3    C5 7718   4.525   1.453  14.574  0.5029  0.1857  0.2941
  516TMC3    C6 7719   4.396   1.502  14.560  0.4296  0.2142 -0.3943
  516TMC3     C 7720   4.715   1.757  14.556 -0.0384  0.9338  0.3860
  516TMC3     O 7721   4.689   1.847  14.479 -0.0899 -0.0176 -0.2090
  516TMC3     H 7722   4.462   1.817  14.508 -0.5970  0.6329  1.4383
  516TMC3    H1 7723   4.733   1.489  14.588 -0.2341  0.8056  1.6898
  516TMC3    H2 7724   4.306   1.443  14.574 -0.9107  2.4120  0.1916
  516TMC3    C7 7725   4.555   1.311  14.576  0.4725 -0.7048  0.6974
  516TMC3    C8 7726   4.246   1.689  14.566 -0.2111  0.2740  0.4870
  516TMC3    O1 7727   4.668   1.278  14.621 -0.4820  0.0790  0.1970
  516TMC3    O2 7728   4.157   1.609  14.530 -0.2015  0.2760  0.2891
  517MPD2     C 7729   0.691   3.155   0.348  0.5875 -0.3618  0.5320
  517MPD2    C1 7730   0.618   3.179   0.231 -0.6413 -0.1630  0.5608
  517MPD2    C2 7731   0.565   3.305   0.205 -0.2148 -0.0945 -0.3266
  517MPD2    C3 7732   0.585   3.413   0.300  0.0717 -0.2433 -0.0171
  517MPD2    C4 7733   0.660   3.382   0.417 -0.0920 -0.0056  0.2240
  517MPD2    C5 7734   0.704   3.254   0.437 -0.5161 -0.1672 -0.6177
  517MPD2     H 7735   0.510   3.316   0.112  1.1420 -1.4908 -1.2725
  517MPD2    H1 7736   0.670   3.455   0.497 -0.9731 -1.6856  1.8744
  517MPD2    H2 7737   0.735   3.057   0.365 -0.7453 -0.8882  0.9005
  517MPD2    H3 7738   0.763   3.232   0.525 -0.5104 -0.2517 -0.6427
  517MPD2     N 7739   0.515   3.541   0.297 -0.5667  0.3271 -0.0548
  517MPD2    H5 7740   0.523   3.597   0.381 -1.2075  0.2274  0.0708
  517MPD2    N1 7741   0.597   3.075   0.126  0.0915 -0.2055  0.0979
  517MPD2    H7 7742   0.567   3.102   0.033  0.8530 -2.1515 -0.6998
  518TMC3    C1 7743   0.576   2.869   0.021  0.0356  0.3231 -0.1598
  518TMC3    C2 7744   0.478   2.777   0.032  0.3805  0.0831  0.3224
  518TMC3    C3 7745   0.444   2.726  17.662  0.7797 -0.7402  0.0546
  518TMC3    C4 7746   0.640   2.904  17.662 -0.1186 -0.6589  0.5367
  518TMC3    C5 7747   0.600   2.845  17.550  0.0898 -0.7779  0.0027
  518TMC3    C6 7748   0.493   2.769  17.541  0.1148  0.1690  0.0127
  518TMC3     C 7749   0.612   2.940   0.142 -0.4675 -0.2175  0.2080
  518TMC3     O 7750   0.614   2.875   0.247 -0.1880  0.2291 -0.0357
  518TMC3     H 7751   0.452   2.737   0.129  0.6451 -0.9188 -0.0161
  518TMC3    H1 7752   0.721   2.976  17.661 -1.2131  0.5370 -0.8168
  518TMC3    H2 7753   0.457   2.741  17.443 -0.8044 -2.3171  1.0594
  518TMC3    C7 7754   0.703   2.810  17.456 -0.0645  0.3847 -0.1689
  518TMC3    C8 7755   0.399   2.591  17.654 -0.3077  0.0874 -0.0416
  518TMC3    O1 7756   0.792   2.890  17.432  0.0409 -0.3987  0.0199
  518TMC3    O2 7757   0.441   2.520  17.557 -0.0724 -0.0922  0.8871
  519MPD2     C 7758   2.020   1.621  14.122  0.0631  0.0278 -0.2842
  519MPD2    C1 7759   1.923   1.611  14.022  0.1662  0.1728 -0.0581
  519MPD2    C2 7760   1.944   1.527  13.908 -0.1118 -0.8670 -0.2662
  519MPD2    C3 7761   2.054   1.449  13.895 -0.0003 -0.3586 -0.1100
  519MPD2    C4 7762   2.143   1.454  13.996 -0.2647  0.1444  0.2910
  519MPD2    C5 7763   2.136   1.540  14.101 -0.0602  0.1237  0.3148
  519MPD2     H 7764   1.870   1.525  13.828  0.3993 -0.0608 -0.7615
  519MPD2    H1 7765   2.224   1.381  13.994 -0.4913 -0.0879 -0.4394
  519MPD2    H2 7766   2.006   1.685  14.208 -0.5318 -1.0182  0.3829
  519MPD2    H3 7767   2.211   1.543  14.179 -0.3001  0.3857  0.5350
  519MPD2     N 7768   2.073   1.354  13.787 -0.4493 -0.6286 -0.5226
  519MPD2    H5 7769   2.163   1.314  13.762  0.1262  1.5362 -1.9056
  519MPD2    N1 7770   1.797   1.675  14.051  0.3832  0.1100 -0.2144
  519MPD2    H7 7771   1.781   1.712  14.144  2.7245  1.4414 -0.3368
  520TMC3    C1 7772   2.016   1.188  13.647  0.2656 -0.0214  0.0629
  520TMC3    C2 7773   1.939   1.151  13.541 -0.2399  0.5735  0.8045
  520TMC3    C3 7774   1.962   1.025  13.495  0.1451  0.3164 -0.2180
  520TMC3    C4 7775   2.110   1.106  13.710 -1.1133  0.1402 -0.4381
  520TMC3    C5 7776   2.133   0.991  13.640 -0.4074 -0.6690 -0.2689
  520TMC3    C6 7777   2.058   0.945  13.534  0.0303 -0.0385  0.5957
  520TMC3     C 7778   1.978   1.310  13.702  0.8032 -0.0722  0.4208
  520TMC3     O 7779   1.858   1.335  13.703  0.1065  0.2361  0.7117
  520TMC3     H 7780   1.880   1.226  13.488 -3.0574 -0.9569  1.7364
  520TMC3    H1 7781   2.172   1.132  13.796 -1.3777 -1.5331  0.2547
  520TMC3    H2 7782   2.054   0.840  13.508  2.6846 -0.2096  0.8327
  520TMC3    C7 7783   2.217   0.890  13.701 -0.4244  0.0062  0.2456
  520TMC3    C8 7784   1.845   0.959  13.433 -0.2868 -0.3916  0.3849
  520TMC3    O1 7785   2.228   0.886  13.824 -0.1159  0.2058 -0.4549
  520TMC3    O2 7786   1.856   0.838  13.410  0.0245  0.3710  0.2364
  521MPD2     C 7787   1.922   3.749  17.661  0.0626 -0.5725  0.8916
  521MPD2    C1 7788   1.963   3.804  17.541  0.6612  0.2883  0.6028
  521MPD2    C2 7789   2.096   3.805  17.501 -0.4000  0.5607  0.2364
  521MPD2    C3 7790   2.193   3.752  17.589  0.8772  0.1879  0.2858
  521MPD2    C4 7791   2.154   3.698  17.713  0.0014 -0.2721  0.2440
  521MPD2    C5 7792   2.014   3.686  17.737  0.4302  0.3074  0.2673
  521MPD2     H 7793   2.123   3.835  17.400 -1.9282 -1.5843 -0.8204
  521MPD2    H1 7794   2.217   3.648   0.032 -3.8859 -1.5021  2.7581
  521MPD2    H2 7795   1.819   3.728  17.683  0.6625 -0.8571  3.3845
  521MPD2    H3 7796   1.969   3.634   0.067  2.0412 -0.3164  0.7494
  521MPD2     N 7797   2.325   3.746  17.540  0.3690  0.3282  0.5839
  521MPD2    H5 7798   2.335   3.773  17.442  0.1030 -0.4557  0.3416
  521MPD2    N1 7799   1.858   3.847  17.460 -0.7221 -0.2670  0.4516
  521MPD2    H7 7800   1.768   3.852  17.506 -1.4558 -1.2615 -0.8775
  522TMC3    C1 7801   2.567   3.716  17.553  0.6103 -0.6370 -0.3760
  522TMC3    C2 7802   2.676   3.657  17.618  0.6245  0.1971 -0.8141
  522TMC3    C3 7803   2.798   3.675  17.564 -0.3381  0.1445  0.6793
  522TMC3    C4 7804   2.587   3.804  17.446 -0.3306  0.3082  0.5520
  522TMC3    C5 7805   2.720   3.832  17.412 -0.1588 -0.7216  1.2759
  522TMC3    C6 7806   2.827   3.762  17.463 -0.1425  0.9240 -0.1305
  522TMC3     C 7807   2.435   3.708  17.612  0.0794  0.2459  0.1356
  522TMC3     O 7808   2.446   3.670  17.729 -0.0110  0.0683  0.6863
  522TMC3     H 7809   2.670   3.589  17.703 -1.7436 -0.3950 -1.4552
  522TMC3    H1 7810   2.504   3.864  17.411  0.0889  0.8537  0.4738
  522TMC3    H2 7811   2.927   3.775  17.422 -0.7101  0.9935 -1.4934
  522TMC3    C7 7812   2.748   3.937  17.321 -0.0981  0.8780 -0.3008
  522TMC3    C8 7813   2.894   3.575  17.587 -1.1165 -0.0295 -0.2035
  522TMC3    O1 7814   2.866   3.961  17.301  0.2352  0.0453  0.0260
  522TMC3    O2 7815   2.914   3.536  17.700  0.1938  0.3382 -0.4665
  523MPD2     C 7816   4.648   3.385   9.779 -0.5141 -0.5602  0.5587
  523MPD2    C1 7817   4.532   3.313   9.765 -0.1591 -0.7817 -0.1017
  523MPD2    C2 7818   4.426   3.353   9.682  0.8441  0.0363 -0.5338
  523MPD2    C3 7819   4.449   3.466   9.602  0.1089 -0.0185  0.2529
  523MPD2    C4 7820   4.564   3.548   9.624 -0.4713 -0.1885 -0.0299
  523MPD2    C5 7821   4.665   3.509   9.710 -0.1434  0.2955  0.4305
  523MPD2     H 7822   4.334   3.297   9.690 -0.0387  1.7487  1.2022
  523MPD2    H1 7823   4.571   3.640   9.566  0.9745 -0.0013  0.4250
  523MPD2    H2 7824   4.723   3.350   9.849  1.3190 -0.7447 -1.5041
  523MPD2    H3 7825   0.014   3.571   9.719  0.0787 -0.2849  2.3388
  523MPD2     N 7826   4.347   3.521   9.514 -0.2492  0.6466 -0.1207
  523MPD2    H5 7827   4.347   3.621   9.501  2.7800  0.7695  0.8882
  523MPD2    N1 7828   4.521   3.200   9.849 -0.2671  0.0865  0.1575
  523MPD2    H7 7829   4.595   3.183   9.916 -1.9927  0.0877  2.0561
  524TMC3    C1 7830   4.125   3.527   9.427 -0.2694  0.2788  0.4601
  524TMC3    C2 7831   4.039   3.474   9.335 -0.2620  0.2819  0.5287
  524TMC3    C3 7832   3.930   3.551   9.312 -0.6217 -0.5022 -0.4262
  524TMC3    C4 7833   4.110   3.643   9.492  0.0930  0.1366  0.6820
  524TMC3    C5 7834   3.996   3.721   9.462 -0.2306  0.1151  0.2879
  524TMC3    C6 7835   3.902   3.667   9.377 -0.4704  0.6687 -0.1088
  524TMC3     C 7836   4.243   3.446   9.460 -0.1984 -0.1611  0.7914
  524TMC3     O 7837   4.235   3.322   9.452  0.0775 -0.2786 -0.1433
  524TMC3     H 7838   4.041   3.374   9.292  2.2072  0.5300  0.0470
  524TMC3    H1 7839   4.166   3.674   9.580 -0.2199 -0.0246  0.9368
  524TMC3    H2 7840   3.814   3.727   9.361  1.2531  2.8719 -1.2856
  524TMC3    C7 7841   3.949   3.788   9.576  0.0625  0.3977 -0.2000
  524TMC3    C8 7842   3.833   3.525   9.212 -0.4048  0.6612 -0.3266
  524TMC3    O1 7843   3.959   3.738   9.688 -0.2745 -0.1530 -0.2252
  524TMC3    O2 7844   3.733   3.596   9.210 -0.0112  0.3212 -0.6103
  525MPD2     C 7845   3.186   0.994  14.188 -0.4279 -0.4162  0.3948
  525MPD2    C1 7846   3.248   0.972  14.305  0.1938  0.4015 -0.2862
  525MPD2    C2 7847   3.312   1.069  14.372  0.2436 -0.1407  0.2722
  525MPD2    C3 7848   3.303   1.198  14.330  0.5291  0.0407  0.3777
  525MPD2    C4 7849   3.236   1.222  14.211  0.8097  0.3536 -0.0085
  525MPD2    C5 7850   3.184   1.118  14.135  0.2080 -0.0982  0.1542
  525MPD2     H 7851   3.359   1.045  14.466  1.0430 -0.2735 -0.1587
  525MPD2    H1 7852   3.230   1.320  14.164 -1.3430  0.4541  0.4899
  525MPD2    H2 7853   3.150   0.920  14.117 -2.1125 -1.8275  2.7328
  525MPD2    H3 7854   3.143   1.147  14.038 -0.8297 -1.7246  0.1118
  525MPD2     N 7855   3.345   1.312  14.404  0.1020  0.0872 -0.3524
  525MPD2    H5 7856   3.320   1.404  14.369  0.3490  1.2025  2.4276
  525MPD2    N1 7857   3.248   0.845  14.365 -0.2887 -0.0063  0.2099
  525MPD2    H7 7858   3.302   0.835  14.451  0.6501  3.5978  0.0742
  526TMC3    C1 7859   3.167   0.644  14.439 -0.5348  0.2477  0.0889
  526TMC3    C2 7860   3.053   0.602  14.509  0.3256 -0.8972  0.0296
  526TMC3    C3 7861   3.066   0.528  14.623 -0.4092  0.3025  0.1136
  526TMC3    C4 7862   3.291   0.599  14.470  0.0947 -0.4417 -0.3588
  526TMC3    C5 7863   3.290   0.510  14.582  0.0175 -0.5751 -0.2828
  526TMC3    C6 7864   3.193   0.497  14.675 -0.5338 -0.4268 -0.1367
  526TMC3     C 7865   3.156   0.750  14.335  0.2497 -0.4935 -0.5288
  526TMC3     O 7866   3.046   0.752  14.284 -0.7675  0.5777 -0.4915
  526TMC3     H 7867   2.959   0.654  14.496 -0.2140 -1.5656  1.2052
  526TMC3    H1 7868   3.373   0.634  14.410  1.3750  0.5226  1.9405
  526TMC3    H2 7869   3.193   0.425  14.756  0.5734 -0.7635 -0.4449
  526TMC3    C7 7870   3.385   0.400  14.583 -0.1685 -0.2335 -0.0247
  526TMC3    C8 7871   2.946   0.515  14.706 -0.1840 -0.0642  0.4178
  526TMC3    O1 7872   3.407   0.343  14.689  0.2697  0.0910 -0.3898
  526TMC3    O2 7873   2.840   0.509  14.653  0.4176  0.8328 -0.2878
  527MPD2     C 7874   0.794   3.602   1.493 -0.1692 -0.8248 -0.5332
  527MPD2    C1 7875   0.757   3.588   1.356 -0.2539  0.0781 -0.1987
  527MPD2    C2 7876   0.861   3.549   1.273 -0.1920 -0.6106  0.0414
  527MPD2    C3 7877   0.978   3.489   1.318 -0.0585 -1.0157  0.7966
  527MPD2    C4 7878   1.009   3.499   1.451 -0.0716 -0.0428 -0.7975
  527MPD2    C5 7879   0.920   3.564   1.534 -0.1398  0.2050  0.0275
  527MPD2     H 7880   0.831   3.534   1.170 -0.3359 -1.0893  0.1523
  527MPD2    H1 7881   1.109   3.478   1.488  0.4447  2.7191 -0.6360
  527MPD2    H2 7882   0.728   3.649   1.564 -0.1015 -1.9744  0.2922
  527MPD2    H3 7883   0.952   3.583   1.636  1.0736  2.0799 -0.7066
  527MPD2     N 7884   1.066   3.442   1.225 -0.6540  0.2353 -0.0079
  527MPD2    H5 7885   1.030   3.422   1.132  2.2549 -1.2723 -0.7986
  527MPD2    N1 7886   0.629   3.628   1.305 -0.9871  0.1957 -0.0879
  527MPD2    H7 7887   0.617   3.629   1.204  2.1201 -2.0494 -0.4800
  528TMC3    C1 7888   0.396   3.677   1.309  0.9271  0.1340 -0.4478
  528TMC3    C2 7889   0.404   3.778   1.218  0.0258 -0.0830 -0.3665
  528TMC3    C3 7890   0.297   3.835   1.162  0.5174  0.3400  0.1353
  528TMC3    C4 7891   0.275   3.640   1.361 -0.3526 -0.0669  0.0229
  528TMC3    C5 7892   0.162   3.700   1.307  0.4777  0.2606  0.6083
  528TMC3    C6 7893   0.172   3.794   1.208 -0.6882 -0.3080  0.3847
  528TMC3     C 7894   0.513   3.639   1.380  0.2763 -0.3464 -0.8375
  528TMC3     O 7895   0.486   3.634   1.500  0.4534 -0.0608  0.4671
  528TMC3     H 7896   0.501   3.811   1.182  0.1851  0.5813  0.6416
  528TMC3    H1 7897   0.270   3.554   1.427  0.5627  1.8643  2.6355
  528TMC3    H2 7898   0.078   3.835   1.171 -0.8673  1.2930  2.5914
  528TMC3    C7 7899   0.040   3.629   1.331 -0.2598 -0.3209  0.4899
  528TMC3    C8 7900   0.314   3.935   1.061  0.1714 -0.1669 -0.0862
  528TMC3    O1 7901   4.689   3.632   1.251  0.0701 -0.0876  0.2799
  528TMC3    O2 7902   0.428   3.947   1.025  0.3938  0.1074 -0.5109
  529MPD2     C 7903   3.568   2.742   1.525 -0.3035  0.4032  0.9220
  529MPD2    C1 7904   3.497   2.625   1.498  0.2486  0.1540  0.0697
  529MPD2    C2 7905   3.411   2.624   1.388 -0.3348 -0.4985 -0.4787
  529MPD2    C3 7906   3.409   2.724   1.304 -0.3464 -0.6749 -0.5910
  529MPD2    C4 7907   3.476   2.844   1.334 -0.5967 -0.2427 -0.0701
  529MPD2    C5 7908   3.554   2.853   1.448  0.0638  0.0964  0.1465
  529MPD2     H 7909   3.370   2.526   1.365 -0.4828  0.3309 -3.7425
  529MPD2    H1 7910   3.469   2.926   1.265  0.9011  0.1560  0.2588
  529MPD2    H2 7911   3.645   2.745   1.600  0.8869 -0.2514 -0.2797
  529MPD2    H3 7912   3.618   2.937   1.469  2.4958 -1.3756 -1.2880
  529MPD2     N 7913   3.350   2.712   1.174 -0.2862  0.0557 -0.4304
  529MPD2    H5 7914   3.353   2.797   1.120 -0.2220 -0.2506 -0.9155
  529MPD2    N1 7915   3.519   2.503   1.566 -0.2531  0.1378  0.1729
  529MPD2    H7 7916   3.457   2.430   1.534  0.5652 -0.9191  1.0045
  530TMC3    C1 7917   3.621   2.342   1.724  0.0603  0.0175 -0.3366
  530TMC3    C2 7918   3.693   2.320   1.840  0.2092  0.5923 -0.1020
  530TMC3    C3 7919   3.711   2.188   1.875 -0.3819 -0.1722 -0.0622
  530TMC3    C4 7920   3.569   2.250   1.641 -0.0776 -0.1137  0.5228
  530TMC3    C5 7921   3.604   2.119   1.674 -0.0832 -0.0135 -0.1339
  530TMC3    C6 7922   3.680   2.087   1.788  0.4660  0.1299 -0.2278
  530TMC3     C 7923   3.600   2.481   1.680  0.3459  0.5246  0.0571
  530TMC3     O 7924   3.658   2.566   1.744 -0.2436 -0.0556  0.3247
  530TMC3     H 7925   3.733   2.400   1.901  2.1230 -0.1039 -0.4236
  530TMC3    H1 7926   3.517   2.273   1.548  3.7967  0.7289 -1.4476
  530TMC3    H2 7927   3.683   1.982   1.814  2.1038  0.1020 -0.5188
  530TMC3    C7 7928   3.528   2.011   1.617 -0.5739 -0.3424  0.8130
  530TMC3    C8 7929   3.795   2.171   1.992 -0.4629 -0.2053 -0.5923
  530TMC3    O1 7930   3.560   1.895   1.642 -0.0100 -0.1477 -0.5426
  530TMC3    O2 7931   3.818   2.269   2.061 -0.1740  0.3514 -0.5206
  531MPD2     C 7932   2.720   3.831  12.792 -0.0183 -0.8617 -0.1151
  531MPD2    C1 7933   2.721   3.971  12.785  0.3144 -0.2120 -0.6478
  531MPD2    C2 7934   2.605   4.037  12.739  0.8570 -0.2358 -0.4215
  531MPD2    C3 7935   2.489   3.967  12.711  0.3171  0.3681 -0.3428
  531MPD2    C4 7936   2.489   3.832  12.725 -0.3021 -0.1554  0.0605
  531MPD2    C5 7937   2.608   3.763  12.753  0.8523  0.3180 -0.8799
  531MPD2     H 7938   2.609   4.145  12.736 -0.4364 -0.1389  1.9005
  531MPD2    H1 7939   2.399   3.773  12.709  0.0356 -0.9922  1.1803
  531MPD2    H2 7940   2.804   3.776  12.834  0.5822 -1.4595 -2.1174
  531MPD2    H3 7941   2.603   3.655  12.757 -0.0137  0.4127  0.7231
  531MPD2     N 7942   2.361   4.028  12.694 -0.1598  0.4552  0.3790
  531MPD2    H5 7943   2.279   3.968  12.682 -0.6979  1.5461 -1.3634
  531MPD2    N1 7944   2.841   4.038  12.826 -0.1240 -0.3724 -0.4879
  531MPD2    H7 7945   2.925   3.982  12.837 -0.8825 -1.6012 -0.9340
  532TMC3    C1 7946   2.974   4.221  12.901 -0.2899 -0.0167 -0.1685
  532TMC3    C2 7947   2.989   4.350  12.865  0.1297 -0.1064 -0.1489
  532TMC3    C3 7948   3.018   4.444  12.957 -0.6249  0.5595 -0.3013
  532TMC3    C4 7949   2.971   4.189  13.034  0.5505  0.2302 -0.0742
  532TMC3    C5 7950   2.985   4.285  13.128 -0.3636  0.3650  0.4148
  532TMC3    C6 7951   3.022   4.413  13.091  0.0437 -0.0374 -0.2227
  532TMC3     C 7952   2.858   4.175  12.830  0.1332 -0.7955 -0.5154
  532TMC3     O 7953   2.791   4.269  12.786 -0.1089  0.5959  0.0075
  532TMC3     H 7954   2.985   4.382  12.762  0.4529 -0.8039 -0.3755
  532TMC3    H1 7955   2.958   4.085  13.061  0.6410  0.3101  0.2835
  532TMC3    H2 7956   3.014   4.500  13.156  1.0784 -0.9197  1.0807
  532TMC3    C7 7957   2.964   4.269  13.272 -0.1700 -1.5278  0.2508
  532TMC3    C8 7958   2.937   4.571  12.932 -0.1332 -0.4557  0.8174
  532TMC3    O1 7959   2.977   4.359  13.358 -0.1824 -1.2004  0.2805
  532TMC3    O2 7960   2.957   4.673  12.993  0.0733  0.5431 -0.2691
  533TMC3    C1 7961   3.412   1.435  14.594  0.7508 -0.1262  0.4218
  533TMC3    C2 7962   3.513   1.486  14.658  0.4687  0.3525 -0.2389
  533TMC3    C3 7963   3.492   1.556  14.771 -0.2565  0.1159  0.4128
  533TMC3    C4 7964   3.280   1.470  14.626 -0.5401  0.3153  0.2168
  533TMC3    C5 7965   3.260   1.529  14.747  0.5981  0.1129  0.2817
  533TMC3    C6 7966   3.367   1.588  14.814 -0.1022 -0.3021  0.5703
  533TMC3     C 7967   3.425   1.309  14.521 -0.1786 -0.0793 -0.1458
  533TMC3     O 7968   3.495   1.217  14.569  0.4725  0.0112  0.1872
  533TMC3     H 7969   3.611   1.447  14.633  0.3923 -0.0274  0.0500
  533TMC3    H1 7970   3.192   1.437  14.572 -1.3438 -0.3047  1.8792
  533TMC3    H2 7971   3.342   1.624  14.914  0.8605  0.0588  0.6845
  533TMC3    C7 7972   3.129   1.514  14.799  0.3756 -0.2787  0.4493
  533TMC3    C8 7973   3.602   1.630  14.824 -0.8999 -0.2348 -0.3937
  533TMC3    O1 7974   3.061   1.421  14.756  0.0705 -0.2084  0.0236
  533TMC3    O2 7975   3.710   1.611  14.774  0.4788  0.2135 -0.2569
  534MPD2     C 7976   1.294   1.387   1.087  0.0331 -0.0460 -0.0176
  534MPD2    C1 7977   1.300   1.519   1.122  0.5482 -0.6507  0.8169
  534MPD2    C2 7978   1.188   1.594   1.149 -0.2083  0.3964  0.5078
  534MPD2    C3 7979   1.065   1.536   1.153 -0.5392  0.1585  0.1632
  534MPD2    C4 7980   1.052   1.406   1.114  0.3081  0.3270 -0.5485
  534MPD2    C5 7981   1.163   1.334   1.069 -0.1687  0.1722 -0.3878
  534MPD2     H 7982   1.204   1.697   1.176 -2.6579  0.7569  0.5927
  534MPD2    H1 7983   0.955   1.358   1.109  0.6171 -0.5608  1.6972
  534MPD2    H2 7984   1.367   1.310   1.067  0.4902  1.1226 -2.9617
  534MPD2    H3 7985   1.142   1.234   1.032 -0.3347 -0.1891  0.6866
  534MPD2     N 7986   0.953   1.614   1.191 -0.5019  0.5228  0.7857
  534MPD2    H5 7987   0.972   1.713   1.201  0.5375  0.1634  2.3133
  534MPD2    N1 7988   1.420   1.590   1.134  0.2016 -0.2503 -0.7093
  534MPD2    H7 7989   1.410   1.686   1.165  0.1979 -0.3322 -0.4506
  535TMC3    C1 7990   0.727   1.684   1.250 -0.5360  0.3655  0.5535
  535TMC3    C2 7991   0.656   1.707   1.367 -0.8746  0.5294  0.0427
  535TMC3    C3 7992   0.581   1.818   1.370  0.2800  0.0669 -0.0130
  535TMC3    C4 7993   0.724   1.774   1.143  0.0789 -0.2897 -0.5824
  535TMC3    C5 7994   0.658   1.892   1.160 -0.4003  0.1658 -0.1326
  535TMC3    C6 7995   0.581   1.913   1.269 -0.0411  0.1066  0.1708
  535TMC3     C 7996   0.824   1.573   1.222  0.2195  0.0799  0.7850
  535TMC3     O 7997   0.787   1.460   1.249 -0.4221  0.5799  0.7123
  535TMC3     H 7998   0.645   1.622   1.434  3.7608  1.2617  1.7229
  535TMC3    H1 7999   0.788   1.753   1.058  0.9767 -0.3228  0.1053
  535TMC3    H2 8000   0.527   2.005   1.285 -0.9911 -0.1280 -1.6630
  535TMC3    C7 8001   0.637   1.966   1.037  0.4374 -0.0253  0.6223
  535TMC3    C8 8002   0.461   1.799   1.446  0.1837 -0.5891 -0.2620
  535TMC3    O1 8003   0.686   1.922   0.934 -0.1355  0.3113  0.2342
  535TMC3    O2 8004   0.355   1.791   1.386  0.0970  0.2237 -0.0630
  536MPD2     C 8005   4.327   0.603  16.304 -0.0642 -0.6104 -0.0881
  536MPD2    C1 8006   4.190   0.596  16.321  0.2482 -0.4097 -0.4485
  536MPD2    C2 8007   4.107   0.605  16.207 -0.7947  0.5744 -0.0105
  536MPD2    C3 8008   4.159   0.629  16.082 -0.3627  0.0201 -0.0727
  536MPD2    C4 8009   4.295   0.639  16.067  0.1925  0.1915  0.6360
  536MPD2    C5 8010   4.376   0.636  16.178  0.7920 -0.4430 -0.5419
  536MPD2     H 8011   4.001   0.627  16.214 -0.7231  0.1355  2.3981
  536MPD2    H1 8012   4.339   0.658  15.970 -0.8024 -0.4739  0.0610
  536MPD2    H2 8013   4.391   0.594  16.391 -0.0973  3.9520  0.3890
  536MPD2    H3 8014   4.483   0.643  16.168  0.8013  0.1582  0.0171
  536MPD2     N 8015   4.083   0.656  15.969 -0.4999  0.4087 -0.3570
  536MPD2    H5 8016   4.128   0.692  15.885  0.6643 -2.4649 -0.9710
  536MPD2    N1 8017   4.146   0.568  16.450 -0.0042 -0.1070 -0.1922
  536MPD2    H7 8018   4.214   0.548  16.523  0.9431 -0.0049 -1.0458
  537TMC3    C1 8019   3.998   0.548  16.631  0.3503  0.1288  0.0723
  537TMC3    C2 8020   4.079   0.609  16.719 -0.6263  0.4945  0.0225
  537TMC3    C3 8021   4.042   0.591  16.853  0.2030 -0.1663 -0.5335
  537TMC3    C4 8022   3.883   0.484  16.663  0.5382  0.4894 -0.6303
  537TMC3    C5 8023   3.853   0.456  16.789 -0.5161 -0.1917  0.4073
  537TMC3    C6 8024   3.935   0.515  16.886 -0.5055  0.2200  0.4191
  537TMC3     C 8025   4.016   0.584  16.492  0.2638  0.1322 -0.4892
  537TMC3     O 8026   3.919   0.598  16.422  0.1356  0.6375 -0.2911
  537TMC3     H 8027   4.177   0.650  16.694  1.0605 -2.5835  1.6841
  537TMC3    H1 8028   3.819   0.433  16.592 -0.4792 -1.0602  1.3774
  537TMC3    H2 8029   3.925   0.493  16.992  1.1898 -0.1766  0.5043
  537TMC3    C7 8030   3.726   0.408  16.822  0.2396 -0.0894 -0.6566
  537TMC3    C8 8031   4.126   0.640  16.956 -0.0715  0.0217 -0.2109
  537TMC3    O1 8032   3.632   0.452  16.754  0.4101 -0.0134 -0.2714
  537TMC3    O2 8033   4.116   0.590  17.070  0.2081 -0.6446  0.3197
  538TMC3    C1 8034   0.783   2.890  10.842  0.1074 -0.6817 -0.8648
  538TMC3    C2 8035   0.910   2.891  10.787  0.5431  0.1777  0.2559
  538TMC3    C3 8036   0.924   2.997  10.698  0.6978 -0.4130  0.4818
  538TMC3    C4 8037   0.684   2.971  10.810  0.7631  0.2647  0.5997
  538TMC3    C5 8038   0.701   3.061  10.712  0.5933  0.0680  0.8599
  538TMC3    C6 8039   0.828   3.082  10.655 -0.0459  0.2955 -0.7107
  538TMC3     C 8040   0.751   2.775  10.919  0.7985 -0.5375  0.2222
  538TMC3     O 8041   0.819   2.675  10.903 -0.6895 -0.0319  0.3518
  538TMC3     H 8042   0.981   2.813  10.812 -0.8479 -1.6049 -1.3679
  538TMC3    H1 8043   0.596   2.966  10.873  0.3849  1.4011  0.1632
  538TMC3    H2 8044   0.846   3.148  10.572  3.2050  1.3975  0.8591
  538TMC3    C7 8045   0.591   3.143  10.677  1.3816 -0.3293  0.3606
  538TMC3    C8 8046   1.039   2.984  10.610 -0.7893 -0.4000  0.7189
  538TMC3    O1 8047   0.483   3.105  10.723  0.0586  0.3073 -0.3899
  538TMC3    O2 8048   1.076   2.873  10.584  0.4114 -0.1153  0.1774
  539MPD2     C 8049   4.467   2.559  11.925  0.3808  0.1956  0.0119
  539MPD2    C1 8050   4.549   2.542  11.820  0.2694 -0.5597  0.0090
  539MPD2    C2 8051   4.615   2.658  11.769  0.1821 -0.0594 -0.8140
  539MPD2    C3 8052   4.609   2.781  11.825  0.0890 -0.7739 -0.6597
  539MPD2    C4 8053   4.537   2.788  11.945  0.3046 -0.1041  0.7525
  539MPD2    C5 8054   4.470   2.678  11.989  0.5700  0.3394  0.2972
  539MPD2     H 8055   4.682   2.641  11.687  1.4489  2.2835 -0.2678
  539MPD2    H1 8056   4.528   2.883  11.997 -0.5379 -0.3077  0.9723
  539MPD2    H2 8057   4.399   2.482  11.961  2.2891 -1.5230 -0.0334
  539MPD2    H3 8058   4.400   2.682  12.072  1.7608 -0.7677  1.3669
  539MPD2     N 8059   4.657   2.898  11.774  0.4194  0.0290  0.1840
  539MPD2    H5 8060   4.631   2.989  11.811 -1.1263 -0.3706  0.0839
  539MPD2    N1 8061   4.558   2.421  11.747  0.3693 -0.1827  0.4406
  539MPD2    H7 8062   4.630   2.413  11.676 -0.2215 -0.8217 -0.0793
  540TMC3    C1 8063   0.013   3.049  11.616  0.7418  0.7498  0.2014
  540TMC3    C2 8064   0.038   3.087  11.491 -0.5913  0.3238 -0.7151
  540TMC3    C3 8065   0.067   3.218  11.465  0.6960 -0.0903 -0.5108
  540TMC3    C4 8066   0.007   3.143  11.716 -0.3087  0.4368  0.0145
  540TMC3    C5 8067   0.020   3.278  11.687  0.2711 -0.3470  0.2978
  540TMC3    C6 8068   0.049   3.318  11.553  0.1075  0.3086 -0.1168
  540TMC3     C 8069   4.724   2.912  11.652  0.3333 -0.4307 -0.2004
  540TMC3     O 8070   0.001   2.828  11.565  0.1392 -0.2650 -0.0602
  540TMC3     H 8071   0.057   3.000  11.428  1.3467 -0.3150  0.7546
  540TMC3    H1 8072   0.003   3.117  11.821 -2.0043  2.1491  0.3640
  540TMC3    H2 8073   0.061   3.418  11.513  2.6744 -0.7872 -2.1332
  540TMC3    C7 8074   4.687   3.367  11.779  1.0789  0.0578  0.2035
  540TMC3    C8 8075   0.068   3.257  11.331 -0.0266 -0.3594 -0.6812
  540TMC3    O1 8076   4.628   3.314  11.873  0.8865 -0.1696  0.4272
  540TMC3    O2 8077   0.142   3.350  11.290  0.9453 -0.6167 -0.3516
  541MPD2     C 8078   3.783   4.209  13.320 -0.7022 -0.3155  0.4339
  541MPD2    C1 8079   3.713   4.109  13.254  0.9724 -0.7796  0.2670
  541MPD2    C2 8080   3.667   4.118  13.124  0.2221  0.3427  0.1590
  541MPD2    C3 8081   3.681   4.237  13.052 -0.2357  0.2068 -0.4795
  541MPD2    C4 8082   3.751   4.342  13.121  0.1666 -0.0583  0.7461
  541MPD2    C5 8083   3.800   4.323  13.251  0.4917 -0.0127  0.0570
  541MPD2     H 8084   3.608   4.039  13.079  1.4847 -1.4457  1.6542
  541MPD2    H1 8085   3.748   4.437  13.068 -2.1844 -0.4925  0.1375
  541MPD2    H2 8086   3.840   4.193  13.411  1.6050 -0.7171 -1.0767
  541MPD2    H3 8087   3.851   4.403  13.303 -0.3973  0.6784 -0.1366
  541MPD2     N 8088   3.629   4.270  12.928  0.1548  0.1248 -0.1392
  541MPD2    H5 8089   3.621   4.369  12.908 -0.6227 -0.3106 -1.9770
  541MPD2    N1 8090   3.683   3.981  13.324 -0.2158 -0.1998 -0.5862
  541MPD2    H7 8091   3.650   3.900  13.272 -0.9122  0.5502 -1.3024
  542TMC3    C1 8092   3.529   4.225  12.713  0.7643  0.1740  0.0792
  542TMC3    C2 8093   3.559   4.142  12.605 -0.7476 -0.3226 -0.2574
  542TMC3    C3 8094   3.546   4.206  12.481  0.3985 -0.3092  0.0849
  542TMC3    C4 8095   3.503   4.361  12.700 -0.5548 -0.1385  0.4723
  542TMC3    C5 8096   3.500   4.414  12.573 -0.3992  0.4107  0.3913
  542TMC3    C6 8097   3.515   4.342  12.459  0.6662  0.5925  0.0244
  542TMC3     C 8098   3.597   4.178  12.838  0.7794  0.1391  1.5597
  542TMC3     O 8099   3.658   4.072  12.836  0.2363  0.2622  0.2903
  542TMC3     H 8100   3.580   4.036  12.617  0.4472  0.0453  0.9259
  542TMC3    H1 8101   3.472   4.420  12.786 -1.3446  1.2789 -0.7805
  542TMC3    H2 8102   3.528   4.387  12.362 -0.0339 -0.0879 -0.3848
  542TMC3    C7 8103   3.501   4.563  12.566 -0.6422  0.3431  0.0553
  542TMC3    C8 8104   3.551   4.125  12.356 -0.1016 -0.4567 -0.2998
  542TMC3    O1 8105   3.469   4.620  12.670 -0.0621 -0.2588 -0.0540
  542TMC3    O2 8106   3.462   4.148  12.277  0.0055  0.2372 -0.7606
  543TMC3    C1 8107   3.228   1.403  17.424  0.5195  0.6967 -0.7088
  543TMC3    C2 8108   3.201   1.272  17.464 -0.0030 -0.0913  0.6994
  543TMC3    C3 8109   3.128   1.255  17.578  0.0606  0.0268 -0.2095
  543TMC3    C4 8110   3.169   1.512  17.485  0.3629  0.4230 -0.2682
  543TMC3    C5 8111   3.091   1.482  17.598 -0.3741 -0.0151 -0.5083
  543TMC3    C6 8112   3.068   1.359  17.648  0.7190 -0.2243  0.8476
  543TMC3     C 8113   3.266   1.419  17.280  0.0163  0.2580 -0.1292
  543TMC3     O 8114   3.306   1.318  17.220  0.0298 -0.5287  0.1916
  543TMC3     H 8115   3.248   1.190  17.410  0.5413  0.6148  0.1001
  543TMC3    H1 8116   3.183   1.612  17.447 -0.0862 -0.4844 -2.8531
  543TMC3    H2 8117   2.988   1.336  17.717  0.2179 -1.4505 -0.1612
  543TMC3    C7 8118   3.026   1.590  17.676  0.7178  0.1808 -0.2333
  543TMC3    C8 8119   3.063   1.128  17.581 -0.3244 -0.3093  0.2674
  543TMC3    O1 8120   2.974   1.547   0.025 -0.1480  0.1060  0.3537
  543TMC3    O2 8121   3.047   1.075  17.471  0.3607 -0.4695 -0.4378
  544MPD2     C 8122   2.895   0.696   0.038  0.5107 -0.0557 -0.5942
  544MPD2    C1 8123   2.897   0.738  17.658 -0.1031 -0.2275  0.2781
  544MPD2    C2 8124   2.937   0.867  17.630 -0.4835  0.6656  0.8757
  544MPD2    C3 8125   2.973   0.954  17.731 -1.2229 -0.1064  0.2606
  544MPD2    C4 8126   2.951   0.912   0.108 -0.0878 -0.1274 -0.2745
  544MPD2    C5 8127   2.924   0.785   0.137 -0.3124 -0.1828 -0.6809
  544MPD2     H 8128   2.950   0.895  17.526  0.0144  0.7358  0.9611
  544MPD2    H1 8129   2.965   0.980   0.191 -0.3586 -0.0026 -0.3306
  544MPD2    H2 8130   2.853   0.601   0.066 -1.8641  0.7330 -1.5027
  544MPD2    H3 8131   2.908   0.757   0.240 -0.4201 -0.0465 -0.6598
  544MPD2     N 8132   3.032   1.080  17.705  0.3250  0.4457  0.5763
  544MPD2    H5 8133   3.058   1.131   0.035 -0.2169  0.8065  0.5211
  544MPD2    N1 8134   2.862   0.643  17.561  0.0159 -0.0717  0.1729
  544MPD2    H7 8135   2.815   0.557  17.589 -0.4349 -0.0594 -0.5274
  545TMC3    C1 8136   2.841   0.539  17.348 -0.2081  0.4388  0.8149
  545TMC3    C2 8137   2.754   0.585  17.254 -0.7941 -0.4392  0.0763
  545TMC3    C3 8138   2.660   0.498  17.207  0.4304  0.0651 -0.3309
  545TMC3    C4 8139   2.844   0.408  17.390  0.2056 -0.0293  0.6421
  545TMC3    C5 8140   2.751   0.324  17.338 -0.1511 -0.4659  0.2384
  545TMC3    C6 8141   2.655   0.368  17.252 -0.1542  0.1834 -0.1453
  545TMC3     C 8142   2.882   0.654  17.425  0.2785  0.3343  0.5256
  545TMC3     O 8143   2.952   0.738  17.371 -0.2026 -0.3746 -0.0983
  545TMC3     H 8144   2.762   0.687  17.220  0.3300  0.1321  1.9806
  545TMC3    H1 8145   2.924   0.360  17.446 -3.0258 -2.4098  3.2564
  545TMC3    H2 8146   2.588   0.296  17.205 -1.7495  0.8930  1.0719
  545TMC3    C7 8147   2.721   0.190  17.383 -0.5039  0.1484 -0.1273
  545TMC3    C8 8148   2.548   0.545  17.124 -0.1816  0.3560 -0.2667
  545TMC3    O1 8149   2.601   0.172  17.395  0.8057  0.4493 -0.2114
  545TMC3    O2 8150   2.539   0.666  17.102  0.5022 -0.1818 -0.2305
  546MPD2     C 8151   4.626   1.128  17.679 -0.7456 -0.0472 -0.1037
  546MPD2    C1 8152   4.562   1.186  17.579  0.3439 -0.4649 -0.4549
  546MPD2    C2 8153   4.592   1.316  17.543  0.1895  0.2207  0.5378
  546MPD2    C3 8154   4.680   1.391  17.616  0.1291  0.5089  0.1665
  546MPD2    C4 8155   0.004   1.333  17.726  0.0059 -0.1717 -0.3883
  546MPD2    C5 8156   4.713   1.204   0.004 -0.1954  0.3988  0.1321
  546MPD2     H 8157   4.566   1.359  17.447  2.7278 -1.1598 -0.7777
  546MPD2    H1 8158   0.083   1.377   0.031  0.0386 -0.5839 -0.1198
  546MPD2    H2 8159   4.605   1.032  17.724 -0.5431 -0.5211 -1.0212
  546MPD2    H3 8160   0.029   1.155   0.084 -0.2232 -0.2418 -0.2396
  546MPD2     N 8161   4.733   1.516  17.577 -0.3058  0.0041 -0.0965
  546MPD2    H5 8162   0.056   1.564  17.643 -0.5660  0.8054 -0.4417
  546MPD2    N1 8163   4.443   1.124  17.538  0.2444 -0.8484 -0.2628
  546MPD2    H7 8164   4.423   1.035  17.583  0.2064  0.3055  2.0128
  547TMC3    C1 8165   4.236   1.091  17.427 -0.2788 -0.3091 -0.1704
  547TMC3    C2 8166   4.181   1.077  17.304  0.0440  0.3447  0.4004
  547TMC3    C3 8167   4.056   1.016  17.296 -0.3948  0.3720 -0.2028
  547TMC3    C4 8168   4.185   1.052  17.544 -0.0453  0.7988  0.0944
  547TMC3    C5 8169   4.050   1.010  17.525  0.0633 -0.5205  0.3249
  547TMC3    C6 8170   3.980   0.992  17.407 -0.7959 -0.2102 -0.3722
  547TMC3     C 8171   4.369   1.155  17.427 -0.7059  0.1818  0.2639
  547TMC3     O 8172   4.385   1.241  17.340 -0.1933  0.6923  0.9986
  547TMC3     H 8173   4.225   1.126  17.218 -0.7569  0.8107  0.2598
  547TMC3    H1 8174   4.230   1.072  17.640  1.9990 -1.6773 -0.3429
  547TMC3    H2 8175   3.873   0.978  17.402 -1.1791  2.2630  0.9189
  547TMC3    C7 8176   3.986   0.960  17.645 -0.2426 -0.4490 -0.1671
  547TMC3    C8 8177   3.992   1.011  17.165  0.1294 -0.6030 -0.3230
  547TMC3    O1 8178   4.035   1.006  17.749 -0.5012 -0.1125 -0.2587
  547TMC3    O2 8179   4.035   1.074  17.071  0.7143 -0.2271 -0.0147
  548MPD2     C 8180   4.087   1.079  12.504 -0.3947 -0.1989 -0.1245
  548MPD2    C1 8181   4.039   0.949  12.490 -0.3154  0.2007  0.3466
  548MPD2    C2 8182   4.122   0.844  12.442  0.5875 -0.0713  0.7035
  548MPD2    C3 8183   4.258   0.880  12.409 -0.4108  0.5288 -0.0368
  548MPD2    C4 8184   4.300   1.006  12.421 -0.4105  0.9144  0.0349
  548MPD2    C5 8185   4.214   1.106  12.474  0.3424 -0.0668  0.1451
  548MPD2     H 8186   4.090   0.743  12.417  0.7168 -0.0977  0.6412
  548MPD2    H1 8187   4.395   1.051  12.395 -1.0936  1.2059 -1.9217
  548MPD2    H2 8188   4.029   1.159  12.549 -0.4160  0.1344 -0.7602
  548MPD2    H3 8189   4.250   1.208  12.473 -0.3514  0.1625 -1.8520
  548MPD2     N 8190   4.350   0.779  12.368  0.2632 -0.0900 -0.5681
  548MPD2    H5 8191   4.305   0.688  12.365 -1.9649  1.0646 -2.1360
  548MPD2    N1 8192   3.904   0.925  12.520 -0.0209 -0.1480 -0.4849
  548MPD2    H7 8193   3.846   1.003  12.549 -0.4453  0.3142 -2.5884
  549TMC3    C1 8194   3.693   0.818  12.544 -0.0868  0.4721  0.6808
  549TMC3    C2 8195   3.633   0.939  12.541  0.3164 -0.1431  0.0814
  549TMC3    C3 8196   3.511   0.947  12.593 -0.0727 -0.1669 -0.3080
  549TMC3    C4 8197   3.622   0.705  12.591  0.0951 -0.2889 -0.8251
  549TMC3    C5 8198   3.501   0.724  12.650  0.2699  0.3601 -0.4501
  549TMC3    C6 8199   3.435   0.848  12.643  0.2918  0.8224  0.6920
  549TMC3     C 8200   3.838   0.806  12.517  0.4695  0.9779  0.1917
  549TMC3     O 8201   3.885   0.695  12.505 -0.4059  0.1422  0.4823
  549TMC3     H 8202   3.677   1.026  12.494  1.1108 -0.7625 -0.3252
  549TMC3    H1 8203   3.675   0.611  12.589  1.2996  0.4048 -1.4437
  549TMC3    H2 8204   3.337   0.875  12.681 -0.2411  0.2636 -0.2847
  549TMC3    C7 8205   3.426   0.611  12.689 -0.6188  0.1367  0.0621
  549TMC3    C8 8206   3.460   1.081  12.611  0.2214 -0.6682 -1.1380
  549TMC3    O1 8207   3.305   0.634  12.707  0.3865  0.3872  0.3464
  549TMC3    O2 8208   3.340   1.099  12.624 -0.5144 -0.1079 -0.5673
  550TMC3    C1 8209   2.867   3.740  11.829 -0.0783  0.3587 -0.1164
  550TMC3    C2 8210   2.894   3.807  11.945 -0.0267  0.2187 -0.7394
  550TMC3    C3 8211   2.797   3.889  12.007  1.0372  0.5153  0.9224
  550TMC3    C4 8212   2.746   3.755  11.763  0.1007 -0.2319 -0.3433
  550TMC3    C5 8213   2.651   3.827  11.828 -0.2921  0.0282 -0.2246
  550TMC3    C6 8214   2.672   3.897  11.946 -0.6556 -0.5340 -0.0182
  550TMC3     C 8215   2.970   3.636  11.789 -0.6821  0.2739  0.0634
  550TMC3     O 8216   3.064   3.604  11.857  0.1727 -0.7241 -0.3823
  550TMC3     H 8217   2.997   3.797  11.977 -1.1312  0.3374  2.7679
  550TMC3    H1 8218   2.720   3.690  11.679 -1.1572 -0.0678 -0.0675
  550TMC3    H2 8219   2.604   3.973  11.982 -1.6379 -1.6985  0.6194
  550TMC3    C7 8220   2.511   3.842  11.786 -0.2002  0.4128 -0.6020
  550TMC3    C8 8221   2.812   3.962  12.133  0.2524  0.0643  0.1805
  550TMC3    O1 8222   2.443   3.907  11.864  0.3150 -0.4438  0.9499
  550TMC3    O2 8223   2.709   3.976  12.195  0.4271 -0.6895 -0.4283
  551TMC3    C1 8224   0.600   2.163  13.178  0.1911 -0.1504 -0.3820
  551TMC3    C2 8225   0.679   2.222  13.082 -0.1182 -0.9237  0.4940
  551TMC3    C3 8226   0.748   2.333  13.109  0.3474 -1.3800 -0.2443
  551TMC3    C4 8227   0.585   2.222  13.298  0.4288  0.0674 -0.9895
  551TMC3    C5 8228   0.659   2.332  13.323 -0.0844  0.1872  0.0447
  551TMC3    C6 8229   0.734   2.391  13.231  0.3750 -0.2575  0.5356
  551TMC3     C 8230   0.526   2.047  13.129  0.1523 -0.6626  0.2996
  551TMC3     O 8231   0.579   1.958  13.058  0.3376 -0.0290 -0.0867
  551TMC3     H 8232   0.687   2.174  12.985  0.1980 -0.2663  0.1911
  551TMC3    H1 8233   0.523   2.178  13.375  0.2492  1.6670 -0.2335
  551TMC3    H2 8234   0.808   2.464  13.260  0.9652 -0.8367  0.4863
  551TMC3    C7 8235   0.661   2.375  13.460  0.1518 -0.0651 -0.5632
  551TMC3    C8 8236   0.842   2.382  13.010  0.7513 -0.4302  0.3804
  551TMC3    O1 8237   0.622   2.302  13.552 -0.0355 -0.6846 -0.5866
  551TMC3    O2 8238   0.869   2.314  12.911 -0.7168 -0.0900 -0.5174
  552MPD2     C 8239   2.264   3.780  14.557 -0.3733  0.5971  0.1360
  552MPD2    C1 8240   2.375   3.858  14.522 -0.7127 -0.1366  0.3237
  552MPD2    C2 8241   2.470   3.877  14.624  0.2669 -0.4060 -0.0131
  552MPD2    C3 8242   2.456   3.816  14.743  0.1762 -0.0359 -0.7035
  552MPD2    C4 8243   2.340   3.748  14.773  0.5040  0.0167 -0.3539
  552MPD2    C5 8244   2.248   3.726  14.676 -0.0139 -0.5998 -0.1090
  552MPD2     H 8245   2.550   3.949  14.608 -2.7061  2.0412 -4.0298
  552MPD2    H1 8246   2.320   3.708  14.871 -0.6767  1.3113 -0.0662
  552MPD2    H2 8247   2.188   3.760  14.482 -2.3521 -0.7985  2.5345
  552MPD2    H3 8248   2.164   3.665  14.706 -0.6775  0.1027 -0.5331
  552MPD2     N 8249   2.549   3.836  14.847 -0.4369  0.0842  0.0680
  552MPD2    H5 8250   2.538   3.774  14.927  0.2097  2.5888  2.1407
  552MPD2    N1 8251   2.395   3.915  14.388 -0.1060 -0.4247  0.0040
  552MPD2    H7 8252   2.491   3.945  14.371 -0.2834  0.0998 -0.0713
  553TMC3    C1 8253   2.363   3.937  14.159 -0.6288 -1.0535 -0.2044
  553TMC3    C2 8254   2.305   3.863  14.055  0.5024 -0.0382 -0.4742
  553TMC3    C3 8255   2.352   3.897  13.930 -0.1649 -1.0009 -0.4160
  553TMC3    C4 8256   2.477   4.020  14.156 -0.1571 -0.7852  0.4752
  553TMC3    C5 8257   2.518   4.047  14.030  0.5344  0.5000  0.7508
  553TMC3    C6 8258   2.460   3.989  13.919 -0.1482 -0.3779  0.8244
  553TMC3     C 8259   2.309   3.899  14.288 -0.2539 -0.7084  0.6585
  553TMC3     O 8260   2.197   3.845  14.288  0.0197 -0.3450  0.2513
  553TMC3     H 8261   2.233   3.786  14.077 -1.0149  1.3969 -0.4530
  553TMC3    H1 8262   2.508   4.088  14.234 -2.9868 -1.2289  2.0000
  553TMC3    H2 8263   2.487   4.022  13.820  1.7074 -0.4987  1.2939
  553TMC3    C7 8264   2.646   4.119  14.015 -0.0870  0.4839  0.3003
  553TMC3    C8 8265   2.298   3.821  13.813  0.6480  0.7337 -0.2585
  553TMC3    O1 8266   2.664   4.170  13.906  0.1213 -0.4566  0.0888
  553TMC3    O2 8267   2.365   3.818  13.706 -0.0401  0.1582  0.1437
  554TMC3    C1 8268   4.151   3.081  11.745 -0.2409 -0.4394 -0.6027
  554TMC3    C2 8269   4.058   3.011  11.680 -0.3514  0.2127  0.1960
  554TMC3    C3 8270   4.070   2.986  11.547 -0.0610 -0.2667 -0.3452
  554TMC3    C4 8271   4.271   3.118  11.684 -0.3481  0.9089  0.5117
  554TMC3    C5 8272   4.283   3.081  11.559  0.0935  0.2534  0.0804
  554TMC3    C6 8273   4.191   3.018  11.487 -0.2068 -0.6730 -0.3807
  554TMC3     C 8274   4.165   3.057  11.883 -0.5881  0.2500  0.6508
  554TMC3     O 8275   4.251   3.124  11.938 -0.1799  0.1826  0.5560
  554TMC3     H 8276   3.960   2.987  11.721 -0.8091 -0.6335 -1.4176
  554TMC3    H1 8277   4.348   3.172  11.738 -0.2192  1.7334 -0.4887
  554TMC3    H2 8278   4.203   3.008  11.379  0.6633 -1.9885 -0.1667
  554TMC3    C7 8279   4.391   3.140  11.482 -0.2816  0.2263 -0.1068
  554TMC3    C8 8280   3.963   2.952  11.454 -0.3449  0.1834 -0.2191
  554TMC3    O1 8281   4.435   3.066  11.397  0.0548  0.0011  0.0278
  554TMC3    O2 8282   4.002   2.927  11.341 -0.3009  0.1619  0.2512
  555TMC3    C1 8283   3.089   2.868  15.181 -1.0520 -0.4918 -0.8291
  555TMC3    C2 8284   3.154   2.963  15.254 -0.1327  0.3432 -0.5181
  555TMC3    C3 8285   3.282   2.936  15.299 -0.0419 -0.2008 -0.2170
  555TMC3    C4 8286   3.140   2.743  15.153 -0.1440 -0.4440  0.6094
  555TMC3    C5 8287   3.259   2.709  15.210 -0.1608 -0.5416  0.3521
  555TMC3    C6 8288   3.333   2.810  15.280  0.2068  0.0005 -1.1476
  555TMC3     C 8289   2.958   2.905  15.138 -0.4095  0.1711 -0.4348
  555TMC3     O 8290   2.895   2.987  15.197 -0.0518 -0.2563 -0.7378
  555TMC3     H 8291   3.099   3.049  15.291  0.7485  0.8913 -0.4513
  555TMC3    H1 8292   3.081   2.658  15.122 -0.8353  0.2093  0.1587
  555TMC3    H2 8293   3.416   2.776  15.340  0.2793  0.6639 -0.8692
  555TMC3    C7 8294   3.280   2.572  15.249  0.3492  0.0497 -0.0523
  555TMC3    C8 8295   3.311   2.989  15.430 -0.3429  0.3115 -0.0347
  555TMC3    O1 8296   3.179   2.502  15.260  0.0115 -1.1335 -0.4413
  555TMC3    O2 8297   3.218   3.046  15.490 -0.8643  0.7391 -0.5229
  556MPD2     C 8298   1.443   4.268  10.763 -0.6868 -0.3884  0.3591
  556MPD2    C1 8299   1.397   4.145  10.789 -0.7041 -0.1028  0.2322
  556MPD2    C2 8300   1.339   4.060  10.690  0.5206 -0.0107 -0.1383
  556MPD2    C3 8301   1.339   4.105  10.561  0.0752 -0.4029 -0.3134
  556MPD2    C4 8302   1.387   4.235  10.537  0.0895  0.2127  0.0183
  556MPD2    C5 8303   1.434   4.315  10.637  0.6118  0.4308  0.2398
  556MPD2     H 8304   1.292   3.965  10.712 -1.8576  1.2949  0.4830
  556MPD2    H1 8305   1.385   4.277  10.437 -1.9381  0.0055 -0.0113
  556MPD2    H2 8306   1.470   4.343  10.836 -1.5609 -0.2972  0.5909
  556MPD2    H3 8307   1.483   4.412  10.635 -0.9948  1.2166 -0.9398
  556MPD2     N 8308   1.300   4.015  10.462 -0.1832 -0.2284  0.6061
  556MPD2    H5 8309   1.271   3.922  10.491 -2.7028 -0.0232 -1.2101
  556MPD2    N1 8310   1.431   4.091  10.914 -0.2646  0.3594  0.2149
  556MPD2    H7 8311   1.482   4.158  10.971 -1.5060  1.8112 -0.3840
  557TMC3    C1 8312   1.301   3.909  10.257  0.1689 -0.4669  0.4597
  557TMC3    C2 8313   1.259   3.923  10.129 -0.3406 -0.6211  0.3475
  557TMC3    C3 8314   1.190   3.816  10.076 -0.1716 -0.8138 -0.3444
  557TMC3    C4 8315   1.288   3.792  10.326 -0.2193 -0.2355  0.8960
  557TMC3    C5 8316   1.227   3.682  10.269 -0.4338 -0.0886 -0.3263
  557TMC3    C6 8317   1.173   3.697  10.143 -0.1205  0.1732  0.6540
  557TMC3     C 8318   1.320   4.025  10.329  0.9629  0.3999  0.3117
  557TMC3     O 8319   1.343   4.128  10.264 -0.1915 -0.0568 -0.0995
  557TMC3     H 8320   1.285   4.011  10.071 -0.2517  0.1843  1.5908
  557TMC3    H1 8321   1.317   3.785  10.430 -2.3637 -0.2990  1.4919
  557TMC3    H2 8322   1.113   3.614  10.108  1.0642 -0.1765 -0.5621
  557TMC3    C7 8323   1.224   3.551  10.332  0.4687  0.6664  0.1374
  557TMC3    C8 8324   1.143   3.826   9.937 -0.3663 -0.0784 -0.4806
  557TMC3    O1 8325   1.240   3.554  10.453 -0.0100  0.1006  0.0119
  557TMC3    O2 8326   1.208   3.900   9.864 -0.0525  0.6988 -0.3733
  558TMC3    C1 8327   3.400   2.004  10.058 -0.3832 -0.2546 -0.2727
  558TMC3    C2 8328   3.338   1.964  10.178  0.2274 -0.0298 -0.0141
  558TMC3    C3 8329   3.210   2.004  10.196  0.1359 -0.0689  0.3963
  558TMC3    C4 8330   3.336   2.077   9.967  1.0468  0.1241 -0.3251
  558TMC3    C5 8331   3.202   2.093   9.986 -0.2575  0.2197  0.6863
  558TMC3    C6 8332   3.134   2.060  10.098 -0.3984 -0.3966  0.0886
  558TMC3     C 8333   3.534   1.954  10.031  1.0960  0.3054  0.3300
  558TMC3     O 8334   3.606   2.015   9.959  0.0871  0.3786  0.7309
  558TMC3     H 8335   3.393   1.906  10.252  0.5461 -0.5249 -0.6357
  558TMC3    H1 8336   3.379   2.111   9.874  2.6848  0.8893  0.7125
  558TMC3    H2 8337   3.028   2.077  10.114  0.3653  3.5115  0.8263
  558TMC3    C7 8338   3.114   2.133   9.873  0.0667 -0.0073 -0.4795
  558TMC3    C8 8339   3.128   1.937  10.299  0.0342 -0.5306 -0.0058
  558TMC3    O1 8340   3.162   2.194   9.781 -0.3160 -0.4191 -0.1243
  558TMC3    O2 8341   3.012   1.915  10.266  0.2260  0.4840  0.1813
  559MPD2     C 8342   3.767   2.671  10.651  0.1403  0.6587  0.9513
  559MPD2    C1 8343   3.640   2.682  10.713  0.4211  0.3718 -0.1029
  559MPD2    C2 8344   3.632   2.684  10.851  0.5635  0.4121  0.4738
  559MPD2    C3 8345   3.744   2.680  10.932 -0.1120 -0.8070 -0.3884
  559MPD2    C4 8346   3.864   2.670  10.873  0.7396  0.1634  0.3679
  559MPD2    C5 8347   3.876   2.664  10.734 -0.4748 -0.3397 -0.0021
  559MPD2     H 8348   3.533   2.696  10.894  0.1871  2.3881 -0.9401
  559MPD2    H1 8349   3.953   2.679  10.934  1.1557  1.9339 -0.4879
  559MPD2    H2 8350   3.780   2.682  10.543 -0.4519  0.4820  0.8644
  559MPD2    H3 8351   3.975   2.682  10.693 -1.2410 -1.6531 -2.4838
  559MPD2     N 8352   3.744   2.690  11.078 -0.3838 -0.2885 -0.5494
  559MPD2    H5 8353   3.835   2.687  11.122 -0.4240 -0.3705 -0.4721
  559MPD2    N1 8354   3.530   2.696  10.624  0.1016 -0.2696 -0.1379
  559MPD2    H7 8355   3.541   2.683  10.524 -1.6123 -2.1027 -0.0888
  560TMC3    C1 8356   3.663   2.641  11.297 -0.0004 -0.7637 -0.1852
  560TMC3    C2 8357   3.561   2.574  11.362  0.0604  0.3254  0.6732
  560TMC3    C3 8358   3.585   2.527  11.485 -0.1395 -0.2337  0.0301
  560TMC3    C4 8359   3.793   2.639  11.345  0.2338 -0.1527 -0.1007
  560TMC3    C5 8360   3.804   2.604  11.477  0.5315  0.5389 -0.2795
  560TMC3    C6 8361   3.704   2.546  11.549  0.2852  0.0232  0.2850
  560TMC3     C 8362   3.637   2.665  11.158 -0.3292 -0.3140 -0.5121
  560TMC3     O 8363   3.524   2.648  11.124 -0.1442  0.5201 -0.1022
  560TMC3     H 8364   3.461   2.561  11.323  0.1224 -1.6888  1.2372
  560TMC3    H1 8365   3.868   2.692  11.289 -0.5016  1.6317  0.5853
  560TMC3    H2 8366   3.729   2.500  11.644  0.1892 -1.3467 -0.3543
  560TMC3    C7 8367   3.927   2.619  11.543 -0.4220 -0.2947  0.5964
  560TMC3    C8 8368   3.519   2.392  11.492 -0.4411 -0.4875 -0.1312
  560TMC3    O1 8369   3.935   2.619  11.664  0.0157 -0.2387  0.6838
  560TMC3    O2 8370   3.457   2.356  11.393 -0.1911 -0.0229 -0.0451
  561TMC3    C1 8371   1.752   1.452  11.562  0.0634 -0.5470 -0.1108
  561TMC3    C2 8372   1.641   1.394  11.611  0.2318  0.3283  1.0907
  561TMC3    C3 8373   1.528   1.473  11.632 -0.2167  0.1146 -0.5809
  561TMC3    C4 8374   1.757   1.590  11.540 -0.5300  0.5863  0.5721
  561TMC3    C5 8375   1.646   1.668  11.560  0.4787  0.1101  0.2256
  561TMC3    C6 8376   1.532   1.609  11.613 -0.0138  0.6812  0.0978
  561TMC3     C 8377   1.877   1.375  11.586  0.3290  0.7895 -0.3940
  561TMC3     O 8378   1.865   1.252  11.579 -0.1359 -0.5732 -0.0803
  561TMC3     H 8379   1.643   1.291  11.645 -0.0946 -0.0552 -0.0399
  561TMC3    H1 8380   1.849   1.632  11.501  1.3516 -3.5813  0.6235
  561TMC3    H2 8381   1.439   1.665  11.614 -1.7330 -2.0978 -2.2237
  561TMC3    C7 8382   1.637   1.796  11.490  0.2453  0.2711  0.3280
  561TMC3    C8 8383   1.424   1.415  11.725  0.0158 -0.6942  0.7480
  561TMC3    O1 8384   1.521   1.828  11.473  0.7797  0.2687  0.2060
  561TMC3    O2 8385   1.413   1.292  11.725  0.3236  0.0952 -0.0535
  562TMC3    C1 8386   3.395   2.216  16.252  0.6757  0.0717 -0.6197
  562TMC3    C2 8387   3.325   2.286  16.159 -0.3783  0.0947  0.2411
  562TMC3    C3 8388   3.265   2.220  16.060  0.0860  0.4536 -0.7422
  562TMC3    C4 8389   3.397   2.078  16.250  0.1247 -0.2796 -0.1872
  562TMC3    C5 8390   3.330   2.011  16.151  0.1060 -1.4386  0.3505
  562TMC3    C6 8391   3.273   2.081  16.050 -0.1454  0.5530  0.1969
  562TMC3     C 8392   3.419   2.292  16.378 -0.4540  0.8615 -0.1693
  562TMC3     O 8393   3.361   2.394  16.397  0.3725  0.0121  0.4101
  562TMC3     H 8394   3.320   2.394  16.165 -1.0862 -0.1071  3.6823
  562TMC3    H1 8395   3.441   2.017  16.328  1.7734  1.4520  0.2336
  562TMC3    H2 8396   3.238   2.019  15.969  0.9135  0.1081  0.0789
  562TMC3    C7 8397   3.394   1.898  16.097  0.9885 -0.7045  0.5659
  562TMC3    C8 8398   3.224   2.284  15.934  1.5165 -0.4029 -0.2477
  562TMC3    O1 8399   3.321   1.817  16.045 -0.9851 -0.3417 -0.1501
  562TMC3    O2 8400   3.198   2.209  15.842 -0.1767 -0.3839 -0.3024
  563MPD2     C 8401   0.862   4.522  15.641  0.1274  0.6033 -0.0652
  563MPD2    C1 8402   0.879   4.531  15.778  0.2226 -0.2070 -0.4019
  563MPD2    C2 8403   0.998   4.480  15.829  0.6445  0.0873 -0.0518
  563MPD2    C3 8404   1.090   4.415  15.748 -0.2483 -0.0581 -0.4871
  563MPD2    C4 8405   1.072   4.415  15.618 -0.3524 -0.0209 -0.0148
  563MPD2    C5 8406   0.965   4.469  15.565 -0.1641 -1.1437  0.0579
  563MPD2     H 8407   1.017   4.476  15.936  1.5009 -0.8183 -0.2423
  563MPD2    H1 8408   1.155   4.388  15.553 -0.8896  0.5736 -0.9437
  563MPD2    H2 8409   0.777   4.561  15.585  0.3484 -0.1693 -0.9375
  563MPD2    H3 8410   0.960   4.469  15.457 -1.1460  0.4776  0.1015
  563MPD2     N 8411   1.205   4.356  15.808 -0.0331  0.4032  0.0121
  563MPD2    H5 8412   1.219   4.355  15.909  1.4702 -4.4972 -0.2360
  563MPD2    N1 8413   0.777   4.590  15.861 -0.1255  0.1361 -0.1693
  563MPD2    H7 8414   0.690   4.610  15.814  0.0392  0.0328 -0.5173
  564TMC3    C1 8415   0.658   4.598  16.065  0.0637  0.2021 -0.2301
  564TMC3    C2 8416   0.548   4.550  15.999 -0.3185 -0.5311  0.4314
  564TMC3    C3 8417   0.430   4.512  16.066  0.4917 -0.8000  0.8465
  564TMC3    C4 8418   0.668   4.585  16.196 -0.4106  0.4038 -0.3302
  564TMC3    C5 8419   0.561   4.523  16.264  0.3116  0.5414 -0.3325
  564TMC3    C6 8420   0.437   4.502  16.204  0.0226  0.1937  0.1365
  564TMC3     C 8421   0.788   4.611  15.995 -0.0663  0.5181  0.5032
  564TMC3     O 8422   0.878   4.605  16.079  0.1128 -0.0487 -0.2607
  564TMC3     H 8423   0.535   4.580  15.895  1.8067 -0.1957  0.2638
  564TMC3    H1 8424   0.755   4.610  16.254 -1.5994  2.0843  0.7278
  564TMC3    H2 8425   0.347   4.472  16.257  0.4386 -1.1971  0.0548
  564TMC3    C7 8426   0.625   4.403  16.316 -0.1004  0.2304  1.2008
  564TMC3    C8 8427   0.375   4.387  16.008  0.0416 -0.0302  0.2570
  564TMC3    O1 8428   0.723   4.422  16.390  0.1554  0.3404  0.5548
  564TMC3    O2 8429   0.326   4.305  16.088 -1.0313  0.3731  0.0593
  565TMC3    C1 8430   0.941   0.276  10.546  0.5432 -0.6581  0.5088
  565TMC3    C2 8431   0.933   0.210  10.665 -0.4106  0.1715  0.0314
  565TMC3    C3 8432   0.868   0.087  10.667  0.5774 -0.2484 -0.3521
  565TMC3    C4 8433   0.890   0.229  10.430 -0.0582 -0.1403  0.0019
  565TMC3    C5 8434   0.818   0.111  10.441  0.4386  0.5296 -0.2323
  565TMC3    C6 8435   0.821   0.029  10.553 -0.0338 -0.4678 -0.1413
  565TMC3     C 8436   1.025   0.396  10.534  0.1979 -0.0355 -0.3506
  565TMC3     O 8437   1.067   0.425  10.423  0.1507  0.0152 -0.0037
  565TMC3     H 8438   0.981   0.250  10.754  1.3015 -3.5042  0.7397
  565TMC3    H1 8439   0.907   0.281  10.337 -4.3648  0.2988 -0.5778
  565TMC3    H2 8440   0.748   4.688  10.555 -1.3373  0.7287  0.4876
  565TMC3    C7 8441   0.707   0.086  10.350  0.3591 -0.1323  0.3003
  565TMC3    C8 8442   0.882   0.016  10.792  0.0181  0.1524 -0.2471
  565TMC3    O1 8443   0.655   4.714  10.358  0.3643  0.8521  0.5404
  565TMC3    O2 8444   0.914   0.095  10.881 -0.0936  0.2961 -0.0542
  566MPD2     C 8445   3.726   2.090  14.334 -0.1494  0.6798 -0.6429
  566MPD2    C1 8446   3.674   2.191  14.261 -0.1440  0.0007 -0.4658
  566MPD2    C2 8447   3.643   2.162  14.131 -0.2890  0.1759  0.1696
  566MPD2    C3 8448   3.659   2.037  14.076  0.4034 -0.8957  0.5837
  566MPD2    C4 8449   3.720   1.939  14.154  0.6734 -0.2641  0.2093
  566MPD2    C5 8450   3.755   1.967  14.277 -0.1170  0.0400  0.5490
  566MPD2     H 8451   3.605   2.244  14.071 -0.1304  1.0563  1.2765
  566MPD2    H1 8452   3.750   1.842  14.116 -2.1560 -1.9469  2.2431
  566MPD2    H2 8453   3.757   2.102  14.437  0.1901  0.1191 -0.6773
  566MPD2    H3 8454   3.808   1.894  14.338  0.7941 -0.1990 -0.5294
  566MPD2     N 8455   3.631   2.020  13.941 -0.5211  0.6995 -0.9816
  566MPD2    H5 8456   3.688   1.947  13.899  0.6327  2.7749 -3.0661
  566MPD2    N1 8457   3.653   2.317  14.324 -0.5068  0.2452 -0.4675
  566MPD2    H7 8458   3.676   2.333  14.421  1.3708 -1.3496 -0.6450
  567TMC3    C1 8459   3.545   2.537  14.350 -0.1975  0.9410 -0.1007
  567TMC3    C2 8460   3.487   2.641  14.276 -0.5664 -0.3983  0.2588
  567TMC3    C3 8461   3.384   2.709  14.334 -0.0802 -0.0961  0.0738
  567TMC3    C4 8462   3.511   2.500  14.474 -0.4490 -1.0756 -0.0019
  567TMC3    C5 8463   3.398   2.564  14.518 -0.1449  0.4498 -0.0341
  567TMC3    C6 8464   3.329   2.670  14.458 -0.6238  0.0591  0.0913
  567TMC3     C 8465   3.602   2.434  14.260  0.0756 -0.0045  0.4666
  567TMC3     O 8466   3.598   2.463  14.142 -0.0899 -0.5822  0.2350
  567TMC3     H 8467   3.516   2.661  14.174  2.4167 -1.0346  0.9747
  567TMC3    H1 8468   3.550   2.409  14.519 -0.1401 -1.2414 -0.6049
  567TMC3    H2 8469   3.238   2.711  14.499 -0.3483 -0.2762  1.0532
  567TMC3    C7 8470   3.342   2.522  14.642 -0.6545 -0.2534  0.1551
  567TMC3    C8 8471   3.286   2.755  14.242 -0.3769  0.0419  1.0381
  567TMC3    O1 8472   3.233   2.569  14.672 -0.0660  0.7265 -0.0028
  567TMC3    O2 8473   3.283   2.707  14.132  0.2579 -0.2283 -0.1496
  568MPD2     C 8474   0.827   3.197  16.090 -0.1870  0.2841  0.1341
  568MPD2    C1 8475   0.718   3.179  16.178  0.6302 -0.4779  0.6470
  568MPD2    C2 8476   0.604   3.256  16.164 -0.2203 -0.9887  0.3595
  568MPD2    C3 8477   0.599   3.360  16.077  0.3918 -0.0279 -0.5906
  568MPD2    C4 8478   0.711   3.380  15.994 -0.0009 -0.2412  0.3291
  568MPD2    C5 8479   0.820   3.301  16.004 -0.3390  0.5401  0.4764
  568MPD2     H 8480   0.523   3.244  16.236 -1.3699  1.3877 -0.5445
  568MPD2    H1 8481   0.714   3.456  15.916 -1.0001  0.1282  0.6451
  568MPD2    H2 8482   0.918   3.140  16.106 -0.4730  0.2662  1.6093
  568MPD2    H3 8483   0.905   3.328  15.942  0.4026  0.5556  1.4967
  568MPD2     N 8484   0.488   3.445  16.063  0.2677  0.7479 -0.1327
  568MPD2    H5 8485   0.405   3.410  16.109  0.8751  0.3853  0.6884
  568MPD2    N1 8486   0.737   3.091  16.284 -0.3513  0.6405  0.3832
  568MPD2    H7 8487   0.821   3.035  16.283 -0.7196  0.0913  0.1356
  569TMC3    C1 8488   0.334   3.598  15.972  0.1986  0.8208  0.2391
  569TMC3    C2 8489   0.278   3.646  16.080  0.1850  0.4313  0.6417
  569TMC3    C3 8490   0.155   3.719  16.067 -0.1957 -0.1084  0.7121
  569TMC3    C4 8491   0.301   3.636  15.851  0.3787 -0.2565  0.4816
  569TMC3    C5 8492   0.184   3.710  15.841 -0.0837 -0.1405  0.1593
  569TMC3    C6 8493   0.101   3.746  15.943  0.0918 -0.0806  0.5736
  569TMC3     C 8494   0.474   3.559  15.989 -0.0094 -0.0114  0.5457
  569TMC3     O 8495   0.550   3.608  15.910 -0.6777  0.1118  0.5798
  569TMC3     H 8496   0.319   3.623  16.177  1.6391 -1.0974 -0.3328
  569TMC3    H1 8497   0.350   3.603  15.760 -1.4471 -0.2173 -0.5160
  569TMC3    H2 8498   0.003   3.787  15.924 -0.4594 -0.3913  2.7712
  569TMC3    C7 8499   0.207   3.815  15.747  0.3674 -0.0229  0.1667
  569TMC3    C8 8500   0.157   3.853  16.120  0.4050 -0.3368  0.0887
  569TMC3    O1 8501   0.261   3.789  15.639  0.4823 -0.3600  0.6855
  569TMC3    O2 8502   0.084   3.933  16.065 -0.1527 -0.2229  0.1434
  570TMC3    C1 8503   0.195   1.771  16.409  0.1675 -0.7112  0.1052
  570TMC3    C2 8504   0.288   1.787  16.307 -0.1280 -0.4042  0.3410
  570TMC3    C3 8505   0.313   1.915  16.263  0.0952 -0.5995 -0.0239
  570TMC3    C4 8506   0.146   1.877  16.471  0.0225  0.4133 -0.3915
  570TMC3    C5 8507   0.187   2.005  16.437 -0.1874  0.6031 -0.4938
  570TMC3    C6 8508   0.268   2.026  16.327  0.0808 -0.6048  0.5042
  570TMC3     C 8509   0.125   1.646  16.413 -0.2699  1.1309  0.3189
  570TMC3     O 8510   0.145   1.555  16.334 -0.3324  0.1729 -0.0852
  570TMC3     H 8511   0.315   1.696  16.254  0.7573  1.0441 -1.6628
  570TMC3    H1 8512   0.080   1.874  16.557  0.2325 -0.0094 -0.2462
  570TMC3    H2 8513   0.302   2.125  16.297 -1.7834 -0.4195 -0.9736
  570TMC3    C7 8514   0.128   2.123  16.505 -0.8447 -0.0116  0.2440
  570TMC3    C8 8515   0.411   1.934  16.157 -0.3049  0.0385  0.5737
  570TMC3    O1 8516   0.071   2.096  16.612 -0.6346  0.2269 -0.8398
  570TMC3    O2 8517   0.427   2.049  16.121 -0.0931 -0.2022  0.0309
  571MPD2     C 8518   2.871   3.275   0.545 -0.1325 -0.1730 -0.1515
  571MPD2    C1 8519   2.811   3.354   0.444 -0.1580  0.9710 -0.6474
  571MPD2    C2 8520   2.798   3.492   0.464 -0.4802 -0.4206  0.6968
  571MPD2    C3 8521   2.832   3.540   0.591 -0.1426 -0.2979  0.0725
  571MPD2    C4 8522   2.879   3.461   0.685 -1.0038 -0.1487 -0.6700
  571MPD2    C5 8523   2.888   3.324   0.668  0.7456 -0.0309  0.2793
  571MPD2     H 8524   2.770   3.558   0.382 -0.0625 -2.8127 -1.3572
  571MPD2    H1 8525   2.901   3.501   0.783 -1.6725  0.1000 -0.6181
  571MPD2    H2 8526   2.889   3.169   0.528 -0.0092 -0.2945  0.7733
  571MPD2    H3 8527   2.925   3.269   0.754  0.3848  2.2543  1.8986
  571MPD2     N 8528   2.825   3.677   0.634 -0.3197 -0.4963 -0.4014
  571MPD2    H5 8529   2.858   3.697   0.728  0.1566 -3.0977 -0.0383
  571MPD2    N1 8530   2.774   3.295   0.325 -0.6695 -0.3369  0.2160
  571MPD2    H7 8531   2.801   3.198   0.306  0.1700 -0.2053  0.7561
  572TMC3    C1 8532   2.787   3.905   0.623 -0.3408 -0.5899  0.1593
  572TMC3    C2 8533   2.779   3.915   0.759  1.0870 -0.2053  0.0330
  572TMC3    C3 8534   2.806   4.039   0.812  0.5370 -0.0944 -0.5008
  572TMC3    C4 8535   2.823   4.012   0.549  0.5535  0.1686 -0.1419
  572TMC3    C5 8536   2.868   4.128   0.606  0.4989  0.5207  0.2217
  572TMC3    C6 8537   2.857   4.146   0.742  0.5553  0.0459  0.0876
  572TMC3     C 8538   2.778   3.780   0.550 -0.1451  0.2583  0.5758
  572TMC3     O 8539   2.748   3.782   0.430  0.4551  0.2484  0.2193
  572TMC3     H 8540   2.726   3.847   0.824 -0.0340 -0.2132 -0.9020
  572TMC3    H1 8541   2.842   4.009   0.442  0.2506  0.9199 -0.2175
  572TMC3    H2 8542   2.880   4.240   0.790  0.4597  0.3518 -0.4608
  572TMC3    C7 8543   2.879   4.236   0.510  0.0110 -0.1305  0.1654
  572TMC3    C8 8544   2.787   4.058   0.955 -0.1336 -0.5733 -0.1338
  572TMC3    O1 8545   2.813   4.232   0.408  0.3357 -0.3313  0.6666
  572TMC3    O2 8546   2.753   4.169   0.991  0.0352  0.6792  0.1141
  573MPD2     C 8547   3.140   3.845   0.608  0.0190 -0.0645  0.3635
  573MPD2    C1 8548   3.184   3.980   0.640 -0.4432  0.7528 -0.1388
  573MPD2    C2 8549   3.218   4.063   0.534 -0.0202  0.3432  0.4146
  573MPD2    C3 8550   3.222   4.015   0.408  0.0782 -0.3828  0.2917
  573MPD2    C4 8551   3.189   3.885   0.380 -0.0607 -0.5637  0.4733
  573MPD2    C5 8552   3.158   3.796   0.483 -0.2759  0.7456  0.0110
  573MPD2     H 8553   3.237   4.168   0.554 -0.6365  0.1336  2.0339
  573MPD2    H1 8554   3.196   3.857   0.275  0.5363 -0.5178  0.5007
  573MPD2    H2 8555   3.106   3.788   0.694 -0.7012 -0.3167 -0.0963
  573MPD2    H3 8556   3.142   3.693   0.451 -0.9407  1.0373 -0.6110
  573MPD2     N 8557   3.272   4.099   0.302  0.2493 -0.1565 -0.1129
  573MPD2    H5 8558   3.255   4.068   0.207  2.1787  1.0588 -0.8526
  573MPD2    N1 8559   3.189   4.024   0.775  0.4935  0.4989 -0.0866
  573MPD2    H7 8560   3.212   3.954   0.845 -1.0252 -0.6573 -0.7580
  574TMC3    C1 8561   3.335   4.302   0.211  0.0162  0.2460 -0.3157
  574TMC3    C2 8562   3.222   4.300   0.136 -0.4156  0.8348 -0.8149
  574TMC3    C3 8563   3.202   4.407   0.052  0.3967  1.2125  0.1925
  574TMC3    C4 8564   3.428   4.402   0.210  0.1080 -0.0901  0.4809
  574TMC3    C5 8565   3.409   4.503   0.120 -0.2645  0.2548  0.0810
  574TMC3    C6 8566   3.296   4.507   0.039 -0.1983  0.0738 -0.0898
  574TMC3     C 8567   3.339   4.216   0.323  0.3269 -1.0111  0.5231
  574TMC3     O 8568   3.402   4.259   0.418 -0.0219  0.0597 -0.1961
  574TMC3     H 8569   3.141   4.229   0.148 -0.1549  1.1103  2.5991
  574TMC3    H1 8570   3.510   4.413   0.280 -0.7292  1.3249  1.2338
  574TMC3    H2 8571   3.268   4.598  17.742 -4.0008 -0.0095  1.8787
  574TMC3    C7 8572   3.457   4.632   0.154 -0.4933  0.5516  0.8720
  574TMC3    C8 8573   3.078   4.409  17.729  0.4554 -0.1647  0.9704
  574TMC3    O1 8574   3.381   4.724   0.145 -0.6420 -0.5517  0.1323
  574TMC3    O2 8575   3.018   4.303  17.734 -0.5718  0.6048  0.0871
  575TMC3    C1 8576   1.171   0.140  11.564 -0.4023  0.2677 -0.3423
  575TMC3    C2 8577   1.125   0.072  11.672  0.0419  0.4740 -0.6470
  575TMC3    C3 8578   1.069   4.688  11.641  0.0114 -0.7102  0.7408
  575TMC3    C4 8579   1.162   0.091  11.441  0.5647 -0.4164  0.6557
  575TMC3    C5 8580   1.093   4.707  11.418 -0.0114 -0.1200 -0.0769
  575TMC3    C6 8581   1.055   4.632  11.522 -0.5077  0.1530  0.2666
  575TMC3     C 8582   1.214   0.276  11.580 -0.0663 -0.5130  0.1634
  575TMC3     O 8583   1.270   0.329  11.485  0.6712 -0.3983 -0.7039
  575TMC3     H 8584   1.137   0.102  11.775  1.1508 -1.6811 -0.1381
  575TMC3    H1 8585   1.173   0.162  11.361 -1.9676  0.5049  1.1028
  575TMC3    H2 8586   0.980   4.554  11.519 -0.8126  0.5380 -2.2761
  575TMC3    C7 8587   1.030   4.680  11.289 -0.0675 -0.7249 -0.3197
  575TMC3    C8 8588   1.072   4.595  11.749  0.3368 -0.7313 -0.5414
  575TMC3    O1 8589   1.015   0.044  11.224  0.4596 -0.3510 -0.4850
  575TMC3    O2 8590   1.030   4.639  11.855  0.4768 -0.4022  0.0099
  576MPD2     C 8591   0.438   2.032  12.657 -0.5038 -0.5445  0.4316
  576MPD2    C1 8592   0.533   2.096  12.579  0.2707 -0.0067 -0.0569
  576MPD2    C2 8593   0.575   2.218  12.610  0.6013 -0.4413  0.1435
  576MPD2    C3 8594   0.532   2.280  12.726  0.3086 -0.8858  0.5528
  576MPD2    C4 8595   0.454   2.207  12.811  0.3507  0.0201 -0.0639
  576MPD2    C5 8596   0.401   2.085  12.774 -0.4018 -0.3038  0.3693
  576MPD2     H 8597   0.642   2.270  12.542  1.0811  0.6930  1.4896
  576MPD2    H1 8598   0.400   2.252  12.894 -1.1719  0.2530 -1.1739
  576MPD2    H2 8599   0.396   1.939  12.621  0.3796 -0.9317  0.4053
  576MPD2    H3 8600   0.318   2.053  12.836 -0.3192  1.7006  1.5057
  576MPD2     N 8601   0.578   2.412  12.748 -0.5544  0.7153  0.2423
  576MPD2    H5 8602   0.637   2.455  12.678 -1.2427 -0.9201 -1.3313
  576MPD2    N1 8603   0.589   2.035  12.465 -0.3361 -0.0709 -0.1117
  576MPD2    H7 8604   0.648   2.084  12.399  1.0734  0.5235  1.5778
  577TMC3    C1 8605   0.639   1.878  12.295 -0.1990 -0.0368 -0.4417
  577TMC3    C2 8606   0.723   1.777  12.288  0.1989  0.8422  0.0617
  577TMC3    C3 8607   0.821   1.776  12.193 -0.3244  0.2557  0.0771
  577TMC3    C4 8608   0.647   1.983  12.206 -0.7919 -0.1179  0.1607
  577TMC3    C5 8609   0.737   1.969  12.102  0.4942  0.2231 -0.1533
  577TMC3    C6 8610   0.832   1.874  12.101  0.0635 -0.9807 -0.4934
  577TMC3     C 8611   0.585   1.899  12.433  0.4405  0.3572 -0.5249
  577TMC3     O 8612   0.564   1.805  12.508 -0.5768 -0.3431  0.0653
  577TMC3     H 8613   0.709   1.696  12.360 -1.3941  1.3516  0.3212
  577TMC3    H1 8614   0.588   2.074  12.212  0.2526  0.5841 -0.3179
  577TMC3    H2 8615   0.879   1.852  12.006  2.4244  2.7244 -0.1928
  577TMC3    C7 8616   0.718   2.049  11.979  0.4524  0.5118 -0.1527
  577TMC3    C8 8617   0.905   1.662  12.196 -0.3641  0.1471 -0.0690
  577TMC3    O1 8618   0.811   2.077  11.906 -0.3151  0.4279 -0.1938
  577TMC3    O2 8619   0.876   1.565  12.265  0.4195 -0.1555 -0.0247
  578MPD2     C 8620   3.983   2.596   1.771  0.3477  0.2664  0.9207
  578MPD2    C1 8621   4.004   2.527   1.647  0.0548  0.4455 -0.0437
  578MPD2    C2 8622   4.078   2.410   1.656  0.3391  0.3357 -0.2011
  578MPD2    C3 8623   4.140   2.368   1.770 -0.3028  0.2199 -0.7778
  578MPD2    C4 8624   4.123   2.432   1.892  0.1797  0.0118 -0.5088
  578MPD2    C5 8625   4.049   2.548   1.885 -0.1350  0.0693  0.1540
  578MPD2     H 8626   4.102   2.349   1.570 -0.8658 -0.7361  0.2267
  578MPD2    H1 8627   4.161   2.411   1.991 -0.5650 -1.2065 -0.4792
  578MPD2    H2 8628   3.933   2.691   1.781  1.8106  1.3195 -1.5718
  578MPD2    H3 8629   4.030   2.598   1.979 -0.0738  2.3646 -1.0518
  578MPD2     N 8630   4.219   2.252   1.758 -0.0342  0.4820 -0.0258
  578MPD2    H5 8631   4.211   2.202   1.670  0.5742  2.6268 -1.3004
  578MPD2    N1 8632   3.932   2.578   1.535 -0.3635 -0.1349  0.6710
  578MPD2    H7 8633   3.890   2.671   1.543 -0.4034 -0.1994  1.1805
  579TMC3    C1 8634   4.366   2.078   1.817 -0.0255 -0.1109 -0.0359
  579TMC3    C2 8635   4.488   2.048   1.865  0.0231 -0.5337  0.2038
  579TMC3    C3 8636   4.571   1.969   1.792  0.3852 -0.4370  0.1773
  579TMC3    C4 8637   4.318   2.026   1.700 -0.0519  0.5256 -0.4972
  579TMC3    C5 8638   4.407   1.950   1.626  0.3801  0.6380  0.1385
  579TMC3    C6 8639   4.530   1.918   1.666 -0.1335  0.2632 -0.0328
  579TMC3     C 8640   4.316   2.214   1.843 -0.3388 -0.4773  0.2900
  579TMC3     O 8641   4.355   2.275   1.942  0.1989 -0.3285 -0.0124
  579TMC3     H 8642   4.527   2.096   1.954 -1.9324  0.1870  0.6724
  579TMC3    H1 8643   4.213   2.032   1.675 -0.1051 -2.5724 -0.9622
  579TMC3    H2 8644   4.598   1.859   1.606 -1.2126  1.0372 -2.0259
  579TMC3    C7 8645   4.367   1.871   1.507 -0.1666 -1.4253 -0.1218
  579TMC3    C8 8646   4.703   1.940   1.838 -0.6496 -0.3885  0.2171
  579TMC3    O1 8647   4.439   1.784   1.465  0.2718  0.2344  0.5129
  579TMC3    O2 8648   4.731   1.993   1.943 -0.5219 -0.9329  0.2266
  580TMC3    C1 8649   4.022   0.397  11.965  0.1847  0.4995  0.2637
  580TMC3    C2 8650   4.049   0.330  11.851  0.3013  0.6477  0.1271
  580TMC3    C3 8651   4.021   0.195  11.838  0.0003 -0.3049  0.4002
  580TMC3    C4 8652   3.951   0.336  12.059 -0.7566 -0.5137  0.4586
  580TMC3    C5 8653   3.930   0.198  12.056 -0.1272 -0.3963 -0.3747
  580TMC3    C6 8654   3.967   0.124  11.939 -0.1572  0.0014  0.5053
  580TMC3     C 8655   3.985   0.531  11.935 -0.6898 -0.2194 -0.5178
  580TMC3     O 8656   3.983   0.561  11.817  0.0253 -0.0167  0.0671
  580TMC3     H 8657   4.081   0.387  11.765  1.3570 -0.1300  0.0102
  580TMC3    H1 8658   3.902   0.384  12.143  1.0679  0.6795  0.8281
  580TMC3    H2 8659   3.929   0.023  11.929 -0.4596  0.3411 -1.8670
  580TMC3    C7 8660   3.906   0.124  12.171 -0.0010 -0.0404 -0.3922
  580TMC3    C8 8661   4.058   0.137  11.716  0.2219  0.4687 -0.0216
  580TMC3    O1 8662   3.930   0.180  12.277 -0.1706 -0.3061 -0.0349
  580TMC3    O2 8663   3.995   0.036  11.694 -0.1801  0.5127  0.0317
  581MPD2     C 8664   1.633   0.629  14.896 -0.2200  0.4728  0.4213
  581MPD2    C1 8665   1.500   0.660  14.900 -0.1988  0.4402 -0.1044
  581MPD2    C2 8666   1.448   0.746  14.805  0.1472  0.3764 -0.1650
  581MPD2    C3 8667   1.532   0.824  14.724 -0.2001 -0.5454 -0.5274
  581MPD2    C4 8668   1.667   0.778  14.713 -0.4172 -0.2067  0.6999
  581MPD2    C5 8669   1.714   0.679  14.790  0.9679 -0.3413  0.2304
  581MPD2     H 8670   1.340   0.758  14.807  0.2284  0.9086  1.0176
  581MPD2    H1 8671   1.734   0.834  14.648  0.5034 -0.7031  1.2120
  581MPD2    H2 8672   1.683   0.556  14.959 -0.5859  0.9282  1.2423
  581MPD2    H3 8673   1.815   0.649  14.767  1.9159  0.5541  3.2875
  581MPD2     N 8674   1.476   0.935  14.658 -0.4096 -0.0889  0.2308
  581MPD2    H5 8675   1.376   0.946  14.667 -0.7307 -0.6972 -2.6048
  581MPD2    N1 8676   1.421   0.598  14.999  0.7215 -0.8769 -1.0154
  581MPD2    H7 8677   1.471   0.541  15.067 -0.9588 -2.2027 -0.8761
  582TMC3    C1 8678   1.254   0.532  15.150 -0.1885 -0.6985  0.2469
  582TMC3    C2 8679   1.335   0.468  15.234  0.5062 -0.3784 -1.2350
  582TMC3    C3 8680   1.295   0.462  15.370  0.2262 -0.1003 -0.4041
  582TMC3    C4 8681   1.128   0.569  15.194 -1.0001 -0.2550  0.3999
  582TMC3    C5 8682   1.084   0.545  15.315  0.3621  0.7085  0.3167
  582TMC3    C6 8683   1.165   0.490  15.405  0.0219 -0.0338 -0.0606
  582TMC3     C 8684   1.289   0.602  15.022 -0.2357  0.2079 -0.1468
  582TMC3     O 8685   1.203   0.663  14.963  0.0791  0.3485  0.5000
  582TMC3     H 8686   1.437   0.445  15.208  0.6780 -0.2595 -0.6804
  582TMC3    H1 8687   1.070   0.633  15.130 -0.3954  1.1005  1.2075
  582TMC3    H2 8688   1.141   0.490  15.511 -0.6743 -2.1028 -0.2107
  582TMC3    C7 8689   1.001   0.639  15.372 -1.0770  0.0623 -0.3521
  582TMC3    C8 8690   1.390   0.470  15.485  0.3257  0.1647 -0.2547
  582TMC3    O1 8691   0.899   0.606  15.425  0.0817 -0.4156  0.2759
  582TMC3    O2 8692   1.341   0.488  15.593  0.1155  0.5173  0.2581
  583MPD2     C 8693   1.717   2.305  16.756  0.5213  0.0195 -0.1980
  583MPD2    C1 8694   1.673   2.415  16.692 -0.9077  0.4814 -0.0772
  583MPD2    C2 8695   1.580   2.496  16.764 -0.1498 -0.3629 -0.0717
  583MPD2    C3 8696   1.538   2.460  16.890  0.6916  0.3886  0.2746
  583MPD2    C4 8697   1.579   2.349  16.948  0.5960 -0.3610  0.4922
  583MPD2    C5 8698   1.677   2.278  16.884 -0.3928 -0.9870 -0.4910
  583MPD2     H 8699   1.538   2.585  16.717 -0.0724 -0.5400 -0.4763
  583MPD2    H1 8700   1.553   2.324  17.050 -1.5538 -0.9631 -0.2004
  583MPD2    H2 8701   1.793   2.241  16.713  0.8447  0.0488  0.3263
  583MPD2    H3 8702   1.714   2.191  16.936 -0.5071 -0.2697  0.8029
  583MPD2     N 8703   1.461   2.558  16.960  0.3011  0.3927  0.5365
  583MPD2    H5 8704   1.423   2.637  16.908  0.7699 -0.1332 -0.6070
  583MPD2    N1 8705   1.717   2.465  16.575 -0.9345 -0.5181  0.2559
  583MPD2    H7 8706   1.678   2.550  16.535 -0.3075  0.0968  0.9687
  584TMC3    C1 8707   1.348   2.675  17.127  0.1313  0.0376 -0.1457
  584TMC3    C2 8708   1.373   2.789  17.055 -0.0994  0.1576 -0.2089
  584TMC3    C3 8709   1.317   2.912  17.101  0.3813 -0.4778  0.8020
  584TMC3    C4 8710   1.268   2.679  17.236 -0.1009 -0.7390 -0.5779
  584TMC3    C5 8711   1.214   2.796  17.273  0.6783 -0.4878 -0.4064
  584TMC3    C6 8712   1.234   2.915  17.207  0.4552  0.7657  0.2345
  584TMC3     C 8713   1.411   2.555  17.087 -0.3973  0.7508 -0.0260
  584TMC3     O 8714   1.392   2.458  17.158 -0.8825 -0.3625  0.1673
  584TMC3     H 8715   1.420   2.789  16.957  0.9724  3.4597  0.3062
  584TMC3    H1 8716   1.241   2.590  17.292 -3.0957 -0.0569 -0.9399
  584TMC3    H2 8717   1.183   3.003  17.244  2.0145  2.3557 -1.4197
  584TMC3    C7 8718   1.170   2.804  17.412 -0.0255 -0.0929 -0.2200
  584TMC3    C8 8719   1.307   3.016  17.005  0.1759 -0.3442  0.5557
  584TMC3    O1 8720   1.203   2.712  17.485 -0.1267  0.1550 -0.6018
  584TMC3    O2 8721   1.317   2.992  16.883 -0.3650  0.3491 -0.4727
  585MPD2     C 8722   0.695   1.625   0.462 -0.4275  0.7474  0.5492
  585MPD2    C1 8723   0.657   1.691   0.339  0.3280 -0.4772 -0.2136
  585MPD2    C2 8724   0.679   1.620   0.220  0.8701 -0.5790 -0.1599
  585MPD2    C3 8725   0.728   1.493   0.217  0.2002 -0.4829  0.1948
  585MPD2    C4 8726   0.754   1.430   0.334  0.1091  0.0266  0.1513
  585MPD2    C5 8727   0.736   1.491   0.458 -0.6234  0.3723 -0.4251
  585MPD2     H 8728   0.651   1.665   0.125 -1.5197  2.8388  2.1519
  585MPD2    H1 8729   0.796   1.330   0.330 -0.3650 -0.1611 -0.1712
  585MPD2    H2 8730   0.680   1.673   0.558  2.9616  1.1777  0.8960
  585MPD2    H3 8731   0.742   1.432   0.548  1.1014  1.4156  0.1388
  585MPD2     N 8732   0.756   1.424   0.095 -0.9205  0.1056 -0.4003
  585MPD2    H5 8733   0.767   1.323   0.102  1.4406  0.2121 -2.5998
  585MPD2    N1 8734   0.618   1.829   0.340  0.4001  0.1580  0.6074
  585MPD2    H7 8735   0.637   1.888   0.419  0.2164  0.8890  0.1080
  586TMC3    C1 8736   0.795   1.411  17.611 -0.2682 -0.1350 -0.0181
  586TMC3    C2 8737   0.872   1.454  17.511 -0.6296 -0.4588 -0.5056
  586TMC3    C3 8738   0.853   1.410  17.386 -0.0015 -0.8246 -0.5998
  586TMC3    C4 8739   0.684   1.332  17.589 -0.7509  0.2185 -0.2634
  586TMC3    C5 8740   0.670   1.290  17.457 -0.5786  0.3295 -0.3357
  586TMC3    C6 8741   0.752   1.324  17.356 -0.4687  0.0682  0.1965
  586TMC3     C 8742   0.782   1.492  17.731  0.0745 -0.1197  0.5821
  586TMC3     O 8743   0.806   1.614  17.720 -0.0117  0.0999 -0.3072
  586TMC3     H 8744   0.956   1.515  17.543 -0.4911 -0.8480 -0.1291
  586TMC3    H1 8745   0.619   1.304  17.672 -0.3376  2.9742  1.0220
  586TMC3    H2 8746   0.738   1.305  17.250  0.6558  0.5762 -0.0419
  586TMC3    C7 8747   0.579   1.181  17.432 -0.0924 -0.5132 -0.3434
  586TMC3    C8 8748   0.970   1.430  17.295  0.0581 -0.3451  0.9940
  586TMC3    O1 8749   0.486   1.171  17.511  0.2126  0.4966  0.2888
  586TMC3    O2 8750   0.999   1.546  17.282  0.3285  0.3477 -0.1284
  587TMC3    C1 8751   2.336   0.429  15.744 -0.1012  0.7590 -0.8851
  587TMC3    C2 8752   2.328   0.426  15.877  0.0876 -0.1426 -0.2286
  587TMC3    C3 8753   2.356   0.306  15.940  0.6532  0.8363 -0.2425
  587TMC3    C4 8754   2.342   0.312  15.677  0.1086  0.2091 -0.4581
  587TMC3    C5 8755   2.361   0.193  15.738  0.4471 -0.0816  0.2964
  587TMC3    C6 8756   2.372   0.185  15.874 -0.4188  0.9279 -0.1600
  587TMC3     C 8757   2.302   0.541  15.667  0.8017 -0.4123  0.2085
  587TMC3     O 8758   2.307   0.531  15.545  0.5081  0.8139 -0.1472
  587TMC3     H 8759   2.357   0.512  15.937  1.3513  0.2995 -1.4694
  587TMC3    H1 8760   2.316   0.323  15.573 -0.5213 -0.4453 -0.3660
  587TMC3    H2 8761   2.376   0.091  15.927  2.4977  0.1666 -1.7422
  587TMC3    C7 8762   2.376   0.067  15.664 -0.1819  0.5391  0.2007
  587TMC3    C8 8763   2.339   0.286  16.079  0.3886 -0.0614  0.0402
  587TMC3    O1 8764   2.411   4.699  15.719 -0.4951  0.1297  0.9322
  587TMC3    O2 8765   2.397   0.192  16.132 -0.4071  0.3084 -0.4550
  588TMC3    C1 8766   0.176   2.584  10.033 -0.3363 -0.7269  0.6245
  588TMC3    C2 8767   0.121   2.458  10.008 -0.0948  0.3558  0.9036
  588TMC3    C3 8768   0.196   2.359  10.057 -0.4532 -0.0030  0.1105
  588TMC3    C4 8769   0.296   2.604  10.094 -0.1478 -0.3180 -0.1506
  588TMC3    C5 8770   0.360   2.494  10.146  0.1871 -0.5411 -0.0538
  588TMC3    C6 8771   0.302   2.370  10.134  0.3016  0.4495 -0.5338
  588TMC3     C 8772   0.111   2.697   9.984 -1.0554 -0.0268  0.5816
  588TMC3     O 8773   0.055   2.679   9.875 -0.4374  0.3425  0.1958
  588TMC3     H 8774   0.018   2.455   9.977 -0.3575 -0.0256  1.8075
  588TMC3    H1 8775   0.345   2.700  10.082 -0.2165 -0.3645 -0.8037
  588TMC3    H2 8776   0.361   2.285  10.166  1.5318  1.5571  0.2026
  588TMC3    C7 8777   0.488   2.512  10.218  0.1398 -0.1477 -0.4327
  588TMC3    C8 8778   0.144   2.225  10.043  0.3015 -1.4834  0.9386
  588TMC3    O1 8779   0.555   2.415  10.243  0.4095  0.3540 -0.1296
  588TMC3    O2 8780   0.029   2.216   9.994  0.0271  0.7237  0.5082
  589TMC3    C1 8781   4.235   0.222   1.400  0.0369  0.5414  0.2513
  589TMC3    C2 8782   4.327   0.142   1.460  0.3753  0.3425  0.8477
  589TMC3    C3 8783   4.359   0.028   1.402 -0.3127  0.2042 -0.1403
  589TMC3    C4 8784   4.161   0.177   1.291  0.8016 -0.3383 -0.0548
  589TMC3    C5 8785   4.193   0.052   1.242  0.9435  0.0841  0.0414
  589TMC3    C6 8786   4.288   4.716   1.297 -0.3061 -0.1912  0.2232
  589TMC3     C 8787   4.203   0.356   1.448  0.1364 -0.2557 -0.2332
  589TMC3     O 8788   4.142   0.429   1.370 -0.3571  0.8606 -0.7160
  589TMC3     H 8789   4.394   0.178   1.538 -0.0036  1.1551  0.7923
  589TMC3    H1 8790   4.082   0.231   1.241 -0.1893 -2.4882 -0.8459
  589TMC3    H2 8791   4.314   4.620   1.253 -0.2457 -0.2831  0.4565
  589TMC3    C7 8792   4.145   0.005   1.119  0.3537 -0.1924 -0.2579
  589TMC3    C8 8793   4.474   4.696   1.456 -0.2747  0.4611 -0.3605
  589TMC3    O1 8794   4.128   4.624   1.118 -0.3411  0.1799 -0.3090
  589TMC3    O2 8795   4.485   4.691   1.580 -0.6963 -0.4669 -0.5464
  590MPD2     C 8796   3.863   3.164  16.895  0.4594 -0.0812  0.0803
  590MPD2    C1 8797   3.896   3.295  16.922  0.2833 -0.1955  0.0834
  590MPD2    C2 8798   3.995   3.350  16.843  0.0522 -0.0274 -0.2262
  590MPD2    C3 8799   4.068   3.288  16.741  0.0354  0.2468 -0.5347
  590MPD2    C4 8800   4.023   3.158  16.710  0.2280  0.4904  0.2162
  590MPD2    C5 8801   3.933   3.100  16.792 -0.0721  0.7656  0.6869
  590MPD2     H 8802   4.020   3.455  16.848 -4.4478  1.0565 -0.9240
  590MPD2    H1 8803   4.070   3.094  16.636 -0.1232  0.7063 -0.1891
  590MPD2    H2 8804   3.787   3.110  16.950  0.1385  1.1137  0.8043
  590MPD2    H3 8805   3.900   2.998  16.776 -0.0872  0.9533 -0.5036
  590MPD2     N 8806   4.164   3.364  16.663  0.0722  0.3866  0.0972
  590MPD2    H5 8807   4.182   3.460  16.690 -4.0180  0.7159  1.6879
  590MPD2    N1 8808   3.807   3.380  16.993 -0.3232 -0.4273  0.1470
  590MPD2    H7 8809   3.713   3.345  17.005 -0.0299 -1.4018 -0.3974
  591TMC3    C1 8810   4.260   3.435  16.456  0.2311  0.4054 -0.5574
  591TMC3    C2 8811   4.341   3.407  16.349  0.5468  1.1601 -0.1546
  591TMC3    C3 8812   4.389   3.510  16.277  0.1682 -0.2318  0.0112
  591TMC3    C4 8813   4.219   3.561  16.486 -0.5173 -0.4974  0.1239
  591TMC3    C5 8814   4.275   3.666  16.428  0.5749  0.1824 -0.6517
  591TMC3    C6 8815   4.360   3.643  16.319  0.0387 -0.1771 -0.0042
  591TMC3     C 8816   4.227   3.323  16.547 -0.3098  0.2350  0.0296
  591TMC3     O 8817   4.224   3.212  16.498 -0.3283  0.1881 -0.0801
  591TMC3     H 8818   4.367   3.304  16.328 -2.5476  0.0011  1.7080
  591TMC3    H1 8819   4.156   3.576  16.573 -2.3284 -1.1496 -1.0961
  591TMC3    H2 8820   4.393   3.724  16.255 -1.3079  0.9369  0.7205
  591TMC3    C7 8821   4.258   3.788  16.505  0.2229  0.0537  0.8026
  591TMC3    C8 8822   4.479   3.486  16.162 -0.2282  0.2270  0.8433
  591TMC3    O1 8823   4.209   3.781  16.615  0.0792  0.6313 -0.2619
  591TMC3    O2 8824   4.543   3.381  16.168  0.3415  0.2473  0.0538
  592MPD2     C 8825   0.083   0.244  11.318 -0.0821 -0.1086 -0.4772
  592MPD2    C1 8826   4.733   0.280  11.413 -0.1442 -0.0902  0.2137
  592MPD2    C2 8827   4.633   0.193  11.455  0.5964  0.0202 -0.5121
  592MPD2    C3 8828   4.633   0.063  11.417 -0.4899 -0.9466 -0.2199
  592MPD2    C4 8829   4.723   0.025  11.320  0.0771 -0.1327  0.2900
  592MPD2    C5 8830   0.078   0.116  11.270 -0.0525  0.0178 -0.2828
  592MPD2     H 8831   4.555   0.222  11.524  0.9535  0.2575 -0.2081
  592MPD2    H1 8832   4.732   4.661  11.289  1.8019 -0.0607  0.5201
  592MPD2    H2 8833   0.154   0.316  11.280  0.0889  0.1028  0.2328
  592MPD2    H3 8834   0.156   0.084  11.201  1.5417  3.8774 -0.2696
  592MPD2     N 8835   4.542   4.709  11.468 -0.1198 -0.1967 -0.0936
  592MPD2    H5 8836   4.482   4.733  11.546 -1.7252  0.2742 -1.4637
  592MPD2    N1 8837   4.736   0.416  11.453 -0.8618  0.7621  0.6880
  592MPD2    H7 8838   0.042   0.476  11.386 -1.2216 -0.4315 -0.6174
  593TMC3    C1 8839   4.696   0.616  11.579 -0.1165 -0.6111 -0.7367
  593TMC3    C2 8840   4.645   0.665  11.692 -0.0083 -0.6684  0.3605
  593TMC3    C3 8841   4.630   0.805  11.703 -0.4227  0.7281 -0.7276
  593TMC3    C4 8842   4.715   0.700  11.472 -0.2085  0.1567 -0.3973
  593TMC3    C5 8843   4.678   0.833  11.479  0.1575  0.6035 -0.1747
  593TMC3    C6 8844   4.650   0.889  11.599  0.6333  0.8939 -0.1719
  593TMC3     C 8845   4.676   0.469  11.564  0.2156  0.1573 -0.2803
  593TMC3     O 8846   4.633   0.407  11.656 -0.3729  0.4759 -0.4950
  593TMC3     H 8847   4.619   0.613  11.784  1.4941 -1.1138  0.5347
  593TMC3    H1 8848   0.004   0.662  11.374  1.0777  1.3327 -0.4832
  593TMC3    H2 8849   4.626   0.995  11.601  1.3576  1.0188  2.3124
  593TMC3    C7 8850   4.653   0.910  11.364 -0.7307 -0.0326  0.5794
  593TMC3    C8 8851   4.617   0.853  11.834  0.5961  0.3139 -0.2986
  593TMC3    O1 8852   4.581   1.007  11.384  0.0685  0.3221  0.3031
  593TMC3    O2 8853   4.532   0.804  11.903 -0.1486 -0.1436  0.5176
  594MPD2     C 8854   3.252   4.259  15.314  0.1820  0.5715 -0.3852
  594MPD2    C1 8855   3.231   4.195  15.193  0.2542  0.2754 -0.8145
  594MPD2    C2 8856   3.332   4.200  15.098 -0.1852 -0.4262 -0.4020
  594MPD2    C3 8857   3.445   4.271  15.120  0.8431  0.2534  0.5184
  594MPD2    C4 8858   3.462   4.331  15.239 -0.5475  0.4800  0.5727
  594MPD2    C5 8859   3.368   4.324  15.337 -0.1276  0.3466  0.1662
  594MPD2     H 8860   3.322   4.150  15.002  0.6052  0.2794 -0.8494
  594MPD2    H1 8861   3.560   4.369  15.266 -1.1758 -0.7511  4.6194
  594MPD2    H2 8862   3.177   4.261  15.392 -0.1592 -1.6157 -0.6473
  594MPD2    H3 8863   3.391   4.355  15.438 -3.9526 -1.4252  1.5634
  594MPD2     N 8864   3.542   4.292  15.016 -0.1629 -0.1453  0.4710
  594MPD2    H5 8865   3.511   4.293  14.919 -1.0171 -1.6615  0.7234
  594MPD2    N1 8866   3.107   4.128  15.180 -0.0915  0.3949  0.7084
  594MPD2    H7 8867   3.042   4.144  15.257  1.4242 -0.8048  2.2481
  595TMC3    C1 8868   3.902   4.470  14.791 -0.4416  0.3342  0.0708
  595TMC3    C2 8869   3.854   4.395  14.898 -0.1554 -0.1765 -0.1065
  595TMC3    C3 8870   3.722   4.389  14.909 -0.3198 -0.3591 -0.0886
  595TMC3    C4 8871   3.830   4.543  14.704  0.0279 -0.1220 -0.3627
  595TMC3    C5 8872   3.698   4.543  14.731  0.6822 -0.1310  0.2991
  595TMC3    C6 8873   3.645   4.481  14.835  0.8456 -0.0123 -0.0467
  595TMC3     C 8874   4.042   4.524  14.801 -0.1391 -0.2532  0.4551
  595TMC3     O 8875   4.078   4.628  14.753 -0.9297 -0.7723 -0.2136
  595TMC3     H 8876   3.915   4.338  14.967  0.3638 -0.3289 -0.6878
  595TMC3    H1 8877   3.879   4.611  14.635  0.0202  0.0624 -0.1842
  595TMC3    H2 8878   3.541   4.501  14.858  0.3907 -0.3045 -1.8629
  595TMC3    C7 8879   3.619   4.653  14.666  0.6929 -0.0027  0.2164
  595TMC3    C8 8880   3.667   4.349  15.033  0.1240  0.0653  0.1843
  595TMC3    O1 8881   3.516   4.692  14.721  0.2229 -0.1673 -0.3300
  595TMC3    O2 8882   3.741   4.343  15.131 -0.1482 -0.4632 -0.3161
  596MPD2     C 8883   2.485   2.331  16.925  0.4861  0.1981  0.3421
  596MPD2    C1 8884   2.457   2.438  16.843 -0.2068  0.5214 -0.0374
  596MPD2    C2 8885   2.479   2.437  16.703 -0.1099  0.0653 -0.2525
  596MPD2    C3 8886   2.554   2.331  16.650  0.0512  0.0337  0.7299
  596MPD2    C4 8887   2.590   2.220  16.727 -0.4842  0.3347 -0.1291
  596MPD2    C5 8888   2.558   2.232  16.866  0.7065  0.9339 -0.2281
  596MPD2     H 8889   2.429   2.513  16.643  1.3357  0.2843 -1.1686
  596MPD2    H1 8890   2.625   2.129  16.680 -2.7752 -0.9574  0.6694
  596MPD2    H2 8891   2.458   2.340  17.029 -0.7286 -1.2815  0.1559
  596MPD2    H3 8892   2.593   2.150  16.927  0.0011  1.1829  0.5147
  596MPD2     N 8893   2.562   2.319  16.505 -0.3490  0.0961  0.3121
  596MPD2    H5 8894   2.563   2.229  16.459  1.5010 -0.7517  2.0018
  596MPD2    N1 8895   2.395   2.556  16.891 -0.1600  0.2529 -0.5854
  596MPD2    H7 8896   2.374   2.630  16.826 -0.4797 -0.6726 -1.5368
  597TMC3    C1 8897   2.313   2.713  17.051 -0.5193 -0.5911 -0.1294
  597TMC3    C2 8898   2.370   2.819  16.981  0.8302 -0.1059  0.7462
  597TMC3    C3 8899   2.288   2.928  16.959 -0.0113 -0.1398  0.2249
  597TMC3    C4 8900   2.198   2.733  17.124 -0.6582  0.4653  0.0496
  597TMC3    C5 8901   2.130   2.852  17.119 -0.1263 -0.0191  0.2545
  597TMC3    C6 8902   2.170   2.945  17.030 -0.6499  0.2523 -0.3774
  597TMC3     C 8903   2.334   2.572  17.012  0.2505  0.0890  0.0738
  597TMC3     O 8904   2.303   2.484  17.093 -0.5870 -0.2587  0.2900
  597TMC3     H 8905   2.476   2.818  16.962  0.9605 -1.7974  1.4926
  597TMC3    H1 8906   2.164   2.654  17.189 -1.1663 -1.6141 -2.7555
  597TMC3    H2 8907   2.105   3.024  16.995  0.7165  2.1528  1.3443
  597TMC3    C7 8908   2.003   2.874  17.187  0.4792 -0.2767  0.3553
  597TMC3    C8 8909   2.347   3.049  16.901  0.0363  0.0392 -0.4493
  597TMC3    O1 8910   1.956   2.777  17.251 -0.1502 -0.5041  0.7534
  597TMC3    O2 8911   2.284   3.149  16.913  0.4466  0.3099  0.0689
  598TMC3    C1 8912   0.568   4.051  15.262  0.2595  0.2637  0.0355
  598TMC3    C2 8913   0.459   3.962  15.265 -0.2024  0.1642 -0.4136
  598TMC3    C3 8914   0.396   3.951  15.143 -0.1176 -0.3722  0.0508
  598TMC3    C4 8915   0.623   4.098  15.151  0.3954  0.2245  0.5702
  598TMC3    C5 8916   0.559   4.082  15.029  0.3849 -0.1374 -0.7174
  598TMC3    C6 8917   0.439   4.010  15.026 -0.7786  0.0964  0.3766
  598TMC3     C 8918   0.615   4.114  15.379  0.2206  0.2486  0.1390
  598TMC3     O 8919   0.663   4.223  15.364  0.0561 -0.6959 -0.1556
  598TMC3     H 8920   0.412   3.932  15.358  2.1513 -1.5454  0.2315
  598TMC3    H1 8921   0.716   4.151  15.164 -0.4091  1.3865  1.6291
  598TMC3    H2 8922   0.392   3.997  14.929 -0.3702 -0.5426  0.2680
  598TMC3    C7 8923   0.639   4.118  14.907 -0.1283  0.0849 -0.6289
  598TMC3    C8 8924   0.282   3.856  15.140  0.4264 -0.1667 -0.6969
  598TMC3    O1 8925   0.607   4.058  14.807  0.0919  0.6725  0.2536
  598TMC3    O2 8926   0.239   3.812  15.244 -0.1121  0.1124 -0.2323
  599MPD2     C 8927   1.035   1.257  15.921  0.0566  0.7406 -0.6713
  599MPD2    C1 8928   0.944   1.161  15.940  0.1728 -0.1082 -0.1343
  599MPD2    C2 8929   0.833   1.201  16.023 -0.0083  0.3813  0.7650
  599MPD2    C3 8930   0.820   1.325  16.086  0.4953 -0.2619  0.2115
  599MPD2    C4 8931   0.929   1.409  16.086  0.5466  0.0154 -0.4449
  599MPD2    C5 8932   1.028   1.375  15.991 -0.0224  0.5772 -0.0948
  599MPD2     H 8933   0.755   1.126  16.028 -0.9382  1.2733 -0.3218
  599MPD2    H1 8934   0.932   1.506  16.133  0.6734 -1.3707  2.4499
  599MPD2    H2 8935   1.109   1.244  15.843 -3.6783 -1.1392 -3.8777
  599MPD2    H3 8936   1.109   1.444  15.969 -1.5468  0.9873 -4.2916
  599MPD2     N 8937   0.706   1.365  16.162  0.0233 -0.5648 -0.5107
  599MPD2    H5 8938   0.712   1.452  16.215  1.0434  1.0967 -3.3502
  599MPD2    N1 8939   0.962   1.050  15.859  0.2299  0.2586  0.0681
  599MPD2    H7 8940   1.050   1.053  15.810  0.1574 -1.8819 -0.1691
  600TMC3    C1 8941   0.519   1.341  16.303  0.5420  0.2087 -0.0937
  600TMC3    C2 8942   0.454   1.243  16.366  0.3606 -0.7878  0.1618
  600TMC3    C3 8943   0.402   1.267  16.496 -0.1995 -0.3812 -0.4295
  600TMC3    C4 8944   0.532   1.467  16.362 -0.0980  0.9367  0.0836
  600TMC3    C5 8945   0.490   1.489  16.490  0.4484  0.5412 -0.3316
  600TMC3    C6 8946   0.422   1.392  16.558  0.3295  0.5415 -0.9903
  600TMC3     C 8947   0.600   1.289  16.193 -0.3428  0.1733  0.4503
  600TMC3     O 8948   0.566   1.188  16.135 -0.2990 -0.0314 -0.0671
  600TMC3     H 8949   0.435   1.145  16.324  3.0359 -1.2063 -0.0777
  600TMC3    H1 8950   0.599   1.535  16.311 -0.5149 -0.5086 -2.3720
  600TMC3    H2 8951   0.372   1.407  16.653  0.7504 -0.3218 -0.6326
  600TMC3    C7 8952   0.476   1.622  16.548 -0.2051 -0.3856  0.9678
  600TMC3    C8 8953   0.307   1.184  16.567  0.1386  0.2312 -0.1507
  600TMC3    O1 8954   0.386   1.640  16.629  0.3456 -0.0689 -0.4864
  600TMC3    O2 8955   0.308   1.184  16.692 -0.2450 -0.1139 -0.3174
  601MPD2     C 8956   3.089   4.657   0.303 -0.5346 -0.1799  0.0921
  601MPD2    C1 8957   2.959   4.603   0.295  0.2571 -0.1260  0.2490
  601MPD2    C2 8958   2.920   4.491   0.359 -0.0446  0.5512  0.4304
  601MPD2    C3 8959   3.004   4.441   0.458  0.0785 -0.0302  0.0198
  601MPD2    C4 8960   3.133   4.498   0.472 -0.0319 -0.3757 -0.0241
  601MPD2    C5 8961   3.179   4.601   0.392  0.6263  0.4049 -0.0477
  601MPD2     H 8962   2.825   4.442   0.340 -0.3764  1.3007  0.1513
  601MPD2    H1 8963   3.207   4.457   0.540  0.4978  1.6601  0.6264
  601MPD2    H2 8964   3.124   4.736   0.237 -1.1636 -0.7322 -0.9040
  601MPD2    H3 8965   3.274   4.650   0.402  0.6308  0.1137  1.3192
  601MPD2     N 8966   2.971   4.335   0.545  0.0599 -0.2391  0.9120
  601MPD2    H5 8967   3.041   4.306   0.612 -0.8451  1.6458  2.6648
  601MPD2    N1 8968   2.859   4.665   0.224 -0.7578  0.1721 -0.5726
  601MPD2    H7 8969   2.764   4.628   0.229 -0.2507 -1.1224 -0.5980
  602TMC3    C1 8970   2.756   0.075   0.077 -0.3869 -0.2304 -0.0989
  602TMC3    C2 8971   2.736   0.209   0.041  0.0925  0.4274 -0.7394
  602TMC3    C3 8972   2.612   0.259   0.008 -0.4006  0.1390  0.4891
  602TMC3    C4 8973   2.650   4.723   0.065  0.0257  0.3093  0.2040
  602TMC3    C5 8974   2.537   0.039   0.022  0.1633  0.1517 -0.4259
  602TMC3    C6 8975   2.510   0.171   0.000  0.2854 -0.1924  0.1948
  602TMC3     C 8976   2.874   0.039   0.153  0.2426  0.7136 -0.8546
  602TMC3     O 8977   2.982   0.097   0.124  0.7694 -0.5088  0.3828
  602TMC3     H 8978   2.813   0.284   0.053 -0.1320  0.4746  0.3788
  602TMC3    H1 8979   2.652   4.615   0.077 -0.8731  0.1815 -0.8558
  602TMC3    H2 8980   2.411   0.211  17.741  0.3787 -0.1775 -0.4958
  602TMC3    C7 8981   2.432   4.682  17.731 -0.1850 -0.2830 -0.4220
  602TMC3    C8 8982   2.607   0.384  17.689 -0.1093  0.0866 -0.1743
  602TMC3    O1 8983   2.445   4.563   0.000 -0.9058 -0.4487  0.2564
  602TMC3    O2 8984   2.687   0.475  17.719 -1.1713 -0.7916 -0.1389
  603TMC3    C1 8985   0.480   4.568  10.919 -0.1275  0.0114 -0.2198
  603TMC3    C2 8986   0.478   4.560  11.052 -0.1288  0.6143 -0.5801
  603TMC3    C3 8987   0.517   4.671  11.117  0.0486 -0.5371  0.5499
  603TMC3    C4 8988   0.492   4.685  10.855 -0.3217  0.4036  0.0327
  603TMC3    C5 8989   0.511   0.061  10.920 -0.7646  0.4568 -0.1025
  603TMC3    C6 8990   0.543   0.049  11.049 -0.3562 -0.4569 -0.8563
  603TMC3     C 8991   0.467   4.449  10.840  0.3472 -0.1772  0.7912
  603TMC3     O 8992   0.497   4.468  10.724 -0.1426  0.4930  0.0200
  603TMC3     H 8993   0.500   4.466  11.101  0.6296  1.2956  0.3900
  603TMC3    H1 8994   0.484   4.685  10.747  0.2935  1.4579 -0.0130
  603TMC3    H2 8995   0.555   0.142  11.103  0.6971 -0.2294 -1.4885
  603TMC3    C7 8996   0.536   0.187  10.850 -0.2270 -0.1128 -0.0807
  603TMC3    C8 8997   0.545   4.667  11.262  0.1785 -0.5809 -1.0041
  603TMC3    O1 8998   0.625   0.265  10.886 -0.0126 -0.5290 -0.1283
  603TMC3    O2 8999   0.476   4.604  11.338 -0.1212 -0.4875 -0.2322
  604MPD2     C 9000   1.692   3.785  16.648 -0.3155 -0.6001  0.1605
  604MPD2    C1 9001   1.597   3.740  16.565  0.3546  0.5309 -0.3878
  604MPD2    C2 9002   1.630   3.716  16.433  0.0657  0.4487 -0.1807
  604MPD2    C3 9003   1.762   3.714  16.400 -0.2024 -0.4578  0.2037
  604MPD2    C4 9004   1.860   3.743  16.488  0.2944 -0.0330  0.3270
  604MPD2    C5 9005   1.823   3.784  16.610 -0.7164 -0.1445  0.5403
  604MPD2     H 9006   1.561   3.691  16.353 -0.2059  1.1040 -0.1535
  604MPD2    H1 9007   1.964   3.749  16.456  0.5755 -0.4400  1.1596
  604MPD2    H2 9008   1.662   3.821  16.746  2.3518  0.4645  0.5663
  604MPD2    H3 9009   1.899   3.825  16.676  0.8891  0.8316 -1.9499
  604MPD2     N 9010   1.783   3.696  16.262 -0.0754 -0.2594  0.9048
  604MPD2    H5 9011   1.706   3.655  16.210  1.4700 -0.4555 -1.2593
  604MPD2    N1 9012   1.467   3.744  16.618  0.1324  0.1240  0.0208
  604MPD2    H7 9013   1.449   3.775  16.713 -1.0062  0.8054 -0.4125
  605TMC3    C1 9014   1.233   3.789  16.616 -0.8215 -0.4944  0.2719
  605TMC3    C2 9015   1.241   3.812  16.748 -0.1775 -0.6027  0.4473
  605TMC3    C3 9016   1.171   3.916  16.800 -0.1893 -0.8536 -0.2231
  605TMC3    C4 9017   1.132   3.841  16.540 -0.1815 -0.3140 -0.0375
  605TMC3    C5 9018   1.049   3.938  16.601  0.0545 -0.3048  0.0290
  605TMC3    C6 9019   1.080   3.983  16.721 -0.2518 -0.3833  0.0086
  605TMC3     C 9020   1.355   3.746  16.540  0.1764  0.1670  0.0338
  605TMC3     O 9021   1.338   3.714  16.422  0.5194 -0.0870 -0.2061
  605TMC3     H 9022   1.310   3.756  16.810  0.0483  0.2436  0.9571
  605TMC3    H1 9023   1.126   3.801  16.440  0.1005 -0.3989 -0.0185
  605TMC3    H2 9024   1.020   4.063  16.761  0.1657 -0.7504  1.3785
  605TMC3    C7 9025   0.946   4.013  16.526  0.3123  0.6503  0.2281
  605TMC3    C8 9026   1.223   3.996  16.905 -0.3513  0.0763 -0.9407
  605TMC3    O1 9027   0.896   4.108  16.584  0.3991 -0.0034 -0.3703
  605TMC3    O2 9028   1.149   4.055  16.983  0.9242 -1.1362 -0.1967
  606TMC3    C1 9029   2.086   2.330   0.529 -0.3013  0.0362  0.4093
  606TMC3    C2 9030   2.186   2.385   0.601 -0.5028 -0.0224  0.4953
  606TMC3    C3 9031   2.301   2.411   0.544  0.3339  0.1036  0.3151
  606TMC3    C4 9032   2.101   2.315   0.394 -0.5811 -0.2471  0.0518
  606TMC3    C5 9033   2.222   2.344   0.334 -0.2136  0.5313  0.2707
  606TMC3    C6 9034   2.329   2.382   0.408 -0.3691 -0.1287 -0.2370
  606TMC3     C 9035   1.953   2.365   0.569 -0.7177  0.0934  0.0402
  606TMC3     O 9036   1.862   2.292   0.527  0.0612 -0.8820 -0.2396
  606TMC3     H 9037   2.179   2.386   0.709  0.7749 -1.7123  0.5917
  606TMC3    H1 9038   2.018   2.280   0.333  0.4318 -0.1740 -1.3733
  606TMC3    H2 9039   2.428   2.388   0.364 -0.2552  1.4035  0.2305
  606TMC3    C7 9040   2.255   2.298   0.208  0.3210  0.3764  0.3708
  606TMC3    C8 9041   2.414   2.472   0.618 -0.0146  0.0245 -0.3954
  606TMC3    O1 9042   2.340   2.355   0.142  0.2291  0.2376 -0.1126
  606TMC3    O2 9043   2.522   2.464   0.567 -0.1576  0.7596 -0.7162
  607MPD2     C 9044   4.731   4.573  11.701  0.0936 -0.9860  0.4054
  607MPD2    C1 9045   0.036   4.681  11.774  0.0242 -0.4157 -0.3012
  607MPD2    C2 9046   4.721   4.712  11.898  0.1822 -0.1912 -0.0632
  607MPD2    C3 9047   4.628   4.627  11.949 -0.3462  0.4684 -0.4082
  607MPD2    C4 9048   4.587   4.515  11.885 -0.3949 -0.6781 -0.0362
  607MPD2    C5 9049   4.647   4.482  11.765  0.2290  0.7101 -0.3749
  607MPD2     H 9050   0.016   0.060  11.954 -1.1757 -0.0601  0.5652
  607MPD2    H1 9051   4.512   4.449  11.929 -0.7034 -0.3818 -0.1139
  607MPD2    H2 9052   0.025   4.545  11.602  1.1267 -0.5059  0.6095
  607MPD2    H3 9053   4.618   4.391  11.714  0.3585  0.8105 -0.6286
  607MPD2     N 9054   4.591   4.654  12.084 -0.1479 -0.3238 -0.0032
  607MPD2    H5 9055   4.614   0.007  12.120  0.7141 -0.1628 -0.9630
  607MPD2    N1 9056   0.136   0.033  11.723  0.6541  0.4780  0.5072
  607MPD2    H7 9057   0.147   0.114  11.783 -2.2156  0.7287  0.7043
  608TMC3    C1 9058   0.326   0.105  11.612  0.8026  0.4382  0.4811
  608TMC3    C2 9059   0.362   0.152  11.733 -0.1138 -0.0450  0.3762
  608TMC3    C3 9060   0.431   0.271  11.730 -0.7393  0.0446  0.0989
  608TMC3    C4 9061   0.368   0.154  11.497 -0.5466 -0.3424 -0.0120
  608TMC3    C5 9062   0.449   0.271  11.501 -0.2866  0.0417  0.3516
  608TMC3    C6 9063   0.485   0.335  11.618 -0.0428  0.0287  0.0792
  608TMC3     C 9064   0.205   0.023  11.607 -0.4596 -0.0526 -0.3342
  608TMC3     O 9065   0.189   4.678  11.521 -0.2079  0.2587 -0.0150
  608TMC3     H 9066   0.328   0.114  11.829  1.8854 -2.5793  0.0852
  608TMC3    H1 9067   0.337   0.115  11.400 -0.3457 -2.0434  0.6267
  608TMC3    H2 9068   0.529   0.434  11.625 -2.5173  1.0850  0.8675
  608TMC3    C7 9069   0.477   0.334  11.370 -0.1343 -0.0132 -0.4159
  608TMC3    C8 9070   0.451   0.332  11.853  0.3255 -0.4574 -0.3722
  608TMC3    O1 9071   0.412   0.303  11.270  0.5297  0.7326 -0.0180
  608TMC3    O2 9072   0.562   0.378  11.880 -0.3635 -0.1822  0.0215
  609TMC3    C1 9073   2.602   3.260   9.139  0.6587  0.1623  0.0095
  609TMC3    C2 9074   2.552   3.183   9.237  0.1129 -0.2935 -1.4421
  609TMC3    C3 9075   2.639   3.114   9.316  0.2709  0.5858 -0.0304
  609TMC3    C4 9076   2.735   3.286   9.125 -0.2837  0.6086 -0.1014
  609TMC3    C5 9077   2.820   3.211   9.201 -0.2576 -0.2583 -0.0075
  609TMC3    C6 9078   2.775   3.125   9.299  0.1715  0.1546 -0.1011
  609TMC3     C 9079   2.500   3.319   9.052 -0.7083 -0.0506 -0.6424
  609TMC3     O 9080   2.388   3.314   9.106 -0.6144  0.3722  0.5915
  609TMC3     H 9081   2.445   3.179   9.252  0.1922 -0.4890 -0.9498
  609TMC3    H1 9082   2.762   3.365   9.056  0.5132  0.5099  0.0924
  609TMC3    H2 9083   2.848   3.083   9.367  0.5036 -0.9065 -1.1206
  609TMC3    C7 9084   2.959   3.260   9.214  0.0715 -0.4424 -0.2438
  609TMC3    C8 9085   2.586   2.982   9.366 -0.1367  0.4805 -0.7014
  609TMC3    O1 9086   3.014   3.241   9.322  0.1932  0.6249  0.2484
  609TMC3    O2 9087   2.467   2.967   9.351 -0.6285  0.0085  0.3625
  610TMC3    C1 9088   0.265   0.871  13.188 -0.8723 -0.6257  0.1131
  610TMC3    C2 9089   0.263   0.942  13.065 -0.8094 -0.2370  0.0305
  610TMC3    C3 9090   0.350   0.904  12.966  0.0451  0.0465  0.1446
  610TMC3    C4 9091   0.359   0.772  13.215  0.4721 -0.3343 -0.0288
  610TMC3    C5 9092   0.437   0.736  13.109 -0.6641  0.0488 -0.3412
  610TMC3    C6 9093   0.425   0.785  12.987  0.3722 -0.5097 -0.4995
  610TMC3     C 9094   0.209   0.938  13.308  0.0167 -0.3380  0.1580
  610TMC3     O 9095   0.247   0.903  13.415  0.7093  0.3407  0.0263
  610TMC3     H 9096   0.212   1.037  13.050 -0.3193 -0.0732 -0.5870
  610TMC3    H1 9097   0.377   0.743  13.318 -1.3658  2.6453  1.1311
  610TMC3    H2 9098   0.485   0.743  12.907 -1.2853 -1.6391 -1.1340
  610TMC3    C7 9099   0.509   0.617  13.130  0.4204 -0.4400 -0.3980
  610TMC3    C8 9100   0.332   0.969  12.841  0.4992  0.4192 -0.3371
  610TMC3    O1 9101   0.598   0.597  13.048  0.2467 -0.0772  0.2770
  610TMC3    O2 9102   0.233   1.043  12.825 -0.1603 -0.2886  0.1902
  611MPD2     C 9103   4.614   4.424  10.182 -0.5772 -0.6380  0.5005
  611MPD2    C1 9104   4.534   4.531  10.145 -0.1587  0.1272  0.0389
  611MPD2    C2 9105   4.601   4.652  10.108 -0.6383 -0.2471  0.2942
  611MPD2    C3 9106   0.001   4.650  10.104 -0.6210 -0.6752 -0.2482
  611MPD2    C4 9107   0.078   4.547  10.142 -0.4243 -0.4128  0.1890
  611MPD2    C5 9108   0.013   4.431  10.181  0.6073 -0.0660 -0.6367
  611MPD2     H 9109   4.540   0.001  10.091 -1.8390 -0.3638  3.9610
  611MPD2    H1 9110   0.185   4.537  10.131 -0.6298 -0.3739 -1.8493
  611MPD2    H2 9111   4.573   4.330  10.217 -0.9436  0.7093  3.6812
  611MPD2    H3 9112   0.068   4.350  10.227  2.3451 -0.4020 -3.3065
  611MPD2     N 9113   0.073   0.022  10.055  0.3672 -0.3469  0.7140
  611MPD2    H5 9114   0.173   0.013  10.068  0.2069 -1.1243  1.3539
  611MPD2    N1 9115   4.392   4.519  10.165  0.0427 -0.3528  0.2914
  611MPD2    H7 9116   4.358   4.428  10.195  0.6270 -1.0107 -1.0697
  612TMC3    C1 9117   0.121   0.233   9.967 -0.5309 -0.3790  0.0135
  612TMC3    C2 9118   0.197   0.264  10.074  0.3298  0.3701 -0.5060
  612TMC3    C3 9119   0.240   0.394  10.093  0.1129  0.5719  0.3163
  612TMC3    C4 9120   0.072   0.339   9.891 -0.9307  0.1614 -0.1163
  612TMC3    C5 9121   0.115   0.462   9.913  0.4399 -0.3397  0.3210
  612TMC3    C6 9122   0.198   0.492  10.010  0.2976  0.3054 -0.4221
  612TMC3     C 9123   0.025   0.135   9.991  0.9150 -0.9198  0.6593
  612TMC3     O 9124   4.656   0.154   9.941  0.3541 -0.8251 -1.2293
  612TMC3     H 9125   0.238   0.186  10.137 -2.4746 -1.2103 -0.6018
  612TMC3    H1 9126   0.002   0.320   9.811 -0.9213 -3.5425  0.7637
  612TMC3    H2 9127   0.227   0.596  10.024  1.1596 -0.3645  2.8618
  612TMC3    C7 9128   0.095   0.554   9.801  0.0473  0.0955  0.0158
  612TMC3    C8 9129   0.329   0.432  10.193 -0.2992 -0.1160 -0.4526
  612TMC3    O1 9130   0.092   0.514   9.682  0.2418  0.0531  0.5823
  612TMC3    O2 9131   0.365   0.546  10.191 -0.4378  0.2982 -0.0854
  613MPD2     C 9132   4.181   2.656  16.332 -0.4188 -0.2560 -0.1595
  613MPD2    C1 9133   4.216   2.647  16.202  0.2973  1.0477  0.0456
  613MPD2    C2 9134   4.252   2.525  16.146  0.7791  0.5972 -0.2401
  613MPD2    C3 9135   4.254   2.412  16.231  0.3516 -0.0844 -0.4070
  613MPD2    C4 9136   4.207   2.417  16.357  0.0554  0.5307 -0.5086
  613MPD2    C5 9137   4.172   2.539  16.407 -0.2572  0.0436  0.3749
  613MPD2     H 9138   4.304   2.517  16.052  1.0279  0.7879 -0.1189
  613MPD2    H1 9139   4.187   2.326  16.413 -1.1303 -0.1003 -1.9446
  613MPD2    H2 9140   4.163   2.752  16.380  0.4713  0.8190 -1.9479
  613MPD2    H3 9141   4.138   2.542  16.509 -0.4445 -0.5905  0.3297
  613MPD2     N 9142   4.294   2.293  16.161 -0.5980 -0.2818  0.2046
  613MPD2    H5 9143   4.327   2.312  16.067 -0.3770 -0.0376  0.3323
  613MPD2    N1 9144   4.213   2.775  16.128 -0.0479  0.4339 -0.8299
  613MPD2    H7 9145   4.177   2.860  16.169 -0.6867 -0.9156  1.3570
  614TMC3    C1 9146   4.229   2.921  15.936  0.3289 -0.0232  0.5103
  614TMC3    C2 9147   4.286   2.925  15.805  0.6223 -0.2738  0.9554
  614TMC3    C3 9148   4.214   2.948  15.694 -0.1182 -0.4502 -0.5135
  614TMC3    C4 9149   4.112   2.984  15.945 -0.3360  0.4457 -0.0038
  614TMC3    C5 9150   4.050   3.031  15.832  0.5402 -0.4217  0.0796
  614TMC3    C6 9151   4.095   3.011  15.702  0.2222  0.0372  0.2899
  614TMC3     C 9152   4.245   2.788  15.994  0.0744  0.3836 -0.1054
  614TMC3     O 9153   4.286   2.711  15.912 -0.3569 -0.4666  0.2988
  614TMC3     H 9154   4.388   2.888  15.795  1.6619  2.5247  1.0785
  614TMC3    H1 9155   4.054   2.979  16.036 -0.0324 -2.4386  0.0281
  614TMC3    H2 9156   4.038   3.035  15.613  3.3553  0.5315 -1.5824
  614TMC3    C7 9157   3.913   3.062  15.842 -0.0663  0.7401 -0.4071
  614TMC3    C8 9158   4.236   2.857  15.587  0.5750 -0.2623  0.1613
  614TMC3    O1 9159   3.879   3.107  15.950  0.4761 -0.4635 -0.4458
  614TMC3    O2 9160   4.176   2.874  15.483 -0.3198 -0.0055  0.0575
  615MPD2     C 9161   2.791   3.931  16.401  0.2236 -0.7144  0.4562
  615MPD2    C1 9162   2.909   3.947  16.334  0.3335  0.3800 -0.3907
  615MPD2    C2 9163   2.916   3.904  16.204  0.7677 -0.1395  0.3132
  615MPD2    C3 9164   2.804   3.849  16.146  0.1280 -0.6988  0.5136
  615MPD2    C4 9165   2.692   3.826  16.215 -0.0735  0.6324  0.1284
  615MPD2    C5 9166   2.688   3.864  16.345 -0.4740  0.4748 -0.0771
  615MPD2     H 9167   3.007   3.912  16.146  1.0531  1.1999  0.9324
  615MPD2    H1 9168   2.600   3.786  16.174  1.0240 -2.4770  0.7356
  615MPD2    H2 9169   2.788   3.972  16.502 -0.5923 -0.4793  0.3347
  615MPD2    H3 9170   2.598   3.844  16.402 -0.9702  1.2482 -0.5880
  615MPD2     N 9171   2.807   3.780  16.022  0.7219  0.3280 -0.0969
  615MPD2    H5 9172   2.724   3.730  15.990  0.0297 -0.8023  3.4880
  615MPD2    N1 9173   3.014   4.026  16.381  0.1163  0.0523 -0.0172
  615MPD2    H7 9174   3.088   4.047  16.314 -2.1644  3.4071 -1.5433
  616TMC3    C1 9175   3.166   4.110  16.542  0.2990 -0.0831 -0.1673
  616TMC3    C2 9176   3.207   4.216  16.462  0.3510  0.1363  0.1019
  616TMC3    C3 9177   3.318   4.283  16.491  1.0796 -0.0771 -0.0004
  616TMC3    C4 9178   3.249   4.062  16.637 -0.0600 -0.1195 -0.0959
  616TMC3    C5 9179   3.369   4.130  16.662 -0.7172  0.6249 -0.6861
  616TMC3    C6 9180   3.409   4.240  16.588 -0.3448  0.0053 -0.1687
  616TMC3     C 9181   3.037   4.043  16.519  0.3362  0.1789 -0.1664
  616TMC3     O 9182   2.968   4.010  16.614  0.4373  0.3804  0.2408
  616TMC3     H 9183   3.136   4.254  16.389 -2.0432 -2.0660  1.3047
  616TMC3    H1 9184   3.222   3.976  16.697 -0.4962 -1.1146 -1.7191
  616TMC3    H2 9185   3.507   4.282  16.607 -1.2147  1.3136  1.3768
  616TMC3    C7 9186   3.451   4.094  16.779  0.6531 -0.0622  0.1211
  616TMC3    C8 9187   3.361   4.381  16.391 -0.5256  0.0351 -0.0657
  616TMC3    O1 9188   3.559   4.148  16.783  0.4613  0.5098 -0.1800
  616TMC3    O2 9189   3.304   4.385  16.283 -0.0819  0.0191 -0.0295
  617MPD2     C 9190   1.153   2.545  13.547  0.1344 -0.4890  0.5153
  617MPD2    C1 9191   1.241   2.467  13.617 -0.1356  0.1660 -0.1563
  617MPD2    C2 9192   1.198   2.377  13.716 -0.5798 -0.5672  0.1815
  617MPD2    C3 9193   1.064   2.354  13.732 -0.2850  0.0663 -0.8297
  617MPD2    C4 9194   0.978   2.425  13.652  0.0199  0.3271  0.7745
  617MPD2    C5 9195   1.019   2.527  13.574  0.0121 -0.3051  0.2735
  617MPD2     H 9196   1.274   2.330  13.776  0.0516  0.9683  0.5919
  617MPD2    H1 9197   0.874   2.393  13.652  0.0958  0.0739  0.2400
  617MPD2    H2 9198   1.183   2.620  13.474 -0.9602  1.2089  1.8112
  617MPD2    H3 9199   0.942   2.593  13.536  3.0947  2.4264 -1.1360
  617MPD2     N 9200   1.005   2.260  13.827  1.6165 -0.5659 -0.0208
  617MPD2    H5 9201   0.904   2.256  13.829  1.5666  0.0982 -1.1948
  617MPD2    N1 9202   1.377   2.494  13.589  0.1553 -0.0811  0.2148
  617MPD2    H7 9203   1.399   2.580  13.538 -0.4442  0.4341  0.8193
  618TMC3    C1 9204   1.614   2.499  13.631  0.0745  0.1092  0.4194
  618TMC3    C2 9205   1.717   2.417  13.669 -0.2682  0.2428 -0.7877
  618TMC3    C3 9206   1.836   2.407  13.593 -0.1431  0.5763 -0.0820
  618TMC3    C4 9207   1.637   2.585  13.529 -0.2063 -0.4170  0.1293
  618TMC3    C5 9208   1.749   2.579  13.455 -0.3911 -0.4920 -0.4838
  618TMC3    C6 9209   1.853   2.489  13.481 -0.3145 -0.3595 -0.3955
  618TMC3     C 9210   1.484   2.435  13.653  0.0872  0.3045 -0.2487
  618TMC3     O 9211   1.482   2.325  13.702  0.3371 -0.3413 -0.2541
  618TMC3     H 9212   1.721   2.362  13.762  0.0693 -0.6467 -1.3205
  618TMC3    H1 9213   1.567   2.667  13.519 -2.7314 -2.4616  1.2162
  618TMC3    H2 9214   1.947   2.509  13.431  0.2606 -2.2314 -0.0391
  618TMC3    C7 9215   1.786   2.700  13.379 -0.1724 -0.6865 -1.2087
  618TMC3    C8 9216   1.941   2.320  13.646  0.4141 -0.0532 -0.2362
  618TMC3    O1 9217   1.776   2.804  13.446  1.0873  0.0729  0.4889
  618TMC3    O2 9218   1.938   2.291  13.767  0.2479  0.0282 -0.2311
  619MPD2     C 9219   2.402   3.508  14.131 -0.1736  0.0524 -0.0463
  619MPD2    C1 9220   2.311   3.499  14.027 -0.2525  0.1923 -0.3847
  619MPD2    C2 9221   2.172   3.497  14.059  0.1277  0.6245  0.0750
  619MPD2    C3 9222   2.126   3.508  14.195  0.2192  0.2621 -0.2791
  619MPD2    C4 9223   2.223   3.528  14.292 -0.2771 -0.8443  0.4825
  619MPD2    C5 9224   2.359   3.538  14.259 -0.0668  0.5482  0.0699
  619MPD2     H 9225   2.101   3.484  13.978  0.3513  0.1831 -0.0477
  619MPD2    H1 9226   2.193   3.539  14.396  2.5727  1.6538  1.0165
  619MPD2    H2 9227   2.508   3.514  14.110  0.0628 -0.3866  1.0221
  619MPD2    H3 9228   2.432   3.544  14.339  0.6644  0.3898 -0.5755
  619MPD2     N 9229   1.987   3.496  14.228  0.1994 -0.5277 -0.5099
  619MPD2    H5 9230   1.930   3.458  14.153  0.0738  1.5163 -1.4571
  619MPD2    N1 9231   2.341   3.488  13.893 -0.3663  0.8133 -0.5796
  619MPD2    H7 9232   2.264   3.490  13.827 -0.8427 -0.6124 -0.0831
  620TMC3    C1 9233   2.477   3.488  13.703 -0.8209  0.2077 -0.5209
  620TMC3    C2 9234   2.353   3.466  13.635 -0.1294 -0.2044  0.0347
  620TMC3    C3 9235   2.343   3.525  13.512 -0.8337 -0.1834 -0.2627
  620TMC3    C4 9236   2.578   3.570  13.648  0.1926  0.3364 -0.1926
  620TMC3    C5 9237   2.548   3.638  13.532  0.2503 -0.4068 -0.1395
  620TMC3    C6 9238   2.437   3.611  13.459  0.3532  0.0893  0.4172
  620TMC3     C 9239   2.470   3.478  13.845  0.2605  0.4131  0.3934
  620TMC3     O 9240   2.582   3.481  13.899  0.1939 -0.3022 -0.0471
  620TMC3     H 9241   2.271   3.403  13.667 -0.6808 -0.2307 -1.4501
  620TMC3    H1 9242   2.671   3.585  13.702 -0.5762 -0.6709  1.4019
  620TMC3    H2 9243   2.420   3.651  13.361  0.7613 -1.0002 -0.1031
  620TMC3    C7 9244   2.631   3.749  13.483 -0.1438  0.0626 -0.2077
  620TMC3    C8 9245   2.233   3.498  13.415  0.3400  0.3622 -0.2261
  620TMC3    O1 9246   2.635   3.767  13.362 -0.0323 -0.7295 -0.2983
  620TMC3    O2 9247   2.265   3.474  13.302 -0.1691 -0.3747  0.2937
  621MPD2     C 9248   1.622   3.828   9.226 -0.0194  0.9297  0.0025
  621MPD2    C1 9249   1.674   3.945   9.175  1.0973 -0.2323 -0.3628
  621MPD2    C2 9250   1.809   3.977   9.196  0.1482 -0.7274 -0.5742
  621MPD2    C3 9251   1.888   3.896   9.281  0.0678  0.7077  0.1394
  621MPD2    C4 9252   1.828   3.788   9.337 -0.3418 -0.0068  0.2542
  621MPD2    C5 9253   1.702   3.753   9.304 -0.1790 -0.0335  0.2003
  621MPD2     H 9254   1.847   4.065   9.145  1.5614 -1.4114 -0.7044
  621MPD2    H1 9255   1.888   3.716   9.392  0.8781 -0.5233 -1.7871
  621MPD2    H2 9256   1.519   3.798   9.212 -0.2432  1.4919  0.4191
  621MPD2    H3 9257   1.668   3.662   9.352 -0.8256  1.1288  1.9519
  621MPD2     N 9258   2.024   3.928   9.298  0.8244  0.0633  0.4453
  621MPD2    H5 9259   2.058   4.012   9.253  1.5646 -0.7338 -0.5016
  621MPD2    N1 9260   1.595   4.038   9.113  0.8782  0.3793  1.1503
  621MPD2    H7 9261   1.640   4.122   9.077 -2.3845  1.1935 -1.0766
  622TMC3    C1 9262   1.390   4.145   9.063  0.4145 -0.3223  0.8775
  622TMC3    C2 9263   1.260   4.124   9.080  0.5843  0.1198 -0.1945
  622TMC3    C3 9264   1.197   4.189   9.179 -0.1040 -0.4586 -0.0857
  622TMC3    C4 9265   1.453   4.252   9.120 -0.2517 -0.2503  0.3550
  622TMC3    C5 9266   1.388   4.328   9.202  0.5160 -0.1426 -0.3319
  622TMC3    C6 9267   1.259   4.291   9.245 -0.2259  0.1605 -0.3528
  622TMC3     C 9268   1.461   4.024   9.074 -0.4276  0.4518 -0.0159
  622TMC3     O 9269   1.395   3.921   9.080 -0.1425  0.0606 -0.2127
  622TMC3     H 9270   1.209   4.037   9.039  0.8092 -0.1898  0.1847
  622TMC3    H1 9271   1.555   4.286   9.106 -0.5481  0.1866 -0.7903
  622TMC3    H2 9272   1.206   4.344   9.322 -0.7102 -0.3108 -0.3608
  622TMC3    C7 9273   1.486   4.359   9.299  0.4876  0.4254 -0.0192
  622TMC3    C8 9274   1.055   4.167   9.203 -0.1884 -1.4729 -0.1389
  622TMC3    O1 9275   1.525   4.476   9.293  0.2578 -0.0328 -0.3879
  622TMC3    O2 9276   0.994   4.272   9.227 -0.2310  0.0151 -0.1649
  623MPD2     C 9277   2.030   4.351  15.970 -0.5028 -0.0635  0.0989
  623MPD2    C1 9278   1.939   4.284  16.044  0.1636  0.7858 -0.1370
  623MPD2    C2 9279   1.945   4.272  16.181  0.3299  0.6548  0.0842
  623MPD2    C3 9280   2.052   4.332  16.255 -0.0228 -0.1675 -0.1525
  623MPD2    C4 9281   2.138   4.416  16.188  0.3268 -0.1278  0.3876
  623MPD2    C5 9282   2.128   4.419  16.051 -0.4817  0.1996 -0.3790
  623MPD2     H 9283   1.877   4.205  16.231 -0.1045 -2.4869 -4.7763
  623MPD2    H1 9284   2.224   4.462  16.234  0.9651 -2.4641  1.5448
  623MPD2    H2 9285   2.020   4.361  15.863 -0.9684  0.5111  0.1988
  623MPD2    H3 9286   2.198   4.474  15.989 -0.7542  0.5028 -0.4180
  623MPD2     N 9287   2.056   4.307  16.393  0.0060 -0.0452 -0.1885
  623MPD2    H5 9288   1.985   4.243  16.426  1.1209 -1.2671 -0.1409
  623MPD2    N1 9289   1.822   4.224  15.985 -0.1175 -0.3407  0.3259
  623MPD2    H7 9290   1.758   4.171  16.043  0.7820 -0.5699  1.0935
  624TMC3    C1 9291   2.191   4.251  16.828  1.0921 -0.3701 -0.3656
  624TMC3    C2 9292   2.063   4.218  16.856  0.1069 -0.2545  0.0333
  624TMC3    C3 9293   1.969   4.219  16.757  0.0021  0.0164 -0.2118
  624TMC3    C4 9294   2.225   4.283  16.696  0.3502 -0.3788  0.0972
  624TMC3    C5 9295   2.119   4.323  16.615  1.1095  0.2672  0.4155
  624TMC3    C6 9296   1.995   4.277  16.641  0.0718 -0.2020  0.1840
  624TMC3     C 9297   2.291   4.188  16.915  0.6052  0.2620 -0.0346
  624TMC3     O 9298   2.248   4.091  16.979 -0.7164 -0.2008  0.4415
  624TMC3     H 9299   2.037   4.167  16.948  1.5327 -0.7393  0.1735
  624TMC3    H1 9300   2.326   4.298  16.660  0.1255  1.1159  0.1080
  624TMC3    H2 9301   1.909   4.301  16.579  0.7556 -2.1005 -1.4983
  624TMC3    C7 9302   2.157   4.350  16.471 -0.5893 -0.4493 -0.1139
  624TMC3    C8 9303   1.839   4.164  16.786 -0.4552  0.0054 -0.0934
  624TMC3    O1 9304   2.255   4.418  16.450  0.4028 -0.5928 -0.0795
  624TMC3    O2 9305   1.774   4.121  16.695  0.2095 -0.9493 -0.1204
  625MPD2     C 9306   2.298   0.564   0.646 -0.2492 -0.2903  0.1132
  625MPD2    C1 9307   2.336   0.687   0.599  0.1331 -0.4052 -0.4311
  625MPD2    C2 9308   2.468   0.712   0.581 -0.4447  0.5346  0.6325
  625MPD2    C3 9309   2.559   0.627   0.628 -0.1972  0.0455  0.6370
  625MPD2    C4 9310   2.522   0.494   0.662  0.2058  0.0233 -0.5223
  625MPD2    C5 9311   2.390   0.471   0.675 -0.9919  0.1425 -0.5892
  625MPD2     H 9312   2.490   0.815   0.556 -1.1816  0.4702 -0.2654
  625MPD2    H1 9313   2.600   0.421   0.683 -0.7432 -0.8733 -0.1276
  625MPD2    H2 9314   2.193   0.547   0.668 -0.3109 -0.6203 -0.4466
  625MPD2    H3 9315   2.359   0.376   0.714 -0.2743 -0.2099 -0.8734
  625MPD2     N 9316   2.699   0.669   0.628 -0.2534 -0.1114 -0.5051
  625MPD2    H5 9317   2.711   0.768   0.608  2.9562  0.2549  3.3280
  625MPD2    N1 9318   2.235   0.788   0.583  0.6178 -0.3846 -0.3947
  625MPD2    H7 9319   2.144   0.759   0.617 -0.5796  2.6908 -0.9407
  626TMC3    C1 9320   2.117   0.964   0.525 -0.1444  0.2566 -0.3721
  626TMC3    C2 9321   2.056   0.985   0.403 -0.1661 -0.0863  0.0486
  626TMC3    C3 9322   1.923   1.029   0.409  0.5914  0.1091  0.4134
  626TMC3    C4 9323   2.052   0.972   0.644  1.0693  0.2769 -0.4731
  626TMC3    C5 9324   1.918   1.010   0.645 -0.3709 -0.0356 -0.1018
  626TMC3    C6 9325   1.852   1.042   0.523  0.0981 -0.2367  0.2753
  626TMC3     C 9326   2.244   0.908   0.515  0.1024 -0.4354 -0.2856
  626TMC3     O 9327   2.327   0.946   0.432  0.1890  0.0554  0.4727
  626TMC3     H 9328   2.114   0.979   0.311  0.1264  0.0952  0.2228
  626TMC3    H1 9329   2.108   0.952   0.735  2.7383  0.6117 -1.4436
  626TMC3    H2 9330   1.747   1.071   0.525 -0.0269 -0.6252 -1.3168
  626TMC3    C7 9331   1.840   1.002   0.769  0.2509  0.2316 -0.9104
  626TMC3    C8 9332   1.843   1.017   0.282 -0.0823 -0.3061  0.2608
  626TMC3    O1 9333   1.894   0.999   0.878  0.2471  0.1627 -0.2316
  626TMC3    O2 9334   1.908   0.975   0.190  0.0292  0.4149  0.5222
  627MPD2     C 9335   0.929   1.075  14.245  0.0389 -0.4747 -0.0040
  627MPD2    C1 9336   0.976   1.006  14.351  0.6559 -0.4063 -0.3595
  627MPD2    C2 9337   0.927   0.881  14.379  0.1514 -0.8732  0.1232
  627MPD2    C3 9338   0.835   0.820  14.298  1.1460  0.1106  0.2989
  627MPD2    C4 9339   0.785   0.890  14.190 -0.1782  0.0955 -0.1013
  627MPD2    C5 9340   0.842   1.009  14.162  0.1705 -0.0560  0.3720
  627MPD2     H 9341   0.966   0.826  14.464  0.4003  0.8967  1.1403
  627MPD2    H1 9342   0.711   0.851  14.120 -0.5913 -0.7871  0.8238
  627MPD2    H2 9343   0.964   1.175  14.220 -2.6210  0.0847 -1.4445
  627MPD2    H3 9344   0.809   1.074  14.082  0.6270  1.6338  1.5489
  627MPD2     N 9345   0.784   0.697  14.330  0.2858  0.3457 -0.3857
  627MPD2    H5 9346   0.803   0.652  14.419  0.8898  0.2834 -0.5457
  627MPD2    N1 9347   1.075   1.065  14.437  0.1567 -0.1664  0.0490
  627MPD2    H7 9348   1.117   1.007  14.509  0.6226 -0.0144 -0.0987
  628TMC3    C1 9349   1.236   1.217  14.525  0.6289 -1.1382 -0.0153
  628TMC3    C2 9350   1.331   1.113  14.532 -0.2374  0.1854  0.1673
  628TMC3    C3 9351   1.460   1.152  14.572 -0.6031 -0.0505  0.2960
  628TMC3    C4 9352   1.267   1.344  14.549  0.5937 -0.8556  0.2479
  628TMC3    C5 9353   1.399   1.376  14.588 -0.1797  0.2056 -0.3938
  628TMC3    C6 9354   1.495   1.278  14.605 -0.6457 -0.1679 -0.7103
  628TMC3     C 9355   1.122   1.200  14.432 -0.0018 -0.8270  0.3680
  628TMC3     O 9356   1.080   1.294  14.367  0.3811 -0.1154  0.2067
  628TMC3     H 9357   1.305   1.015  14.495  2.2553 -0.3959 -0.0504
  628TMC3    H1 9358   1.196   1.418  14.515  0.2134 -1.3519 -0.0296
  628TMC3    H2 9359   1.595   1.307  14.633 -0.3993 -0.9964 -0.7516
  628TMC3    C7 9360   1.444   1.513  14.602  0.6427 -0.7206  0.2689
  628TMC3    C8 9361   1.548   1.041  14.608 -0.0176  0.0887  0.7407
  628TMC3    O1 9362   1.564   1.528  14.606  0.2360  0.1303 -0.3306
  628TMC3    O2 9363   1.668   1.053  14.618  0.1642 -0.4030 -0.2101
  629MPD2     C 9364   3.641   0.035  16.261 -0.4768 -0.6061 -0.9590
  629MPD2    C1 9365   3.698   4.717  16.375  0.7102 -0.2651 -0.7016
  629MPD2    C2 9366   3.635   4.609  16.421  0.0930  0.6250 -0.1513
  629MPD2    C3 9367   3.524   4.559  16.366 -0.1867 -0.0707  1.1131
  629MPD2    C4 9368   3.472   4.613  16.246  0.4220  1.2938 -0.1422
  629MPD2    C5 9369   3.530   4.725  16.198 -0.4213  0.1933  0.4573
  629MPD2     H 9370   3.689   4.546  16.492  1.8266 -0.3853 -2.3644
  629MPD2    H1 9371   3.378   4.579  16.202  1.9565 -0.2858 -2.2074
  629MPD2    H2 9372   3.687   0.124  16.220 -0.3210 -1.0174 -1.6883
  629MPD2    H3 9373   3.491   0.032  16.108  0.5100  2.2994  1.1431
  629MPD2     N 9374   3.474   4.451  16.433 -0.5650 -0.1519 -0.1622
  629MPD2    H5 9375   3.510   4.435  16.527 -3.1784 -1.6330  0.5864
  629MPD2    N1 9376   3.809   0.037  16.430 -0.0219 -0.8112  0.3829
  629MPD2    H7 9377   3.841   0.124  16.388 -1.5305 -2.0139 -3.2026
  630TMC3    C1 9378   3.953   0.112  16.604 -0.6172  0.5666  0.3222
  630TMC3    C2 9379   4.065   0.150  16.536 -0.4260  1.0334  0.1172
  630TMC3    C3 9380   4.173   0.205  16.607  0.3108 -0.5709 -0.2873
  630TMC3    C4 9381   3.943   0.141  16.739 -0.4612  0.0146  0.1122
  630TMC3    C5 9382   4.049   0.204  16.808 -0.0269  0.2498 -0.2522
  630TMC3    C6 9383   4.166   0.226  16.749  0.9800  0.7978 -0.9133
  630TMC3     C 9384   3.862   0.009  16.554  0.1106  0.0803 -0.2897
  630TMC3     O 9385   3.836   4.657  16.632 -1.1256 -0.6649 -0.0148
  630TMC3     H 9386   4.073   0.146  16.428  0.9914 -0.9860  0.3034
  630TMC3    H1 9387   3.858   0.098  16.792  1.6745 -2.5917  1.3897
  630TMC3    H2 9388   4.256   0.253  16.804 -0.0104 -0.0266  1.1167
  630TMC3    C7 9389   4.053   0.189  16.956  0.3483  0.5496  0.3942
  630TMC3    C8 9390   4.277   0.286  16.545  0.1737 -0.1163  0.8418
  630TMC3    O1 9391   3.954   0.221  17.013  0.5001  0.4612  0.0233
  630TMC3    O2 9392   4.312   0.380  16.617 -0.0695 -0.2878  0.2259
  631MPD2     C 9393   2.137   4.034  15.859  0.2259  0.4028 -0.2261
  631MPD2    C1 9394   2.165   4.033  15.725 -0.1814 -0.4733  0.2325
  631MPD2    C2 9395   2.270   3.958  15.684 -0.8487 -0.1194 -0.1209
  631MPD2    C3 9396   2.350   3.884  15.769  0.3941 -0.0320 -0.6515
  631MPD2    C4 9397   2.311   3.875  15.904 -0.7260 -0.6466  0.0704
  631MPD2    C5 9398   2.207   3.957  15.944 -0.2641 -0.0440 -0.5926
  631MPD2     H 9399   2.299   3.950  15.580 -0.2133  0.4744  0.0087
  631MPD2    H1 9400   2.359   3.809  15.976 -3.7433 -3.3869 -0.4231
  631MPD2    H2 9401   2.063   4.101  15.903  0.1811  0.9841 -1.1851
  631MPD2    H3 9402   2.179   3.957  16.049  2.3996 -0.9494  0.1205
  631MPD2     N 9403   2.451   3.805  15.715  0.0523 -0.6140  0.3957
  631MPD2    H5 9404   2.469   3.818  15.616 -1.9696 -0.8446  0.0061
  631MPD2    N1 9405   2.085   4.109  15.639 -0.7686  0.5565 -0.3329
  631MPD2    H7 9406   2.013   4.165  15.683  0.0864  0.6189  1.0264
  632TMC3    C1 9407   2.065   4.260  15.466 -0.5493  0.8561 -0.1879
  632TMC3    C2 9408   2.071   4.359  15.558 -0.2919  0.0082  0.2738
  632TMC3    C3 9409   2.057   4.488  15.509  0.3714  0.5106  0.5856
  632TMC3    C4 9410   2.077   4.278  15.329  0.0416  0.4182 -0.1970
  632TMC3    C5 9411   2.060   4.405  15.288 -0.6704 -0.3800  0.0398
  632TMC3    C6 9412   2.038   4.513  15.377 -0.6489  0.2665  0.5950
  632TMC3     C 9413   2.108   4.127  15.509  0.1165 -0.2028 -0.0545
  632TMC3     O 9414   2.172   4.065  15.429 -0.0027 -0.1211  0.4153
  632TMC3     H 9415   2.073   4.337  15.664 -0.4340 -0.2758  0.2171
  632TMC3    H1 9416   2.072   4.194  15.261  0.5632 -0.2134  0.5470
  632TMC3    H2 9417   2.031   4.615  15.341 -0.0078  0.5385  1.2543
  632TMC3    C7 9418   2.071   4.425  15.143  0.4745 -1.0349  0.8319
  632TMC3    C8 9419   2.045   4.595  15.607  0.6455  0.1007  0.4467
  632TMC3    O1 9420   2.098   4.334  15.070  0.4132  0.0309 -0.1294
  632TMC3    O2 9421   2.023   4.559  15.722 -0.1072  0.3645 -0.0451
  633MPD2     C 9422   1.803   2.247  17.408 -0.2243 -0.3132 -0.3325
  633MPD2    C1 9423   1.849   2.182  17.294  0.4890 -0.4216  0.1234
  633MPD2    C2 9424   1.853   2.041  17.295  0.4171  0.3252 -0.3364
  633MPD2    C3 9425   1.808   1.971  17.403  0.3921 -0.6547  0.1698
  633MPD2    C4 9426   1.771   2.037  17.519 -0.0182 -0.5438 -0.1391
  633MPD2    C5 9427   1.771   2.177  17.522  0.1187 -0.0633 -0.3367
  633MPD2     H 9428   1.890   1.982  17.211 -1.2294  0.9672 -1.5287
  633MPD2    H1 9429   1.746   1.972  17.603  2.5306 -0.9985  0.2544
  633MPD2    H2 9430   1.787   2.354  17.414 -0.5520 -0.2805 -1.7673
  633MPD2    H3 9431   1.731   2.213  17.616 -0.2041 -1.3793  0.0291
  633MPD2     N 9432   1.799   1.833  17.419 -0.6445  0.6103  0.0115
  633MPD2    H5 9433   1.758   1.812  17.509  0.8120 -0.5325  0.4161
  633MPD2    N1 9434   1.909   2.251  17.182  0.0728  0.1333 -0.0598
  633MPD2    H7 9435   1.944   2.188  17.110  1.2004  0.2015  0.4306
  634TMC3    C1 9436   1.981   2.417  17.040 -0.5608  0.2872 -0.6473
  634TMC3    C2 9437   2.054   2.325  16.974 -0.7442 -0.2099 -0.4713
  634TMC3    C3 9438   2.089   2.351  16.838  0.0940 -0.2812  0.2320
  634TMC3    C4 9439   1.934   2.529  16.977 -0.4779  0.0156  0.3624
  634TMC3    C5 9440   1.976   2.559  16.851  0.6685 -0.5948 -0.5515
  634TMC3    C6 9441   2.058   2.468  16.780 -0.1624  0.0576 -0.1118
  634TMC3     C 9442   1.923   2.391  17.171 -0.2083  0.1311  1.1734
  634TMC3     O 9443   1.903   2.476  17.253 -0.4839 -0.0071 -0.1545
  634TMC3     H 9444   2.106   2.245  17.025  0.0749  0.9766  0.5445
  634TMC3    H1 9445   1.899   2.598  17.053 -1.0696  0.1912 -0.0731
  634TMC3    H2 9446   2.103   2.509  16.691  0.9630 -3.2151 -1.0580
  634TMC3    C7 9447   1.935   2.682  16.786 -0.3441  0.0561 -0.1272
  634TMC3    C8 9448   2.147   2.238  16.759  1.0204 -0.0729 -0.2198
  634TMC3    O1 9449   1.978   2.705  16.677  0.0381  0.7602  0.2817
  634TMC3    O2 9450   2.190   2.146  16.825  0.1370 -0.3299  0.2015
  635TMC3    C1 9451   2.719   3.294   0.096 -1.0842  0.0231  1.0283
  635TMC3    C2 9452   2.628   3.324   0.001  0.2103  0.0992  0.3867
  635TMC3    C3 9453   2.652   3.287  17.626  0.5825 -0.0746  0.4659
  635TMC3    C4 9454   2.837   3.243   0.066 -0.2184  1.0395 -0.0080
  635TMC3    C5 9455   2.861   3.213  17.685  0.4683  0.3673  0.4828
  635TMC3    C6 9456   2.768   3.236  17.589  0.6006  0.3379 -0.4498
  635TMC3     C 9457   2.707   3.360   0.220  0.2680  0.1440 -0.2788
  635TMC3     O 9458   2.655   3.471   0.217  0.0752  0.4385 -0.3362
  635TMC3     H 9459   2.542   3.378   0.037 -1.3826 -0.7217 -2.1245
  635TMC3    H1 9460   2.916   3.229   0.139  0.9960  1.5019 -1.2238
  635TMC3    H2 9461   2.761   3.197  17.488 -0.0060  0.0058 -0.2791
  635TMC3    C7 9462   2.968   3.124  17.655 -0.3688  0.1487  0.0911
  635TMC3    C8 9463   2.573   3.346  17.520  0.3785  0.3795 -0.1747
  635TMC3    O1 9464   3.011   3.067  17.751  0.2357  0.3660  0.0349
  635TMC3    O2 9465   2.629   3.375  17.418  0.0848 -0.4326  0.1969
  636MPD2     C 9466   3.607   1.743  15.960 -0.1202 -0.3045  0.1061
  636MPD2    C1 9467   3.632   1.850  16.041 -0.9739  0.2436 -0.2373
  636MPD2    C2 9468   3.763   1.906  16.051 -0.1569  0.4246  0.0975
  636MPD2    C3 9469   3.867   1.855  15.971 -0.8523 -0.3940 -0.7531
  636MPD2    C4 9470   3.843   1.741  15.901  0.2316  0.4630  0.8678
  636MPD2    C5 9471   3.717   1.677  15.905  0.8555 -0.0636  0.3511
  636MPD2     H 9472   3.788   1.984  16.121  1.1237  1.2426 -1.2756
  636MPD2    H1 9473   3.923   1.691  15.848  0.0989 -0.3551  1.4293
  636MPD2    H2 9474   3.509   1.698  15.953  1.1496 -2.9453 -0.8291
  636MPD2    H3 9475   3.704   1.583  15.853 -1.8130  0.7620 -0.4776
  636MPD2     N 9476   3.986   1.926  15.969 -0.4716  0.3808  0.2876
  636MPD2    H5 9477   3.997   1.996  16.042 -2.5186  0.8940  0.0848
  636MPD2    N1 9478   3.529   1.925  16.099 -0.1401  0.5914  0.1995
  636MPD2    H7 9479   3.564   2.004  16.152 -1.8439  0.5682  1.3512
  637TMC3    C1 9480   4.208   1.978  15.915 -0.4873  0.0414  0.1628
  637TMC3    C2 9481   4.232   1.997  16.049  0.6924  0.3159 -0.1299
  637TMC3    C3 9482   4.330   2.083  16.087  0.2991 -0.5428 -0.0785
  637TMC3    C4 9483   4.267   2.045  15.817  0.6814 -0.3860  0.4145
  637TMC3    C5 9484   4.367   2.132  15.854  0.1528  0.6961  0.2017
  637TMC3    C6 9485   4.393   2.150  15.984 -0.0351  0.0676  0.4039
  637TMC3     C 9486   4.090   1.894  15.882  0.5387  0.3383  0.2807
  637TMC3     O 9487   4.111   1.813  15.793 -0.2586 -0.3432  0.2945
  637TMC3     H 9488   4.188   1.932  16.124  0.1212  1.8107  0.8223
  637TMC3    H1 9489   4.232   2.020  15.717  3.0032  1.8377 -0.9479
  637TMC3    H2 9490   4.488   2.199  16.001 -1.0127  1.7916  0.8756
  637TMC3    C7 9491   4.361   2.263  15.794  0.6280  0.2685 -0.5207
  637TMC3    C8 9492   4.281   2.163  16.199  0.0475 -0.0960  0.4378
  637TMC3    O1 9493   4.376   2.348  15.876 -0.5286 -0.2267  0.4796
  637TMC3    O2 9494   4.216   2.118  16.291 -0.3927  0.4524 -0.1387
  638MPD2     C 9495   2.992   1.629  15.112  0.4348  0.0036  0.1954
  638MPD2    C1 9496   3.028   1.540  15.018  0.8027 -0.3721  1.2304
  638MPD2    C2 9497   2.992   1.408  15.036  0.2332 -0.1933  0.2182
  638MPD2    C3 9498   2.919   1.363  15.141  1.2209  0.1043 -0.2863
  638MPD2    C4 9499   2.880   1.457  15.233  0.0634  0.6830  0.0830
  638MPD2    C5 9500   2.915   1.589  15.217  0.3796 -0.4220  0.9562
  638MPD2     H 9501   3.028   1.335  14.964  2.8083  0.5361  0.7737
  638MPD2    H1 9502   2.819   1.430  15.319 -1.8381 -0.2915 -1.5753
  638MPD2    H2 9503   3.034   1.729  15.112  0.3339  0.0509 -1.1259
  638MPD2    H3 9504   2.891   1.659  15.296 -1.0514  0.8217 -0.5637
  638MPD2     N 9505   2.898   1.225  15.152  0.1175 -0.3770  0.0481
  638MPD2    H5 9506   2.901   1.164  15.071  0.3153 -1.7280  1.0754
  638MPD2    N1 9507   3.109   1.586  14.914 -0.0553 -0.8811  0.0819
  638MPD2    H7 9508   3.154   1.674  14.934 -0.9749  0.2463 -2.8001
  639TMC3    C1 9509   2.876   1.011  15.230 -0.0646  0.4124  0.0868
  639TMC3    C2 9510   2.829   0.985  15.109  0.6573  0.7429 -0.0145
  639TMC3    C3 9511   2.894   0.928  15.004 -0.1120  0.5196  0.1045
  639TMC3    C4 9512   3.002   0.967  15.251 -0.3037  0.2914 -0.1802
  639TMC3    C5 9513   3.070   0.918  15.140  0.2124 -0.4463 -0.3002
  639TMC3    C6 9514   3.027   0.905  15.019 -0.6922  0.3664 -0.4028
  639TMC3     C 9515   2.868   1.154  15.266  0.2124  0.0449 -0.1082
  639TMC3     O 9516   2.861   1.189  15.383 -0.0863  0.0344 -0.3557
  639TMC3     H 9517   2.724   1.012  15.100  0.8663  1.6314  0.2677
  639TMC3    H1 9518   3.048   0.985  15.347  0.9519  0.4811 -0.8180
  639TMC3    H2 9519   3.087   0.850  14.948 -1.1928 -1.4897  0.5947
  639TMC3    C7 9520   3.180   0.828  15.175 -0.2503  0.1829  0.0363
  639TMC3    C8 9521   2.824   0.880  14.884  0.4058  0.4291  0.8542
  639TMC3    O1 9522   3.164   0.769  15.279 -0.1235  0.2405  0.2863
  639TMC3    O2 9523   2.899   0.826  14.803 -0.2092 -0.7796 -0.2007
  640MPD2     C 9524   2.842   4.650  10.180 -0.6524  0.3035 -0.4641
  640MPD2    C1 9525   2.778   4.679  10.056  0.6094 -0.2563 -0.2828
  640MPD2    C2 9526   2.710   0.055  10.042 -0.0088  0.2951  0.7002
  640MPD2    C3 9527   2.696   0.144  10.149 -0.8473 -0.5321 -0.1405
  640MPD2    C4 9528   2.750   0.117  10.276 -0.1815  0.0671  0.1033
  640MPD2    C5 9529   2.834   0.002  10.282  0.1437  0.4378 -0.0963
  640MPD2     H 9530   2.666   0.079   9.946  1.2035  1.6689  0.4831
  640MPD2    H1 9531   2.746   0.189  10.357 -2.7022 -0.9599  0.9006
  640MPD2    H2 9532   2.916   4.572  10.191 -1.4548 -0.3835  0.0145
  640MPD2    H3 9533   2.894   4.730  10.372  1.9426  2.7661 -1.0255
  640MPD2     N 9534   2.632   0.266  10.145  0.7510 -0.6010  0.1180
  640MPD2    H5 9535   2.645   0.334  10.219 -0.5761  1.6300 -1.7132
  640MPD2    N1 9536   2.805   4.591   9.945  0.1985 -0.8543 -0.0726
  640MPD2    H7 9537   2.865   4.511   9.963  1.9145  0.2789 -0.8016
  641TMC3    C1 9538   2.797   4.492   9.734 -0.5706 -0.0415  0.1382
  641TMC3    C2 9539   2.925   4.443   9.734 -0.6427 -0.0963  0.1836
  641TMC3    C3 9540   2.958   4.358   9.631 -0.0324 -0.7692 -0.9733
  641TMC3    C4 9541   2.716   4.481   9.620  0.2534 -0.1781  0.2628
  641TMC3    C5 9542   2.765   4.400   9.521 -0.3109 -0.1694  0.2947
  641TMC3    C6 9543   2.872   4.320   9.529  0.1730 -0.3656 -0.1284
  641TMC3     C 9544   2.762   4.602   9.817 -0.6350 -0.6939 -0.3966
  641TMC3     O 9545   2.687   4.684   9.775  0.8119  0.2641  0.1866
  641TMC3     H 9546   2.993   4.488   9.806  1.1840 -1.4378 -0.7053
  641TMC3    H1 9547   2.616   4.520   9.604  0.8522  0.3899 -2.0464
  641TMC3    H2 9548   2.901   4.249   9.452 -3.5008 -0.1054 -1.7214
  641TMC3    C7 9549   2.684   4.379   9.399 -0.7137  0.6032  0.3883
  641TMC3    C8 9550   3.084   4.281   9.638 -0.8114  0.1806  0.1784
  641TMC3    O1 9551   2.719   4.286   9.325  0.2169 -0.3269  0.0778
  641TMC3    O2 9552   3.137   4.234   9.534 -0.1303 -0.1334  0.5117
  642TMC3    C1 9553   4.530   0.678  12.260  0.0561  0.0309  0.0709
  642TMC3    C2 9554   4.656   0.691  12.202 -0.4912  0.4424 -0.2901
  642TMC3    C3 9555   4.703   0.590  12.124 -0.5223 -0.2093  0.5941
  642TMC3    C4 9556   4.455   0.564  12.246 -0.4708 -0.1726 -0.8209
  642TMC3    C5 9557   4.508   0.458  12.169 -0.9103  0.3957 -0.0376
  642TMC3    C6 9558   4.628   0.471  12.109  0.1396  0.0010  0.3619
  642TMC3     C 9559   4.478   0.793  12.325  0.3530 -0.2343 -0.5265
  642TMC3     O 9560   4.549   0.894  12.331  0.3664 -0.7029 -0.1100
  642TMC3     H 9561   4.708   0.786  12.214 -0.8818  0.5733  0.3808
  642TMC3    H1 9562   4.352   0.559  12.280 -0.8134  0.9564 -1.6549
  642TMC3    H2 9563   4.670   0.391  12.049 -2.3766 -1.1169  0.0843
  642TMC3    C7 9564   4.427   0.350  12.107  0.1074 -0.1901  0.4058
  642TMC3    C8 9565   0.078   0.616  12.033 -0.5615  0.1575 -0.3661
  642TMC3    O1 9566   4.461   0.323  11.994 -0.1169 -0.1396  0.3950
  642TMC3    O2 9567   0.083   0.537  11.939  0.1893 -0.6320 -0.1361
  643TMC3    C1 9568   3.755   0.940   0.746  0.2206  0.3268 -0.0110
  643TMC3    C2 9569   3.637   0.993   0.703  0.4297 -0.6517  0.2496
  643TMC3    C3 9570   3.598   0.976   0.578  0.4380  0.7963  0.4842
  643TMC3    C4 9571   3.839   0.882   0.659  0.1746 -0.2890  0.3372
  643TMC3    C5 9572   3.791   0.873   0.527 -0.1334  0.4330  0.6038
  643TMC3    C6 9573   3.676   0.917   0.487 -0.3394 -0.2846 -0.2779
  643TMC3     C 9574   3.782   0.967   0.884  0.1723  0.4335  0.0716
  643TMC3     O 9575   3.720   1.062   0.926  0.1773 -0.1561 -0.5541
  643TMC3     H 9576   3.556   1.027   0.767  0.0787 -0.7888 -0.1250
  643TMC3    H1 9577   3.937   0.850   0.691  0.1731 -0.3774  0.2521
  643TMC3    H2 9578   3.647   0.924   0.383  1.3827  1.6051 -0.6234
  643TMC3    C7 9579   3.875   0.816   0.427 -0.5924  0.3911 -1.1310
  643TMC3    C8 9580   3.527   1.094   0.529 -0.5995 -0.0540 -0.0494
  643TMC3    O1 9581   3.998   0.841   0.431  0.3860  0.2229  0.2529
  643TMC3    O2 9582   3.437   1.118   0.609 -0.0092 -0.3947  0.4714
  644MPD2     C 9583   3.089   0.074   9.881 -0.5748 -0.1925 -0.3180
  644MPD2    C1 9584   3.085   0.067   9.745  0.0003 -0.4184  0.0402
  644MPD2    C2 9585   2.988   0.152   9.681  0.0978 -0.7164  0.6108
  644MPD2    C3 9586   2.908   0.230   9.758  0.1414  0.1750 -0.0481
  644MPD2    C4 9587   2.920   0.231   9.892  0.4752 -0.0259 -0.2609
  644MPD2    C5 9588   3.012   0.151   9.957  0.6301 -0.1396 -0.4397
  644MPD2     H 9589   2.986   0.156   9.573  0.1843  0.0032  0.6323
  644MPD2    H1 9590   2.857   0.286   9.962 -0.8917 -1.7164 -0.1471
  644MPD2    H2 9591   3.166   0.028   9.941 -0.5512 -0.6187 -0.6690
  644MPD2    H3 9592   3.020   0.145  10.064  0.7359  1.1919 -0.3741
  644MPD2     N 9593   2.819   0.308   9.692 -0.2154  0.2056 -0.0599
  644MPD2    H5 9594   2.824   0.316   9.591 -0.5485 -1.0303 -0.1782
  644MPD2    N1 9595   3.172   4.718   9.672 -0.1255  0.1420  0.4090
  644MPD2    H7 9596   3.234   4.662   9.730 -0.2379 -0.5098 -0.1071
  645TMC3    C1 9597   2.665   0.481   9.663 -0.1167 -0.0298 -0.1244
  645TMC3    C2 9598   2.646   0.609   9.685 -0.1062 -0.3156  0.2036
  645TMC3    C3 9599   2.559   0.677   9.603 -0.0734 -0.5692 -0.2313
  645TMC3    C4 9600   2.584   0.419   9.572  0.7846 -0.3343  0.0924
  645TMC3    C5 9601   2.490   0.481   9.500 -0.3656  0.2121  0.3743
  645TMC3    C6 9602   2.478   0.615   9.520 -0.1797 -0.3426  0.5768
  645TMC3     C 9603   2.749   0.410   9.751 -0.3189 -1.1529  0.6258
  645TMC3     O 9604   2.748   0.453   9.868  0.2080  0.0113  0.5290
  645TMC3     H 9605   2.706   0.665   9.757  0.9088  0.3732 -1.1863
  645TMC3    H1 9606   2.587   0.313   9.547  0.5456 -0.3468  0.1122
  645TMC3    H2 9607   2.400   0.683   9.485 -0.4661 -1.3971 -0.8248
  645TMC3    C7 9608   2.416   0.408   9.398  0.0361  0.1870 -0.9053
  645TMC3    C8 9609   2.569   0.817   9.614  0.1315 -0.3223 -0.2659
  645TMC3    O1 9610   2.433   0.288   9.394 -0.4208 -0.3095  0.1405
  645TMC3    O2 9611   2.587   0.868   9.723  0.3767  0.0378 -0.3095
  646MPD2     C 9612   3.266   0.054  14.495  0.6576 -0.4428 -0.2549
  646MPD2    C1 9613   3.171   0.087  14.591 -0.0846 -0.0827  0.1124
  646MPD2    C2 9614   3.053   0.152  14.555  0.2446 -0.0726  0.2898
  646MPD2    C3 9615   3.030   0.190  14.419 -0.1563 -0.1834 -0.3750
  646MPD2    C4 9616   3.143   0.181  14.330  0.1929 -0.1585  0.2967
  646MPD2    C5 9617   3.251   0.104  14.367 -0.3723  0.2048 -0.2348
  646MPD2     H 9618   2.973   0.175  14.624 -1.2678  1.9617 -2.1632
  646MPD2    H1 9619   3.141   0.226  14.232  1.2951  2.0791  1.3017
  646MPD2    H2 9620   3.351   4.728  14.510 -0.1262 -1.5088 -0.4138
  646MPD2    H3 9621   3.324   0.092  14.288 -0.6130  1.6437 -0.6780
  646MPD2     N 9622   2.917   0.268  14.383 -0.4871  0.3068 -0.5748
  646MPD2    H5 9623   2.839   0.259  14.447  0.4316 -0.2627  0.4711
  646MPD2    N1 9624   3.197   0.047  14.726 -0.1785  0.3006  0.1095
  646MPD2    H7 9625   3.285   4.737  14.735 -1.5537 -1.9391  1.5881
  647TMC3    C1 9626   3.162   4.738  14.955 -0.2441 -0.3454  0.1974
  647TMC3    C2 9627   3.073   4.712  15.055 -0.9558 -0.3836 -0.0764
  647TMC3    C3 9628   3.122   4.674  15.180  0.1684 -0.0963 -0.8330
  647TMC3    C4 9629   3.302   4.724  14.973  0.2387 -0.8837  0.4845
  647TMC3    C5 9630   3.342   4.700  15.107  0.4488 -0.3703  0.9242
  647TMC3    C6 9631   3.256   4.671  15.214 -0.3966  0.5126  0.0838
  647TMC3     C 9632   3.103   0.044  14.830  0.1435 -1.2066 -0.2610
  647TMC3     O 9633   2.988   0.078  14.830 -0.5209  0.4433 -0.6511
  647TMC3     H 9634   2.966   4.725  15.041 -1.0046 -0.0326  0.6156
  647TMC3    H1 9635   3.368   0.038  14.907  1.9074  0.7996  3.5230
  647TMC3    H2 9636   3.306   4.677  15.310  0.1109 -1.6533 -0.0400
  647TMC3    C7 9637   3.484   4.685  15.142 -0.0436 -0.4902 -0.0056
  647TMC3    C8 9638   3.031   4.612  15.274  0.2651 -0.5696 -0.1440
  647TMC3    O1 9639   3.516   4.638  15.250 -0.4323 -0.4423  0.6250
  647TMC3    O2 9640   2.923   4.577  15.231  0.3133  0.0463  0.1756
  648TMC3    C1 9641   2.525   2.403  16.289 -0.6830 -0.3192  0.4310
  648TMC3    C2 9642   2.536   2.281  16.227 -0.0220  0.0050  0.1725
  648TMC3    C3 9643   2.488   2.267  16.105  0.1742  0.4004 -0.3552
  648TMC3    C4 9644   2.469   2.506  16.217  0.3227  0.0382  0.2598
  648TMC3    C5 9645   2.424   2.485  16.088 -0.3249 -0.2099 -0.5643
  648TMC3    C6 9646   2.436   2.366  16.025 -0.2692 -0.2858 -0.0703
  648TMC3     C 9647   2.548   2.433  16.428 -0.7767 -0.0534 -0.2840
  648TMC3     O 9648   2.539   2.549  16.459 -0.4303  0.0330  0.1593
  648TMC3     H 9649   2.557   2.196  16.291 -0.2418 -0.3242 -0.1893
  648TMC3    H1 9650   2.477   2.603  16.265  0.0827 -0.4028  1.1972
  648TMC3    H2 9651   2.400   2.350  15.924  0.1135  0.4656 -0.3267
  648TMC3    C7 9652   2.386   2.593  16.007  0.4086  0.8553  0.0413
  648TMC3    C8 9653   2.548   2.162  16.028 -0.4472 -0.2968 -0.3446
  648TMC3    O1 9654   2.390   2.570  15.886 -0.3425 -0.1411 -0.2818
  648TMC3    O2 9655   2.644   2.110  16.076  0.1866 -0.0058  0.0525
  649TMC3    C1 9656   1.392   3.770  13.084  0.1183  0.0572 -0.3141
  649TMC3    C2 9657   1.508   3.710  13.044 -0.5443 -0.3823  1.1141
  649TMC3    C3 9658   1.585   3.647  13.138 -0.4715  0.2626 -0.1915
  649TMC3    C4 9659   1.349   3.759  13.209 -0.2023 -0.0562  0.3060
  649TMC3    C5 9660   1.434   3.704  13.304  0.3600  0.5367  0.6951
  649TMC3    C6 9661   1.545   3.633  13.265 -0.1995 -0.0645  0.2221
  649TMC3     C 9662   1.293   3.780  12.983 -0.6841 -0.0798  0.2760
  649TMC3     O 9663   1.187   3.763  13.038 -0.0397  0.0883 -0.0646
  649TMC3     H 9664   1.534   3.704  12.939  0.9320  0.2974  1.4345
  649TMC3    H1 9665   1.261   3.810  13.246 -0.1764  1.6618 -2.0056
  649TMC3    H2 9666   1.608   3.587  13.341 -1.5562 -0.5184  1.0739
  649TMC3    C7 9667   1.362   3.654  13.419  0.1897 -0.3043  0.7573
  649TMC3    C8 9668   1.651   3.530  13.103 -0.3057  0.0413  0.1993
  649TMC3    O1 9669   1.244   3.630  13.397 -0.8481 -0.6640  0.1251
  649TMC3    O2 9670   1.615   3.422  13.150  0.2754  0.5496 -0.1791
  650TMC3    C1 9671   4.046   4.617  12.958  0.0363  0.3088 -0.5243
  650TMC3    C2 9672   3.948   4.706  13.004  0.2462  0.3133  0.5660
  650TMC3    C3 9673   3.827   4.707  12.945  0.4898  0.5188  0.3151
  650TMC3    C4 9674   4.015   4.516  12.871 -0.1298 -0.5793  0.2111
  650TMC3    C5 9675   3.885   4.515  12.825 -0.4305 -0.2494  0.2128
  650TMC3    C6 9676   3.790   4.608  12.867 -0.2219  0.5508  0.1453
  650TMC3     C 9677   4.137   4.578  13.064  0.4164  0.1813  0.4096
  650TMC3     O 9678   4.125   4.644  13.166 -0.2775 -0.0151 -0.5719
  650TMC3     H 9679   3.961   0.035  13.087  0.8056 -1.2609  1.7509
  650TMC3    H1 9680   4.089   4.462  12.813  1.7780  2.8138 -0.4893
  650TMC3    H2 9681   3.708   4.614  12.797  0.9819  1.2518 -1.1831
  650TMC3    C7 9682   3.867   4.467  12.689  0.3663 -0.1154  0.3392
  650TMC3    C8 9683   3.753   0.092  12.924  0.1099 -0.4988  0.3025
  650TMC3    O1 9684   3.866   4.345  12.675 -0.4332  0.9053  0.2238
  650TMC3    O2 9685   3.820   0.193  12.935 -0.3722 -0.0205 -0.0616
  651MPD2     C 9686   2.762   2.045  10.849 -0.0791  0.6475 -0.0893
  651MPD2    C1 9687   2.752   2.171  10.894  0.3597 -0.0297 -0.5536
  651MPD2    C2 9688   2.843   2.269  10.851  0.0527 -0.4976  0.3098
  651MPD2    C3 9689   2.936   2.251  10.749 -0.4994  0.2347 -0.2055
  651MPD2    C4 9690   2.944   2.123  10.700 -0.2067 -0.3770 -0.3676
  651MPD2    C5 9691   2.851   2.026  10.751 -0.3469 -0.1768  0.1089
  651MPD2     H 9692   2.848   2.364  10.902 -0.2696 -0.4522  0.2628
  651MPD2    H1 9693   3.008   2.087  10.620  1.6032  4.6537 -1.1740
  651MPD2    H2 9694   2.690   1.966  10.871  1.6051 -0.7363  0.4009
  651MPD2    H3 9695   2.853   1.926  10.710 -1.9652  0.8119 -2.3642
  651MPD2     N 9696   3.021   2.359  10.710  0.5127 -0.1184  0.3710
  651MPD2    H5 9697   3.012   2.453  10.746  0.2332 -0.5460  1.4363
  651MPD2    N1 9698   2.654   2.211  10.986 -0.2022 -0.2581  0.9662
  651MPD2    H7 9699   2.652   2.311  11.005 -0.0261 -0.3112  1.2820
  652TMC3    C1 9700   3.300   2.679  10.569  0.7291 -0.8782  0.1208
  652TMC3    C2 9701   3.286   2.543  10.564  0.3365 -0.2427 -0.3270
  652TMC3    C3 9702   3.159   2.495  10.567 -0.0673  1.2667  0.4824
  652TMC3    C4 9703   3.193   2.762  10.582 -0.3799 -0.1676  0.4649
  652TMC3    C5 9704   3.068   2.708  10.581 -0.2624 -0.4670  0.2803
  652TMC3    C6 9705   3.045   2.573  10.570 -0.5075  0.3932 -0.1959
  652TMC3     C 9706   3.403   2.727  10.662  0.5724  0.6736 -0.0226
  652TMC3     O 9707   3.359   2.748  10.772  0.3822  0.0415 -0.4400
  652TMC3     H 9708   3.374   2.481  10.581 -1.0572 -2.3062 -0.6247
  652TMC3    H1 9709   3.215   2.864  10.608 -1.1717 -0.5570  2.6542
  652TMC3    H2 9710   2.948   2.527  10.553  0.3800 -0.4490 -2.9755
  652TMC3    C7 9711   2.952   2.791  10.593  0.1866  0.2680 -0.3000
  652TMC3    C8 9712   3.133   2.363  10.626  0.3947  1.0707 -0.0904
  652TMC3    O1 9713   2.848   2.727  10.598 -0.9790 -0.2376  0.1691
  652TMC3    O2 9714   3.200   2.267  10.582 -0.2152 -0.0877  0.0036
  653MPD2     C 9715   1.419   2.309  17.709  0.4982  0.6695  0.1764
  653MPD2    C1 9716   1.388   2.405  17.609 -0.9091 -0.0185  0.1251
  653MPD2    C2 9717   1.404   2.372  17.478 -0.6416 -0.8105 -0.7048
  653MPD2    C3 9718   1.406   2.240  17.436  0.2760 -0.6165  0.3862
  653MPD2    C4 9719   1.436   2.146  17.530  0.0682 -0.0525  0.3912
  653MPD2    C5 9720   1.448   2.182  17.666  0.2148 -0.1512  0.1745
  653MPD2     H 9721   1.381   2.449  17.406 -1.1239 -0.6734 -0.4060
  653MPD2    H1 9722   1.461   2.043  17.510 -0.3399 -0.1550  0.4170
  653MPD2    H2 9723   1.423   2.328   0.062  0.0375  1.5659  0.0384
  653MPD2    H3 9724   1.466   2.104  17.739 -0.4134  0.0026  0.4945
  653MPD2     N 9725   1.376   2.208  17.297 -0.3688 -0.0347 -0.3407
  653MPD2    H5 9726   1.363   2.286  17.233  1.1698  0.2414 -0.3243
  653MPD2    N1 9727   1.382   2.542  17.651  0.6970 -0.5376 -0.5312
  653MPD2    H7 9728   1.375   2.615  17.581  2.1123 -1.1595 -1.3221
  654TMC3    C1 9729   1.338   2.063  17.113  0.6286  0.1004  1.0486
  654TMC3    C2 9730   1.304   2.166  17.026 -0.2984  0.1761 -0.6387
  654TMC3    C3 9731   1.304   2.147  16.899  0.6033  0.0078  0.1766
  654TMC3    C4 9732   1.367   1.941  17.063  0.7519 -0.5023 -0.5464
  654TMC3    C5 9733   1.347   1.925  16.927  0.4871 -0.3331  0.6430
  654TMC3    C6 9734   1.333   2.031  16.842  0.2865 -0.5790  0.1217
  654TMC3     C 9735   1.362   2.076  17.254 -0.2566 -0.1030  0.6679
  654TMC3     O 9736   1.369   1.971  17.314 -0.0408  0.0816  0.5484
  654TMC3     H 9737   1.282   2.264  17.068 -1.4572 -0.0461 -0.7450
  654TMC3    H1 9738   1.395   1.855  17.123 -0.1056 -0.2782  0.1586
  654TMC3    H2 9739   1.325   2.013  16.735  2.0236 -2.1934  0.2564
  654TMC3    C7 9740   1.396   1.801  16.867  0.2552  0.0013  0.3624
  654TMC3    C8 9741   1.248   2.260  16.829  0.7089 -0.7501  0.1415
  654TMC3    O1 9742   1.423   1.802  16.749  0.0106 -0.4520 -0.0183
  654TMC3    O2 9743   1.160   2.327  16.880  0.3889  0.1979 -0.1878
  655MPD2     C 9744   2.804   2.431  15.838 -0.8170  0.7754  0.2555
  655MPD2    C1 9745   2.789   2.553  15.782 -0.3648 -0.0671 -0.7674
  655MPD2    C2 9746   2.795   2.567  15.648  0.2501  0.6287  0.3477
  655MPD2    C3 9747   2.812   2.458  15.560  0.1607  0.0054  0.7522
  655MPD2    C4 9748   2.817   2.334  15.619 -0.1188 -0.5246 -0.3408
  655MPD2    C5 9749   2.813   2.325  15.757 -0.5120  0.6937  0.3617
  655MPD2     H 9750   2.800   2.671  15.618  2.0205  1.0846  2.1801
  655MPD2    H1 9751   2.824   2.244  15.559 -1.1050 -1.4832  0.9928
  655MPD2    H2 9752   2.817   2.419  15.945 -0.8267  0.5156  0.2271
  655MPD2    H3 9753   2.808   2.229  15.806 -1.1573  0.7886  0.4758
  655MPD2     N 9754   2.834   2.469  15.425 -0.0457  0.2219 -0.8788
  655MPD2    H5 9755   2.873   2.390  15.374 -1.3971 -0.1588 -1.3407
  655MPD2    N1 9756   2.795   2.675  15.852  0.6042  0.1383  0.1319
  655MPD2    H7 9757   2.791   2.760  15.797  2.9863  1.6565  2.2902
  656TMC3    C1 9758   2.801   2.830  16.033 -0.5535  0.7334  0.8100
  656TMC3    C2 9759   2.773   2.841  16.163 -0.0708  1.1646  0.4423
  656TMC3    C3 9760   2.738   2.959  16.208  0.7127 -0.2565  0.1404
  656TMC3    C4 9761   2.788   2.931  15.942 -0.9519  0.5929 -1.0931
  656TMC3    C5 9762   2.746   3.052  15.986 -0.0651 -0.4991  0.1606
  656TMC3    C6 9763   2.704   3.061  16.118 -0.5010  0.0769 -0.6799
  656TMC3     C 9764   2.812   2.692  15.989  0.3109 -0.0755  0.2671
  656TMC3     O 9765   2.814   2.608  16.080  0.3211  0.3422 -0.4960
  656TMC3     H 9766   2.792   2.759  16.232 -2.2244  0.5764  0.3301
  656TMC3    H1 9767   2.835   2.911  15.847 -1.1019 -0.3033 -0.9830
  656TMC3    H2 9768   2.674   3.161  16.148 -3.0948 -0.3215 -1.9050
  656TMC3    C7 9769   2.723   3.146  15.884  0.2577  0.9626  0.1895
  656TMC3    C8 9770   2.648   2.940  16.315  0.1063  0.1991 -0.8032
  656TMC3    O1 9771   2.779   3.124  15.778  0.0005  0.0852  0.4492
  656TMC3    O2 9772   2.629   2.829  16.366 -0.2137 -0.5973  0.2158
  657TMC3    C1 9773   1.812   1.561  14.745  0.2855  0.5414  0.2356
  657TMC3    C2 9774   1.746   1.479  14.835  0.7396 -0.2186 -0.7710
  657TMC3    C3 9775   1.692   1.540  14.942 -0.0726  0.1715 -0.3087
  657TMC3    C4 9776   1.829   1.695  14.759  0.6785  0.3608 -0.0020
  657TMC3    C5 9777   1.769   1.749  14.865 -0.3353 -0.0304  0.0877
  657TMC3    C6 9778   1.713   1.669  14.963  0.3225 -0.5536  0.3441
  657TMC3     C 9779   1.874   1.482  14.634  0.3702  0.2287 -0.5210
  657TMC3     O 9780   1.823   1.374  14.601 -0.3870 -0.2672 -0.1547
  657TMC3     H 9781   1.734   1.373  14.814 -0.7811 -0.5082  1.6084
  657TMC3    H1 9782   1.873   1.746  14.675  1.6875  0.4665  0.5957
  657TMC3    H2 9783   1.669   1.704  15.055 -1.0800  1.6845 -1.1684
  657TMC3    C7 9784   1.733   1.888  14.855  0.1455 -0.2722  0.5425
  657TMC3    C8 9785   1.555   1.503  14.964  1.0463 -1.3397  0.1091
  657TMC3    O1 9786   1.746   1.943  14.747  0.2105 -0.1500  0.2242
  657TMC3    O2 9787   1.477   1.599  14.966 -0.1315 -0.2924 -0.2173
  658MPD2     C 9788   3.302   2.233  15.064 -0.1776  0.1409 -0.0339
  658MPD2    C1 9789   3.205   2.297  14.988  0.2304  0.0977  0.0352
  658MPD2    C2 9790   3.248   2.372  14.880 -0.9498  0.1345 -0.0767
  658MPD2    C3 9791   3.380   2.373  14.839 -0.2335  0.5958  0.8176
  658MPD2    C4 9792   3.478   2.311  14.916 -0.2544  0.2720 -0.0046
  658MPD2    C5 9793   3.438   2.241  15.028 -0.1909 -0.4596  0.3321
  658MPD2     H 9794   3.177   2.444  14.842 -0.3840 -0.3782 -2.1094
  658MPD2    H1 9795   3.583   2.335  14.904 -0.6054  1.0069 -1.6495
  658MPD2    H2 9796   3.262   2.182  15.150  0.2542 -1.3444 -0.6983
  658MPD2    H3 9797   3.506   2.196  15.099 -0.9285  1.6076  2.3581
  658MPD2     N 9798   3.424   2.446  14.731 -0.0504  0.2240 -0.3295
  658MPD2    H5 9799   3.523   2.438  14.710 -0.3543  0.0367 -1.7312
  658MPD2    N1 9800   3.080   2.295  15.040  0.3332 -0.1286  0.2826
  658MPD2    H7 9801   3.070   2.269  15.137  0.4321 -1.9256 -0.1940
  659TMC3    C1 9802   2.860   2.388  15.041  0.4518 -0.4928  0.1437
  659TMC3    C2 9803   2.890   2.441  15.167  0.2173 -0.2092  0.3003
  659TMC3    C3 9804   2.817   2.552  15.201  0.0661 -0.4504  0.1439
  659TMC3    C4 9805   2.763   2.440  14.963 -0.6226 -0.0946  0.4969
  659TMC3    C5 9806   2.689   2.541  15.006  0.3670  0.1001 -0.1496
  659TMC3    C6 9807   2.713   2.598  15.127  0.7791 -0.0537 -0.0912
  659TMC3     C 9808   2.972   2.338  14.963 -0.2841 -1.2478  0.3831
  659TMC3     O 9809   2.959   2.350  14.839  0.3552 -0.2700  0.2247
  659TMC3     H 9810   2.984   2.415  15.215 -1.2324  0.6418  3.5589
  659TMC3    H1 9811   2.744   2.403  14.862  4.4439 -2.9059  0.5433
  659TMC3    H2 9812   2.636   2.663  15.166 -0.0914 -1.1625  0.0570
  659TMC3    C7 9813   2.555   2.532  14.954  0.2584  0.1500 -0.3846
  659TMC3    C8 9814   2.795   2.576  15.342  0.0978 -0.3251 -0.2117
  659TMC3    O1 9815   2.519   2.429  14.898 -0.0101  0.2736  0.4922
  659TMC3    O2 9816   2.724   2.671  15.371 -0.0960 -0.1633  0.2853
  660MPD2     C 9817   0.872   1.280  12.641 -0.3500 -0.0892 -0.3344
  660MPD2    C1 9818   0.732   1.297  12.655  0.0771  0.1218  0.1075
  660MPD2    C2 9819   0.671   1.281  12.771  0.0153  0.2120 -0.1413
  660MPD2    C3 9820   0.741   1.237  12.879 -0.5929 -0.0172  0.0356
  660MPD2    C4 9821   0.878   1.218  12.866 -0.1066  0.1312 -0.6499
  660MPD2    C5 9822   0.943   1.244  12.745  0.0822  0.3870 -0.2456
  660MPD2     H 9823   0.563   1.282  12.782 -0.2228  2.0882 -2.6159
  660MPD2    H1 9824   0.940   1.198  12.952 -1.6349 -0.3736  0.3333
  660MPD2    H2 9825   0.923   1.306  12.549 -1.5116  0.1558 -0.9092
  660MPD2    H3 9826   1.050   1.231  12.732 -0.4740 -0.6669 -3.6901
  660MPD2     N 9827   0.677   1.222  13.006 -0.7710 -0.0012  0.4591
  660MPD2    H5 9828   0.730   1.175  13.079 -0.5309 -0.6936 -0.1626
  660MPD2    N1 9829   0.657   1.343  12.545 -0.0194  0.3605  0.7129
  660MPD2    H7 9830   0.710   1.344  12.458 -0.3203 -1.7634  0.5054
  661TMC3    C1 9831   0.471   1.424  12.423  0.0648  0.3685 -0.1985
  661TMC3    C2 9832   0.549   1.448  12.315  0.7252  0.5037  0.8793
  661TMC3    C3 9833   0.491   1.458  12.192 -0.0634  0.0084 -0.3234
  661TMC3    C4 9834   0.339   1.404  12.409  0.2722 -0.5344 -0.3623
  661TMC3    C5 9835   0.286   1.409  12.283 -0.3202  0.5239 -0.5140
  661TMC3    C6 9836   0.353   1.435  12.165 -0.1728  0.2878 -0.1433
  661TMC3     C 9837   0.535   1.405  12.550 -0.7286 -0.4347  0.0381
  661TMC3     O 9838   0.452   1.422  12.639  0.1748 -0.2332  0.6812
  661TMC3     H 9839   0.650   1.486  12.330 -0.1440  1.9304  3.1554
  661TMC3    H1 9840   0.284   1.394  12.502 -1.9412  1.1362 -1.5012
  661TMC3    H2 9841   0.303   1.446  12.069  0.6852 -3.1612 -0.9538
  661TMC3    C7 9842   0.157   1.342  12.277 -0.7686  0.2468  0.7132
  661TMC3    C8 9843   0.580   1.465  12.075 -0.3221  0.4149  0.7085
  661TMC3    O1 9844   0.093   1.309  12.375 -0.1249 -0.1868 -0.2451
  661TMC3    O2 9845   0.674   1.386  12.087 -0.2431  0.2035 -0.1908
  662MPD2     C 9846   1.021   0.928  17.232 -0.0941 -0.4537  0.4940
  662MPD2    C1 9847   1.000   0.997  17.345 -0.4303  0.8111  0.2321
  662MPD2    C2 9848   1.002   1.132  17.338  0.2509 -0.4129 -0.4356
  662MPD2    C3 9849   1.006   1.196  17.214  0.2042  0.1645 -0.4158
  662MPD2    C4 9850   1.033   1.130  17.097 -0.0439  0.7117  0.0046
  662MPD2    C5 9851   1.042   0.996  17.116 -0.2140  0.4968  0.2459
  662MPD2     H 9852   0.974   1.186  17.427 -1.6337  0.2785 -1.4400
  662MPD2    H1 9853   1.045   1.174  16.998 -3.0160 -1.4639 -1.3397
  662MPD2    H2 9854   1.013   0.820  17.240 -0.2645 -0.2639  2.9504
  662MPD2    H3 9855   1.050   0.930  17.031 -0.3827  1.7071 -0.7028
  662MPD2     N 9856   0.997   1.337  17.199 -0.0224 -0.6816 -0.0311
  662MPD2    H5 9857   1.026   1.370  17.107  0.8243  0.8782  0.8010
  662MPD2    N1 9858   0.965   0.935  17.468  0.6062 -0.1837  0.5855
  662MPD2    H7 9859   0.947   1.003  17.541  0.3367  0.5768 -0.1860
  663TMC3    C1 9860   0.843   0.804  17.605 -0.0018 -0.0591  0.6556
  663TMC3    C2 9861   0.806   0.919  17.664  0.6071 -0.2174 -0.8381
  663TMC3    C3 9862   0.681   0.932  17.726  0.0714  0.3727 -0.7809
  663TMC3    C4 9863   0.762   0.691  17.615  0.2634 -0.1125 -0.2007
  663TMC3    C5 9864   0.635   0.707  17.669 -0.1491  0.0204  0.2943
  663TMC3    C6 9865   0.595   0.828  17.727  0.2786 -0.6356 -0.3174
  663TMC3     C 9866   0.930   0.806  17.490 -0.3463  0.3952 -0.0593
  663TMC3     O 9867   0.929   0.706  17.415  0.4608  0.2886  0.0249
  663TMC3     H 9868   0.878   0.986  17.709 -1.0885  0.5617  0.7214
  663TMC3    H1 9869   0.794   0.605  17.558 -0.3453  0.0981 -0.8553
  663TMC3    H2 9870   0.502   0.832   0.029  0.6945  0.9357  0.2530
  663TMC3    C7 9871   0.547   0.598  17.704 -0.0209  0.2555 -0.1194
  663TMC3    C8 9872   0.688   1.017   0.095 -0.3801  0.5520 -0.0907
  663TMC3    O1 9873   0.435   0.623  17.751 -0.0304 -0.5824  0.8042
  663TMC3    O2 9874   0.726   1.133   0.099 -0.0916 -0.1612  0.4845
  664MPD2     C 9875   3.444   4.226  17.581 -0.2842  0.5001  0.0273
  664MPD2    C1 9876   3.547   4.264  17.665  0.3907 -0.0065  0.2273
  664MPD2    C2 9877   3.599   4.180   0.011  0.6012  0.9131  0.0572
  664MPD2    C3 9878   3.537   4.059   0.039 -0.3942  0.0056  0.7193
  664MPD2    C4 9879   3.431   4.011  17.713 -0.1965 -0.2389 -0.6936
  664MPD2    C5 9880   3.390   4.101  17.611 -0.0329  0.0503 -0.0722
  664MPD2     H 9881   3.685   4.207   0.073 -0.9110  0.2273  2.4596
  664MPD2    H1 9882   3.388   3.912  17.723  1.0207 -0.4411  2.7849
  664MPD2    H2 9883   3.400   4.287  17.503 -3.4163 -0.2282  1.2228
  664MPD2    H3 9884   3.305   4.078  17.548  1.7648  0.2305 -2.5359
  664MPD2     N 9885   3.592   3.995   0.150  0.0838  0.3627 -0.0294
  664MPD2    H5 9886   3.658   4.046   0.207 -0.5180  0.7066  0.3646
  664MPD2    N1 9887   3.610   4.387  17.661  0.2892  0.9693  0.1456
  664MPD2    H7 9888   3.696   4.401  17.713  0.5657  0.0727 -0.0571
  665TMC3    C1 9889   3.610   3.874   0.343 -0.2825 -0.3102 -0.2508
  665TMC3    C2 9890   3.534   3.819   0.444  0.3951  0.2557  0.2122
  665TMC3    C3 9891   3.540   3.871   0.568  0.6253  0.0900 -0.8480
  665TMC3    C4 9892   3.702   3.974   0.372  0.3132  0.7047 -0.2561
  665TMC3    C5 9893   3.695   4.041   0.492  0.5542  0.2092 -0.0659
  665TMC3    C6 9894   3.610   3.990   0.590 -0.0964 -0.5572 -0.7309
  665TMC3     C 9895   3.548   3.883   0.212  0.0834 -0.4249  1.0055
  665TMC3     O 9896   3.471   3.798   0.167  0.0783  0.2722  0.0287
  665TMC3     H 9897   3.465   3.739   0.419  0.1375  0.4771  0.2205
  665TMC3    H1 9898   3.769   3.996   0.290  0.3634 -1.2740 -0.7408
  665TMC3    H2 9899   3.601   4.032   0.689 -0.8387  0.7088 -1.3309
  665TMC3    C7 9900   3.700   4.186   0.484 -0.4285  0.2839 -0.6418
  665TMC3    C8 9901   3.479   3.803   0.681  0.9248 -0.2666  0.6708
  665TMC3    O1 9902   3.711   4.226   0.368  0.5450 -0.3114  0.0295
  665TMC3    O2 9903   3.470   3.868   0.787 -0.6526  0.7365  0.0095
  666TMC3    C1 9904   2.227   3.942   9.413 -0.2151 -0.4152 -0.9325
  666TMC3    C2 9905   2.339   3.874   9.457 -0.0251 -0.2851  0.3059
  666TMC3    C3 9906   2.451   3.946   9.454  0.2420 -0.5032 -0.4830
  666TMC3    C4 9907   2.219   4.076   9.392  0.2325 -0.0046 -0.4360
  666TMC3    C5 9908   2.333   4.145   9.414  0.4405  0.3366  0.5073
  666TMC3    C6 9909   2.448   4.079   9.427 -0.1384  0.6516  0.0693
  666TMC3     C 9910   2.109   3.865   9.384  0.1153 -0.3706 -0.5000
  666TMC3     O 9911   2.108   3.763   9.453 -0.2982 -0.1873 -0.1638
  666TMC3     H 9912   2.337   3.766   9.460  1.7161 -0.3465 -1.1155
  666TMC3    H1 9913   2.123   4.126   9.399  0.5113  0.4983 -0.2414
  666TMC3    H2 9914   2.539   4.136   9.441  0.7422 -0.1492 -2.4408
  666TMC3    C7 9915   2.328   4.259   9.505  0.1031  0.0646 -0.8324
  666TMC3    C8 9916   2.558   3.884   9.534 -0.2202 -0.5142  0.1267
  666TMC3    O1 9917   2.417   4.279   9.589  0.1019 -0.0009  0.1374
  666TMC3    O2 9918   2.526   3.796   9.607  0.1549  0.9032 -0.4358
  667MPD2     C 9919   0.265   4.211  14.293 -0.3414 -0.2205 -0.2226
  667MPD2    C1 9920   0.263   4.136  14.414  1.0458 -0.0164 -0.8168
  667MPD2    C2 9921   0.196   4.016  14.417 -0.6131  0.4812 -0.0891
  667MPD2    C3 9922   0.130   3.973  14.302  0.8720 -0.3477 -0.6357
  667MPD2    C4 9923   0.137   4.050  14.184 -0.5497 -0.3397  0.7515
  667MPD2    C5 9924   0.205   4.167  14.181 -0.3075 -0.2730 -0.0822
  667MPD2     H 9925   0.204   3.953  14.504  1.5431 -0.9340 -1.3056
  667MPD2    H1 9926   0.102   4.016  14.088 -1.6046  0.2824  0.9226
  667MPD2    H2 9927   0.310   4.309  14.307  0.9544 -0.9096  0.3767
  667MPD2    H3 9928   0.208   4.228  14.092  2.7397  0.3393  0.4348
  667MPD2     N 9929   0.058   3.848  14.297  0.6376 -0.2966 -0.3164
  667MPD2    H5 9930   0.006   3.824  14.214 -0.0837  0.7023 -0.1535
  667MPD2    N1 9931   0.332   4.175  14.533  0.1798  0.1435  0.8204
  667MPD2    H7 9932   0.328   4.111  14.611  2.4239  0.3304  1.0752
  668TMC3    C1 9933   0.446   4.320  14.697 -0.1821 -0.1198 -0.0104
  668TMC3    C2 9934   0.551   4.413  14.708  0.5647 -1.0225  0.3302
  668TMC3    C3 9935   0.551   4.497  14.818 -0.2075 -0.8384 -0.2605
  668TMC3    C4 9936   0.345   4.306  14.793 -0.3100 -0.3420  0.3599
  668TMC3    C5 9937   0.357   4.388  14.903 -0.0158 -1.4191  0.2434
  668TMC3    C6 9938   0.456   4.479  14.916  0.1801 -0.9832 -0.2685
  668TMC3     C 9939   0.416   4.285  14.550 -0.4452  0.0543  0.0463
  668TMC3     O 9940   0.460   4.354  14.458 -0.0657 -0.0237 -0.5271
  668TMC3     H 9941   0.628   4.433  14.634 -1.8193 -0.1675 -1.9383
  668TMC3    H1 9942   0.251   4.258  14.767  0.2219 -0.9337 -0.4763
  668TMC3    H2 9943   0.460   4.542  15.004 -0.2174  2.0939 -2.4407
  668TMC3    C7 9944   0.300   4.346  15.030  0.1592  0.7229  0.1809
  668TMC3    C8 9945   0.637   4.612  14.836 -0.3018  0.6183 -0.3256
  668TMC3    O1 9946   0.354   4.371  15.132 -0.0367 -0.1093  0.3056
  668TMC3    O2 9947   0.653   4.654  14.952  0.6131  0.0726 -0.2561
  669TMC3    C1 9948   2.813   3.827  15.183 -0.3528  0.8434 -0.0187
  669TMC3    C2 9949   2.729   3.822  15.072 -0.3421 -0.3086  0.5519
  669TMC3    C3 9950   2.751   3.910  14.967  1.3923  0.2830 -0.2569
  669TMC3    C4 9951   2.923   3.907  15.176 -0.3417 -0.2253  0.1789
  669TMC3    C5 9952   2.935   4.000  15.075 -0.1246 -0.0696  0.5900
  669TMC3    C6 9953   2.852   4.007  14.966  0.2808 -0.4452  0.1793
  669TMC3     C 9954   2.823   3.710  15.276  0.9439  0.3309 -0.3422
  669TMC3     O 9955   2.906   3.717  15.364  0.1288  0.6140  0.0033
  669TMC3     H 9956   2.638   3.763  15.076 -0.2379 -0.8055 -4.0721
  669TMC3    H1 9957   2.997   3.899  15.256 -0.0272 -2.3635 -0.3223
  669TMC3    H2 9958   2.866   4.088  14.895 -1.6147 -0.8433 -0.6644
  669TMC3    C7 9959   3.072   4.057  15.068  0.6598 -0.1997  0.1623
  669TMC3    C8 9960   2.663   3.915  14.845  0.3528 -0.6605 -0.7755
  669TMC3    O1 9961   3.127   4.054  14.958 -0.2165  0.8444  0.4345
  669TMC3    O2 9962   2.693   4.005  14.768 -0.2997 -0.0461 -0.1805
  670MPD2     C 9963   0.956   1.965  13.505 -0.6673  0.1376 -0.3642
  670MPD2    C1 9964   1.080   2.020  13.493  0.3724  0.5337  0.3073
  670MPD2    C2 9965   1.175   1.997  13.591  0.3761  0.3174  0.0292
  670MPD2    C3 9966   1.149   1.920  13.702  0.4296  0.3759  0.0669
  670MPD2    C4 9967   1.027   1.863  13.708  0.1283 -0.7314 -0.1583
  670MPD2    C5 9968   0.931   1.887  13.613 -0.7260  0.6530  0.5906
  670MPD2     H 9969   1.272   2.043  13.576 -0.2105  0.9927 -1.6594
  670MPD2    H1 9970   0.998   1.789  13.782 -0.4024  0.9117  1.2747
  670MPD2    H2 9971   0.874   1.972  13.434 -0.0887  0.8318 -0.9555
  670MPD2    H3 9972   0.833   1.841  13.620  0.4585 -1.8477  0.9432
  670MPD2     N 9973   1.245   1.904  13.807 -0.5603 -0.3152 -0.8765
  670MPD2    H5 9974   1.335   1.950  13.794 -0.7411  0.1064 -0.6395
  670MPD2    N1 9975   1.118   2.091  13.379  0.4560 -0.2244 -0.4411
  670MPD2    H7 9976   1.211   2.132  13.381  0.5404 -0.3627 -1.2226
  671TMC3    C1 9977   1.347   1.805  14.001 -0.2427  0.4486 -0.1956
  671TMC3    C2 9978   1.458   1.770  13.935 -0.4242 -0.0338  0.2524
  671TMC3    C3 9979   1.559   1.744  14.027  0.2353 -0.6007  0.3279
  671TMC3    C4 9980   1.320   1.773  14.135 -0.1045 -0.0057 -0.1349
  671TMC3    C5 9981   1.413   1.697  14.197 -0.2391 -0.7560  0.1387
  671TMC3    C6 9982   1.538   1.693  14.150  0.0343  0.1196  0.5472
  671TMC3     C 9983   1.222   1.834  13.923 -1.0846  0.6797  1.0754
  671TMC3     O 9984   1.119   1.793  13.973  0.1583  0.3121 -0.0008
  671TMC3     H 9985   1.479   1.804  13.835 -2.1857  0.4447  0.0531
  671TMC3    H1 9986   1.222   1.784  14.180 -1.3161 -0.9712 -2.4973
  671TMC3    H2 9987   1.614   1.646  14.212  0.5491 -0.2403 -0.3570
  671TMC3    C7 9988   1.354   1.573  14.216  0.1050 -0.6032 -0.2266
  671TMC3    C8 9989   1.684   1.687  13.969 -0.2594 -0.6566  0.2868
  671TMC3    O1 9990   1.231   1.563  14.210  0.5488 -0.2328  0.1148
  671TMC3    O2 9991   1.681   1.663  13.846  0.2148  0.2386 -0.1892
  672MPD2     C 9992   1.136   1.896   0.965 -0.4021  0.2322 -0.1066
  672MPD2    C1 9993   1.257   1.861   0.907  0.5376 -0.0879 -0.2257
  672MPD2    C2 9994   1.362   1.952   0.920  0.2098 -0.2135 -0.2634
  672MPD2    C3 9995   1.347   2.075   0.973  0.6923 -0.0512  0.4230
  672MPD2    C4 9996   1.221   2.111   1.020 -0.1187 -0.0861  0.2072
  672MPD2    C5 9997   1.121   2.018   1.020 -0.7864 -0.7060  0.2953
  672MPD2     H 9998   1.456   1.914   0.883 -0.7817 -2.2788 -0.6839
  672MPD2    H1 9999   1.199   2.205   1.070 -0.5123  0.3724 -0.8274
  672MPD2    H210000   1.056   1.829   0.995 -0.7053 -0.1650 -1.7810
  672MPD2    H310001   1.025   2.039   1.065 -0.2924  0.0427  0.9977
  672MPD2     N10002   1.454   2.170   0.976 -0.4024 -0.2685  0.3211
  672MPD2    H510003   1.430   2.265   1.001  2.5015  0.8224 -0.9787
  672MPD2    N110004   1.269   1.734   0.839  0.2347  0.5694 -0.2589
  672MPD2    H710005   1.361   1.712   0.803  0.4680 -0.1950  0.7968
  673TMC3    C110006   1.203   1.557   0.702  0.3399  0.1256  0.1929
  673TMC3    C210007   1.331   1.523   0.665 -0.6573  0.3298 -0.1065
  673TMC3    C310008   1.365   1.498   0.538 -0.5132 -0.1302 -0.1207
  673TMC3    C410009   1.111   1.576   0.603  0.5448 -0.5493 -0.4602
  673TMC3    C510010   1.147   1.559   0.475  0.4997  0.4247 -0.4851
  673TMC3    C610011   1.273   1.516   0.437 -0.2847  0.0742  0.3677
  673TMC3     C10012   1.172   1.645   0.813 -0.0411 -0.2595  0.0889
  673TMC3     O10013   1.050   1.655   0.838 -0.0268 -0.3763 -0.5133
  673TMC3     H10014   1.407   1.522   0.743 -2.5268 -2.8365  1.6854
  673TMC3    H110015   1.007   1.599   0.624  0.7824  0.2421 -0.1445
  673TMC3    H210016   1.289   1.489   0.334 -2.0670  2.3893 -0.5333
  673TMC3    C710017   1.091   1.633   0.363 -0.1106 -0.4580  0.3211
  673TMC3    C810018   1.500   1.495   0.487  0.1617  0.4380  0.1841
  673TMC3    O110019   1.142   1.622   0.250  0.6106 -0.2965 -0.0410
  673TMC3    O210020   1.526   1.524   0.371 -0.3578  0.1852  0.3844
  674MPD2     C10021   1.042   2.337  17.493  0.1756  0.0481  0.0397
  674MPD2    C110022   1.002   2.209  17.521  0.0064  1.0340 -0.5812
  674MPD2    C210023   0.876   2.198  17.574 -0.8436  0.5865  0.5644
  674MPD2    C310024   0.798   2.296  17.622 -0.5508  0.6021  0.1210
  674MPD2    C410025   0.849   2.415  17.610 -0.1518 -0.9095 -0.3926
  674MPD2    C510026   0.961   2.441  17.537  0.3046  0.9058  0.1709
  674MPD2     H10027   0.841   2.097  17.594 -0.5038  0.1187 -1.1499
  674MPD2    H110028   0.792   2.504  17.632 -0.7096 -1.4118  0.1891
  674MPD2    H210029   1.140   2.362  17.453  0.9750  0.0677  1.9897
  674MPD2    H310030   1.004   2.539  17.523 -0.6002  1.4068  1.0229
  674MPD2     N10031   0.683   2.262  17.693  0.4273 -0.4447  1.0708
  674MPD2    H510032   0.638   2.173  17.672  0.7661 -0.3412 -0.1093
  674MPD2    N110033   1.090   2.107  17.503  0.0003 -0.0206 -0.5461
  674MPD2    H710034   1.187   2.134  17.487 -0.1766  0.7758 -0.2987
  675TMC3    C110035   1.159   1.893  17.586  0.4478  0.1454 -0.2191
  675TMC3    C210036   1.153   1.760  17.559 -0.6713 -0.3761 -0.0272
  675TMC3    C310037   1.209   1.681  17.654 -0.0317 -0.1600 -0.5643
  675TMC3    C410038   1.217   1.947  17.699  1.2785  0.4278 -0.2175
  675TMC3    C510039   1.280   1.860   0.034  0.3511 -0.0360  0.6473
  675TMC3    C610040   1.282   1.727   0.007 -0.2356  0.5370 -0.0107
  675TMC3     C10041   1.056   1.975  17.523 -0.0428 -0.6796  0.5140
  675TMC3     O10042   0.953   1.923  17.492 -0.0255  0.4442 -0.0343
  675TMC3     H10043   1.100   1.720  17.473  0.6573  1.9318 -1.9076
  675TMC3    H110044   1.216   2.054  17.714  1.2338  0.4567 -0.4268
  675TMC3    H210045   1.328   1.657   0.075  0.7655  0.8800 -0.3313
  675TMC3    C710046   1.327   1.897   0.163  0.0290  0.4181 -0.4357
  675TMC3    C810047   1.202   1.535  17.643  0.0708  0.0634 -0.4949
  675TMC3    O110048   1.423   1.829   0.204 -0.3623 -0.8091 -0.3424
  675TMC3    O210049   1.220   1.491  17.531 -0.4700 -0.9368 -0.2497
  676MPD2     C10050   4.391   4.068  10.244  0.5826  0.7213  0.2872
  676MPD2    C110051   4.316   4.034  10.356 -0.9689  0.4853  0.1062
  676MPD2    C210052   4.275   3.901  10.367  0.0657 -0.7260 -0.4778
  676MPD2    C310053   4.300   3.809  10.262  0.4347 -0.4003 -0.0509
  676MPD2    C410054   4.365   3.850  10.154  0.0212  0.1961 -0.2514
  676MPD2    C510055   4.413   3.978  10.147  0.0553 -0.6113 -0.1944
  676MPD2     H10056   4.214   3.880  10.455  0.7478  0.3078  0.2411
  676MPD2    H110057   4.389   3.788  10.068 -0.0646  1.5534 -1.2435
  676MPD2    H210058   4.422   4.168  10.217 -2.6101  1.8038  0.5820
  676MPD2    H310059   4.472   4.014  10.063  0.3764  1.0310  0.7294
  676MPD2     N10060   4.249   3.679  10.251 -0.5390 -0.7547  0.5800
  676MPD2    H510061   4.264   3.623  10.168  1.0973 -0.8127  0.9163
  676MPD2    N110062   4.274   4.123  10.454 -0.1020  0.0060  0.5884
  676MPD2    H710063   4.219   4.082  10.529  0.3634 -0.9250  0.4113
  677TMC3    C110064   4.246   4.337  10.557  0.2094  0.6348 -0.0416
  677TMC3    C210065   4.137   4.303  10.634  0.5229 -0.6738 -0.9096
  677TMC3    C310066   4.082   4.404  10.714 -0.0364  0.0062  0.1743
  677TMC3    C410067   4.299   4.462  10.564  0.3648 -0.1566  0.0669
  677TMC3    C510068   4.243   4.559  10.647  0.5007 -0.0471  0.6025
  677TMC3    C610069   4.141   4.528  10.728  0.1449  0.3472  1.1631
  677TMC3     C10070   4.295   4.258  10.448  0.8348 -0.3116  0.0207
  677TMC3     O10071   4.359   4.323  10.364  0.4803  0.3992 -0.1827
  677TMC3     H10072   4.093   4.204  10.638  1.9469 -1.1913  1.8174
  677TMC3    H110073   4.388   4.486  10.506 -0.6107  1.6799 -0.6544
  677TMC3    H210074   4.125   4.601  10.806 -1.3794  3.1066 -1.7213
  677TMC3    C710075   4.344   4.651  10.700 -0.3581 -0.2253 -0.8246
  677TMC3    C810076   4.024   4.351  10.835  0.1691 -0.0913  0.1284
  677TMC3    O110077   4.309   0.015  10.762 -0.4719 -0.4985 -0.2233
  677TMC3    O210078   4.089   4.265  10.892 -0.3633  0.1649  0.2950
  678MPD2     C10079   0.096   4.357   1.437 -0.1321  0.2465  0.3023
  678MPD2    C110080   0.088   4.419   1.314 -0.0677 -0.0684  1.0241
  678MPD2    C210081   4.730   4.514   1.287  0.0831 -0.5324  0.0791
  678MPD2    C310082   4.634   4.533   1.387  0.1284  0.2901  0.3178
  678MPD2    C410083   4.649   4.467   1.510 -0.1692 -0.3280 -0.6756
  678MPD2    C510084   0.004   4.379   1.535  0.6929  0.1609  0.4673
  678MPD2     H10085   4.732   4.571   1.194  3.1700 -0.0655  0.4330
  678MPD2    H110086   4.573   4.481   1.586 -1.7396 -1.7315 -1.9861
  678MPD2    H210087   0.174   4.291   1.474  2.3101  1.7988 -2.0815
  678MPD2    H310088   0.005   4.316   1.623  0.0382  0.2337  0.5304
  678MPD2     N10089   4.541   4.628   1.355  0.4849 -0.0068  0.2369
  678MPD2    H510090   4.519   4.650   1.258  1.3210 -1.8780 -0.3650
  678MPD2    N110091   0.183   4.392   1.214  0.1921 -0.0552  0.4154
  678MPD2    H710092   0.177   4.442   1.125 -1.0499 -1.7175 -0.4396
  679TMC3    C110093   0.605   4.308   1.049  1.4063 -0.7617 -0.6416
  679TMC3    C210094   0.511   4.272   1.148  0.4145 -0.5614 -0.2083
  679TMC3    C310095   0.385   4.314   1.122  0.9404 -0.3124 -0.3947
  679TMC3    C410096   0.576   4.388   0.943 -0.2125  0.3921  0.8661
  679TMC3    C510097   0.446   4.416   0.926 -0.3176 -0.1643 -0.0639
  679TMC3    C610098   0.352   4.391   1.016 -0.3890  0.4059 -0.0237
  679TMC3     C10099   0.749   4.272   1.063  0.3879  0.2663  0.1158
  679TMC3     O10100   0.817   4.279   0.960 -0.2405  0.0661  0.4576
  679TMC3     H10101   0.529   4.212   1.236 -0.1053  0.8486  0.8527
  679TMC3    H110102   0.655   4.439   0.889 -1.0698 -0.2765 -1.0271
  679TMC3    H210103   0.247   4.407   0.993 -0.2522 -0.0163 -0.9542
  679TMC3    C710104   0.412   4.523   0.836 -0.3110 -0.7117  0.2416
  679TMC3    C810105   0.286   4.305   1.231 -0.4861  0.3641 -0.2189
  679TMC3    O110106   0.316   4.593   0.868 -0.4601  0.2230 -0.4268
  679TMC3    O210107   0.316   4.230   1.323  0.8199  0.3408 -0.2009
  680MPD2     C10108   0.685   3.872  13.750 -0.4359  0.1174 -0.2670
  680MPD2    C110109   0.771   3.823  13.841  0.1015  0.0160  0.2925
  680MPD2    C210110   0.875   3.892  13.892  0.7526 -0.3457  0.2447
  680MPD2    C310111   0.891   4.023  13.864 -0.1344 -0.4858 -0.3259
  680MPD2    C410112   0.799   4.083  13.776  0.9647  0.5181 -0.5242
  680MPD2    C510113   0.698   4.007  13.720 -0.2921 -0.0292 -0.1526
  680MPD2     H10114   0.942   3.832  13.953 -0.1592 -0.7909  0.7979
  680MPD2    H110115   0.807   4.190  13.761 -2.7906  0.9239  0.4477
  680MPD2    H210116   0.611   3.806  13.705 -1.6685  1.0574  0.3964
  680MPD2    H310117   0.631   4.038  13.641 -0.6899 -1.4447 -0.3797
  680MPD2     N10118   0.997   4.100  13.910 -0.5606 -0.6693 -0.1606
  680MPD2    H510119   0.994   4.200  13.892  0.1681 -1.2060 -3.1926
  680MPD2    N110120   0.770   3.690  13.886  0.1375 -0.1142 -0.3964
  680MPD2    H710121   0.852   3.660  13.939 -1.4745 -0.7337  1.7138
  681TMC3    C110122   0.719   3.466  13.926  0.2291 -0.2447  0.0334
  681TMC3    C210123   0.680   3.444  14.052 -0.7627  0.0789  0.1198
  681TMC3    C310124   0.771   3.392  14.150 -0.1812 -0.0010  0.2262
  681TMC3    C410125   0.847   3.440  13.890 -0.4547  0.1731  0.3740
  681TMC3    C510126   0.935   3.379  13.975  0.3141  0.5919  0.3809
  681TMC3    C610127   0.900   3.352  14.108  0.0676 -0.0172  0.1554
  681TMC3     C10128   0.674   3.595  13.876  0.1875 -0.7642  0.0340
  681TMC3     O10129   0.569   3.594  13.820  0.1324  0.1330  0.2387
  681TMC3     H10130   0.589   3.489  14.089 -1.7107 -0.0903 -1.9920
  681TMC3    H110131   0.864   3.475  13.789  1.3483  0.5488  0.8007
  681TMC3    H210132   0.963   3.292  14.172 -2.8126 -2.5461  0.6024
  681TMC3    C710133   1.075   3.365  13.942  0.6853  0.2131  0.9487
  681TMC3    C810134   0.744   3.436  14.288 -0.0703  0.3091  0.1447
  681TMC3    O110135   1.130   3.279  14.014 -0.3714  0.3481  0.0206
  681TMC3    O210136   0.623   3.464  14.304 -0.0245  0.3755 -0.4133
  682MPD2     C10137   2.403   0.222  10.669 -0.4620  0.0225 -0.6030
  682MPD2    C110138   2.437   0.085  10.648 -0.1435 -0.0594  0.1944
  682MPD2    C210139   2.457   0.000  10.758  0.5478 -0.6137  0.5590
  682MPD2    C310140   2.438   0.045  10.889 -0.2698  0.5676  0.7684
  682MPD2    C410141   2.415   0.180  10.909 -0.1969  0.3031  0.4546
  682MPD2    C510142   2.408   0.271  10.799  0.2056 -0.1018 -0.1682
  682MPD2     H10143   2.478   4.634  10.741 -0.9553 -0.7675 -0.3644
  682MPD2    H110144   2.421   0.219  11.010 -3.3114  0.9759  0.3847
  682MPD2    H210145   2.387   0.289  10.585  2.6696  1.4330 -0.0991
  682MPD2    H310146   2.384   0.376  10.811  0.0339 -0.0782 -0.7131
  682MPD2     N10147   2.464   4.710  11.003 -0.4209  0.0808  0.3158
  682MPD2    H510148   2.444   0.017  11.092 -0.4898 -0.4834  0.5948
  682MPD2    N110149   2.435   0.026  10.521  0.4530  0.2650 -0.0968
  682MPD2    H710150   2.435   4.664  10.525  2.7258  0.1789 -2.1958
  683TMC3    C110151   2.434   4.537  11.366 -0.0896 -0.9040  0.0478
  683TMC3    C210152   2.430   4.400  11.383 -0.2548 -0.5150  0.1156
  683TMC3    C310153   2.461   4.323  11.274 -0.6002  0.0931 -0.1265
  683TMC3    C410154   2.465   4.598  11.246 -0.0082  0.3911 -0.3200
  683TMC3    C510155   2.487   4.516  11.142 -0.9030 -0.4308 -0.0051
  683TMC3    C610156   2.489   4.379  11.153 -0.0810 -0.0340  0.1108
  683TMC3     C10157   2.451   4.612  11.491  0.7635  0.2162 -0.2670
  683TMC3     O10158   2.477   4.731  11.475 -0.0066 -0.2150 -0.3144
  683TMC3     H10159   2.382   4.350  11.466 -0.1919 -0.5130  0.1532
  683TMC3    H110160   2.443   4.704  11.243 -0.7712  0.2482  0.4687
  683TMC3    H210161   2.504   4.325  11.060 -1.4188 -1.1602  0.5609
  683TMC3    C710162   2.493   4.573  11.005  0.7536 -0.4646 -0.0310
  683TMC3    C810163   2.412   4.190  11.265  0.7598  0.2770  1.1127
  683TMC3    O110164   2.521   4.496  10.914 -0.1624  0.1901  0.5513
  683TMC3    O210165   2.321   4.163  11.342  0.7257  0.3355  0.3129
  684MPD2     C10166   1.436   4.083  16.426 -0.4406 -0.7577 -0.1951
  684MPD2    C110167   1.356   4.146  16.332 -0.1296 -0.0572  1.0212
  684MPD2    C210168   1.268   4.247  16.371 -0.2297 -0.1371 -0.6113
  684MPD2    C310169   1.263   4.297  16.501  0.2899  0.0487 -0.4811
  684MPD2    C410170   1.339   4.230  16.592 -0.5592  0.5206  0.0194
  684MPD2    C510171   1.422   4.124  16.556  0.3747 -0.3861  0.7738
  684MPD2     H10172   1.206   4.290  16.295  0.0112  1.3424  0.0321
  684MPD2    H110173   1.346   4.271  16.693  0.9469 -1.0012  0.5371
  684MPD2    H210174   1.501   3.999  16.407  0.7607  0.0753  0.2120
  684MPD2    H310175   1.497   4.086  16.625  0.5689 -2.1617 -0.4174
  684MPD2     N10176   1.203   4.414  16.541 -0.4106  0.3645  0.5449
  684MPD2    H510177   1.210   4.437  16.640  2.5271  0.2257  0.3401
  684MPD2    N110178   1.359   4.114  16.192 -0.5777 -0.3194 -0.5050
  684MPD2    H710179   1.280   4.145  16.137 -0.8402 -0.1103 -0.0153
  685TMC3    C110180   1.464   4.083  15.989  0.9554 -0.6111  0.1357
  685TMC3    C210181   1.372   4.164  15.923  0.2388  0.0359 -0.1105
  685TMC3    C310182   1.415   4.255  15.830  0.3131 -0.5343 -0.5468
  685TMC3    C410183   1.600   4.089  15.949 -0.6393 -0.0843  0.3217
  685TMC3    C510184   1.642   4.179  15.852  0.1327  0.5779 -0.3125
  685TMC3    C610185   1.542   4.257  15.788  0.3221 -0.4864 -0.2394
  685TMC3     C10186   1.461   4.051  16.129  0.5496  0.8819  0.3605
  685TMC3     O10187   1.571   4.021  16.173 -0.3107  0.5196  0.0265
  685TMC3     H10188   1.267   4.160  15.949  0.7355 -0.0394  1.8939
  685TMC3    H110189   1.678   4.028  15.993 -0.6245  0.4677  1.0540
  685TMC3    H210190   1.571   4.330  15.712 -0.9374 -0.6743 -0.8966
  685TMC3    C710191   1.771   4.236  15.864  0.2415 -0.2877  0.3603
  685TMC3    C810192   1.317   4.317  15.740 -0.1911 -0.4707 -0.0379
  685TMC3    O110193   1.817   4.311  15.782 -0.0747  0.7879  0.3099
  685TMC3    O210194   1.350   4.333  15.623  0.3299  0.0197  0.1328
  686MPD2     C10195   2.437   4.331  15.820  0.1089  0.5289  0.1287
  686MPD2    C110196   2.524   4.254  15.890  0.1791  0.3637  0.2091
  686MPD2    C210197   2.616   4.166  15.829 -0.7470 -0.2370 -0.1212
  686MPD2    C310198   2.601   4.132  15.695  0.1927 -0.0693 -0.3690
  686MPD2    C410199   2.500   4.203  15.628  0.1150 -0.0494 -0.0696
  686MPD2    C510200   2.436   4.309  15.683 -0.1732 -0.4412  0.6471
  686MPD2     H10201   2.699   4.139  15.893 -0.4042  0.2595 -0.3539
  686MPD2    H110202   2.480   4.185  15.523  2.5516  1.7500 -0.8406
  686MPD2    H210203   2.362   4.399  15.859 -0.3632 -1.2021  2.2749
  686MPD2    H310204   2.372   4.367  15.616  0.8406  1.0072  0.9278
  686MPD2     N10205   2.669   4.027  15.625 -1.0063  0.2517  0.3505
  686MPD2    H510206   2.635   3.990  15.536  2.2713 -0.1077 -0.7602
  686MPD2    N110207   2.549   4.279  16.026 -0.0969 -0.4417 -0.3680
  686MPD2    H710208   2.610   4.218  16.080  0.8443  1.9192  1.1896
  687TMC3    C110209   2.822   3.858  15.619 -0.8611  0.3110 -0.5847
  687TMC3    C210210   2.697   3.796  15.622 -0.3931 -0.5931 -0.1765
  687TMC3    C310211   2.661   3.698  15.716 -0.4245  0.7640  0.0410
  687TMC3    C410212   2.913   3.810  15.709 -0.0438 -0.0425  0.1310
  687TMC3    C510213   2.873   3.720  15.800  0.2130  0.3786 -0.7306
  687TMC3    C610214   2.753   3.656  15.802  0.1277  0.3974 -0.9498
  687TMC3     C10215   2.800   3.998  15.646  0.1844 -0.1542 -0.6162
  687TMC3     O10216   2.870   4.059  15.724  0.4996 -0.4638  0.1286
  687TMC3     H10217   2.638   3.816  15.533 -0.1331 -0.3623 -0.2969
  687TMC3    H110218   3.012   3.853  15.721 -0.6478  1.5934 -0.8466
  687TMC3    H210219   2.717   3.596  15.885  1.1416  0.8371 -0.1897
  687TMC3    C710220   2.909   3.784  15.923 -0.3545 -0.6860 -0.3148
  687TMC3    C810221   2.543   3.738  15.788  0.3688  0.6548 -0.0818
  687TMC3    O110222   3.020   3.838  15.934 -0.3269 -0.3034 -0.2956
  687TMC3    O210223   2.534   3.703  15.905  0.4605 -0.2273  0.1387
  688MPD2     C10224   1.618   3.168  17.365 -0.0308 -0.3152 -0.2809
  688MPD2    C110225   1.655   3.040  17.401  0.0309  0.8268 -0.3216
  688MPD2    C210226   1.772   2.983  17.340 -0.4707  0.6062  1.0179
  688MPD2    C310227   1.844   3.053  17.258 -0.1875 -0.5618 -0.5294
  688MPD2    C410228   1.813   3.188  17.228  0.8927  0.4056  0.1641
  688MPD2    C510229   1.694   3.233  17.276 -0.5095  0.4328 -0.2768
  688MPD2     H10230   1.812   2.888  17.374 -2.8259 -0.4627  0.7593
  688MPD2    H110231   1.858   3.237  17.143 -0.7047  0.9860 -0.3610
  688MPD2    H210232   1.542   3.235  17.404  1.4599  2.1841 -1.6105
  688MPD2    H310233   1.665   3.335  17.253 -1.3443  0.5763  1.3889
  688MPD2     N10234   1.961   3.008  17.191  0.3768 -0.4929 -0.0900
  688MPD2    H510235   2.014   3.085  17.150  0.4169 -0.2886  0.3524
  688MPD2    N110236   1.577   2.972  17.498  0.2868 -0.3230  0.6041
  688MPD2    H710237   1.614   2.880  17.519  0.7521 -0.2286  0.2084
  689TMC3    C110238   1.429   2.934  17.683  0.3017  0.2725  0.3781
  689TMC3    C210239   1.412   2.996   0.044 -0.1915  0.1455 -0.3778
  689TMC3    C310240   1.377   2.923   0.156  0.3091  0.0953  0.2384
  689TMC3    C410241   1.421   2.798  17.668 -0.5291  0.5961  0.5244
  689TMC3    C510242   1.382   2.728   0.026 -0.7857 -0.0366 -0.7413
  689TMC3    C610243   1.360   2.786   0.149  0.5003 -0.1790  0.1008
  689TMC3     C10244   1.470   3.022  17.569 -0.1519  0.1625  0.6005
  689TMC3     O10245   1.419   3.133  17.565  0.4470 -0.1556  0.7518
  689TMC3     H10246   1.420   3.103   0.054  1.6035  0.1095 -1.4615
  689TMC3    H110247   1.460   2.746  17.582 -2.7450  1.0931 -0.7719
  689TMC3    H210248   1.307   2.726   0.223  0.3641  1.1625  1.0767
  689TMC3    C710249   1.368   2.590   0.025 -0.0686 -0.0352  0.1167
  689TMC3    C810250   1.316   2.988   0.266 -0.3777  0.0272  0.2589
  689TMC3    O110251   1.382   2.533   0.136 -0.3135 -0.0500  0.5735
  689TMC3    O210252   1.301   2.931   0.372  0.0927 -0.4324 -0.1509
  690MPD2     C10253   4.665   0.462  15.532  0.6702 -0.3709 -0.0456
  690MPD2    C110254   4.562   0.467  15.446  0.3523  0.5321 -0.0979
  690MPD2    C210255   4.590   0.485  15.303 -0.1881 -0.2659 -0.0191
  690MPD2    C310256   4.723   0.499  15.262  0.4524  0.0549  0.1211
  690MPD2    C410257   0.084   0.490  15.361  0.5417 -0.0451  0.4044
  690MPD2    C510258   0.049   0.473  15.492 -0.7517  0.5097 -0.1340
  690MPD2     H10259   4.508   0.491  15.232  1.0649  3.7324 -1.1360
  690MPD2    H110260   0.190   0.484  15.340  0.6424 -1.8440  1.3720
  690MPD2    H210261   4.649   0.450  15.638 -3.1708 -1.5843 -0.7453
  690MPD2    H310262   0.130   0.467  15.564 -1.8012 -0.0345  0.9851
  690MPD2     N10263   0.028   0.516  15.129  0.4709 -0.0841  0.1306
  690MPD2    H510264   4.686   0.529  15.070  0.6898 -1.8236 -0.5407
  690MPD2    N110265   4.432   0.442  15.494  0.4965  0.0770  0.6449
  690MPD2    H710266   4.361   0.413  15.428  0.1943  0.2728  0.8780
  691TMC3    C110267   4.265   0.397  15.654  0.2920 -0.8866 -0.2310
  691TMC3    C210268   4.152   0.421  15.573  0.9483 -0.3431 -0.3362
  691TMC3    C310269   4.030   0.374  15.616  0.6632 -0.0273 -0.1026
  691TMC3    C410270   4.249   0.334  15.776 -0.9065  0.2317 -0.5664
  691TMC3    C510271   4.125   0.290  15.816 -0.3413  0.1609  0.1780
  691TMC3    C610272   4.017   0.315  15.735 -0.3922  0.0482  0.5035
  691TMC3     C10273   4.394   0.455  15.629  0.2235  0.4486  0.6003
  691TMC3     O10274   4.456   0.501  15.723 -0.0529 -0.1271 -0.4267
  691TMC3     H10275   4.165   0.464  15.474  0.2378 -2.0542 -1.1731
  691TMC3    H110276   4.341   0.290  15.813 -0.4157  2.9211  1.4428
  691TMC3    H210277   3.917   0.291  15.768  0.3121  1.6323  3.8022
  691TMC3    C710278   4.120   0.188  15.925  0.3098 -0.4615 -0.0492
  691TMC3    C810279   3.929   0.352  15.508  0.0778  0.3852  0.1491
  691TMC3    O110280   4.210   0.216  16.002  0.5536 -0.3259  0.1356
  691TMC3    O210281   3.972   0.358  15.397 -0.2171  0.6242 -0.2732
  692TMC3    C110282   0.938   0.837  15.777 -0.2271 -0.0879 -0.1144
  692TMC3    C210283   1.057   0.875  15.714 -0.3275  0.3108  0.7534
  692TMC3    C310284   1.156   0.780  15.684  0.3709 -0.3077 -0.6264
  692TMC3    C410285   0.929   0.712  15.838 -0.3783 -0.4753  0.1619
  692TMC3    C510286   1.032   0.625  15.817 -0.0617  0.6659  0.3798
  692TMC3    C610287   1.144   0.654  15.744  0.5412 -0.0697  0.6120
  692TMC3     C10288   0.876   0.942  15.855 -0.3608  0.0964  0.5591
  692TMC3     O10289   0.774   0.920  15.915 -0.3840 -0.1679 -0.0867
  692TMC3     H10290   1.062   0.968  15.658 -2.7699 -0.4999 -0.8234
  692TMC3    H110291   0.839   0.679  15.888  0.5221 -1.6170  1.0698
  692TMC3    H210292   1.242   0.620  15.776  0.8629 -0.2995 -0.6107
  692TMC3    C710293   1.029   0.512  15.900 -0.3571  0.1752  0.2107
  692TMC3    C810294   1.289   0.840  15.695  0.5062 -0.3222 -0.4053
  692TMC3    O110295   0.961   0.524  15.999 -0.0864 -0.7581 -0.1108
  692TMC3    O210296   1.356   0.854  15.595 -0.6247 -0.3035  0.2988
  693MPD2     C10297   0.386   3.604  10.624  0.4263  0.1759 -0.5298
  693MPD2    C110298   0.316   3.483  10.624  0.2453  0.1091  0.2149
  693MPD2    C210299   0.390   3.365  10.620 -0.4950  0.2081 -0.1509
  693MPD2    C310300   0.537   3.371  10.616 -0.7729  0.2384 -0.1164
  693MPD2    C410301   0.601   3.498  10.613 -0.2491 -0.1838 -0.2701
  693MPD2    C510302   0.525   3.610  10.610 -0.4182  0.0386 -0.4140
  693MPD2     H10303   0.337   3.271  10.637  0.4647 -0.3715 -0.3888
  693MPD2    H110304   0.706   3.501  10.586 -0.1855  0.4778  0.0554
  693MPD2    H210305   0.332   3.693  10.656 -0.4242 -0.7173  0.5044
  693MPD2    H310306   0.572   3.707  10.604 -0.6224  0.1737  0.1674
  693MPD2     N10307   0.626   3.266  10.627  0.9153 -0.9353  0.2457
  693MPD2    H510308   0.724   3.289  10.610  0.0170  1.2327 -1.8575
  693MPD2    N110309   0.179   3.488  10.648  0.4922  0.1037  0.4399
  693MPD2    H710310   0.134   3.576  10.671 -1.6547 -0.9412  0.3037
  694TMC3    C110311   4.695   3.411  10.673 -0.4811  0.2390 -0.6560
  694TMC3    C210312   4.586   3.329  10.640  0.0258 -0.4092  0.4882
  694TMC3    C310313   4.481   3.328  10.721 -0.1768  1.0291  0.0378
  694TMC3    C410314   4.696   3.480  10.793 -0.4912  0.6158 -0.5395
  694TMC3    C510315   4.585   3.477  10.869 -0.5806  0.8163  0.3730
  694TMC3    C610316   4.473   3.403  10.832 -0.1791 -0.6008 -0.3691
  694TMC3     C10317   0.095   3.380  10.626 -0.6551 -0.8029  0.3003
  694TMC3     O10318   0.123   3.287  10.554 -0.1390  1.0007 -0.2746
  694TMC3     H10319   4.602   3.252  10.565  1.5575  0.1991  0.1885
  694TMC3    H110320   0.050   3.502  10.845  0.9191  0.3120 -2.9304
  694TMC3    H210321   4.380   3.414  10.886 -0.3662 -2.9162 -0.2299
  694TMC3    C710322   4.590   3.544  10.992  0.2753 -0.3865  0.0761
  694TMC3    C810323   4.352   3.269  10.681 -0.8551  0.2980 -0.1612
  694TMC3    O110324   4.672   3.629  11.011 -0.0331  0.0287 -0.5361
  694TMC3    O210325   4.271   3.241  10.769  0.0696 -0.4915  0.0266
  695MPD2     C10326   1.576   0.907  13.318  0.1394 -0.5264 -0.7692
  695MPD2    C110327   1.607   1.014  13.398  0.0081 -0.1745  0.1182
  695MPD2    C210328   1.507   1.094  13.447 -0.5083  0.8426 -0.2179
  695MPD2    C310329   1.374   1.067  13.422  0.0662 -0.4057 -0.6315
  695MPD2    C410330   1.341   0.967  13.331  0.2205  0.4464 -0.1032
  695MPD2    C510331   1.444   0.892  13.285 -0.1195 -0.2833  0.0220
  695MPD2     H10332   1.534   1.160  13.529 -1.0432  0.5106  0.2252
  695MPD2    H110333   1.238   0.943  13.310 -0.2501  1.8493  0.6055
  695MPD2    H210334   1.656   0.842  13.284  2.5537  0.2895  3.3479
  695MPD2    H310335   1.412   0.813  13.217  0.5415 -0.6599  0.1428
  695MPD2     N10336   1.278   1.140  13.506 -0.0700  0.5428  0.5307
  695MPD2    H510337   1.306   1.190  13.589 -1.4647  0.5894  0.9642
  695MPD2    N110338   1.732   1.034  13.454  0.1182  0.3765  0.3791
  695MPD2    H710339   1.739   1.117  13.511 -1.2797  2.4618 -2.4502
  696TMC3    C110340   1.073   1.191  13.597  0.6249 -0.6351 -0.0010
  696TMC3    C210341   1.110   1.150  13.720  0.4641 -0.8779  0.5875
  696TMC3    C310342   1.020   1.190  13.824 -0.1119 -0.1341  0.1623
  696TMC3    C410343   0.958   1.251  13.567 -0.5971  0.5024  0.1610
  696TMC3    C510344   0.872   1.289  13.669  0.0205 -0.4764 -0.3353
  696TMC3    C610345   0.902   1.259  13.800 -0.0594  0.1024 -0.5796
  696TMC3     C10346   1.147   1.154  13.480 -0.1015  0.8867  0.2377
  696TMC3     O10347   1.086   1.134  13.377 -0.2909 -0.3568  0.3717
  696TMC3     H10348   1.207   1.108  13.743  0.7941  0.6208  1.9834
  696TMC3    H110349   0.943   1.279  13.463  0.5138 -2.0139 -0.6586
  696TMC3    H210350   0.844   1.288  13.887 -1.1349 -0.9392 -0.9537
  696TMC3    C710351   0.755   1.369  13.625  0.8752 -0.1418 -0.6878
  696TMC3    C810352   1.078   1.226  13.950  0.4529 -0.1942  0.0500
  696TMC3    O110353   0.726   1.376  13.505  0.2156 -0.6580 -0.7681
  696TMC3    O210354   1.020   1.308  14.019 -0.3306 -0.2003 -0.4821
  697MPD2     C10355   0.687   2.883  15.806  0.5624 -0.0032 -0.0717
  697MPD2    C110356   0.736   2.835  15.685  0.3560  0.2096 -0.3623
  697MPD2    C210357   0.756   2.925  15.586  0.1563  0.0205 -0.2712
  697MPD2    C310358   0.745   3.059  15.611  0.2059  0.0374  0.2086
  697MPD2    C410359   0.710   3.104  15.735  0.3014 -0.7231  0.3126
  697MPD2    C510360   0.678   3.010  15.825 -0.4621  0.8992  0.3669
  697MPD2     H10361   0.783   2.890  15.486 -1.1151 -1.4090 -0.1126
  697MPD2    H110362   0.707   3.209  15.763  3.4779 -0.8515  1.0849
  697MPD2    H210363   0.661   2.823  15.892  1.0085 -0.7479 -0.4531
  697MPD2    H310364   0.632   3.042  15.918 -0.5250 -0.4073  0.7918
  697MPD2     N10365   0.778   3.142  15.500 -0.8719  0.1945 -0.0856
  697MPD2    H510366   0.797   3.099  15.410  1.8009 -2.0170  1.5196
  697MPD2    N110367   0.752   2.694  15.665 -0.7384  0.1862 -0.8254
  697MPD2    H710368   0.751   2.652  15.573  0.4132 -0.2364 -0.6424
  698TMC3    C110369   0.802   3.358  15.393 -0.5471  0.3162 -1.1696
  698TMC3    C210370   0.829   3.491  15.408 -0.0285  0.2809 -0.5943
  698TMC3    C310371   0.868   3.561  15.297 -0.4120  0.0559 -0.3333
  698TMC3    C410372   0.780   3.306  15.268 -0.2063 -0.0768 -0.6195
  698TMC3    C510373   0.807   3.385  15.161  0.1493 -0.0572 -0.3007
  698TMC3    C610374   0.845   3.518  15.170 -0.1343 -0.3775  0.2651
  698TMC3     C10375   0.790   3.278  15.515  0.0634  0.6279 -0.5468
  698TMC3     O10376   0.788   3.347  15.612 -0.0002 -0.4380 -0.5108
  698TMC3     H10377   0.847   3.534  15.506  0.2251 -1.8197  0.2849
  698TMC3    H110378   0.751   3.202  15.253 -1.9695  0.0657  1.7554
  698TMC3    H210379   0.825   3.586  15.088 -0.5016  0.7310  1.2838
  698TMC3    C710380   0.780   3.337  15.025  0.0028  0.0854  0.5958
  698TMC3    C810381   0.870   3.705  15.315  0.3005  1.1491 -0.0212
  698TMC3    O110382   0.699   3.403  14.963  0.0193  0.5389 -0.2054
  698TMC3    O210383   0.789   3.750  15.394  0.3035  0.8205 -0.1577
  699TMC3    C110384   0.511   1.216  13.168 -0.1888  0.2154 -0.6456
  699TMC3    C210385   0.591   1.124  13.227  0.1954 -0.7096  0.8212
  699TMC3    C310386   0.556   1.093  13.357 -0.5633 -0.2271  0.1722
  699TMC3    C410387   0.408   1.283  13.225 -0.7550 -0.2093  0.9429
  699TMC3    C510388   0.399   1.265  13.365  0.6149 -0.3285  0.8303
  699TMC3    C610389   0.472   1.172  13.433  0.1101  0.5721  0.6543
  699TMC3     C10390   0.552   1.264  13.034 -0.1585  0.4373 -0.5083
  699TMC3     O10391   0.475   1.336  12.972  0.1115  0.8072 -0.2998
  699TMC3     H10392   0.650   1.062  13.160  0.3790 -3.1041  3.1860
  699TMC3    H110393   0.368   1.372  13.179 -1.9493 -0.6318  1.1690
  699TMC3    H210394   0.463   1.154  13.540  1.5701  0.2668  0.7310
  699TMC3    C710395   0.349   1.369  13.464  0.1575 -0.3842 -0.3949
  699TMC3    C810396   0.611   0.976  13.419 -0.2291  0.6040 -0.3069
  699TMC3    O110397   0.375   1.343  13.581  0.0673 -0.1782 -0.4313
  699TMC3    O210398   0.592   0.952  13.535 -0.2525 -0.3671 -0.2803
  700TMC3    C110399   4.542   3.341  16.774  0.5716 -0.3767 -0.0188
  700TMC3    C210400   4.602   3.220  16.738  0.5140 -0.0828  0.9315
  700TMC3    C310401   4.622   3.133  16.844  0.1957  0.2078 -0.9595
  700TMC3    C410402   4.496   3.358  16.895 -0.5564  0.3558 -0.0632
  700TMC3    C510403   4.507   3.265  16.993 -0.0344  0.1635  0.1944
  700TMC3    C610404   4.593   3.155  16.981 -0.6519  0.0987  0.3958
  700TMC3     C10405   4.565   3.452  16.682  0.3472  0.1525 -0.3179
  700TMC3     O10406   4.619   3.414  16.578  0.0617  0.3200 -0.5501
  700TMC3     H10407   4.621   3.189  16.636  1.2490 -0.5805  1.2168
  700TMC3    H110408   4.455   3.453  16.928  0.4969  1.2582 -1.3591
  700TMC3    H210409   4.632   3.104  17.068  0.3211 -0.4238 -0.3342
  700TMC3    C710410   4.483   3.314  17.123  0.4652 -0.0483  0.4841
  700TMC3    C810411   4.729   3.043  16.810  0.3088  0.0767 -0.1564
  700TMC3    O110412   4.539   3.423  17.141 -0.2821 -0.2765 -0.4959
  700TMC3    O210413   0.037   3.044  16.696  0.1098  0.3260 -0.3743
  701TMC3    C110414   0.236   2.120  15.886  0.0586  0.2318 -0.1583
  701TMC3    C210415   0.228   2.078  15.757  0.4454 -0.0142 -0.1700
  701TMC3    C310416   0.292   2.158  15.663 -0.0200  0.2509  0.0812
  701TMC3    C410417   0.313   2.228  15.920 -0.8595  0.3111  0.0022
  701TMC3    C510418   0.389   2.297  15.830  0.3357 -0.0078  0.0482
  701TMC3    C610419   0.372   2.259  15.700  0.0442  0.2178  0.1520
  701TMC3     C10420   0.128   2.085  15.976  0.0754 -0.1351 -0.0029
  701TMC3     O10421   0.105   2.172  16.064  0.1455 -0.3390  0.3100
  701TMC3     H10422   0.156   2.004  15.723  0.2897 -0.0196  0.1749
  701TMC3    H110423   0.313   2.256  16.025 -2.4721 -1.0064  0.3409
  701TMC3    H210424   0.434   2.307  15.625 -0.5957 -1.3331 -1.3620
  701TMC3    C710425   0.387   2.438  15.838  0.3208 -0.3472  0.5565
  701TMC3    C810426   0.315   2.095  15.534  0.3892 -0.0243 -0.0203
  701TMC3    O110427   0.346   2.494  15.737  0.2023  0.1866 -0.0886
  701TMC3    O210428   0.425   2.126  15.493  0.1190  0.3686 -0.0705
  702MPD2     C10429   3.661   3.841  10.152 -0.4378  0.3991  0.4110
  702MPD2    C110430   3.800   3.838  10.121 -0.2105 -0.0497 -0.2583
  702MPD2    C210431   3.873   3.960  10.123 -0.1146 -0.5903  0.6510
  702MPD2    C310432   3.805   4.077  10.167 -0.0581 -0.0623  0.2648
  702MPD2    C410433   3.671   4.074  10.193  0.2066  0.3912  0.4188
  702MPD2    C510434   3.605   3.958  10.190 -0.0670 -0.3000 -0.0789
  702MPD2     H10435   3.980   3.963  10.106 -0.4097 -0.9456 -1.2363
  702MPD2    H110436   3.619   4.166  10.218  0.3265 -0.0263  2.1831
  702MPD2    H210437   3.605   3.750  10.169  0.1470  0.4087  2.4170
  702MPD2    H310438   3.500   3.965  10.218 -0.7853 -0.0854 -2.7552
  702MPD2     N10439   3.871   4.205  10.185 -0.2990 -0.7883  0.0899
  702MPD2    H510440   3.810   4.280  10.217 -2.0189 -0.2627 -4.4114
  702MPD2    N110441   3.865   3.714  10.090  0.0679  0.6061  0.2583
  702MPD2    H710442   3.962   3.734  10.070  0.2520 -0.9716 -0.4271
  703TMC3    C110443   4.042   4.359  10.242 -0.1355 -0.8058 -0.2043
  703TMC3    C210444   3.951   4.428  10.310 -0.5685 -0.6104  0.5965
  703TMC3    C310445   3.958   4.570  10.305  0.0908 -0.3525  0.1558
  703TMC3    C410446   4.150   4.424  10.179 -0.4824 -0.1259 -0.9459
  703TMC3    C510447   4.160   4.558  10.176 -0.2058 -0.3429 -0.5508
  703TMC3    C610448   4.063   4.635  10.247  0.7385  0.4174  0.1579
  703TMC3     C10449   4.005   4.228  10.194 -0.1318 -0.3144 -0.2167
  703TMC3     O10450   4.089   4.164  10.136  0.1158  0.1331  0.1607
  703TMC3     H10451   3.884   4.378  10.378 -0.3152 -1.0583  0.5201
  703TMC3    H110452   4.216   4.349  10.137  1.1049  0.7588  0.0056
  703TMC3    H210453   4.065   0.004  10.242 -3.2754  0.5473  1.6118
  703TMC3    C710454   4.296   4.610  10.150 -0.8835 -0.2589  0.0384
  703TMC3    C810455   3.908   4.630  10.420 -0.1265 -0.3401  0.3995
  703TMC3    O110456   4.302   4.730  10.118  0.3941 -0.2255  0.1688
  703TMC3    O210457   3.988   4.708  10.472 -0.5327 -0.2739  0.1226
  704TMC3    C110458   1.756   2.956  11.941  0.6574  0.0841  0.0033
  704TMC3    C210459   1.668   2.916  11.849 -0.1237 -0.0320  0.9381
  704TMC3    C310460   1.716   2.866  11.732  0.5556  0.4914  0.9136
  704TMC3    C410461   1.890   2.947  11.916 -0.3567  0.3235  0.3756
  704TMC3    C510462   1.936   2.887  11.805  0.4175 -0.1905 -0.6793
  704TMC3    C610463   1.850   2.848  11.711 -0.0603  0.1714  0.1627
  704TMC3     C10464   1.714   2.936  12.081  0.0158  0.5227 -0.3619
  704TMC3     O10465   1.789   2.972  12.171 -0.2435 -0.5781  0.0686
  704TMC3     H10466   1.561   2.924  11.861 -0.3195  1.1535 -1.7226
  704TMC3    H110467   1.958   2.972  11.996 -1.4037  1.0036  1.0551
  704TMC3    H210468   1.894   2.791  11.630 -1.6026 -1.2535  0.3364
  704TMC3    C710469   2.009   2.766  11.836  0.1562  0.1723  0.4274
  704TMC3    C810470   1.638   2.755  11.679  0.4223  0.4306 -0.2824
  704TMC3    O110471   1.949   2.664  11.812  0.6446 -0.3776 -0.3464
  704TMC3    O210472   1.562   2.699  11.762  0.2048  0.2559 -0.1995
  705MPD2     C10473   1.313   0.622  16.545  0.8022  0.3117 -0.1929
  705MPD2    C110474   1.305   0.752  16.497 -0.0601  0.6743 -0.2305
  705MPD2    C210475   1.215   0.844  16.546  0.1849 -0.1756  0.7360
  705MPD2    C310476   1.133   0.804  16.652  0.2220  0.0707  0.2725
  705MPD2    C410477   1.140   0.673  16.701  0.2469 -0.3301  0.1390
  705MPD2    C510478   1.229   0.584  16.644  0.2007 -0.0717  0.2773
  705MPD2     H10479   1.222   0.948  16.519  0.0908  0.0856  1.7266
  705MPD2    H110480   1.071   0.638  16.778  0.2413  0.9031  0.6924
  705MPD2    H210481   1.391   0.553  16.514  0.0617  0.1779 -1.7086
  705MPD2    H310482   1.223   0.479  16.668  0.1155 -0.7627 -2.7398
  705MPD2     N10483   1.044   0.895  16.709 -0.0023 -0.2777 -0.5651
  705MPD2    H510484   0.995   0.857  16.789 -0.6806  1.3766 -0.2017
  705MPD2    N110485   1.395   0.803  16.399  0.0722 -0.4179 -0.3334
  705MPD2    H710486   1.393   0.904  16.390 -0.6427 -0.0782  4.0149
  706TMC3    C110487   1.715   0.807  16.056 -0.1368 -0.0410 -0.2889
  706TMC3    C210488   1.721   0.940  16.056 -0.4676 -0.7701  0.2055
  706TMC3    C310489   1.652   1.007  16.153 -0.6081  0.2580 -0.6065
  706TMC3    C410490   1.639   0.739  16.145 -0.0920  0.8871  0.3881
  706TMC3    C510491   1.568   0.807  16.243  0.1873 -0.6672  0.1391
  706TMC3    C610492   1.568   0.943  16.240 -0.2600 -0.1856  0.0684
  706TMC3     C10493   1.773   0.742  15.945  0.0044 -0.4428 -0.0687
  706TMC3     O10494   1.893   0.752  15.927 -0.4688  0.2739 -0.1320
  706TMC3     H10495   1.781   0.995  15.985 -1.5603 -1.5568 -1.3198
  706TMC3    H110496   1.632   0.631  16.136  0.9957  0.8945 -0.5054
  706TMC3    H210497   1.514   0.997  16.317  0.9842 -0.2697  0.9909
  706TMC3    C710498   1.484   0.728  16.329 -0.2423  0.1287 -0.2443
  706TMC3    C810499   1.661   1.151  16.147  0.3184 -0.5610  0.0838
  706TMC3    O110500   1.484   0.608  16.306  0.2692  0.2639 -0.0124
  706TMC3    O210501   1.708   1.199  16.044  0.0002  0.1535  0.4991
  707TMC3    C110502   3.314   0.205   1.279 -0.1861 -0.5132  0.0542
  707TMC3    C210503   3.384   0.164   1.389  0.0985 -0.1431  0.6739
  707TMC3    C310504   3.334   0.050   1.445  0.0772 -0.8055 -0.1879
  707TMC3    C410505   3.201   0.153   1.235 -0.2808  0.4743 -0.1896
  707TMC3    C510506   3.149   0.040   1.297 -0.0818 -0.1505 -0.2405
  707TMC3    C610507   3.211   4.733   1.409 -0.0232  0.4120 -0.0131
  707TMC3     C10508   3.376   0.321   1.213  0.3281 -0.2627 -0.1268
  707TMC3     O10509   3.391   0.415   1.288  0.5604 -0.3533 -0.3228
  707TMC3     H10510   3.480   0.205   1.417  0.5021 -1.4665  1.2108
  707TMC3    H110511   3.153   0.199   1.149  1.4531  0.4851 -1.1483
  707TMC3    H210512   3.171   4.646   1.459 -0.6215  1.9259  2.1105
  707TMC3    C710513   3.086   4.676   1.218  0.9158 -0.6140 -0.3720
  707TMC3    C810514   3.420   4.702   1.518  0.0169 -0.2709  0.5847
  707TMC3    O110515   3.008   4.593   1.260 -0.3040 -0.3312 -1.1607
  707TMC3    O210516   3.522   0.009   1.564  0.9573 -0.1064 -0.0340
  708MPD2     C10517   4.441   4.292  13.841 -0.0225 -1.0491  0.0243
  708MPD2    C110518   4.350   4.242  13.933 -0.2791 -0.2172  0.3161
  708MPD2    C210519   4.393   4.215  14.063 -0.2890  0.2040  0.3020
  708MPD2    C310520   4.525   4.239  14.099 -0.3990  0.1296  0.0573
  708MPD2    C410521   4.610   4.304  14.010 -0.4748  0.0753  0.4978
  708MPD2    C510522   4.566   4.337  13.883  0.1501 -0.2476  0.1366
  708MPD2     H10523   4.320   4.168  14.128  2.4500 -0.6392  2.7722
  708MPD2    H110524   4.714   4.330  14.025  0.0889 -2.7211  1.4842
  708MPD2    H210525   4.406   4.321  13.742  1.4777  1.1815  0.1617
  708MPD2    H310526   4.635   4.379  13.811 -0.4177  3.0217  1.5348
  708MPD2     N10527   4.576   4.210  14.229  0.1694 -0.0389  0.1116
  708MPD2    H510528   4.665   4.250  14.256  0.4752  0.7156 -2.0956
  708MPD2    N110529   4.219   4.207  13.906 -0.0192  0.4806  0.1023
  708MPD2    H710530   4.177   4.154  13.981  1.5309 -3.1672 -1.6155
  709TMC3    C110531   4.050   4.119  13.808  0.2519 -0.4964 -0.3101
  709TMC3    C210532   4.058   3.998  13.752 -0.8969  0.4047 -0.6327
  709TMC3    C310533   4.027   3.890  13.830  0.0750 -1.2101  0.2850
  709TMC3    C410534   3.999   4.128  13.935  1.3812 -0.1376 -0.1854
  709TMC3    C510535   3.948   4.014  14.005  0.1012 -0.6347 -0.0625
  709TMC3    C610536   3.974   3.895  13.955 -0.4699 -0.4181  0.2091
  709TMC3     C10537   4.164   4.202  13.780  0.1883  0.2976  0.3569
  709TMC3     O10538   4.212   4.212  13.665  0.5366  0.3455  0.2982
  709TMC3     H10539   4.081   3.998  13.646  1.6800 -3.6967 -0.0680
  709TMC3    H110540   3.988   4.224  13.983  1.6112 -0.7267  1.0509
  709TMC3    H210541   3.959   3.804  14.013  0.2980 -0.1784  0.7821
  709TMC3    C710542   3.993   4.030  14.137  0.3579  0.0243 -0.1316
  709TMC3    C810543   4.058   3.758  13.779  0.0138  0.5493 -0.7664
  709TMC3    O110544   4.091   4.105  14.146  0.1596  0.4843 -0.2325
  709TMC3    O210545   4.003   3.668  13.843 -0.2760  0.6515 -0.1849
  710TMC3    C110546   0.139   0.599   0.794 -0.3054  0.3231 -0.2283
  710TMC3    C210547   0.226   0.675   0.720  0.0180  0.4851  0.1317
  710TMC3    C310548   0.339   0.611   0.670  0.2124 -0.0832 -0.1786
  710TMC3    C410549   0.145   0.463   0.806 -0.0197  0.2257  0.5300
  710TMC3    C510550   0.252   0.407   0.742  0.3691 -0.2441 -0.6728
  710TMC3    C610551   0.350   0.477   0.676  0.4994 -0.0205 -0.1364
  710TMC3     C10552   0.023   0.661   0.847 -0.2957  0.6784  0.2300
  710TMC3     O10553   4.671   0.587   0.869  0.6958 -0.5934 -0.1828
  710TMC3     H10554   0.214   0.780   0.696 -0.7892  0.2409 -0.5081
  710TMC3    H110555   0.064   0.402   0.846 -0.5666  1.3270  1.1130
  710TMC3    H210556   0.446   0.433   0.650 -0.0775 -2.2277  1.5494
  710TMC3    C710557   0.251   0.266   0.720  0.1659  0.0950 -0.3463
  710TMC3    C810558   0.453   0.687   0.602  0.3660  0.2482 -0.6501
  710TMC3    O110559   0.190   0.188   0.798  0.4302  0.3066  0.4457
  710TMC3    O210560   0.517   0.616   0.527 -0.4582  0.1643 -0.2563
  711TMC3    C110561   0.572   1.894  15.077  1.0192 -0.6525  0.0392
  711TMC3    C210562   0.557   1.825  15.193 -1.1320  0.4577  0.8734
  711TMC3    C310563   0.612   1.887  15.298  0.7819 -0.6033  0.4024
  711TMC3    C410564   0.640   2.014  15.071  0.2698  0.5065  0.4025
  711TMC3    C510565   0.707   2.057  15.179 -0.0914  0.5200 -0.4314
  711TMC3    C610566   0.675   2.005  15.301  0.6024  0.1998 -0.3662
  711TMC3     C10567   0.481   1.862  14.969  0.5823 -0.0444 -0.4321
  711TMC3     O10568   0.400   1.771  14.987 -0.4927  0.0268  0.5396
  711TMC3     H10569   0.526   1.721  15.194  0.2135  0.0847  2.4560
  711TMC3    H110570   0.645   2.078  14.984  2.4628 -1.8881 -1.2396
  711TMC3    H210571   0.726   2.036  15.391  0.9164  0.1444 -0.5221
  711TMC3    C710572   0.854   2.036  15.160 -0.0719  0.2726 -0.6273
  711TMC3    C810573   0.660   1.790  15.396 -0.2026 -0.4620  0.1189
  711TMC3    O110574   0.920   2.012  15.262  0.2895  0.5557 -0.6588
  711TMC3    O210575   0.594   1.689  15.407  0.0116 -0.0925  0.2540
  712MPD2     C10576   1.643   2.749  14.038  0.1164  0.6521  0.0931
  712MPD2    C110577   1.544   2.840  14.022  0.2480  0.1469  0.2590
  712MPD2    C210578   1.567   2.966  14.071 -0.0487 -0.4014  0.1958
  712MPD2    C310579   1.681   3.014  14.134  0.3388  0.0066  0.6272
  712MPD2    C410580   1.792   2.931  14.133  0.1576 -0.1234  0.1487
  712MPD2    C510581   1.761   2.798  14.089  0.4121  0.0113 -0.4993
  712MPD2     H10582   1.487   3.038  14.054 -0.6617 -1.5824 -1.9828
  712MPD2    H110583   1.890   2.948  14.176  0.2084  1.4209 -0.6030
  712MPD2    H210584   1.631   2.646  14.008 -0.8699  1.5578 -2.6200
  712MPD2    H310585   1.842   2.725  14.091 -1.4018 -1.9235  2.3023
  712MPD2     N10586   1.699   3.142  14.185 -0.6764  0.3169 -0.5203
  712MPD2    H510587   1.786   3.170  14.229 -1.7387  1.3621  0.9112
  712MPD2    N110588   1.418   2.811  13.963 -0.4078 -1.0938  0.3096
  712MPD2    H710589   1.359   2.891  13.943 -2.7569 -2.3779  2.1318
  713TMC3    C110590   1.631   3.364  14.246 -0.0545 -0.6506 -0.5073
  713TMC3    C210591   1.748   3.384  14.315 -0.0981 -0.2605 -0.2377
  713TMC3    C310592   1.789   3.510  14.333 -0.2244 -0.1056  0.3085
  713TMC3    C410593   1.550   3.472  14.214  0.3459  0.7096  0.4562
  713TMC3    C510594   1.596   3.598  14.229  0.3183  0.0559 -0.9706
  713TMC3    C610595   1.725   3.618  14.280  0.1754 -0.0211 -0.5346
  713TMC3     C10596   1.599   3.235  14.192  0.3001  0.7004  0.1896
  713TMC3     O10597   1.477   3.218  14.183  0.2156 -0.1602  0.2043
  713TMC3     H10598   1.798   3.300  14.363 -1.5897 -0.8905  0.1987
  713TMC3    H110599   1.473   3.455  14.140  1.2720  1.1804 -0.6183
  713TMC3    H210600   1.761   3.717  14.306 -2.7740  0.8909  0.0885
  713TMC3    C710601   1.536   3.687  14.133 -0.8042 -0.0075  0.5148
  713TMC3    C810602   1.930   3.531  14.350  0.4511 -0.1150  0.6857
  713TMC3    O110603   1.421   3.665  14.099 -0.1079 -0.2853 -0.3201
  713TMC3    O210604   1.967   3.596  14.442  0.4366 -0.6272  0.0107
  714MPD2     C10605   4.206   1.947   2.216  0.3849 -0.1959 -0.6123
  714MPD2    C110606   4.176   1.892   2.092 -0.1013 -0.1508 -0.7201
  714MPD2    C210607   4.071   1.934   2.012  0.8323 -1.2832  0.1013
  714MPD2    C310608   3.986   2.032   2.067 -0.1250 -0.0175  0.1123
  714MPD2    C410609   4.025   2.093   2.190 -0.1533  0.1160  0.2112
  714MPD2    C510610   4.127   2.046   2.265 -0.1432  0.2903 -0.2047
  714MPD2     H10611   4.051   1.898   1.912  1.6168 -0.7913 -0.2346
  714MPD2    H110612   3.964   2.179   2.216 -0.5831  0.1239 -0.8248
  714MPD2    H210613   4.287   1.906   2.275 -0.7287 -0.2620  0.8775
  714MPD2    H310614   4.158   2.086   2.361  1.6800 -0.4251 -0.5107
  714MPD2     N10615   3.876   2.059   1.979 -0.5187 -0.3098 -0.1360
  714MPD2    H510616   3.854   1.996   1.903 -1.4003  0.9046 -0.8862
  714MPD2    N110617   4.275   1.795   2.043 -0.5550  0.3920 -0.5124
  714MPD2    H710618   4.349   1.773   2.109 -0.5387  0.6222 -0.4513
  715TMC3    C110619   4.389   1.654   1.898  0.0513  0.2141 -0.8346
  715TMC3    C210620   4.388   1.548   1.812  0.1324  0.3414 -0.0569
  715TMC3    C310621   4.507   1.475   1.813 -0.2349  0.1202 -0.2116
  715TMC3    C410622   4.497   1.684   1.980  0.1793 -0.1916 -0.2727
  715TMC3    C510623   4.604   1.600   1.986  0.4327  0.2326 -0.9590
  715TMC3    C610624   4.610   1.502   1.894  0.5652 -0.3511  0.2969
  715TMC3     C10625   4.280   1.743   1.911 -0.2149  0.5691 -0.2515
  715TMC3     O10626   4.190   1.746   1.819  0.6629  0.2993  0.4837
  715TMC3     H10627   4.308   1.525   1.742  0.7565 -1.3755 -0.2178
  715TMC3    H110628   4.500   1.781   2.028  0.3506  0.4373 -1.5396
  715TMC3    H210629   4.702   1.446   1.892 -0.2867 -1.8055  2.8493
  715TMC3    C710630   4.717   1.635   2.070  0.2239 -0.2151 -0.0066
  715TMC3    C810631   4.525   1.350   1.727 -0.2665 -0.4620  0.0433
  715TMC3    O110632   0.086   1.582   2.042 -0.2551  0.0584  0.3245
  715TMC3    O210633   4.419   1.292   1.694  0.1727 -0.1580 -0.1408
  716MPD2     C10634   3.213   4.129   9.943 -0.2046  0.0888  0.1093
  716MPD2    C110635   3.204   4.151   9.803  0.0009  0.8263 -0.0758
  716MPD2    C210636   3.275   4.060   9.722 -0.1622  0.0045  0.1688
  716MPD2    C310637   3.352   3.953   9.775  0.2156 -0.6947  0.3770
  716MPD2    C410638   3.351   3.940   9.914 -0.5827  0.1387 -0.9853
  716MPD2    C510639   3.282   4.025   9.993 -0.7003 -0.7036 -0.1401
  716MPD2     H10640   3.282   4.088   9.617  3.2643  0.0990  0.4390
  716MPD2    H110641   3.409   3.866   9.967  2.3387  2.0483 -1.5382
  716MPD2    H210642   3.170   4.195  10.017  0.5318  0.1665  0.4702
  716MPD2    H310643   3.276   4.013  10.101  0.6273  1.8332  0.2215
  716MPD2     N10644   3.431   3.867   9.693 -0.3808 -0.1614  0.1188
  716MPD2    H510645   3.438   3.898   9.597 -1.5858  0.3654  0.2051
  716MPD2    N110646   3.119   4.255   9.770 -0.2025  0.1716 -0.2010
  716MPD2    H710647   3.064   4.295   9.846  0.7040  0.5265  0.2663
  717TMC3    C110648   3.573   3.685   9.633 -0.0427 -0.3296 -0.3594
  717TMC3    C210649   3.513   3.649   9.516 -0.4948 -0.0969  0.2226
  717TMC3    C310650   3.543   3.528   9.453  0.9583  0.3942  0.8177
  717TMC3    C410651   3.679   3.609   9.679  0.9820  0.3194 -0.6539
  717TMC3    C510652   3.704   3.488   9.620 -0.2093  0.5279  0.1986
  717TMC3    C610653   3.630   3.443   9.520 -0.5499  0.1907  0.3782
  717TMC3     C10654   3.499   3.755   9.733 -0.6492  0.0576  0.2070
  717TMC3     O10655   3.496   3.702   9.839  0.2532 -0.2087 -0.4035
  717TMC3     H10656   3.419   3.699   9.494 -1.3513 -2.0467 -0.5983
  717TMC3    H110657   3.721   3.626   9.778  1.2896 -1.1562 -0.5180
  717TMC3    H210658   3.653   3.346   9.476 -2.1945  0.8191 -1.8605
  717TMC3    C710659   3.810   3.402   9.665 -0.4137  0.4422 -0.1039
  717TMC3    C810660   3.438   3.465   9.380 -0.0904 -0.8007 -0.1315
  717TMC3    O110661   3.793   3.284   9.643  0.0213 -0.0545 -0.2544
  717TMC3    O210662   3.416   3.345   9.407 -0.1328  0.4939 -0.0296
  718MPD2     C10663   2.999   3.726  13.068  0.1205  0.3023  0.8094
  718MPD2    C110664   2.972   3.609  13.009 -0.7248 -0.0352  1.2544
  718MPD2    C210665   2.937   3.496  13.079  0.4546  0.5489  0.3327
  718MPD2    C310666   2.910   3.513  13.217 -0.8248 -0.0922 -0.1953
  718MPD2    C410667   2.929   3.635  13.267 -1.4027  0.2032  0.6004
  718MPD2    C510668   2.971   3.744  13.197  0.1446 -0.2168  0.4448
  718MPD2     H10669   2.929   3.394  13.044 -0.1470  0.9964 -0.8443
  718MPD2    H110670   2.907   3.656  13.371 -1.5140 -0.7327  0.7697
  718MPD2    H210671   3.034   3.805  13.002 -0.0358 -0.1287  0.2128
  718MPD2    H310672   2.987   3.838  13.249  0.9902  0.2314 -0.6174
  718MPD2     N10673   2.887   3.398  13.291 -0.0920 -0.4207 -0.1756
  718MPD2    H510674   2.876   3.310  13.242 -2.5124 -0.9752  1.3550
  718MPD2    N110675   2.999   3.608  12.870 -0.1705  0.0590  0.2659
  718MPD2    H710676   3.043   3.688  12.826 -0.4044  0.3238  0.5161
  719TMC3    C110677   3.024   3.500  12.662  0.0841  0.4125 -0.5771
  719TMC3    C210678   2.990   3.386  12.590 -0.3354  0.1373 -0.2972
  719TMC3    C310679   3.076   3.300  12.535  0.7139 -0.1438 -0.2939
  719TMC3    C410680   3.158   3.533  12.666  0.2407 -0.2578 -0.0695
  719TMC3    C510681   3.242   3.443  12.604  0.1419  0.2693 -0.5869
  719TMC3    C610682   3.207   3.327  12.546  0.1426 -0.1853  0.7754
  719TMC3     C10683   2.971   3.496  12.789 -0.2864  0.4120  0.2721
  719TMC3     O10684   2.906   3.397  12.817 -0.5779 -0.0341 -0.0866
  719TMC3     H10685   2.885   3.362  12.577  0.0817 -1.3739 -0.8832
  719TMC3    H110686   3.194   3.629  12.702  1.9765 -0.2656 -1.7930
  719TMC3    H210687   3.268   3.239  12.533  0.3923  0.3208 -1.5362
  719TMC3    C710688   3.386   3.475  12.606  0.4335 -0.3180  0.4099
  719TMC3    C810689   3.045   3.164  12.581 -1.1615  0.0906  0.0602
  719TMC3    O110690   3.453   3.419  12.519  0.0278  0.6761  0.0306
  719TMC3    O210691   3.117   3.077  12.533 -0.3885 -0.4614  0.7853
  720MPD2     C10692   2.035   4.251  13.878 -1.1840  0.2740  0.4377
  720MPD2    C110693   2.083   4.379  13.865  0.0231 -0.9206  0.4089
  720MPD2    C210694   2.170   4.433  13.960  0.6738  0.0518 -0.0251
  720MPD2    C310695   2.198   4.360  14.074 -0.2070  0.3453  0.7604
  720MPD2    C410696   2.148   4.234  14.092 -0.5199 -0.4599 -0.6095
  720MPD2    C510697   2.066   4.183  13.996 -0.1710 -0.2988  0.4897
  720MPD2     H10698   2.206   4.534  13.942  2.2552 -1.3546 -4.6557
  720MPD2    H110699   2.158   4.185  14.188 -0.7250  0.6613 -0.0174
  720MPD2    H210700   1.975   4.204  13.801  0.2562 -0.5841 -0.1370
  720MPD2    H310701   2.024   4.084  14.006  0.0805 -0.2069  2.4833
  720MPD2     N10702   2.292   4.417  14.164  0.2628 -0.1887 -0.7141
  720MPD2    H510703   2.326   4.508  14.135 -1.1879  0.3614 -0.6850
  720MPD2    N110704   2.060   4.471  13.755 -0.3224 -1.0300 -0.0847
  720MPD2    H710705   2.100   4.564  13.762 -0.0411 -1.0706 -1.1038
  721TMC3    C110706   2.449   4.427  14.333 -0.2482 -0.8585 -0.6165
  721TMC3    C210707   2.396   4.542  14.383  0.1491  0.1250 -0.2507
  721TMC3    C310708   2.428   4.580  14.510  0.3661 -0.4029 -0.1537
  721TMC3    C410709   2.532   4.355  14.411 -0.1935  0.0626 -0.4814
  721TMC3    C510710   2.574   4.401  14.530 -0.1944  0.8888  0.2561
  721TMC3    C610711   2.518   4.515  14.587  0.1146  0.5542  0.3983
  721TMC3     C10712   2.337   4.360  14.280  0.3529  0.7195 -0.8516
  721TMC3     O10713   2.321   4.252  14.335  0.8618  0.2480 -0.5131
  721TMC3     H10714   2.305   4.585  14.344 -0.3654 -1.8114 -1.1546
  721TMC3    H110715   2.569   4.264  14.366 -3.4827 -1.1759 -0.6834
  721TMC3    H210716   2.554   4.564  14.676  0.7480  2.3703 -0.8718
  721TMC3    C710717   2.705   4.352  14.563  0.3533 -0.1984  0.3351
  721TMC3    C810718   2.333   4.668  14.577  0.6643  0.2155 -0.1544
  721TMC3    O110719   2.766   4.289  14.479 -0.4112 -0.2356  0.6523
  721TMC3    O210720   2.291   0.030  14.522 -0.3894 -0.3659 -0.0597
  722MPD2     C10721   0.834   3.422  13.503  0.1145 -0.4665 -0.2626
  722MPD2    C110722   0.797   3.535  13.446  0.4134 -0.6761 -0.5264
  722MPD2    C210723   0.704   3.520  13.343 -0.3811  0.3153 -0.8960
  722MPD2    C310724   0.656   3.402  13.297  0.2538  0.1797  0.3967
  722MPD2    C410725   0.707   3.288  13.357 -0.0434  0.5785  0.3194
  722MPD2    C510726   0.773   3.301  13.472  0.3337 -0.1936 -0.9804
  722MPD2     H10727   0.670   3.610  13.293 -1.0216  2.1033  2.7360
  722MPD2    H110728   0.676   3.188  13.329  1.1417  0.3675 -0.2399
  722MPD2    H210729   0.918   3.417  13.571 -0.4375  0.4238  0.4836
  722MPD2    H310730   0.808   3.211  13.523 -1.0522 -2.1249 -3.4417
  722MPD2     N10731   0.556   3.403  13.194  0.6345  0.2820 -0.0925
  722MPD2    H510732   0.505   3.490  13.182 -0.2245 -0.3039 -0.5975
  722MPD2    N110733   0.845   3.664  13.477  0.5677  0.0082 -0.4730
  722MPD2    H710734   0.795   3.744  13.438  0.4448  1.5809  2.9266
  723TMC3    C110735   0.370   3.296  13.111  0.4322 -0.2560 -0.6548
  723TMC3    C210736   0.291   3.186  13.139 -0.3604 -0.0147 -0.4507
  723TMC3    C310737   0.161   3.193  13.102  0.1187 -0.9117  0.4990
  723TMC3    C410738   0.323   3.412  13.052 -0.7733  0.4475  0.9534
  723TMC3    C510739   0.188   3.416  13.023 -0.1622 -0.3729  0.2297
  723TMC3    C610740   0.111   3.309  13.049  0.4404 -0.2492 -0.3604
  723TMC3     C10741   0.511   3.289  13.137  0.1032  0.0669 -0.1654
  723TMC3     O10742   0.540   3.173  13.159  0.1894  0.4774 -0.1407
  723TMC3     H10743   0.329   3.096  13.186  1.1729  1.6752  1.5561
  723TMC3    H110744   0.394   3.484  13.013  0.0010 -0.9208 -0.1500
  723TMC3    H210745   0.005   3.312  13.028  0.2733 -1.3351  0.3144
  723TMC3    C710746   0.121   3.511  12.936  0.1360  0.0856 -0.1448
  723TMC3    C810747   0.067   3.080  13.138 -0.0939  0.6902 -0.2404
  723TMC3    O110748   0.027   3.471  12.866 -0.0012  0.0013 -0.3930
  723TMC3    O210749   4.692   3.105  13.179 -0.0706 -0.0121  0.3891
  724TMC3    C110750   1.477   1.566  10.730 -0.4883 -0.1511  0.4087
  724TMC3    C210751   1.460   1.431  10.731  0.6884 -0.2762  0.6494
  724TMC3    C310752   1.560   1.356  10.673  0.3894 -0.5022 -0.1739
  724TMC3    C410753   1.593   1.628  10.689 -0.1901  0.0934  0.3644
  724TMC3    C510754   1.693   1.551  10.634 -0.7386 -0.4429  0.1437
  724TMC3    C610755   1.675   1.420  10.630  0.3557 -0.1135 -0.3739
  724TMC3     C10756   1.358   1.651  10.717 -0.9255  0.2681 -0.1147
  724TMC3     O10757   1.376   1.764  10.675 -0.2979 -0.0153 -0.2483
  724TMC3     H10758   1.359   1.391  10.736 -0.0671  1.6787  1.4057
  724TMC3    H110759   1.608   1.736  10.685  0.6094 -0.0910 -1.6245
  724TMC3    H210760   1.744   1.353  10.579  0.1536 -0.1668 -0.5784
  724TMC3    C710761   1.740   1.597  10.510 -0.5246  0.2776  0.5850
  724TMC3    C810762   1.503   1.262  10.587  0.1124  0.3100 -0.8913
  724TMC3    O110763   1.734   1.514  10.424 -0.6297  0.5478  0.6089
  724TMC3    O210764   1.423   1.182  10.629  1.1858  0.3499  0.0595
  725TMC3    C110765   2.641   0.021  12.471  0.5683 -0.0240 -0.2293
  725TMC3    C210766   2.509   0.030  12.473 -0.0351  0.0853  0.5241
  725TMC3    C310767   2.439   4.659  12.441 -0.0601  0.1446  0.5321
  725TMC3    C410768   2.708   4.637  12.458  0.3827 -0.3668  0.1999
  725TMC3    C510769   2.636   4.521  12.439 -0.3335  0.2997  0.0314
  725TMC3    C610770   2.496   4.534  12.431  0.7916  0.5847 -0.1999
  725TMC3     C10771   2.704   0.153  12.463  0.6727  0.0105 -0.0846
  725TMC3     O10772   2.644   0.258  12.479 -0.0323  0.0954 -0.7574
  725TMC3     H10773   2.452   0.122  12.483  2.7585  1.8834  0.0203
  725TMC3    H110774   2.815   4.623  12.461  0.3259 -0.2863  2.5129
  725TMC3    H210775   2.424   4.456  12.410  0.6315  1.0417 -1.3801
  725TMC3    C710776   2.695   4.391  12.414  0.1114  0.2086 -0.3486
  725TMC3    C810777   2.314   4.674  12.373  0.5545  0.0638  0.4915
  725TMC3    O110778   2.620   4.313  12.356 -0.1248  0.9810  0.4097
  725TMC3    O210779   2.245   4.575  12.362 -0.0312 -0.0078 -1.2927
  726MPD2     C10780   0.503   1.441  10.460 -0.6319  0.1453 -0.0257
  726MPD2    C110781   0.424   1.531  10.391  0.5753 -0.3145 -0.4298
  726MPD2    C210782   0.290   1.508  10.351  0.1022  0.3464 -0.3799
  726MPD2    C310783   0.237   1.387  10.384  0.7330  0.0831 -0.2759
  726MPD2    C410784   0.316   1.291  10.449 -0.2403  0.1740  0.8497
  726MPD2    C510785   0.450   1.317  10.487  0.0623  0.1231 -0.0415
  726MPD2     H10786   0.233   1.590  10.310 -0.2164 -1.1818 -2.9668
  726MPD2    H110787   0.277   1.194  10.475  1.1050 -0.3277  0.9483
  726MPD2    H210788   0.608   1.460  10.481 -0.1671 -2.1390 -0.2079
  726MPD2    H310789   0.511   1.246  10.542 -0.0175  1.3179  1.5767
  726MPD2     N10790   0.100   1.369  10.367 -0.0831  0.6473  0.9943
  726MPD2    H510791   0.064   1.290  10.420  0.1290 -0.1174  0.0056
  726MPD2    N110792   0.458   1.667  10.381  0.6967 -0.0017 -0.0734
  726MPD2    H710793   0.389   1.725  10.334  1.4292  1.1868  0.3230
  727TMC3    C110794   0.568   1.869  10.397 -0.9406 -0.2270  0.3474
  727TMC3    C210795   0.687   1.942  10.403 -0.1267 -0.5788  0.3616
  727TMC3    C310796   0.673   2.071  10.440 -0.6380  0.5268  0.4405
  727TMC3    C410797   0.442   1.923  10.417 -0.1868 -1.1629  0.4857
  727TMC3    C510798   0.438   2.053  10.446 -0.4731 -0.5223  0.3130
  727TMC3    C610799   0.550   2.128  10.454 -0.5276  0.2213 -0.3843
  727TMC3     C10800   0.578   1.725  10.407 -0.0943  0.1483 -0.5869
  727TMC3     O10801   0.687   1.684  10.437 -0.1786 -0.2753  0.1012
  727TMC3     H10802   0.779   1.890  10.380  0.1262  0.0747 -0.1147
  727TMC3    H110803   0.355   1.862  10.441 -0.0994 -1.8493 -0.9704
  727TMC3    H210804   0.540   2.235  10.464  0.8540  0.2224  0.9818
  727TMC3    C710805   0.307   2.114  10.426  0.3240 -0.3114 -0.0148
  727TMC3    C810806   0.785   2.150  10.419  0.6334 -0.4389 -0.1749
  727TMC3    O110807   0.214   2.043  10.387 -0.8717 -0.0226  0.0984
  727TMC3    O210808   0.863   2.098  10.336 -0.4479 -0.0753  0.2860
  728TMC3    C110809   0.166   0.544  14.942  0.4798  0.1237  0.2018
  728TMC3    C210810   0.284   0.605  14.909  0.1283 -0.0146 -0.1258
  728TMC3    C310811   0.285   0.705  14.815  0.0945  0.0709  0.4597
  728TMC3    C410812   0.055   0.556  14.866 -0.3425  0.1004 -0.5379
  728TMC3    C510813   0.067   0.652  14.770 -0.2768 -0.1184  0.4987
  728TMC3    C610814   0.166   0.743  14.755 -0.5882  0.1406 -0.2904
  728TMC3     C10815   0.161   0.513  15.084  0.0306 -0.3356 -0.8247
  728TMC3     O10816   0.262   0.499  15.147  0.2561 -0.5311 -0.0582
  728TMC3     H10817   0.370   0.590  14.972 -0.0312 -2.0348 -0.3660
  728TMC3    H110818   4.705   0.496  14.881 -0.9393  1.5714  1.9315
  728TMC3    H210819   0.176   0.814  14.674 -0.4689  1.7232  1.1048
  728TMC3    C710820   4.677   0.682  14.710 -0.3330 -0.0252  0.8698
  728TMC3    C810821   0.409   0.780  14.813  0.1741  0.5697  0.4121
  728TMC3    O110822   4.601   0.588  14.691 -0.2426 -0.0746 -0.1753
  728TMC3    O210823   0.472   0.788  14.915  0.1111 -0.1809 -0.2671
  729MPD2     C10824   2.115   1.384  16.697  0.3711  0.3874 -0.2051
  729MPD2    C110825   2.216   1.430  16.781  0.2213 -0.5954  0.9582
  729MPD2    C210826   2.201   1.423  16.916 -0.0748  0.6179  0.1985
  729MPD2    C310827   2.087   1.371  16.970 -0.3329 -0.1184 -0.2188
  729MPD2    C410828   1.999   1.304  16.889  0.1840 -0.4760 -0.4358
  729MPD2    C510829   2.016   1.317  16.753 -0.0783 -0.3882  0.0329
  729MPD2     H10830   2.268   1.476  16.982 -0.6975  0.0713  1.2909
  729MPD2    H110831   1.912   1.252  16.928  0.7977 -0.7619  0.5472
  729MPD2    H210832   2.130   1.379  16.590 -1.4307 -1.6046 -0.3714
  729MPD2    H310833   1.951   1.261  16.687 -0.4286 -1.3486  1.1775
  729MPD2     N10834   2.050   1.376  17.110 -0.3015  0.4437  0.1595
  729MPD2    H510835   1.960   1.335  17.132  0.2385 -1.3768 -1.0143
  729MPD2    N110836   2.326   1.498  16.720 -0.0940 -0.5673 -0.4750
  729MPD2    H710837   2.327   1.506  16.619 -0.8837 -0.5150 -0.4748
  730TMC3    C110838   2.062   1.479  17.320  0.0328 -0.0715  0.2666
  730TMC3    C210839   2.139   1.506  17.427  0.1592  0.0068  0.2323
  730TMC3    C310840   2.084   1.593  17.516  0.3046  0.2510  0.6923
  730TMC3    C410841   1.936   1.533  17.298 -0.0611  0.5418  0.9510
  730TMC3    C510842   1.887   1.611  17.386  0.1265 -0.1721  0.2366
  730TMC3    C610843   1.956   1.640  17.500  0.3378  0.4174 -0.8236
  730TMC3     C10844   2.131   1.427  17.209  1.1878 -0.6476 -0.4497
  730TMC3     O10845   2.249   1.447  17.207 -0.1210 -0.1997  0.1475
  730TMC3     H10846   2.234   1.459  17.449  0.4224  0.7006  0.6067
  730TMC3    H110847   1.885   1.516  17.203 -0.9739 -0.8276  1.6929
  730TMC3    H210848   1.916   1.709  17.574 -3.0782 -0.9623 -1.3916
  730TMC3    C710849   1.843   1.733  17.329 -0.4806  0.0442 -0.6091
  730TMC3    C810850   2.186   1.682  17.572  0.5205 -0.0529  0.0578
  730TMC3    O110851   1.882   1.751  17.212 -0.1368  0.0170  0.2383
  730TMC3    O210852   2.297   1.674  17.528 -0.0030 -0.2914  0.3877
  731MPD2     C10853   1.975   4.355  11.905 -0.2367  0.4599 -0.1430
  731MPD2    C110854   1.918   4.258  11.990  0.2718  0.0846 -0.3035
  731MPD2    C210855   1.941   4.262  12.122  0.5352 -0.0623  0.4782
  731MPD2    C310856   2.024   4.357  12.176  0.5426  0.5981  0.5056
  731MPD2    C410857   2.085   4.456  12.098  0.2703  0.4701 -0.0861
  731MPD2    C510858   2.057   4.448  11.962 -0.2271 -0.9029  0.0407
  731MPD2     H10859   1.896   4.188  12.188 -0.7977  1.2311  1.0237
  731MPD2    H110860   2.155   4.530  12.133  1.9684 -1.2579  0.1876
  731MPD2    H210861   1.962   4.360  11.798 -0.2372 -2.7488 -0.3066
  731MPD2    H310862   2.107   4.520  11.899  1.4516 -1.6857  0.4869
  731MPD2     N10863   2.061   4.350  12.309  0.0722 -0.5867 -0.6773
  731MPD2    H510864   2.101   4.431  12.355  0.3290 -1.4433  0.6256
  731MPD2    N110865   1.828   4.160  11.937  0.1901 -0.2440 -0.2188
  731MPD2    H710866   1.824   4.147  11.837 -0.6952 -2.1800  0.0676
  732TMC3    C110867   1.717   3.960  11.941 -0.4376  0.1580  0.5464
  732TMC3    C210868   1.599   3.903  11.972 -0.5742  0.2715 -0.2887
  732TMC3    C310869   1.576   3.782  11.910 -0.2144 -0.3396 -0.7931
  732TMC3    C410870   1.815   3.903  11.856 -0.8516 -0.3825  0.0261
  732TMC3    C510871   1.790   3.783  11.804 -0.6679 -0.3433  0.2624
  732TMC3    C610872   1.668   3.724  11.826 -0.7240  0.0709  0.0901
  732TMC3     C10873   1.751   4.075  12.014 -0.1701  0.3131  0.0910
  732TMC3     O10874   1.704   4.087  12.126 -0.3892 -0.4877  0.4448
  732TMC3     H10875   1.538   3.952  12.047 -0.9835 -0.0600 -0.4084
  732TMC3    H110876   1.907   3.957  11.840 -1.0448 -0.1243 -0.2177
  732TMC3    H210877   1.640   3.641  11.763 -1.7920 -1.8028  3.0473
  732TMC3    C710878   1.875   3.738  11.698 -0.7250 -0.0058 -0.8865
  732TMC3    C810879   1.437   3.734  11.922  0.7080  0.0769 -0.0908
  732TMC3    O110880   1.840   3.661  11.607  0.5902  0.1676 -0.2681
  732TMC3    O210881   1.395   3.669  11.826  0.0274 -0.4340  0.1213
  733TMC3    C110882   2.759   3.053  13.557  0.1205  0.2125  0.1379
  733TMC3    C210883   2.782   3.188  13.553 -0.2059  0.0595 -0.0209
  733TMC3    C310884   2.868   3.231  13.452 -1.1300  0.8400  0.2787
  733TMC3    C410885   2.822   2.957  13.474 -0.2832  0.9853  0.3437
  733TMC3    C510886   2.909   3.010  13.384  0.2499  0.1931 -0.2246
  733TMC3    C610887   2.928   3.141  13.369  0.2620 -0.6940 -0.0387
  733TMC3     C10888   2.621   3.013  13.589  0.7467 -0.3749  0.1439
  733TMC3     O10889   2.556   2.927  13.528  0.0257 -0.4616  0.1997
  733TMC3     H10890   2.721   3.253  13.613  0.7416  1.4919 -0.5934
  733TMC3    H110891   2.795   2.852  13.468  0.9634  0.8584 -2.7297
  733TMC3    H210892   2.995   3.174  13.290 -0.2710  0.4796 -0.0094
  733TMC3    C710893   2.921   2.925  13.266  0.9113  0.2472  0.1789
  733TMC3    C810894   2.881   3.379  13.425  0.0603 -0.1860  0.0645
  733TMC3    O110895   2.909   2.801  13.283  0.4283  0.1761  0.5166
  733TMC3    O210896   2.861   3.455  13.513 -0.0028 -0.1774  0.2955
  734MPD2     C10897   0.329   0.357  12.343  1.1440 -0.0888  0.0319
  734MPD2    C110898   0.223   0.295  12.274  0.9075 -0.9052  0.0939
  734MPD2    C210899   0.228   0.291  12.135  0.1549  0.6621 -0.6019
  734MPD2    C310900   0.337   0.344  12.070 -0.2062  0.3449 -0.1488
  734MPD2    C410901   0.441   0.396  12.145  0.2027 -0.1967  0.6468
  734MPD2    C510902   0.433   0.408  12.279 -0.5067 -0.6733  0.5585
  734MPD2     H10903   0.149   0.237  12.084 -0.0188  0.6571 -0.3278
  734MPD2    H110904   0.529   0.436  12.095  0.7084 -1.0426  0.8555
  734MPD2    H210905   0.323   0.365  12.451  0.8252 -1.4518  0.1169
  734MPD2    H310906   0.515   0.461  12.327 -0.7551 -0.0924  0.3456
  734MPD2     N10907   0.341   0.315  11.939  0.1263 -0.7365 -0.3915
  734MPD2    H510908   0.253   0.281  11.901 -0.9421  2.2999 -0.5807
  734MPD2    N110909   0.114   0.238  12.349  0.1091  0.4200  0.4321
  734MPD2    H710910   0.122   0.221  12.449 -0.4691  2.5386  0.8366
  735TMC3    C110911   4.693   0.064  12.367  0.2817 -0.0795  0.6077
  735TMC3    C210912   4.580   0.015  12.307 -0.1410 -0.3939  0.1428
  735TMC3    C310913   4.567   4.622  12.300 -0.7364 -0.1367 -0.2481
  735TMC3    C410914   0.045   4.722  12.425  0.0647  0.8131  0.3675
  735TMC3    C510915   0.030   4.583  12.424  0.0661  0.7663  0.1407
  735TMC3    C610916   4.659   4.535  12.360  0.4686 -0.2943  0.4722
  735TMC3     C10917   0.008   0.174  12.293 -0.3684 -0.2505  0.0816
  735TMC3     O10918   4.688   0.189  12.187 -0.2252  0.9160  0.1485
  735TMC3     H10919   4.514   0.084  12.256  0.9554  0.6894  0.1857
  735TMC3    H110920   0.138   0.022  12.464  0.2366  2.5572 -1.8029
  735TMC3    H210921   4.655   4.428  12.344 -2.3588 -0.1021 -0.0151
  735TMC3    C710922   0.152   4.513  12.391 -1.0500 -0.6326 -0.0907
  735TMC3    C810923   4.537   4.566  12.170 -0.5494 -0.6211  0.2685
  735TMC3    O110924   0.239   4.581  12.338  0.4135  0.0664 -0.0152
  735TMC3    O210925   4.516   4.444  12.160 -0.6381  0.1501  0.2198
  736MPD2     C10926   0.198   4.155  12.423 -1.4889  0.1722  0.5808
  736MPD2    C110927   0.235   4.277  12.368  0.4992 -0.4832 -0.9758
  736MPD2    C210928   0.349   4.298  12.300 -0.2027  0.7119  0.2251
  736MPD2    C310929   0.426   4.182  12.271  0.2432  0.4406 -0.2739
  736MPD2    C410930   0.389   4.064  12.327 -1.2589  0.1147 -0.5670
  736MPD2    C510931   0.281   4.055  12.404 -0.1398  0.0127 -0.1198
  736MPD2     H10932   0.369   4.393  12.253 -1.3779  1.0815  0.4663
  736MPD2    H110933   0.443   3.971  12.314 -2.7758 -0.5853 -1.7810
  736MPD2    H210934   0.103   4.143  12.473 -2.2861 -0.1061 -0.9811
  736MPD2    H310935   0.257   3.967  12.461 -1.4832  1.2929  1.2611
  736MPD2     N10936   0.532   4.177  12.180 -0.0127 -0.1212 -0.7461
  736MPD2    H510937   0.558   4.088  12.137 -1.5853 -0.6276 -0.6328
  736MPD2    N110938   0.139   4.380  12.400  0.6005  1.0582  0.5811
  736MPD2    H710939   0.053   4.347  12.442  2.2879 -0.1934  3.0500
  737TMC3    C110940   0.668   4.274  12.006 -0.0597  0.1529  0.2538
  737TMC3    C210941   0.700   4.384  11.933 -0.0149 -0.0474  0.1230
  737TMC3    C310942   0.762   4.351  11.811 -0.2053 -0.3524 -1.0077
  737TMC3    C410943   0.706   4.147  11.973  0.2214 -0.5022 -0.0803
  737TMC3    C510944   0.752   4.123  11.844 -0.0832 -0.2917  0.1569
  737TMC3    C610945   0.783   4.223  11.764 -0.2537 -0.4449  0.1790
  737TMC3     C10946   0.587   4.289  12.128 -0.1941 -0.3112 -0.8114
  737TMC3     O10947   0.580   4.409  12.161  0.3938  0.3404  0.7857
  737TMC3     H10948   0.655   4.480  11.951 -0.1609 -0.3158  1.1893
  737TMC3    H110949   0.696   4.063  12.042  1.8019  0.4710  1.3500
  737TMC3    H210950   0.805   4.204  11.660 -1.4032 -1.5021  0.1322
  737TMC3    C710951   0.774   3.982  11.801  1.2512  0.3308 -0.1127
  737TMC3    C810952   0.744   4.446  11.702 -0.8766 -0.0500 -0.0881
  737TMC3    O110953   0.716   3.894  11.860  0.2840 -0.3208  1.2020
  737TMC3    O210954   0.711   4.394  11.596 -0.1682 -0.3097 -0.2583
  738MPD2     C10955   0.959   3.999  15.327 -0.2352  0.3763 -0.5686
  738MPD2    C110956   1.009   3.903  15.236  0.0622 -1.1587 -1.2178
  738MPD2    C210957   1.114   3.950  15.146  0.6809  0.1974  0.2272
  738MPD2    C310958   1.167   4.074  15.160 -0.5591  0.3801  0.4631
  738MPD2    C410959   1.123   4.159  15.255 -0.0945  0.5600  0.4333
  738MPD2    C510960   1.017   4.123  15.326  0.0096 -0.5058  0.1103
  738MPD2     H10961   1.147   3.887  15.063 -1.2039  0.2712 -0.5946
  738MPD2    H110962   1.166   4.257  15.266  0.4842  0.2853  0.6060
  738MPD2    H210963   0.874   3.974  15.390  0.6513  1.1250  0.9327
  738MPD2    H310964   0.982   4.197  15.397  1.1088 -0.9027  1.0805
  738MPD2     N10965   1.274   4.124  15.086  0.5197 -0.1866  0.5475
  738MPD2    H510966   1.310   4.211  15.123  0.4302 -0.2540  0.7887
  738MPD2    N110967   0.968   3.768  15.239  0.1246  0.0054 -0.1931
  738MPD2    H710968   1.017   3.713  15.169  1.2517 -0.0918  0.6773
  739TMC3    C110969   1.469   4.132  14.954  0.7422 -0.1727  0.2168
  739TMC3    C210970   1.536   4.098  14.839 -0.3551  0.3551  0.1238
  739TMC3    C310971   1.644   4.179  14.802  0.2942  0.2298  0.1915
  739TMC3    C410972   1.520   4.229  15.040  0.2953  0.7072 -0.4058
  739TMC3    C510973   1.630   4.302  15.002 -0.1921 -0.2969 -0.3397
  739TMC3    C610974   1.681   4.291  14.873 -0.7111  0.1276  0.1078
  739TMC3     C10975   1.346   4.066  14.989 -0.2282  0.4123 -0.0431
  739TMC3     O10976   1.315   3.969  14.925 -0.1912  0.3828  0.4208
  739TMC3     H10977   1.501   4.022  14.770  2.0900 -0.5164 -0.1424
  739TMC3    H110978   1.475   4.248  15.137  0.7348  1.8382 -0.4217
  739TMC3    H210979   1.763   4.353  14.840 -0.7240 -0.6178 -1.3361
  739TMC3    C710980   1.657   4.431  15.060 -0.4563 -0.2402  0.1507
  739TMC3    C810981   1.666   4.178  14.656 -0.4731  0.5957 -0.0176
  739TMC3    O110982   1.694   4.529  14.997 -0.0557 -0.1890  0.4588
  739TMC3    O210983   1.585   4.112  14.591 -0.4933 -0.3640  0.2810
  740TMC3    C110984   1.801   0.647  14.277  0.2498 -0.4444 -0.4026
  740TMC3    C210985   1.873   0.638  14.387 -0.2112  0.4537 -0.1089
  740TMC3    C310986   2.008   0.629  14.376  0.2767 -0.4465  0.0266
  740TMC3    C410987   1.862   0.653  14.153 -0.0155 -0.4288 -0.2721
  740TMC3    C510988   1.996   0.651  14.143 -0.2327  0.1014 -0.2576
  740TMC3    C610989   2.072   0.630  14.254 -0.5185 -0.7541 -0.1550
  740TMC3     C10990   1.659   0.663  14.274 -0.3395  0.8355 -0.6614
  740TMC3     O10991   1.607   0.720  14.176  0.1866 -0.2185 -0.2970
  740TMC3     H10992   1.820   0.644  14.481 -0.7943  0.7902 -0.4600
  740TMC3    H110993   1.800   0.639  14.066 -1.3494  1.9790  0.2909
  740TMC3    H210994   2.179   0.640  14.266 -0.5052  0.0789 -1.0230
  740TMC3    C710995   2.062   0.588  14.031  0.1984  0.0028 -0.1116
  740TMC3    C810996   2.078   0.633  14.499  0.7297 -0.2287  0.3705
  740TMC3    O110997   2.141   0.502  14.067 -0.4506 -0.0517 -0.6168
  740TMC3    O210998   2.018   0.677  14.598 -0.3899 -0.0535 -0.0585
  741TMC3    C110999   1.479   4.491  14.492  0.1824 -0.1026 -0.1972
  741TMC3    C211000   1.404   4.397  14.429  0.5631  0.7865 -0.8741
  741TMC3    C311001   1.334   4.305  14.498 -0.6082  1.0408 -0.1764
  741TMC3    C411002   1.479   4.488  14.633  0.0430 -0.0204 -0.6373
  741TMC3    C511003   1.392   4.407  14.696  0.4325 -0.5833 -0.9362
  741TMC3    C611004   1.322   4.308  14.634 -0.3625 -0.3175 -0.4428
  741TMC3     C11005   1.573   4.583  14.420  0.0154  0.1590  0.2250
  741TMC3     O11006   1.646   4.657  14.483 -0.4161 -0.0780 -0.5664
  741TMC3     H11007   1.401   4.399  14.321  1.1573 -0.3956 -0.9149
  741TMC3    H111008   1.552   4.552  14.681  0.6206 -0.9624 -0.2438
  741TMC3    H211009   1.261   4.244  14.696 -1.5702  0.0089 -1.2951
  741TMC3    C711010   1.350   4.441  14.835 -0.7245  0.3364  0.0139
  741TMC3    C811011   1.237   4.223  14.429 -1.0219  0.6730  0.4365
  741TMC3    O111012   1.275   4.366  14.891  0.3833 -0.1617 -0.1461
  741TMC3    O211013   1.206   4.254  14.314  0.0270 -0.4625  0.0550
  742TMC3    C111014   1.082   2.955  15.276 -0.3589 -0.4931 -0.3076
  742TMC3    C211015   0.991   2.932  15.173  0.6674  0.2357  0.2449
  742TMC3    C311016   1.021   2.821  15.099  0.2098  1.0318 -0.3364
  742TMC3    C411017   1.178   2.868  15.325  0.1940 -0.7218  0.1549
  742TMC3    C511018   1.194   2.753  15.250  0.2250  0.1147 -0.3246
  742TMC3    C611019   1.120   2.731  15.134  0.0627  0.2531  0.2685
  742TMC3     C11020   1.092   3.092  15.311 -0.3648  0.6827  0.3802
  742TMC3     O11021   1.042   3.174  15.235 -0.0555 -0.1676 -0.4675
  742TMC3     H11022   0.928   3.018  15.150 -1.1868 -0.6350  2.0701
  742TMC3    H111023   1.243   2.884  15.411  0.0596 -1.0862  0.3233
  742TMC3    H211024   1.151   2.644  15.077 -0.6040 -0.9615  1.7660
  742TMC3    C711025   1.319   2.687  15.247  0.4818 -0.7898  0.4019
  742TMC3    C811026   0.951   2.783  14.983 -0.4790  0.4037 -0.3500
  742TMC3    O111027   1.361   2.646  15.136  0.0967 -0.0629  0.0019
  742TMC3    O211028   1.014   2.716  14.903 -0.0112 -0.0288 -0.7172
  743MPD2     C11029   3.676   3.459   1.645  0.1060  0.7069 -0.5131
  743MPD2    C111030   3.692   3.578   1.576 -0.2638 -0.1683  0.1649
  743MPD2    C211031   3.821   3.635   1.564  0.2701  0.3601  0.6297
  743MPD2    C311032   3.936   3.564   1.610  0.4252 -0.0367  0.3153
  743MPD2    C411033   3.911   3.445   1.679  0.3357  0.4507  0.6003
  743MPD2    C511034   3.787   3.393   1.688  0.0108 -0.4469 -0.6979
  743MPD2     H11035   3.839   3.724   1.505 -1.2745 -0.1232 -0.5677
  743MPD2    H111036   3.988   3.382   1.722 -0.3425 -1.0837 -0.4448
  743MPD2    H211037   3.576   3.420   1.661  0.7495 -0.2450  1.2582
  743MPD2    H311038   3.777   3.293   1.730  1.1679 -0.6649 -0.9442
  743MPD2     N11039   4.065   3.610   1.573  0.0299 -0.1602 -0.2359
  743MPD2    H511040   4.065   3.697   1.521 -0.0960 -0.1263 -0.1786
  743MPD2    N111041   3.585   3.649   1.524 -0.0823  0.1372 -0.2753
  743MPD2    H711042   3.596   3.748   1.504  0.9791  0.2049  0.6603
  744TMC3    C111043   3.388   3.701   1.428 -0.2673 -0.7678  0.5160
  744TMC3    C211044   3.385   3.829   1.480  0.4147  0.5520  0.4004
  744TMC3    C311045   3.308   3.922   1.413  0.1488  0.0206  0.0018
  744TMC3    C411046   3.316   3.659   1.320  0.0128  0.0703 -1.0088
  744TMC3    C511047   3.229   3.751   1.259  0.0479 -0.7032 -0.1384
  744TMC3    C611048   3.234   3.880   1.304  0.1211 -0.6426  0.3943
  744TMC3     C11049   3.459   3.597   1.495 -0.2674 -0.2561 -0.4497
  744TMC3     O11050   3.432   3.482   1.476  0.0068 -0.3365  0.4303
  744TMC3     H11051   3.434   3.846   1.575 -0.5327  1.0797  0.7869
  744TMC3    H111052   3.333   3.560   1.280 -0.2970 -0.6848  0.7097
  744TMC3    H211053   3.162   3.952   1.266  0.2649  0.5732  2.4134
  744TMC3    C711054   3.188   3.733   1.122 -0.2773  0.2582  0.0580
  744TMC3    C811055   3.327   4.066   1.423  0.3564  0.1457 -0.4032
  744TMC3    O111056   3.178   3.830   1.043  0.2338 -0.1320 -0.1692
  744TMC3    O211057   3.239   4.141   1.384 -0.2923  0.9014  0.2662
  745TMC3    C111058   1.249   2.691  13.858 -0.3014  0.2259 -0.6510
  745TMC3    C211059   1.152   2.631  13.934 -0.7791  0.4937 -0.0980
  745TMC3    C311060   1.025   2.689  13.929 -0.3993 -0.5350  0.5587
  745TMC3    C411061   1.224   2.800  13.781  0.6422 -0.5216  0.1919
  745TMC3    C511062   1.098   2.845  13.770  0.3599  0.0120  0.2644
  745TMC3    C611063   1.003   2.792  13.850 -0.4008 -0.6205 -0.5923
  745TMC3     C11064   1.381   2.682  13.922 -0.0746 -0.2763 -1.0864
  745TMC3     O11065   1.425   2.568  13.945 -0.1988  0.1207 -0.4161
  745TMC3     H11066   1.190   2.550  13.995  2.2703  1.1405 -1.0970
  745TMC3    H111067   1.306   2.834  13.718 -2.1960  1.0770 -2.6536
  745TMC3    H211068   0.899   2.821  13.846 -0.7995 -1.8966  0.5728
  745TMC3    C711069   1.069   2.966  13.685 -0.3650 -0.5455 -0.4037
  745TMC3    C811070   0.963   2.706  14.056  0.1975  0.1925 -0.2865
  745TMC3    O111071   0.955   2.987  13.653  0.0669 -0.1340 -0.0212
  745TMC3    O211072   0.857   2.765  14.072 -0.0078 -0.4904  0.2105
  746TMC3    C111073   4.085   3.512  10.303 -0.7455  0.3821  0.8278
  746TMC3    C211074   4.028   3.537  10.180  0.3775 -0.2244 -0.3893
  746TMC3    C311075   3.904   3.490  10.156 -0.5129 -0.2347  0.0134
  746TMC3    C411076   4.007   3.458  10.402  0.1193  0.4129 -0.0953
  746TMC3    C511077   3.883   3.406  10.372 -0.6222 -0.0548 -0.5033
  746TMC3    C611078   3.840   3.403  10.242  0.2607  0.3646  0.3281
  746TMC3     C11079   4.165   3.623  10.356 -0.0196 -0.2597 -0.0252
  746TMC3     O11080   4.148   3.649  10.474  0.2916  0.1813  0.0390
  746TMC3     H11081   4.081   3.589  10.101  1.7891  2.0246  2.0586
  746TMC3    H111082   4.046   3.451  10.503 -0.3500  0.5019  0.0936
  746TMC3    H211083   3.736   3.380  10.224  0.3468  0.3995 -0.2385
  746TMC3    C711084   3.786   3.474  10.452  0.1785 -0.0313 -0.4445
  746TMC3    C811085   3.814   3.589  10.104  0.0816 -0.0649  0.5143
  746TMC3    O111086   3.674   3.424  10.462  0.2157  1.0941 -0.2800
  746TMC3    O211087   3.698   3.555  10.097  0.5915  0.0132  0.4139
  747TMC3    C111088   1.463   3.933  11.101 -0.1846 -0.1397  0.3586
  747TMC3    C211089   1.374   3.886  11.191  0.0826 -0.0033  0.0537
  747TMC3    C311090   1.418   3.877  11.316 -0.3250 -0.5216  0.2838
  747TMC3    C411091   1.583   3.989  11.129 -0.2401 -0.0835  0.6853
  747TMC3    C511092   1.615   3.992  11.260 -0.0522  0.6683 -0.2902
  747TMC3    C611093   1.529   3.940  11.352  0.4171 -0.3501 -1.1335
  747TMC3     C11094   1.400   3.975  10.975 -0.7389  0.1416 -0.3207
  747TMC3     O11095   1.331   3.887  10.920  0.0652  0.5065 -0.5540
  747TMC3     H11096   1.271   3.873  11.160 -0.0156 -1.1666  0.8713
  747TMC3    H111097   1.641   4.027  11.046 -1.8443  0.5809 -0.1333
  747TMC3    H211098   1.558   3.955  11.456  0.1581  2.0576 -1.4169
  747TMC3    C711099   1.717   4.080  11.312  0.7624 -0.1466 -0.2336
  747TMC3    C811100   1.305   3.907  11.403  0.3143 -0.3126  0.0841
  747TMC3    O111101   1.697   4.128  11.421  0.0896 -0.4994  0.1833
  747TMC3    O211102   1.311   3.996  11.484  0.1570 -0.7477 -0.2087
  748MPD2     C11103   3.042   0.293   0.801  1.1202 -0.0973  0.1577
  748MPD2    C111104   3.012   0.334   0.933 -0.5383 -0.4506 -0.3144
  748MPD2    C211105   3.081   0.443   0.981 -0.8734 -0.6282 -0.0693
  748MPD2    C311106   3.172   0.515   0.904  0.1170  0.2870 -0.0336
  748MPD2    C411107   3.210   0.465   0.779  0.8200 -0.3279  0.1863
  748MPD2    C511108   3.143   0.355   0.726  0.8730 -0.3299 -0.4012
  748MPD2     H11109   3.060   0.482   1.080 -0.0947 -1.0638  0.2608
  748MPD2    H111110   3.303   0.492   0.730  0.4039 -0.1021 -0.4790
  748MPD2    H211111   2.984   0.218   0.749 -0.1391  0.5597  0.6197
  748MPD2    H311112   3.160   0.312   0.628  1.1662 -0.1620 -0.4245
  748MPD2     N11113   3.224   0.636   0.964  0.3920 -0.2757 -0.1836
  748MPD2    H511114   3.192   0.659   1.058 -0.3154  0.3007 -0.5599
  748MPD2    N111115   2.913   0.260   1.004  0.2387  0.1955 -0.0178
  748MPD2    H711116   2.866   0.186   0.953  0.2682  0.0461  0.1688
  749TMC3    C111117   3.371   0.813   1.010 -0.0061  0.1335  0.3568
  749TMC3    C211118   3.422   0.762   1.126  0.2806 -0.2950  0.6750
  749TMC3    C311119   3.480   0.849   1.213  0.1833 -0.4252  0.3403
  749TMC3    C411120   3.388   0.945   0.981  0.8583 -0.4303  0.2153
  749TMC3    C511121   3.445   1.026   1.076 -0.0780  0.1470  0.8178
  749TMC3    C611122   3.488   0.986   1.199  0.5865  0.0952 -0.5763
  749TMC3     C11123   3.311   0.729   0.906 -0.5632 -0.0297 -0.3035
  749TMC3     O11124   3.349   0.737   0.790  0.2770 -0.2674 -0.0068
  749TMC3     H11125   3.415   0.655   1.143 -3.0719 -0.2461 -0.3921
  749TMC3    H111126   3.357   0.974   0.882  1.4606  1.9596  0.7174
  749TMC3    H211127   3.538   1.048   1.273 -0.8894  0.0897  0.4225
  749TMC3    C711128   3.447   1.170   1.052 -0.7397  0.2495 -0.4852
  749TMC3    C811129   3.564   0.803   1.325 -0.7237  0.3479  0.8442
  749TMC3    O111130   3.494   1.236   1.143  0.6188 -0.3766  0.3952
  749TMC3    O211131   3.588   0.885   1.414  0.2764  0.2895  0.0544
  750MPD2     C11132   3.943   0.744  11.254 -0.4115 -0.1020  0.1009
  750MPD2    C111133   3.810   0.770  11.244  0.6194  0.2494 -0.0678
  750MPD2    C211134   3.737   0.694  11.146 -0.4594 -0.0768 -0.1404
  750MPD2    C311135   3.797   0.621  11.050 -0.4893  0.0926 -0.1983
  750MPD2    C411136   3.931   0.592  11.067 -0.5861  0.0120  0.0329
  750MPD2    C511137   4.000   0.654  11.166  0.2697  0.0096 -0.1112
  750MPD2     H11138   3.630   0.711  11.137 -0.3885 -0.5269 -1.7328
  750MPD2    H111139   3.985   0.522  11.005 -2.0958 -0.4551 -0.7444
  750MPD2    H211140   3.997   0.781  11.341  0.7080 -4.3031  1.2408
  750MPD2    H311141   4.103   0.625  11.182 -0.2920 -0.9315  1.7813
  750MPD2     N11142   3.728   0.544  10.950  0.0205 -0.6533  0.1903
  750MPD2    H511143   3.793   0.487  10.895  1.3023  0.2603  0.7708
  750MPD2    N111144   3.754   0.852  11.340  0.0737 -0.4411  0.4416
  750MPD2    H711145   3.816   0.884  11.414  2.0886  0.0585 -1.4851
  751TMC3    C111146   3.563   0.452  10.818  0.1407 -0.2731  0.5586
  751TMC3    C211147   3.441   0.397  10.819 -0.0750 -0.0291  0.2598
  751TMC3    C311148   3.407   0.308  10.720  0.0739  0.0879  0.3572
  751TMC3    C411149   3.655   0.428  10.721  0.0937  0.3294 -0.5819
  751TMC3    C511150   3.617   0.346  10.624  0.5014  0.2730 -0.3182
  751TMC3    C611151   3.493   0.282  10.621 -0.8240 -0.5316  0.3153
  751TMC3     C11152   3.596   0.542  10.924 -0.7440 -0.2865 -0.1890
  751TMC3     O11153   3.499   0.589  10.978 -0.5295 -0.7901  0.0602
  751TMC3     H11154   3.371   0.420  10.898 -1.7048 -0.4603 -1.0615
  751TMC3    H111155   3.754   0.471  10.721  0.2366 -0.0289 -2.8474
  751TMC3    H211156   3.447   0.230  10.538  0.0387  1.2754 -1.2790
  751TMC3    C711157   3.704   0.326  10.509  0.2136 -0.5006 -0.4549
  751TMC3    C811158   3.270   0.254  10.707 -0.4812  0.1105  0.2741
  751TMC3    O111159   3.781   0.417  10.500 -0.7176 -0.6989  0.0650
  751TMC3    O211160   3.258   0.156  10.637  0.3088  0.0151  0.1961
  752TMC3    C111161   2.696   1.922  17.570 -0.0646  0.1205  0.4943
  752TMC3    C211162   2.711   1.788  17.578  0.1230  0.1644  0.3084
  752TMC3    C311163   2.675   1.723  17.699 -0.9096  0.4975  0.8616
  752TMC3    C411164   2.656   1.998  17.674 -0.4516 -0.4489  0.0054
  752TMC3    C511165   2.634   1.933   0.039  0.7949 -0.6291 -0.3217
  752TMC3    C611166   2.629   1.794   0.051 -0.0160  1.2041  0.2972
  752TMC3     C11167   2.738   1.990  17.444 -0.0057  0.4430 -0.7426
  752TMC3     O11168   2.781   2.101  17.455 -0.1488  0.1765 -1.1276
  752TMC3     H11169   2.764   1.731  17.502 -0.9586  1.7852 -1.6607
  752TMC3    H111170   2.637   2.105  17.673  1.0945 -0.1694  0.4818
  752TMC3    H211171   2.612   1.742   0.145  0.6643 -0.9307 -0.7712
  752TMC3    C711172   2.596   2.011   0.158 -0.1918  0.0191 -0.5630
  752TMC3    C811173   2.678   1.577  17.702 -0.5510 -0.0749  0.2143
  752TMC3    O111174   2.646   2.124   0.153  0.2694  0.3360 -0.3490
  752TMC3    O211175   2.685   1.531   0.064  1.0771  0.1534  0.3849
  753TMC3    C111176   0.057   2.595  13.482 -0.4865 -0.0886 -0.4123
  753TMC3    C211177   0.032   2.610  13.614 -0.0877  0.2594  0.1170
  753TMC3    C311178   4.694   2.516  13.676  0.4262  0.2412  0.2720
  753TMC3    C411179   0.024   2.482  13.418  0.0189 -0.1709 -0.0233
  753TMC3    C511180   4.681   2.389  13.484 -0.2255 -0.1625  0.6490
  753TMC3    C611181   4.642   2.407  13.613 -0.5148 -0.5988 -0.0415
  753TMC3     C11182   0.167   2.667  13.430  0.2435 -0.5588 -0.2027
  753TMC3     O11183   0.250   2.616  13.355  0.5237 -0.1455 -0.2328
  753TMC3     H11184   0.078   2.693  13.667  0.2616 -1.2296  2.1407
  753TMC3    H111185   0.053   2.461  13.316  3.0778  0.7521  0.6644
  753TMC3    H211186   4.570   2.343  13.662 -1.3756  1.0781  0.9183
  753TMC3    C711187   4.635   2.280  13.405  0.7824 -0.3999 -0.1130
  753TMC3    C811188   4.714   2.498  13.819  0.0560  0.0658  0.0963
  753TMC3    O111189   4.655   2.289  13.283 -0.3599  0.2087  0.5033
  753TMC3    O211190   4.641   2.415  13.870 -0.2584 -0.5248  0.5518
  754MPD2     C11191   3.453   0.937  13.420 -0.8801  0.3349  0.1445
  754MPD2    C111192   3.387   0.816  13.396  0.4019  1.0031  0.0407
  754MPD2    C211193   3.302   0.807  13.289 -0.1443 -0.1107 -0.7633
  754MPD2    C311194   3.296   0.902  13.194  0.1256  0.3112 -0.3260
  754MPD2    C411195   3.356   1.018  13.230  0.6179 -0.3674 -0.2131
  754MPD2    C511196   3.416   1.044  13.347  0.0160 -0.7455  0.7913
  754MPD2     H11197   3.252   0.713  13.267 -0.0296 -0.2145 -0.5781
  754MPD2    H111198   3.350   1.100  13.160  0.1266  1.4658  1.9806
  754MPD2    H211199   3.525   0.951  13.499 -1.3154  3.4742 -0.0050
  754MPD2    H311200   3.452   1.142  13.375  2.5096 -1.1029 -1.1361
  754MPD2     N11201   3.231   0.886  13.067 -0.4475 -0.1043 -0.1648
  754MPD2    H511202   3.235   0.962  12.999 -1.1883  1.4676  1.5300
  754MPD2    N111203   3.409   0.708  13.484  0.0671 -0.1167  0.1566
  754MPD2    H711204   3.474   0.733  13.558  1.7804  0.6267 -1.6026
  755MPD2     C11205   2.345   1.227  13.023  0.0871  0.3761 -0.2066
  755MPD2    C111206   2.474   1.287  13.019  0.4980  0.5421  0.2635
  755MPD2    C211207   2.584   1.210  12.970 -0.0800 -1.0265 -0.7996
  755MPD2    C311208   2.561   1.073  12.929 -0.0427  0.6289  0.5643
  755MPD2    C411209   2.429   1.025  12.924 -0.3631 -0.1236 -0.5510
  755MPD2    C511210   2.329   1.097  12.982  0.1329  0.0977 -0.6191
  755MPD2     H11211   2.677   1.265  12.964 -0.8494  0.3081 -0.5852
  755MPD2    H111212   2.399   0.929  12.883  3.0352 -1.7139  0.6913
  755MPD2    H211213   2.250   1.267  13.057  0.8396  2.3409 -0.4266
  755MPD2    H311214   2.228   1.061  12.990  0.9380 -1.8301  0.6696
  755MPD2     N11215   2.660   0.982  12.880  0.4200 -0.1603 -0.4782
  755MPD2    H511216   2.635   0.886  12.861 -0.1693 -0.3431  1.1877
  755MPD2    N111217   2.503   1.416  13.063 -0.6338 -0.3925 -0.3274
  755MPD2    H711218   2.590   1.454  13.026  0.1675 -1.6368  0.2828
  756MPD2     C11219   2.871   2.191   9.703 -0.9983  0.0747 -0.8070
  756MPD2    C111220   2.882   2.100   9.811 -0.0719 -0.5968  0.6189
  756MPD2    C211221   2.774   2.011   9.816 -0.0337  0.1846 -0.1431
  756MPD2    C311222   2.660   2.027   9.746 -0.0143 -0.3215  0.4973
  756MPD2    C411223   2.644   2.119   9.650  0.1848  0.6279 -0.1538
  756MPD2    C511224   2.758   2.196   9.624  0.3105  0.1922 -0.0838
  756MPD2     H11225   2.786   1.929   9.886 -1.1756 -1.3019 -1.6785
  756MPD2    H111226   2.554   2.140   9.595 -0.2556 -3.1209 -0.8589
  756MPD2    H211227   2.931   2.278   9.679  0.3631 -1.1302 -1.7155
  756MPD2    H311228   2.754   2.260   9.536 -0.5842 -0.6109 -0.6228
  756MPD2     N11229   2.556   1.941   9.786  0.3463 -0.4281  0.0622
  756MPD2    H511230   2.576   1.872   9.857  0.8516  0.9469  1.2661
  756MPD2    N111231   2.993   2.079   9.895  0.2087 -0.4416 -0.1377
  756MPD2    H711232   2.980   2.006   9.964  1.9205 -0.4966  0.1277
  757MPD2     C11233   1.928   1.134   9.471 -0.0316 -0.1281 -0.0808
  757MPD2    C111234   1.964   1.137   9.605  0.2209 -0.5772 -0.5291
  757MPD2    C211235   2.025   1.254   9.650 -0.6504  0.1610  0.7029
  757MPD2    C311236   2.035   1.371   9.589  0.6524 -0.4926 -0.1754
  757MPD2    C411237   1.993   1.376   9.452 -0.2409  0.0494 -0.1865
  757MPD2    C511238   1.938   1.255   9.398 -0.6509  0.2252  0.0756
  757MPD2     H11239   2.066   1.270   9.750  0.5080  1.9976 -0.0642
  757MPD2    H111240   2.000   1.466   9.392 -0.3333 -0.4664 -0.9555
  757MPD2    H211241   1.901   1.045   9.415 -1.5057  0.0554  0.3228
  757MPD2    H311242   1.919   1.248   9.292 -1.0566 -2.3742  0.3098
  757MPD2     N11243   2.095   1.479   9.658 -0.1707 -0.4128  0.8600
  757MPD2    H511244   2.128   1.450   9.749  1.7791 -0.2915  0.2091
  757MPD2    N111245   1.960   1.012   9.672  0.4548 -0.5757 -0.1163
  757MPD2    H711246   1.925   0.932   9.620  2.3318 -1.2549 -0.3437
  758MPD2     C11247   3.419   1.072  15.797  0.1144 -0.3270 -0.0138
  758MPD2    C111248   3.468   0.984  15.885 -0.0998 -0.0550  0.2904
  758MPD2    C211249   3.452   0.997  16.023  0.0437 -0.4145  0.6647
  758MPD2    C311250   3.406   1.120  16.076  0.5645  0.1445  0.3159
  758MPD2    C411251   3.354   1.207  15.985  0.2903  0.3055  0.5593
  758MPD2    C511252   3.350   1.181  15.850  0.1490 -0.0074  0.5128
  758MPD2     H11253   3.494   0.918  16.084 -0.0091 -1.2436 -0.3774
  758MPD2    H111254   3.317   1.300  16.025 -0.7580  0.1887 -0.1345
  758MPD2    H211255   3.428   1.063  15.689 -0.9008  1.9538 -0.2872
  758MPD2    H311256   3.307   1.247  15.775 -2.2816 -2.7017 -0.4440
  758MPD2     N11257   3.419   1.164  16.214  0.7300 -0.4031 -0.5155
  758MPD2    H511258   3.391   1.260  16.230  0.8133 -0.3702 -0.5716
  758MPD2    N111259   3.534   0.859  15.851  0.3598 -0.2861 -0.0883
  758MPD2    H711260   3.548   0.804  15.935  0.1922 -2.5293 -1.5228
  759MPD2     C11261   1.302   3.077   8.981  0.6835 -0.4360  0.1662
  759MPD2    C111262   1.251   3.164   8.888 -0.2956 -0.1043  0.6563
  759MPD2    C211263   1.331   3.246   8.814 -0.4604 -0.2465  0.0814
  759MPD2    C311264   1.466   3.256   8.838  0.1952 -0.2041  0.6579
  759MPD2    C411265   1.515   3.169   8.927 -0.2577 -0.2498  0.4995
  759MPD2    C511266   1.434   3.078   9.002 -0.3651 -0.3629  0.3988
  759MPD2     H11267   1.284   3.327   8.761 -1.4434 -1.2740 -0.6071
  759MPD2    H111268   1.619   3.155   8.956 -0.0792  2.2804  1.0556
  759MPD2    H211269   1.240   3.006   9.035  0.9646 -1.2193 -0.5333
  759MPD2    H311270   1.468   3.000   9.069 -0.0185 -1.2490 -0.8178
  759MPD2     N11271   1.533   3.346   8.757 -0.0189  0.5718 -0.0147
  759MPD2    H511272   1.475   3.408   8.701  0.5025  1.9113  0.9405
  759MPD2    N111273   1.112   3.190   8.894 -0.3640 -0.0859 -0.5727
  759MPD2    H711274   1.076   3.261   8.831 -0.4720  0.4048  0.0405
  760MPD2     C11275   1.701   1.349  11.949  0.8943 -0.3069  0.2043
  760MPD2    C111276   1.839   1.343  11.921  0.2529  0.4262  0.3507
  760MPD2    C211277   1.911   1.227  11.906 -0.6010  0.4401  0.1456
  760MPD2    C311278   1.844   1.107  11.912  0.5331 -0.6332 -0.0406
  760MPD2    C411279   1.707   1.107  11.936 -0.4822 -0.1649 -0.0186
  760MPD2    C511280   1.634   1.229  11.952 -0.1268 -0.0150  0.0762
  760MPD2     H11281   2.019   1.232  11.897 -0.3652 -2.1870  1.5735
  760MPD2    H111282   1.660   1.013  11.960  1.0228 -0.4332  1.8101
  760MPD2    H211283   1.636   1.434  11.966  1.0608 -0.2269  0.4344
  760MPD2    H311284   1.529   1.228  11.979 -0.3427 -0.8810 -0.8186
  760MPD2     N11285   1.896   0.976  11.909  0.4749 -0.0792 -0.0001
  760MPD2    H511286   1.830   0.900  11.906  1.9343 -1.3699  0.4236
  760MPD2    N111287   1.925   1.459  11.901  0.1744 -0.5761  0.6639
  760MPD2    H711288   2.025   1.443  11.891 -0.1633 -2.2470 -0.0873
  761MPD2     C11289   2.769   0.264  10.777  1.2414  0.3140 -0.0549
  761MPD2    C111290   2.843   0.164  10.726  0.0691 -0.1819 -0.8153
  761MPD2    C211291   2.980   0.178  10.714  0.2986  0.3933 -0.0320
  761MPD2    C311292   3.035   0.291  10.776  0.0539 -0.3280 -0.0158
  761MPD2    C411293   2.960   0.386  10.843 -0.8636  0.3776  0.3424
  761MPD2    C511294   2.825   0.375  10.843  0.2077 -0.5521  0.0569
  761MPD2     H11295   3.038   0.106  10.659  1.3715 -0.3954  2.1115
  761MPD2    H111296   3.003   0.481  10.872  0.4701 -0.2236  0.3280
  761MPD2    H211297   2.663   0.245  10.784  1.6201 -1.0872  1.9284
  761MPD2    H311298   2.761   0.453  10.884  2.3854  1.0263  0.4750
  761MPD2     N11299   3.176   0.331  10.775  0.3152 -0.7006 -0.2843
  761MPD2    H511300   3.198   0.423  10.811  0.8378 -1.4696  1.3447
  761MPD2    N111301   2.763   0.060  10.668  1.5435 -0.2221  0.4430
  761MPD2    H711302   2.668   0.093  10.654  0.5240 -2.9168  1.0794
  762MPD2     C11303   3.543   4.725  10.788 -0.1608 -0.3494  0.5742
  762MPD2    C111304   3.493   4.639  10.697 -0.2269 -0.5703  0.4314
  762MPD2    C211305   3.573   4.605  10.584 -0.2472 -0.5202  0.2618
  762MPD2    C311306   3.703   4.649  10.570 -0.3947  0.2437 -0.8922
  762MPD2    C411307   3.756   4.729  10.666 -0.9949  0.6320 -0.1578
  762MPD2    C511308   3.672   0.026  10.772 -0.1971  0.3837  0.3234
  762MPD2     H11309   3.530   4.535  10.513 -1.9770 -1.0519  1.8172
  762MPD2    H111310   3.856   0.030  10.675 -1.1353  1.1997 -1.1274
  762MPD2    H211311   3.481   0.022  10.869  2.6552  2.8177  1.3108
  762MPD2    H311312   3.706   0.092  10.852  1.0829  1.0236 -0.7560
  762MPD2     N11313   3.778   4.595  10.455  0.1358  0.4210 -0.7150
  762MPD2    H511314   3.741   4.527  10.390 -0.2138 -0.6868  0.6484
  762MPD2    N111315   3.355   4.616  10.712 -0.1035  0.1803  0.2557
  762MPD2    H711316   3.327   4.657  10.800 -4.4437 -0.0479 -1.0471
  763MPD2     C11317   0.530   0.798  16.312  0.1177  0.1018 -0.2446
  763MPD2    C111318   0.621   0.818  16.206 -0.6255  0.6418 -0.3180
  763MPD2    C211319   0.719   0.916  16.226 -0.3749 -0.2911  0.0715
  763MPD2    C311320   0.724   0.994  16.334  0.0479 -0.7148 -0.1332
  763MPD2    C411321   0.631   0.972  16.429  0.1067  0.2377 -0.4299
  763MPD2    C511322   0.540   0.870  16.423 -0.8733  0.5822  0.7435
  763MPD2     H11323   0.786   0.938  16.144 -1.8240  1.5921 -0.6235
  763MPD2    H111324   0.631   1.030  16.520 -2.5526  0.7117 -0.7197
  763MPD2    H211325   0.450   0.724  16.313 -0.7050  0.9947  0.0783
  763MPD2    H311326   0.475   0.853  16.508 -0.4059 -2.6130  0.4712
  763MPD2     N11327   0.822   1.093  16.334 -0.2369  0.1320 -0.3394
  763MPD2    H511328   0.888   1.089  16.257  1.2738  1.3018  0.8722
  763MPD2    N111329   0.613   0.757  16.079 -0.1227  0.3298 -0.3783
  763MPD2    H711330   0.675   0.801  16.012  1.2627 -1.7519 -0.4706
  764MPD2     C11331   3.480   2.728   0.152  0.4020 -0.0126 -0.6624
  764MPD2    C111332   3.344   2.693   0.157 -0.2694  0.1252  1.0860
  764MPD2    C211333   3.290   2.696   0.292  0.4384 -1.2021  0.1857
  764MPD2    C311334   3.359   2.739   0.405 -0.2338  0.7186  0.1681
  764MPD2    C411335   3.489   2.780   0.384  0.2893  0.3276 -0.1428
  764MPD2    C511336   3.545   2.776   0.262 -0.4757 -0.4678 -0.5835
  764MPD2     H11337   3.187   2.670   0.308 -0.6576  3.0211  0.1279
  764MPD2    H111338   3.544   2.813   0.471  1.4395 -1.0146 -0.3455
  764MPD2    H211339   3.551   2.724   0.071  1.4780 -1.4918  0.3633
  764MPD2    H311340   3.651   2.794   0.245 -0.3543  0.2213  0.9294
  764MPD2     N11341   3.288   2.719   0.531  0.2254 -0.5178  0.2551
  764MPD2    H511342   3.193   2.689   0.515 -0.2894  2.0200 -1.4304
  764MPD2    N111343   3.260   2.648   0.048 -0.3173 -0.2099  0.3924
  764MPD2    H711344   3.161   2.645   0.071 -0.3638 -0.3958  0.1651
  765MPD2     C11345   3.447   0.330  15.343 -0.4765  0.8345  0.3590
  765MPD2    C111346   3.442   0.392  15.467 -0.1073 -0.5423 -0.7150
  765MPD2    C211347   3.563   0.403  15.541 -0.0873 -0.6132  0.0005
  765MPD2    C311348   3.682   0.355  15.481  0.0284 -0.3274  0.4313
  765MPD2    C411349   3.685   0.296  15.354 -0.3853 -0.7531  0.4629
  765MPD2    C511350   3.562   0.282  15.287 -0.0862 -0.2082 -0.2969
  765MPD2     H11351   3.568   0.437  15.643  0.7935 -0.1669 -0.1970
  765MPD2    H111352   3.774   0.245  15.318 -0.9854 -1.8718  0.5790
  765MPD2    H211353   3.361   0.319  15.278  0.4682  4.4526 -1.5174
  765MPD2    H311354   3.547   0.239  15.189 -4.0692  0.3848  0.0597
  765MPD2     N11355   3.801   0.364  15.556 -0.1074 -0.2829  0.2811
  765MPD2    H511356   3.790   0.380  15.655  0.9243 -1.9329  0.6577
  765MPD2    N111357   3.322   0.462  15.497  0.4982 -0.8453 -0.0258
  765MPD2    H711358   3.245   0.443  15.434  0.4601 -0.1719 -0.1826
  766MPD2     C11359   2.711   0.606  15.162 -0.3964 -0.8135 -0.1993
  766MPD2    C111360   2.852   0.596  15.181 -0.4749  0.8181 -0.2298
  766MPD2    C211361   2.928   0.560  15.077 -0.0698 -0.2174  0.0177
  766MPD2    C311362   2.878   0.549  14.949 -0.1737  0.3919  0.4211
  766MPD2    C411363   2.741   0.563  14.932  0.1440 -0.3119 -0.2656
  766MPD2    C511364   2.666   0.596  15.039  0.0433 -0.3456  0.3370
  766MPD2     H11365   3.034   0.558  15.097 -0.5966  0.0260  2.8450
  766MPD2    H111366   2.697   0.550  14.834  1.2698  3.0614 -1.2236
  766MPD2    H211367   2.641   0.636  15.239 -0.8577 -2.7933  0.1472
  766MPD2    H311368   2.563   0.630  15.029  0.5562  0.5444 -1.9951
  766MPD2     N11369   2.974   0.524  14.846  0.4878 -0.2975 -0.1350
  766MPD2    H511370   3.071   0.520  14.877 -0.4990 -0.2528  2.9436
  766MPD2    N111371   2.913   0.611  15.310 -0.1900  0.1843  0.1677
  766MPD2    H711372   3.011   0.587  15.318  0.0046  0.4706 -1.4125
  767MPD2     C11373   2.485   0.951  14.746 -0.4792  0.3116  0.1877
  767MPD2    C111374   2.613   0.894  14.758  0.3607  0.0925  0.2222
  767MPD2    C211375   2.646   0.798  14.658 -0.5009  0.1397  1.0249
  767MPD2    C311376   2.551   0.760  14.558  0.1054 -0.5275 -0.0961
  767MPD2    C411377   2.428   0.820  14.555  0.9082  1.0970 -0.0494
  767MPD2    C511378   2.397   0.911  14.648 -0.1314 -0.0671 -0.1847
  767MPD2     H11379   2.743   0.751  14.648 -0.8045 -0.0651 -0.9860
  767MPD2    H111380   2.344   0.790  14.493  0.8879  0.3495  0.3365
  767MPD2    H211381   2.455   1.030  14.814 -0.8027  1.2339 -1.0322
  767MPD2    H311382   2.299   0.956  14.638 -0.3664 -0.6490 -0.4664
  767MPD2     N11383   2.591   0.655  14.473 -0.2809  0.6932 -0.6698
  767MPD2    H511384   2.678   0.605  14.487 -0.8875  0.2469  1.5977
  767MPD2    N111385   2.699   0.929  14.865 -0.3146 -0.6656 -0.2106
  767MPD2    H711386   2.668   1.005  14.925  3.2641  1.8801 -1.5983
  768MPD2     C11387   3.031   3.375  10.791 -0.5224 -0.3470  0.1642
  768MPD2    C111388   3.097   3.477  10.845  0.0798 -0.1973  0.0830
  768MPD2    C211389   3.198   3.452  10.933 -0.2310 -0.6025 -0.6688
  768MPD2    C311390   3.231   3.320  10.967  0.3270  0.0814 -0.4802
  768MPD2    C411391   3.155   3.211  10.918  0.1318  0.2156  0.2098
  768MPD2    C511392   3.056   3.242  10.828 -0.1507  0.5870  0.0525
  768MPD2     H11393   3.253   3.540  10.966  2.8279 -2.2263 -1.4117
  768MPD2    H111394   3.173   3.109  10.951  0.2817 -0.4511 -1.9114
  768MPD2    H211395   2.955   3.390  10.715 -0.5968  0.5299  0.4186
  768MPD2    H311396   2.997   3.160  10.789  2.4460 -1.1938 -0.0591
  768MPD2     N11397   3.328   3.296  11.059 -0.0013 -0.2428 -0.0495
  768MPD2    H511398   3.357   3.199  11.062  1.9608  0.3132 -1.4875
  768MPD2    N111399   3.088   3.612  10.796  0.3530 -0.1484  0.1138
  768MPD2    H711400   3.150   3.680  10.837 -1.3613  0.7260  1.2280
  769MPD2     C11401   0.126   2.079  15.047 -0.1653 -0.3242 -0.1307
  769MPD2    C111402   0.027   2.068  15.137 -0.0402  0.2580  0.6588
  769MPD2    C211403   0.052   2.071  15.269  0.3945 -0.0075  0.1099
  769MPD2    C311404   0.187   2.082  15.323 -0.6028 -0.1981 -0.1801
  769MPD2    C411405   0.284   2.098  15.227  0.3755  0.3572  0.0783
  769MPD2    C511406   0.258   2.094  15.096 -0.0819  0.7216  0.3971
  769MPD2     H11407   4.707   2.064  15.337  1.0013 -2.1019  0.6638
  769MPD2    H111408   0.389   2.097  15.256  0.5315 -2.5564 -0.5662
  769MPD2    H211409   0.105   2.072  14.941  2.1700  0.6564 -0.6620
  769MPD2    H311410   0.336   2.103  15.021 -1.3328  2.6512 -0.6778
  769MPD2     N11411   0.200   2.073  15.462 -0.5612  0.2506  0.0068
  769MPD2    H511412   0.113   2.072  15.515 -0.6002  2.3343  0.0059
  769MPD2    N111413   4.635   2.059  15.083 -0.3054  0.1722  0.0075
  769MPD2    H711414   4.626   2.055  14.982 -0.1836 -0.3896  0.0157
  770MPD2     C11415   4.452   1.169  14.908  0.1637 -0.3199 -0.1218
  770MPD2    C111416   4.318   1.202  14.889 -0.2335  0.3297  0.4997
  770MPD2    C211417   4.276   1.328  14.881  0.3819 -0.3825  0.7050
  770MPD2    C311418   4.372   1.434  14.897 -0.7381  0.1801 -0.1349
  770MPD2    C411419   4.504   1.401  14.921  0.1744 -0.2795  0.1524
  770MPD2    C511420   4.549   1.269  14.912 -0.0373 -0.1812  0.2172
  770MPD2     H11421   4.172   1.351  14.862  0.9542  1.1348 -0.6202
  770MPD2    H111422   4.580   1.475  14.940  0.1583 -0.2973  0.2887
  770MPD2    H211423   4.491   1.069  14.898  0.8438 -0.2489  1.8038
  770MPD2    H311424   4.653   1.240  14.917 -0.4242 -2.1278 -2.6711
  770MPD2     N11425   4.329   1.566  14.926  0.2465  0.1472 -0.3886
  770MPD2    H511426   4.229   1.581  14.937  0.7793  2.5368  1.3084
  770MPD2    N111427   4.242   1.088  14.874 -0.0229 -0.2855 -0.1088
  770MPD2    H711428   4.295   1.002  14.876 -0.3033 -0.4733 -0.5721
  771MPD2     C11429   0.606   4.465  13.661 -0.0234 -0.1008  0.4117
  771MPD2    C111430   0.528   4.579  13.639 -0.2593 -1.1690 -1.2281
  771MPD2    C211431   0.415   4.570  13.562  0.7250 -0.6116 -0.4697
  771MPD2    C311432   0.386   4.459  13.492  0.4995 -0.1054 -0.8103
  771MPD2    C411433   0.458   4.346  13.518 -0.2514 -0.1232 -0.3933
  771MPD2    C511434   0.570   4.354  13.594  0.0347 -0.3958 -0.2814
  771MPD2     H11435   0.352   4.658  13.549  1.8629  0.2363 -0.3113
  771MPD2    H111436   0.436   4.251  13.471  0.6855 -0.9608  0.8299
  771MPD2    H211437   0.685   4.457  13.735 -0.0739  0.0471  0.4814
  771MPD2    H311438   0.638   4.270  13.600  0.3741 -0.0795  0.2928
  771MPD2     N11439   0.271   4.454  13.408 -0.3086 -0.6451  0.1015
  771MPD2    H511440   0.229   4.542  13.378 -0.8140  0.0258  2.7936
  771MPD2    N111441   0.550   4.696  13.704  0.4765  0.0606 -0.2529
  771MPD2    H711442   0.482   0.031  13.691  0.8351  0.5782  0.8188
  772MPD2     C11443   0.211   0.377  14.143  0.1728 -0.1990  0.0219
  772MPD2    C111444   0.219   0.303  14.030  0.8178  0.2291  0.6881
  772MPD2    C211445   0.108   0.228  14.002 -0.2960  0.4073  0.0665
  772MPD2    C311446   4.734   0.230  14.084 -0.1083 -0.3330 -0.1941
  772MPD2    C411447   4.732   0.306  14.198 -0.0868 -0.7432 -0.1959
  772MPD2    C511448   0.101   0.384  14.223 -0.1287 -0.2917  0.2599
  772MPD2     H11449   0.107   0.176  13.906 -1.3655 -0.0557  0.3265
  772MPD2    H111450   4.645   0.314  14.263  0.4907  1.2499  0.3415
  772MPD2    H211451   0.289   0.445  14.175 -1.3460  1.2467  0.7172
  772MPD2    H311452   0.099   0.446  14.312  1.4132 -2.1043  1.5534
  772MPD2     N11453   4.617   0.156  14.058  0.3079  0.0914 -0.0083
  772MPD2    H511454   4.546   0.162  14.131  0.3054  2.3995 -0.1900
  772MPD2    N111455   0.331   0.296  13.950 -0.1544  0.5063  0.0241
  772MPD2    H711456   0.339   0.234  13.870 -1.2954  1.6059 -0.9489
  773MPD2     C11457   4.414   1.588   0.446  0.7863  0.3187  0.1211
  773MPD2    C111458   4.303   1.507   0.414  0.7122  0.7127  0.0246
  773MPD2    C211459   4.282   1.388   0.478  0.4341  0.2564 -0.5151
  773MPD2    C311460   4.383   1.339   0.562  0.5057  0.4041 -0.1714
  773MPD2    C411461   4.484   1.424   0.609 -0.3249 -0.3161 -0.3801
  773MPD2    C511462   4.500   1.543   0.545  0.1000  0.2589  0.2488
  773MPD2     H11463   4.190   1.330   0.470  0.5716  0.0991 -0.9543
  773MPD2    H111464   4.547   1.397   0.693 -0.2355 -0.4044 -0.4765
  773MPD2    H211465   4.434   1.686   0.405  1.1596 -0.2362 -1.0236
  773MPD2    H311466   4.587   1.601   0.571  1.0550 -1.0512 -0.0549
  773MPD2     N11467   4.372   1.206   0.607  0.3541 -0.2444  0.0158
  773MPD2    H511468   4.293   1.153   0.572  0.7831 -1.5532  1.0339
  773MPD2    N111469   4.214   1.544   0.310  0.0822  0.4107  0.1688
  773MPD2    H711470   4.124   1.498   0.300 -0.1097  0.6005  0.9833
  774MPD2     C11471   2.999   4.620  14.107 -0.1739 -0.3273 -0.0450
  774MPD2    C111472   3.138   4.609  14.109  0.4763  0.0852  0.3896
  774MPD2    C211473   3.204   4.704  14.029 -0.2766  0.8058 -1.2847
  774MPD2    C311474   3.138   0.063  13.951 -0.3659  0.4348 -0.5094
  774MPD2    C411475   3.002   0.071  13.954 -0.3081 -0.7886 -1.0250
  774MPD2    C511476   2.933   4.722  14.038  0.1088 -0.3213  0.2282
  774MPD2     H11477   3.312   4.706  14.026 -0.2800  1.7003 -0.8716
  774MPD2    H111478   2.959   0.143  13.885  0.6265 -0.2373 -1.0287
  774MPD2    H211479   2.937   4.549  14.160  0.0045  2.9603  4.5198
  774MPD2    H311480   2.825   4.722  14.035  0.1345  0.2915 -0.6500
  774MPD2     N11481   3.223   0.147  13.873 -0.3069  0.2846 -0.7676
  774MPD2    H511482   3.319   0.121  13.894 -1.2043 -2.5442 -0.1899
  774MPD2    N111483   3.204   4.512  14.191 -0.4352 -0.0919  0.0778
  774MPD2    H711484   3.140   4.446  14.234 -1.4435  0.4247 -0.6567
  775MPD2     C11485   0.627   1.689  15.975  0.4513 -0.2460  0.0873
  775MPD2    C111486   0.577   1.807  16.015  0.0212  0.1213 -0.3160
  775MPD2    C211487   0.637   1.919  15.968 -0.6536 -0.6099 -0.2258
  775MPD2    C311488   0.745   1.915  15.885  0.0268  0.7265 -0.0839
  775MPD2    C411489   0.787   1.789  15.834 -0.3578  0.5476 -0.4237
  775MPD2    C511490   0.732   1.678  15.891 -0.2637  0.2158  0.1522
  775MPD2     H11491   0.608   2.021  15.989  0.1482 -0.9898  2.7059
  775MPD2    H111492   0.872   1.780  15.768  2.2155  1.9403  2.6629
  775MPD2    H211493   0.594   1.599  16.025 -0.5757 -0.1182 -0.3415
  775MPD2    H311494   0.767   1.583  15.852 -0.2462  0.5057 -0.5366
  775MPD2     N11495   0.802   2.032  15.830 -0.2865  0.3922 -0.4927
  775MPD2    H511496   0.867   2.013  15.755  0.8452 -2.0604  1.1315
  775MPD2    N111497   0.471   1.815  16.109 -0.4925 -0.0412  0.9716
  775MPD2    H711498   0.440   1.723  16.141 -0.0161 -0.8084 -0.7836
  776MPD2     C11499   3.183   1.378  11.244 -0.4568 -0.0511  0.9475
  776MPD2    C111500   3.269   1.429  11.339 -0.7295  0.3604  0.6115
  776MPD2    C211501   3.248   1.551  11.389 -0.0858  0.3873  0.0592
  776MPD2    C311502   3.139   1.631  11.355  0.3951  0.1011  0.6640
  776MPD2    C411503   3.050   1.581  11.266 -0.0826 -0.1307  0.1704
  776MPD2    C511504   3.066   1.452  11.221 -0.7797 -0.2079 -0.0519
  776MPD2     H11505   3.327   1.600  11.446  0.0108 -2.1902  2.1171
  776MPD2    H111506   2.965   1.640  11.232 -0.1342  0.1261  0.7519
  776MPD2    H211507   3.182   1.274  11.212 -0.9670  0.0642  0.5949
  776MPD2    H311508   2.989   1.424  11.151 -1.1472  1.6580 -0.3943
  776MPD2     N11509   3.120   1.758  11.404 -0.7035  0.3857 -0.1527
  776MPD2    H511510   3.041   1.810  11.367 -2.1389 -0.5017  1.6654
  776MPD2    N111511   3.382   1.343  11.371 -0.2272  0.1966  0.3591
  776MPD2    H711512   3.376   1.252  11.327 -0.2786 -0.5561  1.9337
  777MPD2     C11513   3.716   4.643   0.691 -0.5382 -0.2326 -0.4883
  777MPD2    C111514   3.716   4.552   0.798  0.3826  0.4428  0.9747
  777MPD2    C211515   3.717   4.416   0.765  0.8299 -0.6263 -0.1279
  777MPD2    C311516   3.712   4.380   0.628  0.1377 -0.0699 -0.4969
  777MPD2    C411517   3.721   4.473   0.529  0.5392 -0.5177  0.2367
  777MPD2    C511518   3.718   4.606   0.561 -0.7498  0.5719 -0.2507
  777MPD2     H11519   3.725   4.337   0.839 -1.6705 -0.3585  0.4391
  777MPD2    H111520   3.722   4.448   0.424 -1.9934  0.1195  0.0461
  777MPD2    H211521   3.714   0.010   0.713 -1.5004  0.1106 -2.1514
  777MPD2    H311522   3.728   4.671   0.475  2.6112  1.1840  0.6371
  777MPD2     N11523   3.708   4.247   0.607  0.2075  0.6716  0.0888
  777MPD2    H511524   3.717   4.192   0.692  2.0985  2.0245  0.7566
  777MPD2    N111525   3.731   4.597   0.934  0.4619 -0.0707 -0.1712
  777MPD2    H711526   3.735   4.698   0.941  1.8818 -0.2531  1.5008
  778MPD2     C11527   0.707   0.148  14.797 -0.5487 -0.5539  0.7797
  778MPD2    C111528   0.742   0.052  14.705  0.5654 -0.5937 -0.1555
  778MPD2    C211529   0.817   0.076  14.589 -0.2969 -0.2247  0.1332
  778MPD2    C311530   0.861   0.212  14.565  0.0007 -0.4054  0.3363
  778MPD2    C411531   0.827   0.314  14.658  0.4626  0.4435  0.1209
  778MPD2    C511532   0.750   0.281  14.768  0.1905  0.1946 -0.0967
  778MPD2     H11533   0.834   4.737  14.516  0.5398  0.8795 -0.8449
  778MPD2    H111534   0.864   0.414  14.641 -0.4756  0.7753  0.0202
  778MPD2    H211535   0.632   0.128  14.873 -0.8443 -0.9360  0.3905
  778MPD2    H311536   0.718   0.362  14.833 -1.4118 -1.4182  1.1241
  778MPD2     N11537   0.953   0.232  14.457  0.3606  0.1516  0.1997
  778MPD2    H511538   0.975   0.155  14.395 -0.1027 -0.8998  1.3510
  778MPD2    N111539   0.696   4.658  14.716  0.4599  0.2005 -0.5047
  778MPD2    H711540   0.686   4.609  14.627  1.3228  2.3439 -1.7824
  779MPD2     C11541   0.140   3.458  14.130  0.2026  0.1796  0.1776
  779MPD2    C111542   0.272   3.465  14.187  0.0581  0.5721 -0.1000
  779MPD2    C211543   0.350   3.580  14.165  0.2434 -0.0781 -0.8444
  779MPD2    C311544   0.302   3.678  14.085  0.1250  0.3009 -0.2697
  779MPD2    C411545   0.174   3.669  14.037  0.1874  0.0412  0.3686
  779MPD2    C511546   0.098   3.563  14.061  0.5117  0.4744  0.2456
  779MPD2     H11547   0.449   3.590  14.208  0.0623 -2.1612  0.0520
  779MPD2    H111548   0.130   3.740  13.967 -0.5151  1.7639  2.5719
  779MPD2    H211549   0.069   3.381  14.159  1.3900 -1.4119 -1.1586
  779MPD2    H311550   0.000   3.556  14.014  1.1676  2.6516 -1.4203
  779MPD2     N11551   0.388   3.793  14.069  0.2284 -0.5681 -0.0400
  779MPD2    H511552   0.481   3.776  14.105  0.0359  1.3138  1.3422
  779MPD2    N111553   0.325   3.374  14.270 -0.3064  0.6505  0.0464
  779MPD2    H711554   0.425   3.379  14.286 -0.1912 -1.4222 -0.1014
  780MPD2     C11555   4.681   3.776   0.940 -0.1418  0.3261  0.4616
  780MPD2    C111556   0.014   3.666   0.902  0.7276  0.6491  0.0748
  780MPD2    C211557   0.086   3.664   0.784  0.1508 -0.2905  0.2666
  780MPD2    C311558   0.081   3.770   0.698  0.1424 -0.3409 -0.4438
  780MPD2    C411559   0.002   3.878   0.740 -0.6081 -0.3487 -0.5431
  780MPD2    C511560   4.676   3.882   0.855  0.5218 -0.3898 -1.1488
  780MPD2     H11561   0.148   3.580   0.757 -0.7279 -0.9632  0.3698
  780MPD2    H111562   0.006   3.973   0.689 -0.9564  0.8046  1.5831
  780MPD2    H211563   4.609   3.764   1.019 -0.8660 -2.3024 -0.5786
  780MPD2    H311564   4.623   3.973   0.880  0.4763 -0.8925  0.5744
  780MPD2     N11565   0.152   3.763   0.579  0.3180  0.0270 -0.8973
  780MPD2    H511566   0.209   3.682   0.558  0.6807  0.2206 -0.6444
  780MPD2    N111567   0.006   3.554   0.989  0.1242  0.1445  1.0185
  780MPD2    H711568   4.682   3.556   1.068 -1.2878 -3.6707 -0.0160
  781MPD2     C11569   1.436   4.446  12.125  0.7060  0.0139  0.4609
  781MPD2    C111570   1.470   4.576  12.120 -0.4736 -0.3146 -0.7015
  781MPD2    C211571   1.561   4.609  12.022  0.5302  0.3497 -0.3105
  781MPD2    C311572   1.618   4.525  11.933 -0.0548  0.6260  0.1991
  781MPD2    C411573   1.573   4.399  11.930  0.0860 -0.0886 -0.3643
  781MPD2    C511574   1.479   4.356  12.023 -0.4561  0.7537 -0.0101
  781MPD2     H11575   1.581   4.715  12.013 -0.3579  0.7423  2.4622
  781MPD2    H111576   1.600   4.320  11.861  1.2708  0.0792 -0.0903
  781MPD2    H211577   1.374   4.394  12.198  0.8943 -0.2306  0.4486
  781MPD2    H311578   1.457   4.250  12.033 -1.8924  1.1240  0.7340
  781MPD2     N11579   1.717   4.566  11.841 -0.1468  0.1342 -0.1904
  781MPD2    H511580   1.755   4.504  11.769 -2.0016 -0.0608 -0.9823
  781MPD2    N111581   1.433   4.663  12.223  0.1542  0.1889 -0.0007
  781MPD2    H711582   1.477   0.016  12.223 -0.1597  0.3416 -0.4746
  782MPD2     C11583   4.322   0.877   9.682  0.5000  0.3642 -0.4278
  782MPD2    C111584   4.352   0.823   9.812 -0.0318 -0.9322 -0.3638
  782MPD2    C211585   4.374   0.903   9.915  0.3779 -0.1962  0.2794
  782MPD2    C311586   4.372   1.042   9.900  0.5699 -0.4474  0.5139
  782MPD2    C411587   4.350   1.101   9.776 -0.3625  0.9376 -0.6688
  782MPD2    C511588   4.322   1.019   9.674 -0.5956  0.5031  0.0174
  782MPD2     H11589   4.393   0.859  10.012  1.2570 -0.2753  0.0654
  782MPD2    H111590   4.343   1.204   9.745  0.6715  0.2390 -3.2591
  782MPD2    H211591   4.310   0.809   9.599 -0.5067  1.6494 -1.3296
  782MPD2    H311592   4.303   1.058   9.575  1.1053  2.8181  0.5910
  782MPD2     N11593   4.395   1.115  10.024  0.6416 -0.5285 -0.4141
  782MPD2    H511594   4.413   1.060  10.108  1.2553  0.2937 -0.0111
  782MPD2    N111595   4.360   0.687   9.836 -0.0453  0.1755 -0.0862
  782MPD2    H711596   4.383   0.662   9.932 -0.2485  0.6616  0.0891
  783MPD2     C11597   3.665   0.103  10.231  0.8397 -0.4090  0.3052
  783MPD2    C111598   3.726   0.207  10.298 -0.4946  0.7503  0.9938
  783MPD2    C211599   3.849   0.252  10.258 -0.4820 -0.1497 -0.1488
  783MPD2    C311600   3.889   0.220  10.127  0.4692 -0.3470 -0.9947
  783MPD2    C411601   3.822   0.121  10.059 -0.0172  0.3740  0.3946
  783MPD2    C511602   3.712   0.059  10.113 -0.2257  0.4896  0.3915
  783MPD2     H11603   3.900   0.330  10.314  0.1333 -0.8764  0.3066
  783MPD2    H111604   3.857   0.079   9.966 -2.6142 -1.1700  0.1257
  783MPD2    H211605   3.572   0.056  10.261 -0.9173  2.1974 -1.1884
  783MPD2    H311606   3.656   4.720  10.063  2.9281 -2.0052  0.7378
  783MPD2     N11607   4.013   0.267  10.082 -0.0503  0.1180  0.0730
  783MPD2    H511608   4.070   0.327  10.140  0.0052 -0.4171  0.5811
  783MPD2    N111609   3.668   0.230  10.424  0.5447 -0.0610 -0.1963
  783MPD2    H711610   3.582   0.181  10.446 -0.4985  1.0999 -1.7078
  784MPD2     C11611   1.989   1.353   0.514 -0.2766 -0.6066  0.3654
  784MPD2    C111612   1.935   1.339   0.639 -0.0553 -0.0468 -0.7176
  784MPD2    C211613   1.802   1.372   0.652 -0.2426 -0.0031 -0.2712
  784MPD2    C311614   1.724   1.422   0.551  0.1486 -0.0618 -0.0577
  784MPD2    C411615   1.786   1.435   0.425 -0.5439 -0.2040 -0.2189
  784MPD2    C511616   1.919   1.396   0.409 -0.1306 -0.2142  0.0122
  784MPD2     H11617   1.761   1.372   0.753 -2.3931 -1.6056 -1.1268
  784MPD2    H111618   1.739   1.473   0.335  1.2938 -0.4325 -1.2792
  784MPD2    H211619   2.091   1.319   0.498 -1.0781 -2.9728  0.2462
  784MPD2    H311620   1.966   1.405   0.312 -2.7960 -0.6728 -1.3182
  784MPD2     N11621   1.596   1.449   0.576  0.1218 -0.4832 -0.3469
  784MPD2    H511622   1.566   1.423   0.670 -0.6386  0.3701 -0.3504
  784MPD2    N111623   2.004   1.316   0.758  0.6761 -0.5540 -0.9550
  784MPD2    H711624   1.960   1.327   0.849 -0.1605 -1.8798 -1.2074
  785MPD2     C11625   2.402   3.448  10.487 -0.2749  0.2519 -0.1045
  785MPD2    C111626   2.337   3.550  10.550  0.3654 -0.7320  0.1945
  785MPD2    C211627   2.210   3.520  10.587 -0.5382 -0.1512 -0.2577
  785MPD2    C311628   2.151   3.394  10.575  0.0289 -0.3594 -0.4957
  785MPD2    C411629   2.228   3.298  10.517 -0.1853 -0.4460 -0.6973
  785MPD2    C511630   2.346   3.332  10.457  0.2557 -0.2170 -0.0538
  785MPD2     H11631   2.143   3.594  10.629 -0.3002 -1.0327  1.6581
  785MPD2    H111632   2.189   3.198  10.500 -1.3881 -0.1525  0.3038
  785MPD2    H211633   2.500   3.464  10.443 -0.2402  0.1974 -0.0468
  785MPD2    H311634   2.401   3.253  10.406 -0.3835 -0.0848 -0.9549
  785MPD2     N11635   2.019   3.373  10.614  0.2242 -0.0691  0.1610
  785MPD2    H511636   1.968   3.449  10.658 -1.2253  0.5854 -2.6400
  785MPD2    N111637   2.405   3.671  10.576  0.4755 -0.1869 -0.9613
  785MPD2    H711638   2.499   3.684  10.540  0.1062  0.6899 -1.6116
  786MPD2     C11639   0.572   2.862  14.645 -0.5334  0.6332 -0.0468
  786MPD2    C111640   0.668   2.758  14.656  0.2328 -0.9094  1.0878
  786MPD2    C211641   0.760   2.759  14.763 -1.2059  0.8082  0.5998
  786MPD2    C311642   0.745   2.854  14.864 -0.6781 -0.1707 -0.4751
  786MPD2    C411643   0.643   2.941  14.859 -0.4968  0.1363  0.8098
  786MPD2    C511644   0.556   2.948  14.752 -0.0071 -0.0687  0.3889
  786MPD2     H11645   0.838   2.684  14.761 -2.1374 -0.1448 -0.1515
  786MPD2    H111646   0.625   3.006  14.943 -2.0902  1.5074 -0.5835
  786MPD2    H211647   0.499   2.859  14.565  0.1434 -0.3596 -0.6286
  786MPD2    H311648   0.471   3.014  14.757  0.0213  0.0058 -0.1015
  786MPD2     N11649   0.840   2.867  14.968  0.3685  0.0867 -0.1683
  786MPD2    H511650   0.805   2.916  15.050  0.7561  0.0010  0.0450
  786MPD2    N111651   0.693   2.655  14.565  0.1159 -0.0184  0.1653
  786MPD2    H711652   0.781   2.609  14.581 -0.4963 -0.5276  2.0459
  787MPD2     C11653   1.153   2.282  14.656 -0.7840 -0.0240  0.0900
  787MPD2    C111654   1.164   2.321  14.531 -0.0201 -0.2407 -0.8088
  787MPD2    C211655   1.291   2.349  14.479 -0.2752 -0.3213 -0.1447
  787MPD2    C311656   1.404   2.336  14.552 -0.5556  0.8078  0.0711
  787MPD2    C411657   1.387   2.282  14.675  0.0665  0.0145  0.7639
  787MPD2    C511658   1.267   2.261  14.730 -0.0288  0.8288 -0.0270
  787MPD2     H11659   1.291   2.393  14.380 -0.3102 -2.2193 -0.9756
  787MPD2    H111660   1.468   2.241  14.734  1.6045  1.8372 -0.0797
  787MPD2    H211661   1.052   2.261  14.692 -0.8606 -2.3532 -1.5278
  787MPD2    H311662   1.257   2.215  14.828  0.1755  1.7825  0.4403
  787MPD2     N11663   1.530   2.341  14.500  0.0437 -0.2994  0.3984
  787MPD2    H511664   1.542   2.355  14.400  1.4215 -1.3734  0.4183
  787MPD2    N111665   1.038   2.332  14.469  0.2636 -0.0405  0.2752
  787MPD2    H711666   0.958   2.329  14.532 -0.2865  1.0699 -0.3602
  788MPD2     C11667   2.951   1.272   0.906  1.0368  0.2269  0.0402
  788MPD2    C111668   2.868   1.207   0.817 -0.8102  0.0303  0.2136
  788MPD2    C211669   2.749   1.264   0.776  0.1851 -0.7443 -0.5788
  788MPD2    C311670   2.710   1.387   0.830 -0.3203 -0.8647  0.2331
  788MPD2    C411671   2.804   1.449   0.920 -0.4355  0.2905 -0.0562
  788MPD2    C511672   2.914   1.389   0.963 -0.0536  0.3364 -0.3913
  788MPD2     H11673   2.683   1.220   0.702 -1.9502 -1.3373  1.6842
  788MPD2    H111674   2.784   1.548   0.960  0.9759  0.5116  0.0816
  788MPD2    H211675   3.039   1.230   0.952  0.2760  1.0854  2.2532
  788MPD2    H311676   2.960   1.427   1.053  1.5553 -0.8043 -0.7319
  788MPD2     N11677   2.601   1.456   0.772 -0.3276  0.2695 -0.1662
  788MPD2    H511678   2.578   1.429   0.677  1.2250  3.4186 -1.4513
  788MPD2    N111679   2.901   1.080   0.766 -0.6473 -0.2145 -0.3485
  788MPD2    H711680   2.831   1.029   0.714 -0.5333  0.5284 -1.2391
  789MPD2     C11681   2.320   0.316  16.375 -0.1734  0.0214 -0.2079
  789MPD2    C111682   2.292   0.417  16.283  1.5411  0.7395  0.0446
  789MPD2    C211683   2.250   0.537  16.331 -0.8867  0.2776  0.0907
  789MPD2    C311684   2.252   0.570  16.468  0.3311 -0.0742  0.2011
  789MPD2    C411685   2.284   0.466  16.560 -0.1294 -0.0763 -0.2977
  789MPD2    C511686   2.311   0.343  16.507  0.5944  0.2040  0.1290
  789MPD2     H11687   2.234   0.616  16.258 -0.1428 -1.5141 -2.0000
  789MPD2    H111688   2.262   0.492  16.663  1.2248 -0.4509  0.0771
  789MPD2    H211689   2.322   0.210  16.356 -3.0444 -0.4991  2.4104
  789MPD2    H311690   2.311   0.257  16.572 -0.7057  0.1760  0.0831
  789MPD2     N11691   2.230   0.704  16.515  0.4653 -0.8007  0.1300
  789MPD2    H511692   2.221   0.720  16.615  0.8537  0.2551 -0.0027
  789MPD2    N111693   2.292   0.400  16.141  0.6415 -0.0942 -0.0575
  789MPD2    H711694   2.262   0.476  16.080 -1.2274 -0.6108  0.2244
  790MPD2     C11695   4.341   2.483  13.691 -1.1490 -0.7368 -0.2271
  790MPD2    C111696   4.316   2.348  13.669  0.1912 -0.1867 -0.3181
  790MPD2    C211697   4.265   2.307  13.548  0.4915 -0.2271 -0.1863
  790MPD2    C311698   4.226   2.399  13.454 -0.2610 -0.0754 -0.3830
  790MPD2    C411699   4.252   2.540  13.482 -0.2439 -0.6907  0.4884
  790MPD2    C511700   4.311   2.580  13.600  0.0679  0.1629  0.4803
  790MPD2     H11701   4.243   2.202  13.530  0.2812 -0.1752 -0.2355
  790MPD2    H111702   4.219   2.621  13.417 -2.3328 -1.5467  0.4683
  790MPD2    H211703   4.387   2.519  13.783  0.9153 -0.7427 -1.2387
  790MPD2    H311704   4.327   2.687  13.609  2.2366 -0.5474  4.7706
  790MPD2     N11705   4.159   2.348  13.342  0.0777  0.5805 -0.0737
  790MPD2    H511706   4.153   2.247  13.345  0.4317  0.5863  0.7808
  790MPD2    N111707   4.364   2.265  13.770  0.4559  0.4992 -0.2677
  790MPD2    H711708   4.424   2.299  13.845 -0.5334 -0.8167  1.1244
  791MPD2     C11709   3.447   2.523  13.045 -0.5718  0.0216 -0.4254
  791MPD2    C111710   3.496   2.403  13.004 -0.4248  0.1462  0.5648
  791MPD2    C211711   3.417   2.320  12.936  0.0331  0.1164 -0.6820
  791MPD2    C311712   3.287   2.342  12.912 -0.0238  0.1909 -0.1202
  791MPD2    C411713   3.242   2.465  12.955  0.5842 -0.2152 -0.3660
  791MPD2    C511714   3.322   2.557  13.021 -0.4552 -0.7026 -0.0901
  791MPD2     H11715   3.460   2.224  12.910 -0.3018  0.0692 -1.0607
  791MPD2    H111716   3.139   2.492  12.934  0.3715 -0.6881  0.0660
  791MPD2    H211717   3.513   2.596  13.090 -1.0745 -0.7864  1.6330
  791MPD2    H311718   3.286   2.657  13.042  1.0295 -0.2827  0.4211
  791MPD2     N11719   3.208   2.237  12.853  0.7498 -0.0380 -0.1415
  791MPD2    H511720   3.254   2.152  12.822 -0.4167 -0.5922 -0.3223
  791MPD2    N111721   3.629   2.372  13.039  0.1507 -0.2178 -0.4965
  791MPD2    H711722   3.679   2.453  13.073  0.9538 -1.2312  0.7292
  792MPD2     C11723   3.645   2.140  11.722  0.1973 -0.7703  0.2286
  792MPD2    C111724   3.585   2.184  11.607 -0.3696 -0.2445 -0.0573
  792MPD2    C211725   3.569   2.103  11.497 -1.0010  0.5214 -0.6526
  792MPD2    C311726   3.601   1.970  11.512 -0.4853  0.8330  0.1593
  792MPD2    C411727   3.658   1.929  11.630 -0.3864 -0.2352  0.2865
  792MPD2    C511728   3.677   2.010  11.737 -0.1891 -1.0503 -0.4364
  792MPD2     H11729   3.546   2.147  11.401 -2.3852  1.0715 -0.0718
  792MPD2    H111730   3.701   1.830  11.635 -0.5025 -0.4826 -4.0744
  792MPD2    H211731   3.676   2.210  11.799  1.0579 -2.2238  1.2033
  792MPD2    H311732   3.735   1.968  11.818  1.0737  0.6578 -0.4641
  792MPD2     N11733   3.580   1.863  11.413  0.1141  0.4011 -0.2224
  792MPD2    H511734   3.611   1.770  11.441  1.2020  0.9748  0.4947
  792MPD2    N111735   3.569   2.323  11.601 -0.3852  0.1893 -0.6532
  792MPD2    H711736   3.596   2.373  11.686 -1.4601 -0.3676  0.0190
  793MPD2     C11737   3.033   1.757  10.518  0.0338  0.1368  0.9110
  793MPD2    C111738   3.157   1.825  10.519 -0.0518  0.3371  0.4275
  793MPD2    C211739   3.234   1.820  10.634 -0.2274 -0.2869 -0.4307
  793MPD2    C311740   3.183   1.756  10.746 -0.0763  0.1116 -0.3327
  793MPD2    C411741   3.060   1.692  10.744  0.2449 -0.0389  0.6642
  793MPD2    C511742   2.984   1.698  10.634 -0.7027 -0.0293  0.4223
  793MPD2     H11743   3.330   1.868  10.637 -0.0171 -0.6400 -1.3376
  793MPD2    H111744   3.006   1.654  10.831 -2.6468 -1.0725 -1.5746
  793MPD2    H211745   2.965   1.754  10.433 -0.7571  2.6547  1.4319
  793MPD2    H311746   2.880   1.672  10.645 -0.0610 -2.5025  0.6023
  793MPD2     N11747   3.255   1.752  10.866  0.2709 -0.0615  0.3659
  793MPD2    H511748   3.322   1.825  10.885 -0.2341  0.5457 -0.1642
  793MPD2    N111749   3.202   1.901  10.404 -0.4418 -0.2275 -0.2544
  793MPD2    H711750   3.292   1.945  10.411 -0.5937  0.2488 -1.2877
  794MPD2     C11751   4.121   1.806  17.260  0.2776 -0.1814  0.4224
  794MPD2    C111752   4.002   1.787  17.321  0.1166  0.7806  0.4199
  794MPD2    C211753   3.892   1.783  17.233  0.2746 -0.0997 -0.5386
  794MPD2    C311754   3.903   1.771  17.096 -0.6972 -0.1660 -0.7623
  794MPD2    C411755   4.030   1.793  17.040 -0.5151  0.1903  0.4245
  794MPD2    C511756   4.133   1.823  17.127 -0.3370 -0.6089  0.2047
  794MPD2     H11757   3.796   1.760  17.280  0.0808  1.9338  0.0626
  794MPD2    H111758   4.050   1.795  16.933  0.7000  0.0124  0.6523
  794MPD2    H211759   4.207   1.832  17.320 -0.7286  1.8855  0.9641
  794MPD2    H311760   4.231   1.847  17.084 -0.0414 -0.9795  0.6798
  794MPD2     N11761   3.791   1.738  17.006  0.6338  0.2521 -0.8663
  794MPD2    H511762   3.813   1.721  16.908  0.5797  2.5209 -1.2566
  794MPD2    N111763   3.997   1.774  17.459 -0.0313  0.8837  0.4428
  794MPD2    H711764   3.917   1.721  17.491  0.5703 -1.9204 -2.7187
  795MPD2     C11765   1.549   4.049  13.763  0.2036  0.5584 -0.0334
  795MPD2    C111766   1.464   3.943  13.777  0.5689  0.2529 -0.8448
  795MPD2    C211767   1.486   3.851  13.880 -0.9797  1.0353 -0.3229
  795MPD2    C311768   1.594   3.862  13.970  0.2123  0.0907  0.7881
  795MPD2    C411769   1.682   3.958  13.942 -0.0917  0.5373 -1.0317
  795MPD2    C511770   1.654   4.056  13.852  0.1005  0.7881  0.2995
  795MPD2     H11771   1.417   3.768  13.889  0.0088  0.3598  0.8812
  795MPD2    H111772   1.768   3.966  14.007 -0.9325 -0.2045  0.1644
  795MPD2    H211773   1.536   4.134  13.697  2.2803  0.4237 -0.6257
  795MPD2    H311774   1.726   4.136  13.839  1.4473 -0.4923 -0.2808
  795MPD2     N11775   1.629   3.770  14.075  0.2630 -0.3760  0.1490
  795MPD2    H511776   1.714   3.789  14.128  0.8063 -0.2770 -0.7513
  795MPD2    N111777   1.343   3.933  13.698  0.6251 -0.0536  0.0371
  795MPD2    H711778   1.278   3.858  13.722  1.5794 -0.8754  0.0433
  796MPD2     C11779   1.153   0.020  16.020 -0.1783  1.0117  0.4708
  796MPD2    C111780   1.098   0.121  16.095 -0.5808  0.4944 -0.0429
  796MPD2    C211781   1.085   0.250  16.042  0.4616  0.5394  0.0939
  796MPD2    C311782   1.112   0.274  15.908  0.5178  0.6102 -0.3179
  796MPD2    C411783   1.154   0.172  15.830 -0.1625 -0.4726 -0.1624
  796MPD2    C511784   1.184   0.050  15.894 -0.7659 -0.2294 -0.1614
  796MPD2     H11785   1.044   0.330  16.103  0.5840  0.3526  0.4199
  796MPD2    H111786   1.170   0.187  15.724 -0.9599  3.4076  0.2694
  796MPD2    H211787   1.177   4.659  16.053 -0.6053  0.0683 -2.1355
  796MPD2    H311788   1.236   4.717  15.832 -1.0876 -1.2473  0.7576
  796MPD2     N11789   1.090   0.399  15.852  0.2202  0.5044  0.0975
  796MPD2    H511790   1.124   0.416  15.758 -4.4536  0.9559 -1.5086
  796MPD2    N111791   1.058   0.082  16.226  0.5055 -0.8805 -0.2075
  796MPD2    H711792   1.074   4.723  16.244  0.3355 -0.3780  2.6883
  797MPD2     C11793   2.227   4.560  17.540  0.3734 -0.2843  0.3794
  797MPD2    C111794   2.257   4.698  17.553 -0.8893  0.5025 -0.5903
  797MPD2    C211795   2.186   0.056  17.480 -0.2169  0.2395  0.2805
  797MPD2    C311796   2.085   0.010  17.397 -0.0951  0.5347  0.7154
  797MPD2    C411797   2.061   4.612  17.384  0.2857  0.2642  0.4045
  797MPD2    C511798   2.128   4.517  17.457  0.7397  0.1267 -0.0221
  797MPD2     H11799   2.207   0.162  17.482  2.2661 -0.2064 -1.4437
  797MPD2    H111800   1.981   4.583  17.317  1.2074 -1.4123  0.0399
  797MPD2    H211801   2.265   4.481  17.605 -1.4880 -1.0661  0.5270
  797MPD2    H311802   2.101   4.412  17.448 -0.6217  0.7520 -3.2271
  797MPD2     N11803   2.015   0.110  17.330 -0.0507  1.2244 -0.6326
  797MPD2    H511804   2.030   0.205  17.360  1.1714  0.5951  0.7761
  797MPD2    N111805   2.349   0.010  17.644 -0.1800 -0.4545  0.2511
  797MPD2    H711806   2.378   0.106  17.625 -0.2185 -0.3405  0.7754
  798MPD2     C11807   2.302   0.685  17.405 -0.3947  0.0247 -0.0716
  798MPD2    C111808   2.283   0.554  17.362  0.3266 -0.0951  0.3678
  798MPD2    C211809   2.365   0.460  17.413  0.4200  0.0422  0.4039
  798MPD2    C311810   2.448   0.490  17.518  0.5678 -0.1245 -0.6458
  798MPD2    C411811   2.469   0.622  17.558 -0.5682 -0.7407  0.0826
  798MPD2    C511812   2.397   0.720  17.496 -0.0651  0.5007 -0.6104
  798MPD2     H11813   2.346   0.355  17.393  0.7710  0.0248  0.1536
  798MPD2    H111814   2.539   0.649  17.636 -0.9107 -0.2588  0.2245
  798MPD2    H211815   2.237   0.759  17.358 -0.5533 -0.6277 -0.8672
  798MPD2    H311816   2.392   0.819  17.541  2.5088  0.5296 -0.4158
  798MPD2     N11817   2.511   0.378  17.587 -0.0042  0.9109  0.2191
  798MPD2    H511818   2.485   0.288  17.548 -0.4105 -0.3551  3.3435
  798MPD2    N111819   2.200   0.506  17.262 -0.0506  0.4283  0.2342
  798MPD2    H711820   2.215   0.411  17.232  1.4887  0.6739  0.2462
  799MPD2     C11821   1.455   1.798  14.580  0.0141  0.2348 -0.5191
  799MPD2    C111822   1.341   1.728  14.543  0.4698 -0.3607 -0.1140
  799MPD2    C211823   1.235   1.784  14.474  0.7751 -0.8732 -0.4020
  799MPD2    C311824   1.254   1.918  14.434  0.1090 -0.1378  0.5619
  799MPD2    C411825   1.369   1.994  14.471 -0.0390 -0.2934 -0.3033
  799MPD2    C511826   1.463   1.929  14.548 -0.2645 -0.5965  0.4537
  799MPD2     H11827   1.145   1.725  14.462  1.5723 -2.1144 -0.2841
  799MPD2    H111828   1.394   2.092  14.432 -0.1654  0.0557  0.5044
  799MPD2    H211829   1.551   1.764  14.619 -1.6674 -2.6701  1.1338
  799MPD2    H311830   1.554   1.983  14.573 -0.7069  0.2136  0.3063
  799MPD2     N11831   1.160   1.987  14.354  0.2447 -0.0996  0.0973
  799MPD2    H511832   1.195   2.070  14.307  1.1428 -0.8099 -0.4888
  799MPD2    N111833   1.337   1.588  14.570  0.7777  0.1658 -0.0247
  799MPD2    H711834   1.251   1.541  14.542  1.3202 -1.3790  0.9127
  800MPD2     C11835   1.111   2.782  14.553  0.1704 -0.6793  0.1317
  800MPD2    C111836   1.216   2.725  14.478 -0.0130  0.8980 -0.6916
  800MPD2    C211837   1.196   2.698  14.343  0.2894 -0.4937 -0.5669
  800MPD2    C311838   1.074   2.730  14.283 -0.2003  0.2235  0.3836
  800MPD2    C411839   0.972   2.788  14.354  0.1189 -0.0764 -0.0475
  800MPD2    C511840   0.997   2.808  14.488  0.4343 -1.0748  0.4066
  800MPD2     H11841   1.263   2.635  14.285  0.5640  2.1699 -3.1724
  800MPD2    H111842   0.875   2.818  14.314 -0.6322 -1.0870  1.0030
  800MPD2    H211843   1.122   2.794  14.660  1.5178  0.5144 -0.1472
  800MPD2    H311844   0.919   2.864  14.539 -0.7257 -2.6268  0.3256
  800MPD2     N11845   1.069   2.693  14.145  0.5713 -0.2949 -0.1487
  800MPD2    H511846   1.145   2.634  14.114 -0.6221 -2.0617  0.2524
  800MPD2    N111847   1.345   2.716  14.546  0.9200 -0.4371 -0.3373
  800MPD2    H711848   1.345   2.745  14.643 -0.9325  0.0575 -0.4822
  801MPD2     C11849   1.645   2.798  15.180  1.3284  0.4706 -0.1732
  801MPD2    C111850   1.583   2.836  15.061 -0.1770 -0.4067  0.0093
  801MPD2    C211851   1.502   2.940  15.060 -1.1219  0.5632 -0.4210
  801MPD2    C311852   1.479   3.017  15.176  0.6043  0.1437  0.0084
  801MPD2    C411853   1.526   2.966  15.296  0.0909  0.4274 -0.7058
  801MPD2    C511854   1.603   2.856  15.297 -0.3624  0.2543  0.3695
  801MPD2     H11855   1.478   2.977  14.961 -2.3887  0.0675 -0.3024
  801MPD2    H111856   1.503   3.020  15.387 -0.5841  0.6453 -1.0104
  801MPD2    H211857   1.718   2.718  15.186  2.3623  1.3910 -0.7133
  801MPD2    H311858   1.649   2.821  15.389 -0.9602  1.0378  0.9640
  801MPD2     N11859   1.435   3.148  15.170 -0.7443  0.6492 -0.7002
  801MPD2    H511860   1.439   3.203  15.255 -2.3587  0.9877 -0.8427
  801MPD2    N111861   1.613   2.783  14.937  0.3560 -0.1303 -0.3193
  801MPD2    H711862   1.569   2.834  14.861 -2.2377 -0.1075  1.2091
  802MPD2     C11863   0.501   2.958  17.053 -0.0798 -0.4461  0.0271
  802MPD2    C111864   0.489   3.072  16.968 -0.4546  0.4782 -0.4399
  802MPD2    C211865   0.596   3.105  16.895  0.6374 -0.1598  0.2530
  802MPD2    C311866   0.712   3.027  16.888 -0.9838 -0.3452  0.0614
  802MPD2    C411867   0.713   2.906  16.944  0.4543 -0.9023 -0.4589
  802MPD2    C511868   0.610   2.877  17.028 -0.0190 -0.5189 -0.2187
  802MPD2     H11869   0.600   3.196  16.837  0.3730  0.1828  0.7737
  802MPD2    H111870   0.792   2.833  16.928  0.7557  0.1547 -3.9265
  802MPD2    H211871   0.413   2.921  17.105  0.6965 -2.0260  0.2090
  802MPD2    H311872   0.606   2.778  17.074 -1.3494 -1.1234 -1.6389
  802MPD2     N11873   0.827   3.089  16.827 -0.0455  0.8760  0.4805
  802MPD2    H511874   0.811   3.184  16.794 -1.3091  0.9541  1.2797
  802MPD2    N111875   0.380   3.163  16.968 -0.3267  0.2314  0.0385
  802MPD2    H711876   0.408   3.242  16.910 -2.7771  0.4210 -0.8623
  803MPD2     C11877   1.280   1.972  12.152  0.0565 -0.7932 -0.1751
  803MPD2    C111878   1.359   2.010  12.049 -0.0042 -1.0997  0.2241
  803MPD2    C211879   1.486   2.040  12.077  0.0578  0.8796  0.3368
  803MPD2    C311880   1.533   2.047  12.208  0.4322 -0.2028  0.4157
  803MPD2    C411881   1.449   2.014  12.315 -0.0925  0.7487  0.3189
  803MPD2    C511882   1.319   1.980  12.286 -0.0485  0.1801  0.6270
  803MPD2     H11883   1.560   2.059  12.000 -0.4031 -2.3761 -0.8903
  803MPD2    H111884   1.476   2.013  12.419 -2.2321  3.7173  0.9278
  803MPD2    H211885   1.174   1.959  12.136  0.1529 -1.4560 -0.2804
  803MPD2    H311886   1.252   1.960  12.368  1.5333 -1.4191  1.5231
  803MPD2     N11887   1.672   2.064  12.243 -0.5762 -0.0555 -0.3818
  803MPD2    H511888   1.688   2.070  12.343 -0.5694 -1.0623 -0.3205
  803MPD2    N111889   1.321   2.021  11.915  0.4810  0.1396 -1.1859
  803MPD2    H711890   1.396   2.053  11.855 -0.8571  1.0507 -2.3773
  804MPD2     C11891   1.368   3.273  16.864 -0.5246 -0.1855 -0.2836
  804MPD2    C111892   1.364   3.260  17.005  0.2133  0.1841  0.2357
  804MPD2    C211893   1.379   3.376  17.078  0.0633  0.2122 -0.8896
  804MPD2    C311894   1.418   3.496  17.023  0.1828  0.1110  0.5118
  804MPD2    C411895   1.436   3.496  16.888 -0.1050  0.3441 -0.5288
  804MPD2    C511896   1.411   3.390  16.811  0.2127  0.5067 -0.0689
  804MPD2     H11897   1.358   3.380  17.184  2.5054  1.7873 -0.4545
  804MPD2    H111898   1.475   3.581  16.834  0.2094 -0.1718 -1.1225
  804MPD2    H211899   1.361   3.187  16.800 -1.5061 -2.8736  3.4613
  804MPD2    H311900   1.435   3.397  16.706  1.9682 -2.1458  0.1723
  804MPD2     N11901   1.453   3.610  17.098 -0.1306  0.3561 -0.1720
  804MPD2    H511902   1.447   3.592  17.198 -1.7603  0.2967 -0.2862
  804MPD2    N111903   1.334   3.134  17.072 -0.3557  0.1640  0.1573
  804MPD2    H711904   1.343   3.130  17.173 -1.8451  1.2579  0.3304
  805MPD2     C11905   0.822   1.603  15.558  0.3827 -0.5132 -0.3348
  805MPD2    C111906   0.866   1.724  15.505  0.4774  0.2806  0.1889
  805MPD2    C211907   1.003   1.753  15.520  0.3638  0.7731 -0.2947
  805MPD2    C311908   1.087   1.670  15.586  0.5772 -0.1451  0.9200
  805MPD2    C411909   1.041   1.547  15.639 -0.3264  0.2256 -0.9797
  805MPD2    C511910   0.907   1.520  15.620 -0.8000  0.3376  0.8745
  805MPD2     H11911   1.039   1.848  15.483 -0.9375  0.8579 -1.3171
  805MPD2    H111912   1.104   1.467  15.675 -0.1193  0.3734 -1.0092
  805MPD2    H211913   0.720   1.570  15.541 -0.1101  0.2858  1.1171
  805MPD2    H311914   0.868   1.430  15.665  1.8204 -0.5494  1.3567
  805MPD2     N11915   1.216   1.719  15.601  0.2618  0.0558  0.1890
  805MPD2    H511916   1.241   1.795  15.538 -0.6910  0.2338  0.0222
  805MPD2    N111917   0.788   1.810  15.433 -0.3762 -0.7077  0.2120
  805MPD2    H711918   0.826   1.892  15.387  0.9154 -2.2383 -1.4609
  806MPD2     C11919   1.108   1.069   0.077 -0.4693 -0.4677 -0.1225
  806MPD2    C111920   1.069   1.159   0.172 -0.0640  0.3747  0.0491
  806MPD2    C211921   1.081   1.298   0.147  0.3144  0.6675 -0.6109
  806MPD2    C311922   1.129   1.338   0.029 -0.7638  0.1429  0.2673
  806MPD2    C411923   1.149   1.244  17.680  0.4255 -0.0337 -0.1658
  806MPD2    C511924   1.147   1.109  17.703 -0.1558 -0.5642 -0.3036
  806MPD2     H11925   1.055   1.371   0.223 -1.3926  1.9550 -2.4049
  806MPD2    H111926   1.163   1.278  17.578 -1.9496 -0.8270 -0.7524
  806MPD2    H211927   1.100   0.962   0.093  2.8118 -0.6358  0.4486
  806MPD2    H311928   1.168   1.039  17.623 -1.0504 -0.4204 -0.6645
  806MPD2     N11929   1.165   1.474   0.011 -0.0055  0.0382 -0.0016
  806MPD2    H511930   1.142   1.530   0.093 -2.2936 -0.1892 -0.4782
  806MPD2    N111931   1.035   1.105   0.298 -0.0479  0.2816 -0.2306
  806MPD2    H711932   1.028   1.004   0.303  0.8588  0.2642  0.7170
  807MPD2     C11933   0.831   0.465   0.625  0.1951 -0.8849  0.0546
  807MPD2    C111934   0.767   0.555   0.710  0.0650  0.0997 -0.2694
  807MPD2    C211935   0.689   0.503   0.811  0.3831 -0.0853  0.0039
  807MPD2    C311936   0.656   0.367   0.810  0.2247 -0.0942  0.0807
  807MPD2    C411937   0.701   0.287   0.710  0.2141 -0.1302 -0.1680
  807MPD2    C511938   0.788   0.333   0.621  0.2748 -0.2087  0.6106
  807MPD2     H11939   0.638   0.569   0.881  3.3902 -0.2821  2.3940
  807MPD2    H111940   0.654   0.191   0.692  2.9145 -1.5881  0.4250
  807MPD2    H211941   0.910   0.493   0.557  1.7129 -2.6152  1.1189
  807MPD2    H311942   0.832   0.265   0.548  0.3552  1.5084 -0.9363
  807MPD2     N11943   0.570   0.327   0.912 -0.4922  0.1691 -0.1350
  807MPD2    H511944   0.518   0.395   0.967  1.4403  1.0778  0.5849
  807MPD2    N111945   0.784   0.691   0.707 -0.2303 -0.5159 -0.6291
  807MPD2    H711946   0.741   0.743   0.783 -1.9552 -1.3752 -1.0336
  808MPD2     C11947   1.612   2.214   9.777  0.7285 -0.1764  0.0670
  808MPD2    C111948   1.470   2.196   9.782 -0.2726 -0.3855 -0.0205
  808MPD2    C211949   1.403   2.311   9.786  0.0886 -0.0349  0.4663
  808MPD2    C311950   1.457   2.437   9.789 -0.5688  0.7281 -1.0325
  808MPD2    C411951   1.590   2.456   9.781  0.3503  0.3239 -0.1517
  808MPD2    C511952   1.666   2.340   9.773 -0.2275  0.6936 -0.0871
  808MPD2     H11953   1.295   2.306   9.776 -0.0587  0.3006  1.9010
  808MPD2    H111954   1.642   2.549   9.802  2.0640 -0.4989 -0.7194
  808MPD2    H211955   1.682   2.131   9.784 -0.4703 -1.1814  0.0577
  808MPD2    H311956   1.773   2.351   9.755 -0.2682 -0.1141 -0.8219
  808MPD2     N11957   1.375   2.560   9.803 -0.9267 -0.1417 -0.0072
  808MPD2    H511958   1.425   2.646   9.779 -4.4975  2.6900  2.8075
  808MPD2    N111959   1.408   2.072   9.767  0.8425  0.2101  0.4471
  808MPD2    H711960   1.306   2.074   9.768  0.8451  0.6271 -0.1347
  809MPD2     C11961   1.382   3.522   9.613  0.1834  0.3308  0.2372
  809MPD2    C111962   1.470   3.435   9.678  0.0507  0.4976  0.3059
  809MPD2    C211963   1.432   3.307   9.701 -0.5176 -0.1245  0.4134
  809MPD2    C311964   1.297   3.271   9.690 -0.4797  0.0301  0.0472
  809MPD2    C411965   1.206   3.359   9.633 -0.3926 -0.2421 -0.5386
  809MPD2    C511966   1.251   3.483   9.592  0.5374 -0.2000 -0.1754
  809MPD2     H11967   1.494   3.232   9.747  0.9690  3.4425  4.2927
  809MPD2    H111968   1.099   3.341   9.632 -0.3593 -0.4595  0.1960
  809MPD2    H211969   1.411   3.624   9.587 -1.9443  0.7727 -0.4411
  809MPD2    H311970   1.189   3.564   9.555 -1.6811 -2.0943 -0.5916
  809MPD2     N11971   1.237   3.146   9.731 -0.4474 -0.8832  0.1837
  809MPD2    H511972   1.142   3.128   9.700 -0.4957 -0.0023 -0.1559
  809MPD2    N111973   1.607   3.475   9.702  0.0635 -0.5466  0.5605
  809MPD2    H711974   1.669   3.404   9.738  0.3560 -0.8948 -0.6454
  810MPD2     C11975   1.265   1.608  10.331 -0.1360 -0.3652  0.2878
  810MPD2    C111976   1.195   1.671  10.229  0.2677 -0.1330  1.1202
  810MPD2    C211977   1.249   1.784  10.166  0.0300  0.6728 -1.0765
  810MPD2    C311978   1.368   1.839  10.215  0.0495 -1.0919 -0.0813
  810MPD2    C411979   1.440   1.767  10.306  0.3570 -0.7268 -0.8707
  810MPD2    C511980   1.392   1.657  10.363  0.2328  0.1595 -0.0541
  810MPD2     H11981   1.194   1.831  10.085 -2.9254 -1.6098 -0.4163
  810MPD2    H111982   1.533   1.808  10.342  0.5554 -0.9725 -1.0971
  810MPD2    H211983   1.226   1.516  10.374 -2.6107 -0.4192 -2.0282
  810MPD2    H311984   1.444   1.602  10.440 -2.0975 -1.8603  0.0920
  810MPD2     N11985   1.418   1.966  10.177  0.2071 -0.4657  0.9507
  810MPD2    H511986   1.491   1.996  10.240  1.7818 -2.1212 -0.1057
  810MPD2    N111987   1.069   1.606  10.195  0.1267 -0.4797  0.0797
  810MPD2    H711988   1.040   1.527  10.252 -2.3614  1.5040  1.5441
  811MPD2     C11989   0.167   1.718  10.013  0.1208  0.1679  0.4368
  811MPD2    C111990   0.293   1.764  10.040  0.2338  0.7816  0.3763
  811MPD2    C211991   0.304   1.904  10.043 -0.6511  0.6143 -0.1861
  811MPD2    C311992   0.200   1.990  10.045 -0.5808 -0.3307 -0.2975
  811MPD2    C411993   0.077   1.937  10.028 -0.0917  0.4714 -0.4566
  811MPD2    C511994   0.057   1.803  10.005  0.3777 -0.4684  0.0439
  811MPD2     H11995   0.400   1.952  10.054 -1.1776  1.7272 -0.3901
  811MPD2    H111996   4.725   1.995  10.020 -1.1792 -1.0214  1.0459
  811MPD2    H211997   0.150   1.612   9.999  3.0890 -0.1415 -0.6660
  811MPD2    H311998   4.693   1.770   9.997  0.5104 -0.8409 -0.1795
  811MPD2     N11999   0.234   2.123  10.057  0.1088  0.4439 -0.3394
  811MPD2    H512000   0.333   2.143  10.071 -0.2206 -0.0950  2.7175
  811MPD2    N112001   0.402   1.673  10.052  0.4885 -0.2387 -0.1301
  811MPD2    H712002   0.378   1.574  10.050  0.1727 -0.1907  1.3051
  812MPD2     C12003   4.112   1.621  12.371  0.1312  1.0467 -0.9205
  812MPD2    C112004   4.187   1.741  12.358 -0.3236 -0.7835  0.3497
  812MPD2    C212005   4.326   1.738  12.378  0.2323 -0.4901  0.5503
  812MPD2    C312006   4.386   1.614  12.408 -0.0131 -0.5419  1.0179
  812MPD2    C412007   4.315   1.499  12.417  0.0855 -0.0455 -0.2649
  812MPD2    C512008   4.174   1.505  12.401 -0.4027 -0.0110 -0.1668
  812MPD2     H12009   4.380   1.831  12.389 -0.3851 -0.1485  0.6927
  812MPD2    H112010   4.354   1.398  12.427 -2.0636 -0.6486  1.8311
  812MPD2    H212011   4.004   1.611  12.370  0.1611  0.6607 -0.0424
  812MPD2    H312012   4.113   1.418  12.423  2.2812 -1.6783  0.7101
  812MPD2     N12013   4.526   1.617  12.419 -0.3569 -0.2037 -0.1885
  812MPD2    H512014   4.574   1.702  12.390  1.3767 -1.1103  0.0384
  812MPD2    N112015   4.110   1.856  12.329 -0.0849  0.2869 -0.3548
  812MPD2    H712016   4.011   1.836  12.320 -0.1715 -0.6210  2.5578
  813MPD2     C12017   4.216   3.278  13.215 -0.1597  0.3817  0.6131
  813MPD2    C112018   4.204   3.411  13.180 -0.4496 -0.1920 -0.3641
  813MPD2    C212019   4.108   3.493  13.236  0.4246  0.7223  0.3399
  813MPD2    C312020   4.020   3.448  13.333  0.0053  0.3040 -0.4530
  813MPD2    C412021   4.032   3.313  13.369 -0.4588  0.1350 -0.1073
  813MPD2    C512022   4.135   3.235  13.315 -0.0717  0.2957  0.7213
  813MPD2     H12023   4.101   3.596  13.200  0.6495  0.8767  0.7377
  813MPD2    H112024   3.973   3.266  13.447 -0.3298  1.7211  0.9255
  813MPD2    H212025   4.286   3.209  13.169 -0.4527 -0.1878  1.0089
  813MPD2    H312026   4.164   3.138  13.354 -1.3469 -0.3602  0.0194
  813MPD2     N12027   3.933   3.545  13.392 -1.0908  0.3169  0.1630
  813MPD2    H512028   3.934   3.640  13.355 -3.4856  0.3808  0.2641
  813MPD2    N112029   4.299   3.452  13.087 -0.0077 -0.2489 -0.1480
  813MPD2    H712030   4.371   3.387  13.056  1.4754  0.9664  0.7676
  814MPD2     C12031   4.204   4.634  12.103 -0.0131  0.1984  0.2079
  814MPD2    C112032   4.257   4.709  11.995  0.0464  0.2439 -1.2763
  814MPD2    C212033   4.289   0.102  12.025 -0.4974  0.1484 -0.0980
  814MPD2    C312034   4.288   0.156  12.155 -0.8758  0.3394  0.5149
  814MPD2    C412035   4.230   0.075  12.255  0.0952 -0.2076 -0.3670
  814MPD2    C512036   4.197   4.687  12.232  0.1220 -0.1148  0.6338
  814MPD2     H12037   4.320   0.167  11.944 -2.1763  0.4815 -0.4722
  814MPD2    H112038   4.223   0.110  12.358  0.6849 -0.3263 -0.2848
  814MPD2    H212039   4.165   4.535  12.086 -1.5905  0.4690  2.2732
  814MPD2    H312040   4.167   4.624  12.316  0.1866 -0.4550  0.4024
  814MPD2     N12041   4.343   0.282  12.189 -0.3581 -0.2659  0.1910
  814MPD2    H512042   4.351   0.312  12.286  0.1556  2.1779 -0.6299
  814MPD2    N112043   4.259   4.669  11.860  1.1115 -0.5758  0.0848
  814MPD2    H712044   4.298   4.735  11.794  2.6505 -2.0697 -0.4831
  815MPD2     C12045   4.700   3.729  11.790 -0.6967  0.4624 -0.6451
  815MPD2    C112046   4.641   3.604  11.812 -0.1280 -0.5504  0.2263
  815MPD2    C212047   4.532   3.588  11.898  0.3759 -0.3256  0.0333
  815MPD2    C312048   4.484   3.701  11.966  0.2095  0.7535  0.1758
  815MPD2    C412049   4.537   3.832  11.935 -0.8038  0.1530 -0.0441
  815MPD2    C512050   4.645   3.840  11.850  0.4586  0.5431 -0.1716
  815MPD2     H12051   4.490   3.489  11.914  0.3610  0.0918  2.6728
  815MPD2    H112052   4.506   3.919  11.991  0.7555 -1.3888  3.2053
  815MPD2    H212053   0.045   3.743  11.723  0.7198 -1.9806  0.5937
  815MPD2    H312054   4.690   3.936  11.828  0.1452  1.4818  3.2548
  815MPD2     N12055   4.373   3.681  12.052  0.2969  0.1858  0.1852
  815MPD2    H512056   4.341   3.586  12.061  1.8416 -0.4918 -1.4177
  815MPD2    N112057   4.705   3.496  11.741  0.3644 -0.3402  1.0007
  815MPD2    H712058   0.033   3.521  11.669 -1.5655 -0.7162 -0.9422
  816MPD2     C12059   0.138   2.779  17.015 -0.4005  0.1187 -0.3305
  816MPD2    C112060   0.132   2.869  16.913  0.4779 -0.2707 -0.1451
  816MPD2    C212061   0.230   2.867  16.810 -0.0618  1.3808 -0.2999
  816MPD2    C312062   0.341   2.786  16.833 -0.6516 -0.0224 -0.4309
  816MPD2    C412063   0.349   2.705  16.948  0.3080 -0.0684 -1.0823
  816MPD2    C512064   0.252   2.710  17.040  0.1571  0.2729 -0.1231
  816MPD2     H12065   0.231   2.943  16.733 -1.2206  2.0460  0.3476
  816MPD2    H112066   0.428   2.636  16.974 -0.1383  0.1740  0.9147
  816MPD2    H212067   0.067   2.785  17.096 -1.0722 -0.9791 -0.8558
  816MPD2    H312068   0.260   2.649  17.129  0.4119 -0.6217 -0.7628
  816MPD2     N12069   0.434   2.787  16.730  0.1264  0.0579  0.5638
  816MPD2    H512070   0.408   2.855  16.659  1.2776 -1.0396 -0.9172
  816MPD2    N112071   0.021   2.959  16.909  0.0208  0.5093  0.6050
  816MPD2    H712072   4.690   2.953  16.982  0.2426 -0.2425  0.7631
  817MPD2     C12073   3.769   3.956   9.754  0.0598  0.2201  0.2101
  817MPD2    C112074   3.789   3.979   9.622 -0.1457  1.3110  0.4294
  817MPD2    C212075   3.723   4.085   9.563  0.3318  0.1780  0.6349
  817MPD2    C312076   3.636   4.167   9.638 -0.6635  0.2391  0.1514
  817MPD2    C412077   3.618   4.139   9.771 -0.3038  0.2036  0.8523
  817MPD2    C512078   3.684   4.031   9.827  0.0608  0.0710 -0.2831
  817MPD2     H12079   3.726   4.109   9.457 -1.8703 -0.3521  0.4570
  817MPD2    H112080   3.550   4.190   9.837  0.3114  2.4910 -0.2708
  817MPD2    H212081   3.810   3.871   9.807  2.7692  1.0916 -0.4883
  817MPD2    H312082   3.669   4.015   9.933 -0.1544 -0.1549 -0.3477
  817MPD2     N12083   3.554   4.261   9.571  0.9505  0.1795  0.3187
  817MPD2    H512084   3.559   4.256   9.469 -2.2142 -0.5085  0.2068
  817MPD2    N112085   3.869   3.897   9.539  0.0617 -0.8788 -0.1341
  817MPD2    H712086   3.872   3.914   9.439 -1.6593  0.4099  0.0458
  818MPD2     C12087   2.154   4.699   9.685 -0.5907 -0.0993 -0.1918
  818MPD2    C112088   2.213   4.587   9.753  0.1584  0.2606  0.5215
  818MPD2    C212089   2.229   4.469   9.690 -0.0833  0.2179 -0.1400
  818MPD2    C312090   2.190   4.453   9.559  0.5550 -0.7407  0.6620
  818MPD2    C412091   2.127   4.553   9.490  0.6516  0.4476  0.4013
  818MPD2    C512092   2.115   4.673   9.557 -0.0202  0.3363  0.1560
  818MPD2     H12093   2.268   4.384   9.745 -0.9250  0.2669  0.5427
  818MPD2    H112094   2.098   4.547   9.386  4.1172 -0.0018 -0.5570
  818MPD2    H212095   2.132   0.056   9.729  0.9290  0.5492 -0.8770
  818MPD2    H312096   2.064   0.015   9.506 -2.6597 -0.3529  1.7237
  818MPD2     N12097   2.211   4.337   9.489 -1.4250 -0.3483 -0.7311
  818MPD2    H512098   2.158   4.321   9.403 -0.0932  0.2953 -1.6712
  818MPD2    N112099   2.265   4.592   9.882 -0.0038 -0.7080 -0.0367
  818MPD2    H712100   2.308   4.503   9.906 -0.7612 -1.0200  0.1663
  819MPD2     C12101   1.680   1.930  15.550 -0.1508  0.0795  0.0558
  819MPD2    C112102   1.713   1.800  15.544 -0.1376  0.9781  0.2305
  819MPD2    C212103   1.832   1.754  15.595 -0.1041  0.1319  0.0823
  819MPD2    C312104   1.911   1.836  15.666 -0.7296 -0.3091 -0.1393
  819MPD2    C412105   1.879   1.972  15.664  0.7385 -0.0238  0.5675
  819MPD2    C512106   1.762   2.016  15.617 -0.0435  0.3560  0.2309
  819MPD2     H12107   1.856   1.649  15.606 -1.2418 -0.0667  0.7172
  819MPD2    H112108   1.929   2.050  15.719  0.0678  2.1752 -1.9544
  819MPD2    H212109   1.580   1.957  15.518  0.0852  0.5575 -0.2683
  819MPD2    H312110   1.739   2.121  15.632  0.5495  0.6058 -0.5885
  819MPD2     N12111   2.036   1.778  15.715  0.5686 -0.5525 -0.0659
  819MPD2    H512112   2.060   1.686  15.678  0.7996 -0.6483  0.3284
  819MPD2    N112113   1.622   1.709  15.483  0.4346  0.7486  1.0215
  819MPD2    H712114   1.536   1.754  15.451  0.8797  0.5961 -0.3578
  820MPD2     C12115   1.055   1.979  14.862  0.1700 -0.5167  0.1889
  820MPD2    C112116   1.018   1.968  14.991 -0.7044 -0.1864 -0.4361
  820MPD2    C212117   1.078   1.865  15.062  0.5031  1.0033  0.0345
  820MPD2    C312118   1.185   1.792  15.017  0.1199 -0.4827  0.1325
  820MPD2    C412119   1.230   1.817  14.890  0.0200 -0.0747 -0.3134
  820MPD2    C512120   1.161   1.911  14.812  0.1007  0.1582 -0.0028
  820MPD2     H12121   1.055   1.857  15.168  1.3267 -2.0948 -0.0200
  820MPD2    H112122   1.322   1.769  14.859  0.8354 -0.4657  2.7373
  820MPD2    H212123   1.015   2.055  14.795  1.4139  2.0893  2.4201
  820MPD2    H312124   1.201   1.940  14.715  1.3538  0.6072  0.6489
  820MPD2     N12125   1.262   1.702  15.096  0.4553  0.1532  0.4879
  820MPD2    H512126   1.350   1.668  15.058  0.6033  0.3647  0.6385
  820MPD2    N112127   0.894   2.032  15.030 -0.7625  0.0644  0.2812
  820MPD2    H712128   0.827   2.061  14.959 -1.7655  0.9113  1.5864
  821MPD2     C12129   1.116   3.198  13.493 -0.0153 -0.1894 -0.5015
  821MPD2    C112130   1.212   3.128  13.558 -0.0312  0.3158  1.2061
  821MPD2    C212131   1.343   3.157  13.539  0.8559 -0.7481 -0.5464
  821MPD2    C312132   1.382   3.245  13.439  0.5095 -0.1563 -0.0783
  821MPD2    C412133   1.281   3.311  13.366 -0.0902 -0.1274  0.3375
  821MPD2    C512134   1.154   3.293  13.397  0.7082  0.2579 -0.1882
  821MPD2     H12135   1.402   3.101  13.610 -0.8430 -0.7308  0.8823
  821MPD2    H112136   1.301   3.379  13.284 -2.9725 -1.2497 -1.2990
  821MPD2    H212137   1.012   3.168  13.500  0.3352 -0.8838  1.6458
  821MPD2    H312138   1.075   3.335  13.336 -0.4118 -2.9186 -0.9433
  821MPD2     N12139   1.515   3.272  13.405  0.1054  0.8155 -0.2412
  821MPD2    H512140   1.537   3.316  13.316 -0.0673 -0.1605 -0.7681
  821MPD2    N112141   1.184   3.028  13.651  0.0400  0.3253 -0.5665
  821MPD2    H712142   1.262   2.997  13.707  1.0742 -1.5697 -3.0261
  822MPD2     C12143   2.384   2.872  15.912 -0.6955  0.3329 -0.1071
  822MPD2    C112144   2.328   2.831  16.030 -0.0499  0.2856 -0.3688
  822MPD2    C212145   2.276   2.926  16.113  0.3540  0.0175  0.6872
  822MPD2    C312146   2.257   3.057  16.072  0.0656 -0.7612  0.5487
  822MPD2    C412147   2.300   3.091  15.947  0.1777 -0.1143  0.4205
  822MPD2    C512148   2.374   3.004  15.872 -0.6487 -0.2176 -0.5307
  822MPD2     H12149   2.236   2.893  16.208  0.7445  1.3522  1.3256
  822MPD2    H112150   2.286   3.189  15.902 -1.0556 -0.0861  0.8576
  822MPD2    H212151   2.432   2.803  15.844 -0.0900 -1.1088  1.7853
  822MPD2    H312152   2.409   3.035  15.775 -0.9634 -0.0688 -0.5949
  822MPD2     N12153   2.190   3.142  16.161  0.5633 -0.4258 -0.1802
  822MPD2    H512154   2.144   3.098  16.240  0.0252  3.9345  1.9335
  822MPD2    N112155   2.327   2.693  16.076 -0.2425  0.0914  0.8254
  822MPD2    H712156   2.310   2.665  16.172 -1.3559 -1.8137  0.0854
  823MPD2     C12157   1.698   3.148  16.822  0.7578 -0.2657  0.0435
  823MPD2    C112158   1.777   3.093  16.721  0.1569 -0.4463  0.0792
  823MPD2    C212159   1.821   2.963  16.730 -0.1814  0.1195  0.1772
  823MPD2    C312160   1.784   2.883  16.837  0.3005  0.3094 -0.6323
  823MPD2    C412161   1.702   2.939  16.933 -0.1279  0.0974 -0.1864
  823MPD2    C512162   1.656   3.062  16.921 -0.1757  1.2738 -0.5708
  823MPD2     H12163   1.882   2.919  16.653  0.1866 -0.6689  0.9215
  823MPD2    H112164   1.677   2.876  17.018 -0.1075  0.9007  0.4136
  823MPD2    H212165   1.678   3.254  16.828 -0.5203 -0.4837 -0.3818
  823MPD2    H312166   1.604   3.091  17.012 -1.9238 -1.6804 -0.6255
  823MPD2     N12167   1.836   2.751  16.855 -0.4926  0.3379  0.4276
  823MPD2    H512168   1.818   2.719  16.950 -0.1693  0.6736  0.6017
  823MPD2    N112169   1.814   3.178  16.622 -0.0471  0.2292 -0.2300
  823MPD2    H712170   1.782   3.275  16.619 -0.2180  0.1731 -0.2120
  824MPD2     C12171   2.435   2.039  15.710  0.0720  0.6656  0.0327
  824MPD2    C112172   2.525   2.059  15.811  0.2718 -0.3012 -0.0268
  824MPD2    C212173   2.656   2.009  15.800  0.1300  0.4463 -0.3290
  824MPD2    C312174   2.687   1.934  15.687 -0.4748  0.5368 -0.2393
  824MPD2    C412175   2.593   1.919  15.586  0.0103 -0.4346 -0.2146
  824MPD2    C512176   2.468   1.973  15.598  0.0335  0.6860  0.0376
  824MPD2     H12177   2.727   2.030  15.879 -0.6638  2.1616 -0.0674
  824MPD2    H112178   2.613   1.866  15.493  0.3259 -0.0152 -0.3858
  824MPD2    H212179   2.335   2.079  15.713 -0.6886 -1.1346 -1.4283
  824MPD2    H312180   2.402   1.966  15.513  0.5007  0.6608 -0.3254
  824MPD2     N12181   2.824   1.901  15.661 -1.0959 -0.7588 -0.1009
  824MPD2    H512182   2.887   1.929  15.735 -1.2237  0.5950 -0.5133
  824MPD2    N112183   2.473   2.129  15.920  0.0361  0.5289  0.1064
  824MPD2    H712184   2.378   2.160  15.905 -0.0699 -0.5529 -1.4211
  825MPD2     C12185   3.594   2.207  15.428 -0.8942  0.2261  0.1379
  825MPD2    C112186   3.457   2.211  15.419  0.5096 -0.0213 -0.6694
  825MPD2    C212187   3.391   2.326  15.366 -0.0005  0.3308 -0.6136
  825MPD2    C312188   3.468   2.428  15.315  0.5436  0.2789  1.0735
  825MPD2    C412189   3.604   2.414  15.317 -0.0557 -0.4660  0.4706
  825MPD2    C512190   3.665   2.311  15.385  0.1450 -0.0985 -0.0445
  825MPD2     H12191   3.283   2.325  15.372  0.0933 -2.2360  0.7561
  825MPD2    H112192   3.672   2.484  15.270 -0.3022  0.1002  0.9556
  825MPD2    H212193   3.645   2.138  15.495  0.1025  1.5473  0.7275
  825MPD2    H312194   3.773   2.317  15.397  0.3623 -0.0405 -2.0334
  825MPD2     N12195   3.411   2.549  15.265 -0.4191  0.1489  0.2316
  825MPD2    H512196   3.481   2.617  15.236  0.4759 -0.0237  1.9638
  825MPD2    N112197   3.393   2.099  15.478  0.4682 -0.0037  0.4597
  825MPD2    H712198   3.453   2.026  15.513 -1.6117 -0.7836  2.3923
  826MPD2     C12199   4.076   1.549  13.384 -0.7253 -0.2735 -0.5810
  826MPD2    C112200   4.021   1.533  13.501  0.4691 -0.0130 -0.0204
  826MPD2    C212201   3.929   1.627  13.549  0.1406  0.1399  0.0042
  826MPD2    C312202   3.890   1.732  13.471 -0.2391  0.7565 -0.5499
  826MPD2    C412203   3.953   1.751  13.345  0.1702  0.0245  0.0587
  826MPD2    C512204   4.046   1.660  13.305 -0.3027 -0.1063  1.0166
  826MPD2     H12205   3.874   1.619  13.641 -1.3968  0.9080 -0.8402
  826MPD2    H112206   3.939   1.837  13.280 -1.3490  1.1459  1.8707
  826MPD2    H212207   4.151   1.480  13.346 -1.7580 -2.5576  1.5346
  826MPD2    H312208   4.104   1.665  13.213 -0.3120 -1.5800  0.9322
  826MPD2     N12209   3.799   1.822  13.525  0.1066 -0.4364  0.1766
  826MPD2    H512210   3.763   1.812  13.620  2.6818 -2.4976  0.9297
  826MPD2    N112211   4.067   1.434  13.590 -0.1676 -0.3601  0.3244
  826MPD2    H712212   4.140   1.377  13.549 -0.0337 -0.4809  0.7282
  827MPD2     C12213   3.424   3.351  10.234  0.5355 -0.8936 -0.1076
  827MPD2    C112214   3.376   3.249  10.309 -0.8094  0.2221 -0.5313
  827MPD2    C212215   3.252   3.196  10.275 -0.0890  0.5002 -0.0490
  827MPD2    C312216   3.183   3.250  10.170 -0.4949 -0.6515 -0.3061
  827MPD2    C412217   3.225   3.363  10.104 -0.3404  0.5497  0.0293
  827MPD2    C512218   3.352   3.405  10.133 -0.1180 -0.5460  0.3840
  827MPD2     H12219   3.203   3.121  10.335  1.8174  0.4520  1.4395
  827MPD2    H112220   3.160   3.423  10.042  0.5339  0.0420 -1.3692
  827MPD2    H212221   3.520   3.395  10.262 -0.3851 -0.4655  2.3365
  827MPD2    H312222   3.394   3.498  10.094  1.1151 -0.2902  2.3337
  827MPD2     N12223   3.061   3.186  10.150  0.4239  0.1425 -0.1780
  827MPD2    H512224   3.042   3.098  10.197 -0.9326  0.2975 -0.4492
  827MPD2    N112225   3.455   3.215  10.422  0.0155  0.4004  0.6089
  827MPD2    H712226   3.538   3.268  10.445 -1.0403  2.0717  0.5367
  828MPD2     C12227   1.688   3.320  11.682  0.9167 -0.0605  0.2787
  828MPD2    C112228   1.588   3.244  11.740 -0.7230 -0.1893 -0.1391
  828MPD2    C212229   1.522   3.150  11.658 -0.4044 -0.4551 -0.4551
  828MPD2    C312230   1.551   3.134  11.522 -0.8292 -0.7924 -0.7007
  828MPD2    C412231   1.662   3.210  11.472  0.0207 -0.2007  0.3167
  828MPD2    C512232   1.733   3.290  11.554 -0.3234  0.0869 -0.1731
  828MPD2     H12233   1.439   3.102  11.708  0.0723 -0.2079  0.5864
  828MPD2    H112234   1.701   3.185  11.374  0.1906 -0.2647  0.3999
  828MPD2    H212235   1.746   3.384  11.747  0.9421  1.3202 -1.1140
  828MPD2    H312236   1.826   3.333  11.518 -0.1886 -0.6551 -0.7118
  828MPD2     N12237   1.479   3.043  11.433 -0.4580  0.1488 -0.0213
  828MPD2    H512238   1.517   3.032  11.340  2.0060 -3.1623  1.4032
  828MPD2    N112239   1.538   3.269  11.870 -0.6038  0.9644 -0.0097
  828MPD2    H712240   1.461   3.212  11.904 -1.1032  0.5759 -1.8178
  829MPD2     C12241   0.604   3.435  12.126  0.4935 -0.0351 -0.4445
  829MPD2    C112242   0.682   3.352  12.053 -0.0402  1.0097 -0.0847
  829MPD2    C212243   0.818   3.357  12.057 -1.0543 -0.3754 -0.4994
  829MPD2    C312244   0.883   3.454  12.130  0.0385 -0.8330  0.2421
  829MPD2    C412245   0.806   3.542  12.195  0.6814 -0.7538  0.0851
  829MPD2    C512246   0.667   3.527  12.198  0.1393 -0.6891  0.8515
  829MPD2     H12247   0.876   3.287  11.998 -0.7842  0.3678 -1.1248
  829MPD2    H112248   0.861   3.621  12.245 -1.4896  0.8499 -0.0618
  829MPD2    H212249   0.496   3.437  12.121  0.4120 -0.0872  1.2518
  829MPD2    H312250   0.607   3.597  12.254  1.9635  2.1417 -0.7056
  829MPD2     N12251   1.026   3.458  12.156  0.4353  0.2990  0.6914
  829MPD2    H512252   1.060   3.531  12.217  1.9611  0.0410  0.1359
  829MPD2    N112253   0.620   3.246  11.991 -0.3497  0.0117  0.0054
  829MPD2    H712254   0.524   3.231  12.019  0.3529  0.3282  2.6149
  830MPD2     C12255   2.486   1.210  15.481  0.0521  0.0803  1.1828
  830MPD2    C112256   2.468   1.342  15.463  0.1780  0.2845  0.4530
  830MPD2    C212257   2.494   1.398  15.337  0.0703  0.4945  0.7384
  830MPD2    C312258   2.536   1.313  15.234 -0.1137 -0.3134  0.6975
  830MPD2    C412259   2.538   1.172  15.247  0.5255  0.3923  0.0498
  830MPD2    C512260   2.517   1.128  15.376 -0.1510 -0.3808  0.0468
  830MPD2     H12261   2.469   1.502  15.321  0.2501 -0.3178 -4.5559
  830MPD2    H112262   2.558   1.100  15.169 -1.2137  0.5156 -0.5050
  830MPD2    H212263   2.459   1.171  15.578  2.8523 -0.7860  1.6164
  830MPD2    H312264   2.526   1.021  15.391 -1.5857 -0.0103  3.6150
  830MPD2     N12265   2.561   1.366  15.110  0.2543 -0.4026 -0.4348
  830MPD2    H512266   2.567   1.467  15.112  0.3786 -0.4334  0.7031
  830MPD2    N112267   2.433   1.425  15.574  0.4509  0.5907 -0.2054
  830MPD2    H712268   2.436   1.388  15.668  0.4016  1.4290  0.1175
  831MPD2     C12269   2.426   3.171  16.475 -0.2831 -0.1227 -0.2336
  831MPD2    C112270   2.458   3.054  16.408  0.2033 -0.6771 -0.0489
  831MPD2    C212271   2.375   2.946  16.412  0.5890 -0.0123 -0.7151
  831MPD2    C312272   2.247   2.967  16.459  0.0470  0.3793 -0.2637
  831MPD2    C412273   2.217   3.080  16.533 -0.1770  0.0003 -0.5887
  831MPD2    C512274   2.307   3.185  16.537 -0.1515 -0.3166 -0.5262
  831MPD2     H12275   2.397   2.853  16.360 -1.5452 -0.4180 -0.8889
  831MPD2    H112276   2.121   3.088  16.582 -0.4593 -0.8566 -0.9902
  831MPD2    H212277   2.493   3.255  16.473  3.2062 -2.8669  0.9546
  831MPD2    H312278   2.282   3.270  16.599 -1.7789 -1.0985 -0.1273
  831MPD2     N12279   2.140   2.872  16.442 -0.2860  0.0820  0.0364
  831MPD2    H512280   2.049   2.907  16.469 -0.4741 -1.3261  1.2278
  831MPD2    N112281   2.583   3.054  16.345 -0.3366  0.6434  0.3760
  831MPD2    H712282   2.639   3.139  16.345  1.7389 -0.7175  3.3061
  832MPD2     C12283   0.666   3.979  17.263  0.6384 -0.4411 -0.3182
  832MPD2    C112284   0.619   4.112  17.299 -0.3354  0.0570  0.1764
  832MPD2    C212285   0.496   4.164  17.244 -0.1380  0.6206  0.1540
  832MPD2    C312286   0.434   4.085  17.150 -0.0945 -0.2338  0.9662
  832MPD2    C412287   0.478   3.956  17.126 -0.0769  0.4933 -0.3824
  832MPD2    C512288   0.581   3.901  17.187 -0.4101  0.0819 -0.7939
  832MPD2     H12289   0.461   4.266  17.253  0.1638  0.5782  1.7543
  832MPD2    H112290   0.426   3.900  17.048  0.5646 -1.9596  0.9401
  832MPD2    H212291   0.753   3.938  17.311  3.1776  2.5417 -2.3873
  832MPD2    H312292   0.604   3.799  17.159 -0.1471 -0.5918  1.9732
  832MPD2     N12293   0.330   4.130  17.063  0.2706  0.1470 -0.1700
  832MPD2    H512294   0.284   4.055  17.014  1.2703  0.5624 -1.7704
  832MPD2    N112295   0.701   4.192  17.374 -0.0195  0.0018 -0.6238
  832MPD2    H712296   0.800   4.172  17.384 -0.7487 -2.4919  1.7456
  833MPD2     C12297   2.960   0.967  12.441  0.0581  0.6512 -0.5028
  833MPD2    C112298   2.829   0.925  12.424 -0.0948 -1.0261 -0.6685
  833MPD2    C212299   2.805   0.794  12.380  0.4187  0.2512 -0.6640
  833MPD2    C312300   2.912   0.719  12.333 -0.0913 -0.7010  0.3813
  833MPD2    C412301   3.042   0.768  12.346  0.7158  0.6453  0.2594
  833MPD2    C512302   3.065   0.889  12.407 -0.0854 -0.4491 -0.0067
  833MPD2     H12303   2.704   0.761  12.360  1.2761 -1.1056 -2.7126
  833MPD2    H112304   3.129   0.717  12.305 -0.6411 -1.6514  0.2019
  833MPD2    H212305   2.977   1.069  12.474 -1.7674  0.1810  1.9335
  833MPD2    H312306   3.168   0.921  12.417  0.1987 -0.8944 -1.4086
  833MPD2     N12307   2.873   0.601  12.266  0.4421  0.0716  0.0145
  833MPD2    H512308   2.775   0.572  12.264  0.0932  1.0990  2.9394
  833MPD2    N112309   2.723   1.012  12.453  0.4510 -0.2435 -0.8611
  833MPD2    H712310   2.755   1.107  12.471 -0.1886  0.1756 -1.9484
  834MPD2     C12311   2.397   4.530  11.841  0.7382 -0.1155  0.7326
  834MPD2    C112312   2.458   4.601  11.736 -0.3557 -0.0413  0.4704
  834MPD2    C212313   2.518   4.725  11.762 -0.0632  0.0924  0.7402
  834MPD2    C312314   2.532   0.024  11.893  0.4620 -0.0010 -0.5317
  834MPD2    C412315   2.482   4.689  11.996 -0.8652 -0.6489  0.3681
  834MPD2    C512316   2.406   4.575  11.970 -0.1762 -0.9819 -0.1595
  834MPD2     H12317   2.565   0.040  11.681 -1.7183  0.5800  0.1131
  834MPD2    H112318   2.492   4.717  12.100  3.0663  1.7553 -0.6242
  834MPD2    H212319   2.351   4.433  11.828 -1.0085  0.9319 -0.9222
  834MPD2    H312320   2.366   4.514  12.051 -1.5031  0.4421  0.2623
  834MPD2     N12321   2.597   0.144  11.919 -0.0991 -0.5658 -0.2052
  834MPD2    H512322   2.593   0.205  11.839 -3.0053 -0.8628 -0.3043
  834MPD2    N112323   2.443   4.542  11.606 -0.1081 -0.2051 -0.6335
  834MPD2    H712324   2.404   4.448  11.600  4.4759 -2.0763 -1.1925
  835MPD2     C12325   3.079   2.895  11.392  0.9009  0.4240 -0.0377
  835MPD2    C112326   2.980   2.927  11.486 -0.3646 -0.8285  0.5500
  835MPD2    C212327   2.971   2.853  11.601 -0.1889 -0.4147 -0.4467
  835MPD2    C312328   3.054   2.754  11.632  0.8083 -0.2157  0.2189
  835MPD2    C412329   3.140   2.713  11.532  0.4571  0.1781  0.5426
  835MPD2    C512330   3.155   2.779  11.410  0.2526  0.5373 -0.3306
  835MPD2     H12331   2.898   2.882  11.675  3.0180  0.6659  2.2935
  835MPD2    H112332   3.199   2.622  11.543  1.1420  0.6204  0.5316
  835MPD2    H212333   3.082   2.941  11.294 -0.6200 -0.1126 -0.3303
  835MPD2    H312334   3.229   2.747  11.337  1.0873  2.4566 -0.3339
  835MPD2     N12335   3.042   2.668  11.744 -0.5908  0.5015 -1.2645
  835MPD2    H512336   3.074   2.572  11.733  1.2209  0.9716  0.1668
  835MPD2    N112337   2.890   3.035  11.455 -0.0600  0.3248  0.3617
  835MPD2    H712338   2.828   3.054  11.533  0.1863 -0.4394  0.7366
  836MPD2     C12339   2.746   2.734  12.491 -0.2763 -0.6661  0.2985
  836MPD2    C112340   2.691   2.648  12.397  0.3904  0.3316  0.5199
  836MPD2    C212341   2.558   2.618  12.412  0.3046  0.6062 -0.4170
  836MPD2    C312342   2.481   2.673  12.516 -0.2057 -0.4506 -1.0108
  836MPD2    C412343   2.542   2.767  12.605  0.3631 -0.7029  0.8338
  836MPD2    C512344   2.677   2.789  12.595  0.2142  0.4486 -0.1910
  836MPD2     H12345   2.513   2.563  12.329 -0.5007  0.2709  0.2487
  836MPD2    H112346   2.472   2.814  12.673  0.5507 -0.6563  0.9921
  836MPD2    H212347   2.851   2.760  12.483  0.2930 -3.1098  0.0603
  836MPD2    H312348   2.731   2.850  12.666  0.0228  0.6289 -0.2024
  836MPD2     N12349   2.347   2.636  12.529  0.5484  0.3638  0.0569
  836MPD2    H512350   2.305   2.680  12.610 -1.2769  1.6783 -1.6028
  836MPD2    N112351   2.770   2.599  12.291 -0.2404 -0.3700  0.2389
  836MPD2    H712352   2.866   2.629  12.275 -0.0799  0.2173  2.2781
  837MPD2     C12353   0.769   2.636  10.192 -0.3892 -0.2697  0.2587
  837MPD2    C112354   0.656   2.697  10.238 -0.0873  0.1091 -0.5213
  837MPD2    C212355   0.661   2.836  10.249  0.2596  0.2070  0.6803
  837MPD2    C312356   0.766   2.913  10.210  0.3203 -0.3387  0.2424
  837MPD2    C412357   0.879   2.848  10.167  0.0135 -0.4334 -0.0841
  837MPD2    C512358   0.877   2.713  10.151 -0.4060  0.8867 -0.1536
  837MPD2     H12359   0.567   2.885  10.272 -0.3798  0.2318 -2.0030
  837MPD2    H112360   0.958   2.903  10.118 -0.1665 -0.2337 -0.1480
  837MPD2    H212361   0.777   2.528  10.184  0.0500 -0.1273 -1.4311
  837MPD2    H312362   0.960   2.651  10.120 -2.2343 -1.4952 -0.2976
  837MPD2     N12363   0.742   3.054  10.217  0.9443  0.4739  0.8895
  837MPD2    H512364   0.652   3.081  10.255 -0.3202 -1.4628 -0.7562
  837MPD2    N112365   0.524   2.643  10.240 -0.2508  0.2790  0.7466
  837MPD2    H712366   0.448   2.710  10.253  1.0877  1.6452  1.5155
  838MPD2     C12367   4.259   0.129  11.242 -0.3279 -0.1293  0.0374
  838MPD2    C112368   4.310   0.240  11.311 -0.2923  0.7481  0.1519
  838MPD2    C212369   4.279   0.254  11.446 -0.0637 -0.2979  0.5157
  838MPD2    C312370   4.197   0.165  11.506 -0.2919  0.3952  0.7307
  838MPD2    C412371   4.154   0.049  11.437 -0.1532  0.3438  0.6712
  838MPD2    C512372   4.193   0.029  11.310  0.1191  0.4686 -0.0122
  838MPD2     H12373   4.311   0.346  11.495 -0.5154 -0.9511  2.0427
  838MPD2    H112374   4.106   4.700  11.478 -1.1594 -0.0237 -1.3212
  838MPD2    H212375   4.267   0.111  11.136 -2.1555  3.1345 -0.6433
  838MPD2    H312376   4.158   4.682  11.254 -0.1298  0.5688 -0.0130
  838MPD2     N12377   4.162   0.194  11.643 -0.0497  0.3731 -0.6446
  838MPD2    H512378   4.196   0.281  11.684 -0.4222  0.2371 -0.0525
  838MPD2    N112379   4.381   0.344  11.247 -0.1937  0.3602 -0.0005
  838MPD2    H712380   4.433   0.413  11.299  0.1873  0.2361 -0.2138
  839MPD2     C12381   4.685   4.556  10.805  0.6963  0.0090  0.5778
  839MPD2    C112382   4.580   4.639  10.770  0.2803 -0.2288  0.0548
  839MPD2    C212383   4.592   0.033  10.811 -0.0177  0.0092  0.1680
  839MPD2    C312384   4.701   0.080  10.883  0.4678 -0.1772 -0.2579
  839MPD2    C412385   0.063   4.731  10.925 -0.2880 -0.0796  0.1298
  839MPD2    C512386   0.047   4.601  10.879 -0.1750 -0.3410  0.1521
  839MPD2     H12387   4.521   0.110  10.785 -1.5059 -1.4301 -0.0362
  839MPD2    H112388   0.154   0.013  10.980 -1.1705 -1.7325  2.2137
  839MPD2    H212389   4.694   4.451  10.778  0.8162  0.6538 -1.8811
  839MPD2    H312390   0.111   4.524  10.922  0.9991 -0.0979 -1.1759
  839MPD2     N12391   4.733   0.208  10.930  0.3028  0.4020 -0.9218
  839MPD2    H512392   0.074   0.212  10.992 -1.5467 -3.0222  1.7226
  839MPD2    N112393   4.468   4.589  10.703 -0.1912 -0.5074  0.0408
  839MPD2    H712394   4.472   4.492  10.674 -2.1653 -0.3912 -0.6293
  840MPD2     C12395   4.053   3.039  10.332 -0.4242  0.8299 -0.3643
  840MPD2    C112396   4.030   3.068  10.461  0.4127 -0.4630  0.1072
  840MPD2    C212397   4.128   3.142  10.536  0.0481  0.0919  0.0945
  840MPD2    C312398   4.248   3.174  10.474 -0.1906 -0.6728  0.5979
  840MPD2    C412399   4.263   3.155  10.340 -0.1024  0.3341 -0.6471
  840MPD2    C512400   4.167   3.084  10.271 -0.1971 -0.2745 -0.4262
  840MPD2     H12401   4.111   3.161  10.641 -2.4343 -1.5871  0.0146
  840MPD2    H112402   4.355   3.178  10.287  0.1459  0.9275  0.0449
  840MPD2    H212403   3.988   2.973  10.275 -0.7581 -0.4808  1.5493
  840MPD2    H312404   4.193   3.044  10.173  0.7911 -0.1839 -0.2034
  840MPD2     N12405   4.352   3.237  10.548 -0.3893 -0.5339 -0.3764
  840MPD2    H512406   4.435   3.278  10.507  0.3148 -0.6824  0.8832
  840MPD2    N112407   3.904   3.029  10.515 -0.2049  0.4819  0.3286
  840MPD2    H712408   3.839   2.986  10.450  1.1227 -0.4575 -0.3888
  841MPD2     C12409   3.990   3.463  14.728 -0.6252 -0.0248  0.7017
  841MPD2    C112410   4.005   3.372  14.623  0.3794 -0.5927 -0.6476
  841MPD2    C212411   4.110   3.397  14.530 -0.0445  0.3699 -0.5507
  841MPD2    C312412   4.203   3.496  14.544 -0.3272  0.3980  0.4786
  841MPD2    C412413   4.194   3.578  14.656 -0.4765 -0.1018  0.8907
  841MPD2    C512414   4.086   3.565  14.742 -0.1235  0.5975  0.4549
  841MPD2     H12415   4.125   3.323  14.452  0.9145 -0.8365  0.7851
  841MPD2    H112416   4.249   3.669  14.677  1.7651 -1.6276  1.6440
  841MPD2    H212417   3.911   3.478  14.801  0.6245 -0.1688  2.0882
  841MPD2    H312418   4.080   3.639  14.821  3.4285 -1.2688  2.4401
  841MPD2     N12419   4.304   3.499  14.446  0.4732  1.0484 -0.1894
  841MPD2    H512420   4.302   3.423  14.379  0.2912  0.3391  0.6207
  841MPD2    N112421   3.930   3.260  14.607  0.0830  0.8944  0.3850
  841MPD2    H712422   3.952   3.197  14.531  1.5174 -0.5585  2.0031
  842MPD2     C12423   4.304   4.722  17.140 -0.3419 -0.3126 -0.0111
  842MPD2    C112424   4.189   0.056  17.122 -0.0017  0.1351  0.4012
  842MPD2    C212425   4.104   0.061  17.223 -0.1479 -0.0770 -0.1147
  842MPD2    C312426   4.117   4.727  17.341  0.0462 -0.7103 -0.5416
  842MPD2    C412427   4.234   4.644  17.353 -0.6004 -0.5997  0.1396
  842MPD2    C512428   4.326   4.646  17.254  0.0375 -0.9928  0.3502
  842MPD2     H12429   4.016   0.122  17.204 -0.8175 -0.7475  0.8185
  842MPD2    H112430   4.246   4.581  17.441  0.1120 -1.1441 -0.3505
  842MPD2    H212431   4.384   4.737  17.069  0.2025  1.3232  0.9460
  842MPD2    H312432   4.423   4.603  17.274  0.1769 -0.4259  0.8669
  842MPD2     N12433   4.015   4.738  17.441  0.2276 -0.5990  0.5061
  842MPD2    H512434   3.934   0.055  17.417 -0.2489 -0.9149  1.4094
  842MPD2    N112435   4.169   0.122  16.996 -0.8623 -0.6707  0.4977
  842MPD2    H712436   4.232   0.101  16.919 -2.3348 -1.6712 -0.4220
  843MPD2     C12437   1.716   0.275  17.514  0.5670  0.0017 -0.6304
  843MPD2    C112438   1.822   0.211  17.571 -0.7834 -0.9221  0.1073
  843MPD2    C212439   1.935   0.277  17.612 -0.3868  0.4252  0.4065
  843MPD2    C312440   1.944   0.415  17.610  0.5023 -0.9530  0.4030
  843MPD2    C412441   1.829   0.475  17.564  0.2492 -0.4394 -0.4829
  843MPD2    C512442   1.719   0.413  17.508  0.3022 -0.6180 -0.5650
  843MPD2     H12443   2.018   0.218  17.650 -0.3454  0.4856  0.4119
  843MPD2    H112444   1.826   0.584  17.558 -0.4646 -0.3849  0.9710
  843MPD2    H212445   1.627   0.223  17.482  0.2322 -0.0579  0.3892
  843MPD2    H312446   1.638   0.471  17.466  1.9037  2.2263  0.2800
  843MPD2     N12447   2.050   0.499  17.657 -0.4523  0.5656 -0.0928
  843MPD2    H512448   2.044   0.600  17.646 -0.5582  0.7504  1.8068
  843MPD2    N112449   1.810   0.071  17.595  0.5001  0.2895  0.2835
  843MPD2    H712450   1.727   0.031  17.554  0.8934 -0.1845 -0.0499
  844MPD2     C12451   0.139   4.081  16.315 -0.3645  0.4157  0.2307
  844MPD2    C112452   0.229   3.979  16.323  0.3494  0.3941 -0.2578
  844MPD2    C212453   0.331   3.994  16.422 -0.1620  0.2066  0.5302
  844MPD2    C312454   0.357   4.101  16.503  0.0708 -0.7089  0.0383
  844MPD2    C412455   0.262   4.200  16.494 -0.4266 -0.2625  0.2994
  844MPD2    C512456   0.157   4.184  16.405  0.0967 -1.2969  0.6970
  844MPD2     H12457   0.395   3.906  16.419  3.0013  2.6060 -2.1985
  844MPD2    H112458   0.263   4.290  16.554 -1.9414  2.0333 -3.1312
  844MPD2    H212459   0.061   4.080  16.240 -0.3705  1.3177  0.2229
  844MPD2    H312460   0.095   4.273  16.410  1.4678 -0.1956 -1.8253
  844MPD2     N12461   0.460   4.105  16.602 -0.0098  0.5030 -0.2277
  844MPD2    H512462   0.516   4.021  16.614  0.5260  1.0418  1.0137
  844MPD2    N112463   0.228   3.862  16.241 -0.7301  0.9057 -0.1433
  844MPD2    H712464   0.296   3.790  16.262 -1.2300  1.3414  3.0083
  845MPD2     C12465   0.606   0.055  17.317  0.6129  0.2756 -0.6249
  845MPD2    C112466   0.499   4.708  17.302 -0.4766 -0.0829 -0.6494
  845MPD2    C212467   0.517   4.585  17.236  0.0821 -0.3012  0.5052
  845MPD2    C312468   0.637   4.553  17.176  0.7954  0.0565  0.8180
  845MPD2    C412469   0.739   4.644  17.192 -0.0292  0.4623 -0.2284
  845MPD2    C512470   0.724   0.029  17.260 -0.3105  0.3695  0.8941
  845MPD2     H12471   0.444   4.505  17.242 -1.9959  1.5926  0.3857
  845MPD2    H112472   0.827   4.628  17.131 -0.1176 -2.7421  0.4867
  845MPD2    H212473   0.594   0.148  17.371  1.1819 -0.3618  0.6037
  845MPD2    H312474   0.806   0.100  17.251 -0.5202  0.2245 -2.3550
  845MPD2     N12475   0.635   4.431  17.102 -0.5393  0.1994  0.0437
  845MPD2    H512476   0.541   4.394  17.092 -0.8689  0.6866  1.2894
  845MPD2    N112477   0.387   0.011  17.372 -0.3923  0.0378  0.2941
  845MPD2    H712478   0.378   0.107  17.402  2.7361  0.4870 -0.2665
  846MPD2     C12479   2.077   0.405  13.552 -0.2997 -0.2897 -0.2340
  846MPD2    C112480   2.011   0.522  13.550  0.0132  0.1832 -1.1080
  846MPD2    C212481   1.996   0.597  13.668 -0.0442 -1.2236  0.2407
  846MPD2    C312482   2.036   0.545  13.790  0.5511 -0.0095  0.0176
  846MPD2    C412483   2.095   0.419  13.785 -0.4257  0.1878 -0.5086
  846MPD2    C512484   2.112   0.352  13.670 -0.0786  0.0987 -0.0714
  846MPD2     H12485   1.947   0.694  13.670 -0.9136 -1.6889  1.8222
  846MPD2    H112486   2.122   0.370  13.878  2.7253 -1.1917 -2.1531
  846MPD2    H212487   2.099   0.358  13.457  4.0706  0.0445  0.5974
  846MPD2    H312488   2.154   0.251  13.673 -0.1338  0.0669 -0.4169
  846MPD2     N12489   2.005   0.616  13.911 -0.3242 -0.4473 -0.0083
  846MPD2    H512490   1.940   0.694  13.907  1.2688  0.8024 -1.3642
  846MPD2    N112491   1.961   0.572  13.427  0.0213 -0.5664  0.6095
  846MPD2    H712492   1.923   0.666  13.425  2.7681  0.5373  0.3902
  847MPD2     C12493   2.463   1.813  13.917 -0.1778 -0.8993 -0.4157
  847MPD2    C112494   2.589   1.765  13.939 -0.2112  0.3240 -0.7123
  847MPD2    C212495   2.616   1.637  13.901  0.7084 -0.7848 -0.4203
  847MPD2    C312496   2.515   1.553  13.858 -0.0541  0.3753 -0.3192
  847MPD2    C412497   2.393   1.606  13.830  0.0000  1.0510 -0.0418
  847MPD2    C512498   2.371   1.730  13.864 -0.0206  0.0916  0.0657
  847MPD2     H12499   2.710   1.587  13.918  1.2521  0.7236  1.0767
  847MPD2    H112500   2.308   1.543  13.804  1.4114 -0.1510 -1.7314
  847MPD2    H212501   2.429   1.913  13.943  1.4671 -0.2850 -0.5751
  847MPD2    H312502   2.270   1.765  13.848  0.1700 -0.4276 -2.2678
  847MPD2     N12503   2.544   1.414  13.845  0.5613 -0.1490  1.0368
  847MPD2    H512504   2.629   1.388  13.895  0.7853  0.8368  1.1533
  847MPD2    N112505   2.689   1.848  13.998 -0.2377 -0.2774  0.6201
  847MPD2    H712506   2.770   1.799  14.032 -0.2568 -0.4334  0.4393
  848MPD2     C12507   0.162   4.632  16.427 -0.2992 -0.0994  0.5236
  848MPD2    C112508   0.191   4.664  16.560  0.4545  0.2589 -0.7895
  848MPD2    C212509   0.218   0.060  16.590 -0.9280 -0.2185  0.5982
  848MPD2    C312510   0.245   0.154  16.484 -0.4094 -0.1795 -0.3549
  848MPD2    C412511   0.219   0.110  16.362 -0.9126 -0.7661  0.1903
  848MPD2    C512512   0.176   4.721  16.331 -0.4685 -0.3707 -0.4904
  848MPD2     H12513   0.223   0.083  16.696 -1.9927  1.1345  0.3452
  848MPD2    H112514   0.237   0.176  16.278  2.8040 -1.9767  0.0406
  848MPD2    H212515   0.135   4.533  16.390 -1.6510 -0.0814  1.5000
  848MPD2    H312516   0.141   4.697  16.231 -2.3722  0.1846  0.0306
  848MPD2     N12517   0.299   0.284  16.503  0.8398  0.0565 -0.1404
  848MPD2    H512518   0.295   0.342  16.420 -0.7130  0.2592  0.0763
  848MPD2    N112519   0.180   4.569  16.669  0.5530 -0.1049 -0.0277
  848MPD2    H712520   0.201   4.608  16.760 -1.9909 -0.5567  0.7753
  849MPD2     C12521   3.916   3.865  14.457  0.4950 -0.5966 -1.0740
  849MPD2    C112522   3.987   3.932  14.364  0.1435  0.6175  0.4074
  849MPD2    C212523   4.123   3.975  14.399  0.6184 -0.0331 -0.4515
  849MPD2    C312524   4.170   3.962  14.528 -0.0292  0.2087  0.7901
  849MPD2    C412525   4.089   3.919  14.623  0.4748  0.4209 -0.1076
  849MPD2    C512526   3.967   3.866  14.584 -0.0974 -0.1852  0.8990
  849MPD2     H12527   4.181   4.040  14.335 -1.2046  2.8052  0.7672
  849MPD2    H112528   4.100   3.901  14.730  2.1353  0.3860 -0.2955
  849MPD2    H212529   3.821   3.819  14.436 -0.2264  0.6078 -0.4459
  849MPD2    H312530   3.913   3.809  14.659 -0.4435  1.2210  1.7146
  849MPD2     N12531   4.295   4.008  14.554  0.3472 -1.1437 -0.2730
  849MPD2    H512532   4.348   4.024  14.469 -1.3281  1.4212 -0.8581
  849MPD2    N112533   3.935   3.939  14.228  0.4239 -0.0720  0.0465
  849MPD2    H712534   3.841   3.904  14.217  0.6137 -0.6029  0.1043
  850MPD2     C12535   2.084   2.738  14.980 -0.2270  0.0436 -0.5377
  850MPD2    C112536   2.126   2.609  14.939  0.2520  0.0499  0.1187
  850MPD2    C212537   2.260   2.579  14.930 -0.8120 -0.4408 -0.0475
  850MPD2    C312538   2.348   2.676  14.973  0.4174 -0.9754 -0.3757
  850MPD2    C412539   2.314   2.798  15.017 -0.2932  0.7084 -0.5981
  850MPD2    C512540   2.179   2.827  15.027 -0.0954 -0.4244 -0.6423
  850MPD2     H12541   2.305   2.488  14.891 -1.4798 -0.9459  0.3723
  850MPD2    H112542   2.386   2.872  15.050 -0.5989  0.4361  0.6736
  850MPD2    H212543   1.978   2.762  14.979 -0.2104  0.1927  1.7766
  850MPD2    H312544   2.156   2.929  15.056  1.4489 -0.5135  0.8874
  850MPD2     N12545   2.484   2.650  14.979  0.1662 -0.6415  0.3813
  850MPD2    H512546   2.536   2.731  15.011 -1.5906  0.6166  0.1165
  850MPD2    N112547   2.024   2.512  14.920 -0.5215 -0.3872  0.1903
  850MPD2    H712548   1.926   2.529  14.942 -0.1349  2.2136 -0.1744
  851MPD2     C12549   2.416   2.139  14.825 -0.0912 -0.0593  0.2639
  851MPD2    C112550   2.339   2.034  14.870 -0.0593  0.4703  0.4645
  851MPD2    C212551   2.396   1.912  14.887  0.6256  0.7354 -0.0761
  851MPD2    C312552   2.539   1.897  14.863  0.4658 -0.0420 -0.5439
  851MPD2    C412553   2.611   2.003  14.819  0.3074  0.3420  0.7366
  851MPD2    C512554   2.550   2.126  14.805  0.6515  0.9926 -0.4810
  851MPD2     H12555   2.350   1.822  14.925  0.6993  1.4149  1.6435
  851MPD2    H112556   2.718   2.006  14.804 -0.1060 -0.7201 -2.4795
  851MPD2    H212557   2.366   2.233  14.806  1.0458  0.7301  1.1172
  851MPD2    H312558   2.608   2.211  14.769  3.1093 -1.0767 -1.3926
  851MPD2     N12559   2.602   1.771  14.884 -0.2743  0.0629  0.1073
  851MPD2    H512560   2.544   1.697  14.922 -1.8684  1.4409  0.3668
  851MPD2    N112561   2.208   2.070  14.886  0.2988 -0.3423 -0.3074
  851MPD2    H712562   2.184   2.167  14.868  1.9718 -0.2779 -2.1182
  852MPD2     C12563   1.531   3.601  10.079 -0.2826 -0.1565  0.8277
  852MPD2    C112564   1.614   3.666  10.162  0.2178  0.0622 -0.4032
  852MPD2    C212565   1.647   3.800  10.145  0.2637 -0.4882 -0.1029
  852MPD2    C312566   1.600   3.875  10.040  0.0276 -0.9674  0.7766
  852MPD2    C412567   1.517   3.805   9.951 -0.0985 -0.0644 -0.1853
  852MPD2    C512568   1.484   3.675   9.974 -0.9874  0.6466 -0.4279
  852MPD2     H12569   1.724   3.844  10.207 -1.3533 -0.3532  1.8346
  852MPD2    H112570   1.494   3.854   9.858 -2.0888 -1.0962 -0.2367
  852MPD2    H212571   1.509   3.495  10.086  0.0776 -0.3786 -1.4864
  852MPD2    H312572   1.414   3.638   9.899 -1.9800 -0.1175  0.8686
  852MPD2     N12573   1.662   3.998  10.023 -0.6507  0.4041 -0.3148
  852MPD2    H512574   1.726   4.031  10.094  0.8066 -1.5772 -0.7070
  852MPD2    N112575   1.657   3.603  10.276 -0.4984  0.0787 -0.3766
  852MPD2    H712576   1.718   3.659  10.334 -0.8259 -1.1885  1.2072
  853MPD2     C12577   3.886   4.020  12.235 -0.9633 -0.3452  0.8858
  853MPD2    C112578   3.750   4.042  12.222  0.5817  0.3254  0.2388
  853MPD2    C212579   3.687   4.010  12.101 -0.1087 -0.7223 -0.3349
  853MPD2    C312580   3.758   3.993  11.984  0.2695  0.2874 -0.1600
  853MPD2    C412581   3.894   3.974  12.001  0.1893  0.9260  0.1460
  853MPD2    C512582   3.958   4.000  12.120  0.3253 -0.5111  0.1659
  853MPD2     H12583   3.579   4.019  12.094 -0.0063 -0.5812 -1.8766
  853MPD2    H112584   3.957   3.953  11.915 -0.3989  0.4838 -0.1758
  853MPD2    H212585   3.935   4.035  12.330  3.1301 -0.8980 -1.1141
  853MPD2    H312586   4.064   3.988  12.138  0.6067  0.7685 -0.7101
  853MPD2     N12587   3.709   3.966  11.854  0.0752 -0.0467 -0.2042
  853MPD2    H512588   3.786   3.941  11.793 -0.8195  0.3977 -1.5209
  853MPD2    N112589   3.682   4.078  12.337 -0.4503 -0.2392  0.2854
  853MPD2    H712590   3.738   4.085  12.421  0.7155 -0.7669 -0.4478
  854MPD2     C12591   0.431   0.347  13.361  0.0484  0.6302 -0.0445
  854MPD2    C112592   0.504   0.413  13.271  0.3273 -0.1350  0.2141
  854MPD2    C212593   0.633   0.371  13.256 -0.0881  0.1506  0.4793
  854MPD2    C312594   0.680   0.263  13.332 -0.4262  0.1568  0.1726
  854MPD2    C412595   0.603   0.199  13.424 -0.2759  0.3621 -0.2127
  854MPD2    C512596   0.471   0.240  13.440  0.0934 -0.6877  0.0545
  854MPD2     H12597   0.702   0.422  13.189  1.4833  1.1081  2.8399
  854MPD2    H112598   0.636   0.105  13.466  0.3393  1.4437  1.7227
  854MPD2    H212599   0.329   0.377  13.385 -0.5132 -0.8445 -0.5721
  854MPD2    H312600   0.407   0.176  13.498  0.4562 -0.1735  1.0370
  854MPD2     N12601   0.818   0.224  13.319  0.1638  0.0693  0.2394
  854MPD2    H512602   0.857   0.162  13.389  1.5568 -1.3133 -1.7584
  854MPD2    N112603   0.443   0.532  13.217 -0.2403  0.1524 -0.6566
  854MPD2    H712604   0.352   0.557  13.253  1.1750  1.9781  1.6249
  855MPD2     C12605   1.131   0.018  14.000  0.1120 -0.4807  0.2366
  855MPD2    C112606   1.188   4.678  13.904  0.4884  0.2574 -0.5457
  855MPD2    C212607   1.205   0.000  13.784  0.0197 -0.1913 -0.1230
  855MPD2    C312608   1.170   0.134  13.760  0.2012 -0.1729 -0.6325
  855MPD2    C412609   1.113   0.211  13.863 -0.4189  1.0906  0.2697
  855MPD2    C512610   1.097   0.148  13.979 -0.1811 -0.1600  0.9622
  855MPD2     H12611   1.242   4.678  13.703  0.1976  2.0553 -1.7497
  855MPD2    H112612   1.086   0.316  13.854  0.8965  1.3095 -1.3094
  855MPD2    H212613   1.083   4.712  14.087 -0.4843  0.8939  0.6194
  855MPD2    H312614   1.045   0.195  14.062 -0.5818  0.0286  0.5992
  855MPD2     N12615   1.191   0.200  13.637  0.1037 -0.1295 -0.3909
  855MPD2    H512616   1.130   0.281  13.633 -0.3179 -0.4582 -0.6550
  855MPD2    N112617   1.215   4.542  13.927  0.3676 -0.1391 -0.2227
  855MPD2    H712618   1.177   4.492  14.007  0.1214  0.2343 -0.1063
  856MPD2     C12619   3.324   0.549  14.087 -0.1921  0.3501 -0.1297
  856MPD2    C112620   3.382   0.669  14.039 -0.4387  0.2276  0.1497
  856MPD2    C212621   3.325   0.729  13.933  0.1072  0.1254 -0.0370
  856MPD2    C312622   3.211   0.686  13.877  0.6222  0.2458 -0.1324
  856MPD2    C412623   3.151   0.571  13.924  0.7317 -0.0664 -0.2518
  856MPD2    C512624   3.209   0.494  14.027 -0.1049  0.5710  0.5900
  856MPD2     H12625   3.375   0.819  13.899  1.9909 -0.2930  1.6293
  856MPD2    H112626   3.061   0.538  13.874  0.2418  2.8090 -1.3140
  856MPD2    H212627   3.367   0.496  14.171 -1.3113 -0.3910 -0.0258
  856MPD2    H312628   3.171   0.400  14.067 -0.7418  0.7768  0.4641
  856MPD2     N12629   3.158   0.755  13.767 -0.0540  0.2581  0.2233
  856MPD2    H512630   3.074   0.709  13.734 -0.5346  2.7896 -2.1090
  856MPD2    N112631   3.494   0.741  14.093  0.0589 -0.5839 -0.1011
  856MPD2    H712632   3.516   0.830  14.048 -3.3282  0.8486  1.1140
  857MPD2     C12633   4.676   2.587  13.053  0.0245 -0.0871 -0.4172
  857MPD2    C112634   0.047   2.617  12.987  1.1478  0.3322 -0.2967
  857MPD2    C212635   0.113   2.739  13.007 -0.4601 -0.2311 -0.4065
  857MPD2    C312636   0.053   2.838  13.073 -0.2778  0.3813 -0.2305
  857MPD2    C412637   4.667   2.809  13.132  0.5074 -0.6577 -0.1331
  857MPD2    C512638   4.619   2.686  13.128  0.2328 -0.0891 -0.0975
  857MPD2     H12639   0.214   2.750  12.970 -0.6461 -2.4197 -1.5737
  857MPD2    H112640   4.605   2.885  13.179 -0.1820 -1.9223  0.9749
  857MPD2    H212641   4.625   2.491  13.046 -1.0242  0.3771  0.8966
  857MPD2    H312642   4.535   2.668  13.193  0.2596 -3.8928 -1.1264
  857MPD2     N12643   0.116   2.962  13.091  0.3137 -0.5733  0.6469
  857MPD2    H512644   0.212   2.958  13.058  0.9702 -0.1711  2.4646
  857MPD2    N112645   0.101   2.514  12.906 -0.0569  0.4378  0.1288
  857MPD2    H712646   0.071   2.418  12.916 -1.3752  0.9359  1.0382
  858MPD2     C12647   1.041   1.863  16.492 -0.3179 -0.1543  0.7703
  858MPD2    C112648   1.025   1.765  16.583 -0.5819  0.3999  0.5968
  858MPD2    C212649   1.001   1.792  16.716 -0.5962  0.3159  0.2060
  858MPD2    C312650   1.003   1.917  16.768  0.7820  0.5665 -0.1910
  858MPD2    C412651   1.020   2.018  16.675 -0.0242 -0.1236 -0.0227
  858MPD2    C512652   1.027   1.993  16.538 -0.6945 -0.1020  0.6508
  858MPD2     H12653   0.993   1.705  16.780  1.2664 -2.8063 -3.7729
  858MPD2    H112654   1.032   2.123  16.700 -1.1017 -0.0802  0.3406
  858MPD2    H212655   1.069   1.842  16.390 -0.0157  0.2950  0.7582
  858MPD2    H312656   1.022   2.075  16.467 -0.4347 -3.6884 -3.4848
  858MPD2     N12657   0.981   1.945  16.905  0.5024  0.1372  0.1947
  858MPD2    H512658   0.937   2.034  16.925 -1.4296 -1.3832  2.6931
  858MPD2    N112659   1.037   1.631  16.553  0.0795  0.7400 -0.6428
  858MPD2    H712660   0.997   1.568  16.622  0.1925 -1.6417 -2.7780
  859MPD2     C12661   4.020   3.854  15.133  0.9729  0.1718 -0.3892
  859MPD2    C112662   4.130   3.873  15.210 -0.0614  0.4203 -0.0510
  859MPD2    C212663   4.206   3.766  15.247 -0.0335 -0.4219  0.1420
  859MPD2    C312664   4.165   3.637  15.216  0.7391  0.6708  0.6649
  859MPD2    C412665   4.065   3.616  15.130 -0.1475 -0.6317  0.2986
  859MPD2    C512666   3.986   3.725  15.094  0.4374  0.1445 -0.1551
  859MPD2     H12667   4.303   3.793  15.286  0.2556 -0.3031 -0.6471
  859MPD2    H112668   4.033   3.514  15.115 -0.8014 -0.4744  0.6169
  859MPD2    H212669   3.952   3.938  15.118  0.4561 -0.4414 -1.4736
  859MPD2    H312670   3.902   3.709  15.027 -0.6504  2.5317  0.6262
  859MPD2     N12671   4.246   3.526  15.254  0.2772  0.0309  0.3229
  859MPD2    H512672   4.237   3.436  15.207 -2.2022  0.4625 -0.0487
  859MPD2    N112673   4.182   4.003  15.254 -0.4857 -0.1540  0.4557
  859MPD2    H712674   4.269   4.002  15.307  0.3758  0.2013 -0.9507
  860MPD2     C12675   1.138   3.744  11.960  0.0496  0.6889  0.0411
  860MPD2    C112676   1.232   3.788  12.048  0.0290  0.3717  0.6667
  860MPD2    C212677   1.189   3.862  12.153  0.4333  0.6129 -0.1807
  860MPD2    C312678   1.053   3.895  12.179  0.3245 -0.0782  0.2649
  860MPD2    C412679   0.959   3.840  12.091  0.2484 -0.3267 -0.1095
  860MPD2    C512680   1.005   3.772  11.981 -0.9343 -0.5354 -0.0273
  860MPD2     H12681   1.272   3.901  12.212 -0.5147  0.4244  1.2917
  860MPD2    H112682   0.852   3.857  12.091  0.4464  0.9552  0.8763
  860MPD2    H212683   1.169   3.700  11.866  1.8997  3.2253 -0.5292
  860MPD2    H312684   0.926   3.737  11.915 -2.3662  5.2371 -1.3533
  860MPD2     N12685   1.012   3.973  12.292 -0.4063  1.0193  0.4360
  860MPD2    H512686   1.092   4.000  12.348  0.1396  1.3172 -0.5058
  860MPD2    N112687   1.373   3.784  12.026  0.5792 -0.3785 -0.1197
  860MPD2    H712688   1.428   3.821  12.102  1.6757 -1.4321 -0.4068
  861MPD2     C12689   4.667   2.159  11.060  0.1178  0.3469 -0.3981
  861MPD2    C112690   4.558   2.205  11.127 -0.1486 -0.4136  0.5593
  861MPD2    C212691   4.458   2.281  11.065 -1.2210 -0.9530  0.7457
  861MPD2    C312692   4.480   2.318  10.933  0.2453  0.1716  0.4440
  861MPD2    C412693   4.583   2.261  10.856 -0.2959  0.2691  0.0191
  861MPD2    C512694   4.677   2.184  10.926  0.6340 -0.5836 -0.1613
  861MPD2     H12695   4.376   2.322  11.123 -2.6932 -2.2071 -0.4590
  861MPD2    H112696   4.598   2.284  10.751  0.7398  0.1985  0.1546
  861MPD2    H212697   0.007   2.101  11.106 -0.2814  1.1919  1.3494
  861MPD2    H312698   0.020   2.141  10.869 -0.6689 -0.2953 -2.2631
  861MPD2     N12699   4.400   2.421  10.866 -0.4076 -0.1285  0.8655
  861MPD2    H512700   4.432   2.448  10.774 -1.6452  0.7849  0.7196
  861MPD2    N112701   4.543   2.189  11.262  0.4668 -0.3111 -0.2398
  861MPD2    H712702   4.451   2.195  11.303  0.0023  0.9614 -1.4332
  862MPD2     C12703   4.206   2.693  10.258 -0.2843  0.8250  0.0006
  862MPD2    C112704   4.272   2.598  10.326  0.5627  0.2964 -0.1662
  862MPD2    C212705   4.292   2.474  10.268  0.7106  0.1597  0.1612
  862MPD2    C312706   4.245   2.439  10.147 -0.1949  0.2074 -0.0865
  862MPD2    C412707   4.164   2.532  10.087  0.5771  0.7880 -0.3575
  862MPD2    C512708   4.154   2.661  10.139  0.3453 -0.2591 -0.2596
  862MPD2     H12709   4.353   2.402  10.322 -0.6421 -1.5501 -0.5795
  862MPD2    H112710   4.124   2.505   9.989 -2.3838  1.7690  0.5771
  862MPD2    H212711   4.204   2.796  10.294 -0.9714  1.2499 -1.2588
  862MPD2    H312712   4.098   2.738  10.087 -0.1209  0.0722  0.7498
  862MPD2     N12713   4.271   2.313  10.085 -0.2668  0.1028 -1.1076
  862MPD2    H512714   4.215   2.285  10.005  1.8751 -3.2404 -1.4264
  862MPD2    N112715   4.318   2.621  10.454  0.4136 -0.4585 -0.0074
  862MPD2    H712716   4.346   2.543  10.512  1.1074 -0.8183 -0.8355
  863MPD2     C12717   3.637   0.815  16.869 -0.2676 -0.1525  0.2512
  863MPD2    C112718   3.701   0.935  16.861  0.0906 -0.6898  0.0488
  863MPD2    C212719   3.795   0.967  16.952 -0.6135  0.2418 -0.9479
  863MPD2    C312720   3.821   0.877  17.052 -0.3552 -0.4140 -0.1996
  863MPD2    C412721   3.750   0.756  17.071  0.0084  0.3233 -0.3363
  863MPD2    C512722   3.670   0.723  16.966  0.4204 -0.6378 -0.3287
  863MPD2     H12723   3.848   1.060  16.946  1.2552 -0.8440 -1.2378
  863MPD2    H112724   3.756   0.698  17.162  0.3550  0.5061 -0.2440
  863MPD2    H212725   3.582   0.784  16.781 -0.1044  2.5172 -0.7933
  863MPD2    H312726   3.617   0.629  16.964 -1.4560  0.3839  1.3010
  863MPD2     N12727   3.897   0.913  17.169  0.2580 -0.5024  0.1802
  863MPD2    H512728   3.892   0.859  17.254 -1.3746  1.1161  1.1032
  863MPD2    N112729   3.659   1.016  16.750  0.1431  0.3563  0.3106
  863MPD2    H712730   3.589   0.986  16.683 -2.9717  1.2580  3.1587
  864MPD2     C12731   4.495   1.918  17.474  0.4583  0.0637  0.8672
  864MPD2    C112732   4.519   1.864  17.354  0.0320  0.1792 -0.1929
  864MPD2    C212733   4.599   1.920  17.259  0.1553  0.4037  0.1250
  864MPD2    C312734   4.660   2.045  17.295 -0.5024 -0.2768  0.3068
  864MPD2    C412735   4.630   2.099  17.415 -0.3847 -0.9901 -0.1042
  864MPD2    C512736   4.550   2.040  17.506  0.0676 -0.2138 -0.2672
  864MPD2     H12737   4.609   1.882  17.158 -1.8399  3.2708 -1.1407
  864MPD2    H112738   4.667   2.197  17.445 -0.9852 -0.0984 -2.2729
  864MPD2    H212739   4.430   1.868  17.545 -1.5852 -1.1997 -1.9009
  864MPD2    H312740   4.504   2.098  17.584 -1.1722 -1.2218 -0.2672
  864MPD2     N12741   0.010   2.114  17.207 -0.0048 -0.2830  0.2266
  864MPD2    H512742   0.055   2.198  17.241  1.4160 -0.6554 -0.6977
  864MPD2    N112743   4.466   1.739  17.339  0.3169  0.5035  0.5309
  864MPD2    H712744   4.422   1.697  17.420  0.5573 -0.8573 -0.0320
  865MPD2     C12745   0.146   2.468  16.405 -0.1064  0.5379  0.4693
  865MPD2    C112746   0.106   2.365  16.484  0.2294  0.0282  0.0071
  865MPD2    C212747   0.061   2.394  16.610 -0.0545  1.2059  0.3542
  865MPD2    C312748   0.067   2.528  16.653  1.1622  0.6557 -0.4933
  865MPD2    C412749   0.098   2.632  16.568 -0.0123  0.8319 -0.1050
  865MPD2    C512750   0.143   2.598  16.443 -0.5826 -0.3809  0.8820
  865MPD2     H12751   0.028   2.316  16.678  3.1260 -0.3407  0.1578
  865MPD2    H112752   0.098   2.737  16.596 -2.4710  0.3825  1.6493
  865MPD2    H212753   0.171   2.448  16.302 -2.6570 -0.4863  0.0378
  865MPD2    H312754   0.163   2.673  16.367 -0.0237 -0.6852  0.7275
  865MPD2     N12755   0.032   2.566  16.781 -0.5214  0.6671  0.0535
  865MPD2    H512756   0.005   2.664  16.783  2.6976  1.5435 -0.0665
  865MPD2    N112757   0.135   2.237  16.438 -0.1379 -0.1981  0.6517
  865MPD2    H712758   0.174   2.217  16.347  0.1429  0.5974  0.5995
  866MPD2     C12759   0.605   2.069  11.289  0.0596  0.2250 -0.5396
  866MPD2    C112760   0.622   2.148  11.172  0.0443 -0.2549 -0.0195
  866MPD2    C212761   0.514   2.214  11.115 -0.0864  0.4413 -0.3708
  866MPD2    C312762   0.384   2.202  11.185  0.6407  0.1083  0.5139
  866MPD2    C412763   0.375   2.122  11.305 -0.2403 -0.3812  0.1556
  866MPD2    C512764   0.490   2.068  11.359 -0.0599 -0.0308  0.0114
  866MPD2     H12765   0.521   2.285  11.033 -1.0333  1.1766  0.1885
  866MPD2    H112766   0.278   2.114  11.353 -0.0900  1.2693  0.7523
  866MPD2    H212767   0.689   2.012  11.329 -0.3102 -1.1541 -1.7462
  866MPD2    H312768   0.493   2.013  11.452  0.4798  0.9075  0.5501
  866MPD2     N12769   0.273   2.281  11.153  0.0605  0.0723 -0.4527
  866MPD2    H512770   0.187   2.281  11.207  1.1205  0.8232  1.2433
  866MPD2    N112771   0.752   2.154  11.116 -0.2462  0.1402  0.5371
  866MPD2    H712772   0.817   2.088  11.157 -0.3893  0.8915  1.9931
  867MPD2     C12773   3.169   2.299  16.782  0.6895 -0.2508  0.1322
  867MPD2    C112774   3.224   2.229  16.889 -0.0067  0.0844 -0.2132
  867MPD2    C212775   3.222   2.287  17.008  0.3310  0.0164 -0.5989
  867MPD2    C312776   3.167   2.411  17.030  0.7398  0.7554 -0.1085
  867MPD2    C412777   3.114   2.481  16.917  0.3867  0.7535 -0.1106
  867MPD2    C512778   3.120   2.427  16.795 -0.0980 -0.0647 -0.3128
  867MPD2     H12779   3.266   2.231  17.090  1.8923  2.2703  0.1052
  867MPD2    H112780   3.093   2.587  16.925 -0.4080  0.4652  1.4537
  867MPD2    H212781   3.175   2.249  16.686  1.2249 -0.6537  0.3762
  867MPD2    H312782   3.093   2.482  16.706 -1.2078 -4.6918 -2.8604
  867MPD2     N12783   3.143   2.468  17.156  0.2883  0.9057  0.4860
  867MPD2    H512784   3.096   2.558  17.159 -0.6526  0.4420 -0.2175
  867MPD2    N112785   3.283   2.106  16.861  0.3842  0.1843  0.3861
  867MPD2    H712786   3.248   2.064  16.776  0.8973 -0.0725  0.3033
  868MPD2     C12787   0.117   1.649  13.403 -0.1434 -0.1822  0.6892
  868MPD2    C112788   0.205   1.573  13.474  0.5075  1.2862 -0.1781
  868MPD2    C212789   0.232   1.606  13.600 -0.2301  0.0189 -0.3458
  868MPD2    C312790   0.155   1.698  13.673 -0.5543  0.4410  0.0027
  868MPD2    C412791   0.073   1.781  13.595  0.3829  0.6428 -0.2305
  868MPD2    C512792   0.061   1.758  13.458 -0.5266  0.1589  0.5040
  868MPD2     H12793   0.304   1.543  13.651  0.0902  1.5730  1.1367
  868MPD2    H112794   0.029   1.871  13.637  0.5642 -0.4687  2.3411
  868MPD2    H212795   0.104   1.626  13.298  1.0222  0.8355  0.3247
  868MPD2    H312796   4.733   1.817  13.397 -1.4918 -2.2704 -0.7887
  868MPD2     N12797   0.165   1.712  13.813 -0.6885 -0.1542 -0.6782
  868MPD2    H512798   0.232   1.657  13.867 -1.3336 -0.3820 -0.1105
  868MPD2    N112799   0.266   1.467  13.406  0.0595 -0.3326 -0.3937
  868MPD2    H712800   0.237   1.449  13.311  0.3805 -1.6113 -0.2392
  869MPD2     C12801   0.781   3.765   0.111 -0.4882 -0.3996  0.4922
  869MPD2    C112802   0.745   3.813   0.236  0.4367 -0.1717  0.6782
  869MPD2    C212803   0.825   3.784   0.352  0.7460 -0.2976  0.2326
  869MPD2    C312804   0.946   3.719   0.328  0.0725 -0.3491 -0.0005
  869MPD2    C412805   0.977   3.660   0.208  0.7028  0.1430 -0.0874
  869MPD2    C512806   0.893   3.686   0.101  0.1659  0.4027 -0.7324
  869MPD2     H12807   0.798   3.834   0.444  0.4444 -2.7739  1.4904
  869MPD2    H112808   1.072   3.612   0.185  1.3993  0.7037  1.6332
  869MPD2    H212809   0.733   3.787   0.016  0.8235  0.5279  0.0421
  869MPD2    H312810   0.912   3.633   0.008 -1.8545  0.2156 -1.0319
  869MPD2     N12811   1.048   3.733   0.420  0.2488  0.1870 -0.0513
  869MPD2    H512812   1.140   3.696   0.399  1.2762  3.5407 -1.6108
  869MPD2    N112813   0.645   3.910   0.244 -0.0244 -0.1299  0.7168
  869MPD2    H712814   0.592   3.931   0.160 -0.2791  0.4726  1.0275
  870MPD2     C12815   1.780   2.270   1.412  0.3259 -0.2823 -0.0652
  870MPD2    C112816   1.669   2.200   1.368 -0.7062 -0.3943  0.4221
  870MPD2    C212817   1.535   2.255   1.371 -0.1508  0.7956  0.3415
  870MPD2    C312818   1.526   2.390   1.420 -0.1225 -0.2606 -0.6127
  870MPD2    C412819   1.638   2.458   1.468  0.7488  0.5895  0.3316
  870MPD2    C512820   1.767   2.398   1.472  0.0307  0.0637 -0.3456
  870MPD2     H12821   1.449   2.210   1.323 -2.5089  3.5884  1.9509
  870MPD2    H112822   1.633   2.558   1.510 -0.9813  0.4768  0.3906
  870MPD2    H212823   1.881   2.233   1.398  1.2532  1.5122  1.7878
  870MPD2    H312824   1.850   2.454   1.512 -0.4254 -0.8608  1.9140
  870MPD2     N12825   1.400   2.452   1.413  0.2663  0.4981 -0.2387
  870MPD2    H512826   1.323   2.394   1.382  1.4124 -0.9194 -0.4325
  870MPD2    N112827   1.703   2.071   1.312  0.5530 -0.1110  0.1038
  870MPD2    H712828   1.801   2.045   1.305  0.4705 -0.0282 -1.2671
  871MPD2     C12829   2.186   2.231  16.386  0.4837 -0.0475  0.5377
  871MPD2    C112830   2.207   2.202  16.520  0.1237  0.1377 -0.1451
  871MPD2    C212831   2.293   2.094  16.549 -0.1283 -0.5234  0.3728
  871MPD2    C312832   2.351   2.019  16.459 -0.0833  0.2529  0.0718
  871MPD2    C412833   2.336   2.051  16.324 -0.1566 -0.1141  0.0588
  871MPD2    C512834   2.252   2.157  16.289  0.3737  0.0649 -0.2035
  871MPD2     H12835   2.313   2.061  16.650  1.9480 -1.2239 -0.2671
  871MPD2    H112836   2.388   1.994  16.248  1.3548 -0.5440  1.4244
  871MPD2    H212837   2.126   2.314  16.351  0.4422 -0.4787 -0.4343
  871MPD2    H312838   2.251   2.192  16.186 -0.6479  3.2947  0.8971
  871MPD2     N12839   2.435   1.911  16.503  0.0942 -0.2716 -0.2479
  871MPD2    H512840   2.431   1.896  16.604  1.2786  0.6240 -0.0682
  871MPD2    N112841   2.144   2.271  16.629 -0.4701 -0.1245 -0.2990
  871MPD2    H712842   2.081   2.341  16.590 -0.9738 -1.5338 -1.9757
  872MPD2     C12843   3.124   4.364  14.847  0.0989 -0.4690  0.5425
  872MPD2    C112844   3.103   4.335  14.715 -0.4394 -0.2818 -0.2694
  872MPD2    C212845   2.977   4.333  14.662  0.2268 -0.5961  0.4974
  872MPD2    C312846   2.872   4.367  14.742 -0.0584  0.6670 -0.1529
  872MPD2    C412847   2.900   4.409  14.874  0.0343  0.0838 -0.2409
  872MPD2    C512848   3.018   4.394  14.933 -0.0637 -0.4345  0.6388
  872MPD2     H12849   2.971   4.295  14.561  2.6490  1.7381 -0.5144
  872MPD2    H112850   2.818   4.445  14.935 -3.8818 -0.6743 -5.0949
  872MPD2    H212851   3.226   4.364  14.883  0.3626  0.7099 -0.2010
  872MPD2    H312852   3.031   4.412  15.039 -0.3898  3.1029  0.0953
  872MPD2     N12853   2.740   4.380  14.689  0.0052  0.0007  0.0951
  872MPD2    H512854   2.659   4.414  14.741  0.0676  0.0336  0.1718
  872MPD2    N112855   3.206   4.325  14.621 -0.1259 -0.2042 -0.8038
  872MPD2    H712856   3.184   4.317  14.522  1.1099  1.0550 -1.1688
  873MPD2     C12857   4.122   0.184   0.799  0.4049  0.5649 -1.0156
  873MPD2    C112858   4.122   0.076   0.883 -0.6069 -0.0981  0.0814
  873MPD2    C212859   4.102   4.690   0.837  0.7339 -0.2393 -0.6406
  873MPD2    C312860   4.071   4.669   0.706 -0.7811 -0.2472 -0.5721
  873MPD2    C412861   4.058   0.038   0.621 -0.0655  0.0957  0.3303
  873MPD2    C512862   4.088   0.161   0.669 -0.8424  0.0491  0.2419
  873MPD2     H12863   4.091   4.608   0.907  1.8605  0.4286  0.3104
  873MPD2    H112864   4.044   0.027   0.514 -2.8291  1.4384  0.5755
  873MPD2    H212865   4.152   0.281   0.836  0.6782 -0.6473  2.0093
  873MPD2    H312866   4.092   0.254   0.613  1.8043  0.4556  1.0633
  873MPD2     N12867   4.053   4.537   0.652 -0.6256 -0.6678  0.0177
  873MPD2    H512868   4.037   4.532   0.552 -1.6773 -2.0249  0.2573
  873MPD2    N112869   4.143   0.100   1.021 -0.2422 -0.8183 -0.4680
  873MPD2    H712870   4.157   0.197   1.049 -3.1746 -0.2323 -1.0246
  874MPD2     C12871   4.477   0.200  16.249 -0.2761 -0.4365 -0.0527
  874MPD2    C112872   4.452   0.262  16.374  0.4996 -0.3879  0.3990
  874MPD2    C212873   4.533   0.363  16.418 -0.0346 -0.2282 -0.8479
  874MPD2    C312874   4.652   0.387  16.350  0.0530  0.2953  0.6257
  874MPD2    C412875   4.676   0.328  16.229 -0.1490  0.1443  0.2132
  874MPD2    C512876   4.591   0.239  16.186 -0.6790 -0.2112 -0.1182
  874MPD2     H12877   4.521   0.415  16.512  0.1054  1.0230 -1.5335
  874MPD2    H112878   0.021   0.361  16.169  0.5250 -0.2330  0.9373
  874MPD2    H212879   4.412   0.118  16.218 -1.6831  1.0688 -1.1097
  874MPD2    H312880   4.606   0.204  16.084 -1.8818  0.9821 -0.6973
  874MPD2     N12881   4.736   0.489  16.411 -0.0938 -0.1396  0.2802
  874MPD2    H512882   4.705   0.527  16.500 -1.6744  0.3823 -0.4881
  874MPD2    N112883   4.332   0.222  16.439  0.4706  0.4421 -0.4059
  874MPD2    H712884   4.283   0.137  16.414 -0.3804  0.6985  0.4004
  875MPD2     C12885   0.941   3.126  14.593  0.2034 -0.6812 -0.4184
  875MPD2    C112886   0.819   3.180  14.615 -0.0236 -0.2771  0.8012
  875MPD2    C212887   0.795   3.229  14.744 -0.4139 -0.5992  0.2890
  875MPD2    C312888   0.896   3.219  14.842 -0.8602 -0.5931 -0.3346
  875MPD2    C412889   1.011   3.148  14.816  0.3920  0.7345 -0.3830
  875MPD2    C512890   1.037   3.114  14.692  0.4581  0.5174 -0.2925
  875MPD2     H12891   0.705   3.288  14.761  0.7813  1.0209  0.9750
  875MPD2    H112892   1.089   3.136  14.891  0.4887 -0.2858 -0.6522
  875MPD2    H212893   0.972   3.104  14.492 -2.3365  0.2106 -1.3851
  875MPD2    H312894   1.125   3.057  14.666 -0.1414 -0.7480  0.4391
  875MPD2     N12895   0.885   3.266  14.975  0.2817 -0.5669  0.1866
  875MPD2    H512896   0.952   3.251  15.050 -0.1379  0.2391  0.7224
  875MPD2    N112897   0.714   3.189  14.517 -0.0164 -0.2680  0.6288
  875MPD2    H712898   0.625   3.226  14.547 -1.0689 -3.3672  1.3274
  876MPD2     C12899   4.383   4.283  16.576  0.1053 -0.4693 -0.8888
  876MPD2    C112900   4.403   4.245  16.448  0.7861 -0.0527 -0.5230
  876MPD2    C212901   4.381   4.116  16.407  0.1156  0.0737  0.6202
  876MPD2    C312902   4.340   4.024  16.501  0.2505  0.0613 -0.0303
  876MPD2    C412903   4.319   4.064  16.633 -0.0440  1.3459 -0.2381
  876MPD2    C512904   4.342   4.190  16.668  0.4195 -0.0286 -0.6355
  876MPD2     H12905   4.381   4.089  16.302 -0.1748 -2.3259  1.2308
  876MPD2    H112906   4.285   4.007  16.719 -0.6593 -1.7694 -2.5235
  876MPD2    H212907   4.392   4.386  16.608  1.0013 -0.1940 -2.0359
  876MPD2    H312908   4.335   4.225  16.770 -0.6277 -2.2039  0.0291
  876MPD2     N12909   4.309   3.897  16.440 -0.1486  0.3910  0.5183
  876MPD2    H512910   4.343   3.887  16.345 -0.2304 -0.7004  0.6058
  876MPD2    N112911   4.475   4.339  16.364  0.4377 -0.0118 -0.0678
  876MPD2    H712912   4.487   4.436  16.390 -0.3262 -0.1920  0.9495
  877MPD2     C12913   4.317   0.007  15.759  0.1308  0.2217  1.0763
  877MPD2    C112914   4.454   0.023  15.756 -0.1832 -0.8174 -1.3503
  877MPD2    C212915   4.510   0.048  15.626 -0.1074  0.4242  0.1004
  877MPD2    C312916   4.428   0.073  15.516 -0.0284 -0.2485 -0.0108
  877MPD2    C412917   4.290   0.063  15.532  0.2773  0.5806 -0.7636
  877MPD2    C512918   4.234   0.024  15.649  0.1007  0.0317  0.2333
  877MPD2     H12919   4.617   0.034  15.614 -0.1398 -0.3594  0.7573
  877MPD2    H112920   4.228   0.072  15.444 -1.1398 -0.4144  0.1287
  877MPD2    H212921   4.275   4.705  15.850  0.1973 -1.3351  0.4183
  877MPD2    H312922   4.129   4.737  15.660  0.2902 -1.1674 -0.8550
  877MPD2     N12923   4.485   0.116  15.394  0.3137  0.0350  0.1301
  877MPD2    H512924   4.420   0.131  15.317 -0.2050 -0.9172  0.3885
  877MPD2    N112925   4.532   4.735  15.864 -0.6343  0.5566  0.5167
  877MPD2    H712926   4.630   0.022  15.862 -0.3441 -0.4330  1.5051
  878MPD2     C12927   4.327   3.415  13.505  0.8932  0.4078  0.4503
  878MPD2    C112928   4.366   3.535  13.462 -0.0381  0.8071  0.1563
  878MPD2    C212929   4.306   3.637  13.528  0.5468  0.3493 -0.2637
  878MPD2    C312930   4.209   3.635  13.628 -0.0077  0.5266  0.4061
  878MPD2    C412931   4.187   3.511  13.685 -0.5194 -0.6190 -0.3547
  878MPD2    C512932   4.239   3.405  13.611 -0.3732 -0.1799  0.0275
  878MPD2     H12933   4.319   3.736  13.485  1.9932  0.7156  0.9900
  878MPD2    H112934   4.097   3.493  13.743 -0.2664  1.7715  0.7577
  878MPD2    H212935   4.360   3.329  13.448 -3.7543 -1.2502  0.2781
  878MPD2    H312936   4.205   3.305  13.634  0.2055 -0.2605  0.5287
  878MPD2     N12937   4.156   3.754  13.677  0.0454 -0.5175 -0.0579
  878MPD2    H512938   4.189   3.839  13.633 -2.6859  1.6651  2.1116
  878MPD2    N112939   4.453   3.549  13.348 -0.2935 -0.4378  0.0953
  878MPD2    H712940   4.490   3.461  13.314 -0.1976 -0.5897  0.5960
  879MPD2     C12941   4.518   0.944  17.109  0.1856 -0.1153 -0.6702
  879MPD2    C112942   4.482   0.822  17.167 -0.1697 -0.9650 -0.4008
  879MPD2    C212943   4.375   0.751  17.110 -0.8580 -0.2461  0.0084
  879MPD2    C312944   4.316   0.801  16.994 -0.4672  0.0230  0.1561
  879MPD2    C412945   4.360   0.918  16.936  0.5349 -0.2531  0.2051
  879MPD2    C512946   4.454   0.992  16.998  0.4456 -0.2977  0.7877
  879MPD2     H12947   4.337   0.661  17.157 -0.1788 -0.6976 -0.3216
  879MPD2    H112948   4.302   0.968  16.858 -0.3379  0.7451  1.4871
  879MPD2    H212949   4.598   1.004  17.152  1.3542  0.0854 -3.1485
  879MPD2    H312950   4.487   1.089  16.963  0.3935 -0.2731  0.8070
  879MPD2     N12951   4.210   0.748  16.919 -0.6738 -0.6104 -0.1170
  879MPD2    H512952   4.198   0.795  16.830 -1.1688  1.9989  1.3527
  879MPD2    N112953   4.557   0.787  17.280 -0.8182  0.9675  0.6655
  879MPD2    H712954   4.643   0.836  17.303  0.0709 -1.0640  1.6978
  880MPD2     C12955   0.891   2.048   0.140  0.2441 -0.0235 -0.4194
  880MPD2    C112956   0.920   2.083   0.272  0.0107  0.0260  0.0353
  880MPD2    C212957   0.960   1.983   0.360 -0.6280 -0.1060  0.4646
  880MPD2    C312958   0.982   1.853   0.313 -0.1619  0.5959  0.1607
  880MPD2    C412959   0.962   1.826   0.180  0.8214  0.2611 -0.4431
  880MPD2    C512960   0.908   1.919   0.098  0.0720 -0.1734 -0.0341
  880MPD2     H12961   0.972   2.007   0.465 -0.8738 -2.6454  1.0662
  880MPD2    H112962   0.972   1.729   0.134  0.2153 -1.5016  3.1240
  880MPD2    H212963   0.875   2.122   0.062 -1.4131 -0.7590 -0.7801
  880MPD2    H312964   0.892   1.884  17.750 -2.2751  0.0126  0.2845
  880MPD2     N12965   1.020   1.745   0.403 -0.3518  0.1127  0.1186
  880MPD2    H512966   1.024   1.774   0.500 -0.5001  0.8347 -0.0928
  880MPD2    N112967   0.912   2.227   0.302 -1.1356  0.0716  0.0056
  880MPD2    H712968   0.891   2.281   0.219 -0.0161  1.4994  0.6457
  881MPD2     C12969   1.030   3.077  17.595  0.3579 -0.7032  0.2808
  881MPD2    C112970   1.077   2.951  17.582  0.4407  0.2751 -0.3944
  881MPD2    C212971   1.044   2.856  17.679 -0.0591 -0.1168 -0.3590
  881MPD2    C312972   0.985   2.898   0.043  0.1364  0.2401 -0.0379
  881MPD2    C412973   0.950   3.030   0.057  0.4657  0.6083 -0.8787
  881MPD2    C512974   0.967   3.118  17.709 -0.2966 -0.2810  0.3409
  881MPD2     H12975   1.066   2.752  17.658 -0.5042  0.0546 -1.6413
  881MPD2    H112976   0.905   3.063   0.150 -2.0533  1.1512 -2.2770
  881MPD2    H212977   1.042   3.161  17.527  0.1833 -0.7115  0.2416
  881MPD2    H312978   0.946   3.223  17.724  2.1503  0.2420  0.1267
  881MPD2     N12979   0.956   2.811   0.150 -0.0581 -0.6147  0.1302
  881MPD2    H512980   0.911   2.856   0.230  0.4289 -0.9853  0.6116
  881MPD2    N112981   1.114   2.922  17.450 -0.6029 -0.3474  0.2151
  881MPD2    H712982   1.086   2.994  17.384  0.0935 -0.2879 -0.0149
  882MPD2     C12983   4.519   4.470  15.005  0.5778  0.7126 -0.2368
  882MPD2    C112984   4.448   4.578  14.956  0.0511 -0.2697  0.0577
  882MPD2    C212985   4.320   4.573  14.897  0.0563 -0.3650 -0.0705
  882MPD2    C312986   4.256   4.448  14.907 -0.6180  0.4978 -0.1756
  882MPD2    C412987   4.323   4.340  14.963 -0.1976  0.7556 -0.8306
  882MPD2    C512988   4.456   4.349  15.012  0.5181  0.1624  0.6773
  882MPD2     H12989   4.279   4.659  14.845 -2.2777 -1.2407  0.3448
  882MPD2    H112990   4.272   4.244  14.967  0.7732  0.2692  0.0838
  882MPD2    H212991   4.619   4.468  15.047  0.3986  3.1817  0.3411
  882MPD2    H312992   4.509   4.267  15.059 -1.0646 -1.2689 -0.0517
  882MPD2     N12993   4.127   4.423  14.853  0.6473  0.0582  0.5207
  882MPD2    H512994   4.089   4.329  14.869  0.7915  0.0381  0.7489
  882MPD2    N112995   4.519   4.700  14.971 -0.6876  0.0583  0.9754
  882MPD2    H712996   4.617   4.689  14.997 -0.0560 -0.1620 -1.5398
  883MPD2     C12997   1.820   0.802  16.576  0.1242 -0.1210  0.4707
  883MPD2    C112998   1.851   0.761  16.452  0.0618 -0.3896 -0.4351
  883MPD2    C212999   1.898   0.862  16.366  0.3329 -0.2009 -0.9118
  883MPD2    C313000   1.910   0.992  16.413 -1.0762  0.9769  0.0900
  883MPD2    C413001   1.882   1.024  16.539  0.0828  0.3998  0.6489
  883MPD2    C513002   1.830   0.928  16.627  0.9175 -0.7591  0.3207
  883MPD2     H13003   1.928   0.831  16.266 -0.2064  0.8042 -1.3930
  883MPD2    H113004   1.877   1.127  16.574  1.0502 -0.0599  2.1697
  883MPD2    H213005   1.777   0.733  16.649 -0.7291  0.5666  0.6120
  883MPD2    H313006   1.784   0.959  16.719  0.5877 -0.5185  0.0751
  883MPD2     N13007   1.959   1.088  16.320 -0.4309 -0.0084  0.0257
  883MPD2    H513008   1.985   1.048  16.231  0.6137 -0.6548  0.6137
  883MPD2    N113009   1.853   0.624  16.430  0.3197 -0.4441  0.5134
  883MPD2    H713010   1.823   0.569  16.510 -0.3294 -1.9034 -0.7488
  884MPD2     C13011   3.656   0.662  15.169 -1.1213  0.1599  0.2969
  884MPD2    C113012   3.640   0.740  15.059 -0.1800  0.5818 -0.1237
  884MPD2    C213013   3.520   0.796  15.037  0.1855  0.2108 -0.5225
  884MPD2    C313014   3.417   0.789  15.132  0.0158  0.1083 -1.0714
  884MPD2    C413015   3.432   0.698  15.232 -0.0984 -0.6913  0.2343
  884MPD2    C513016   3.554   0.647  15.257  0.0068 -0.3441  0.2446
  884MPD2     H13017   3.510   0.873  14.961  2.8177  0.8772 -0.1738
  884MPD2    H113018   3.369   0.688  15.319 -1.6664  1.7393 -0.6422
  884MPD2    H213019   3.752   0.624  15.201 -0.3505  1.4520 -0.5062
  884MPD2    H313020   3.570   0.598  15.352  0.4694 -0.5004  0.0853
  884MPD2     N13021   3.288   0.842  15.097  0.5325 -0.0506  0.3123
  884MPD2    H513022   3.279   0.906  15.019  1.4531 -1.8288 -1.2522
  884MPD2    N113023   3.748   0.780  14.978 -0.3841 -0.5643 -0.1799
  884MPD2    H713024   3.722   0.835  14.897 -0.9991  0.6656  0.8485
  885MPD2     C13025   1.537   1.198   0.200  0.5568 -0.6437  0.2077
  885MPD2    C113026   1.640   1.112   0.170  0.0272 -0.8077  0.4217
  885MPD2    C213027   1.648   1.068   0.043  0.2968  0.2013  0.2960
  885MPD2    C313028   1.565   1.123  17.696 -0.4187  0.4230  0.8668
  885MPD2    C413029   1.468   1.212  17.730  0.1139 -0.1608  0.3008
  885MPD2    C513030   1.454   1.250   0.105 -0.1409  0.1495 -0.6149
  885MPD2     H13031   1.704   0.979   0.017  0.3734  0.7723 -1.5008
  885MPD2    H113032   1.407   1.255  17.652 -1.6419 -0.5536  1.4697
  885MPD2    H213033   1.526   1.238   0.300 -0.4332  1.6872 -0.8518
  885MPD2    H313034   1.382   1.326   0.135 -2.3164 -1.7867 -0.9004
  885MPD2     N13035   1.569   1.078  17.561  0.8007 -0.2821 -0.2261
  885MPD2    H513036   1.638   1.007  17.540 -0.9686 -1.2317 -2.8064
  885MPD2    N113037   1.725   1.085   0.283 -0.4732  0.4046 -1.1213
  885MPD2    H713038   1.693   1.120   0.373  1.8750 -0.4312  0.0537
  886MPD2     C13039   2.944   4.368  15.713 -0.1213 -0.6213 -0.3409
  886MPD2    C113040   3.081   4.392  15.703  0.2631 -0.0090 -0.1075
  886MPD2    C213041   3.131   4.458  15.593 -0.3178  0.1676  0.5743
  886MPD2    C313042   3.043   4.489  15.488 -0.5414 -0.0026 -0.2922
  886MPD2    C413043   2.908   4.455  15.496 -0.7230  0.9583  1.0986
  886MPD2    C513044   2.855   4.398  15.611  0.7443  0.0000  0.4415
  886MPD2     H13045   3.235   4.489  15.593 -0.3985  0.4447  0.9376
  886MPD2    H113046   2.838   4.479  15.417 -0.2448  0.8468  0.6400
  886MPD2    H213047   2.912   4.319  15.803 -1.7518 -1.3657 -1.3320
  886MPD2    H313048   2.748   4.377  15.613  0.8426 -0.6088 -0.6946
  886MPD2     N13049   3.100   4.561  15.381 -0.4790  0.3534  0.1039
  886MPD2    H513050   3.197   4.586  15.396 -0.2432  0.3851 -1.4068
  886MPD2    N113051   3.154   4.359  15.820  0.1933 -0.1527  0.8271
  886MPD2    H713052   3.102   4.348  15.906  1.4178 -2.2785  1.3077
  887MPD2     C13053   3.938   4.513  16.177 -0.1080 -0.4537 -0.3351
  887MPD2    C113054   3.841   4.555  16.076  0.6438 -0.1781 -0.5053
  887MPD2    C213055   3.879   4.670  16.003 -0.7203 -0.1586  0.4287
  887MPD2    C313056   4.001   4.732  16.016  0.4916  0.3798 -1.0211
  887MPD2    C413057   4.087   4.692  16.119 -0.4125 -1.1333 -0.0962
  887MPD2    C513058   4.049   4.581  16.188 -0.6376  0.9212 -0.2129
  887MPD2     H13059   3.809   4.709  15.930 -0.0204 -1.8809 -1.1833
  887MPD2    H113060   4.184   4.734  16.143  0.5811 -2.7063 -1.3542
  887MPD2    H213061   3.916   4.439  16.252 -0.4496 -0.7875 -0.7692
  887MPD2    H313062   4.119   4.546  16.263 -2.0475 -0.1650  0.5889
  887MPD2     N13063   4.021   0.095  15.920 -0.4712 -0.7543 -0.1176
  887MPD2    H513064   3.952   0.110  15.847 -1.0906  0.8150  0.7995
  887MPD2    N113065   3.719   4.493  16.055 -0.3708 -0.6674  0.5477
  887MPD2    H713066   3.644   4.539  16.003 -0.5994 -0.9135  0.6583
  888MPD2     C13067   0.825   4.237  14.689 -0.1104 -0.0302 -0.3893
  888MPD2    C113068   0.823   4.278  14.829 -0.1698  0.3597  0.4945
  888MPD2    C213069   0.895   4.386  14.869  0.3844 -0.2640  0.4174
  888MPD2    C313070   0.971   4.457  14.772  0.1755 -0.1227 -0.3570
  888MPD2    C413071   0.975   4.409  14.645  0.1804 -0.4515  0.2955
  888MPD2    C513072   0.912   4.293  14.606  0.1795 -0.8266 -0.1266
  888MPD2     H13073   0.895   4.406  14.975  0.7345  0.2336  0.3247
  888MPD2    H113074   1.040   4.458  14.573  0.9496  0.1160  1.3802
  888MPD2    H213075   0.778   4.149  14.646 -0.6643  0.1250 -0.1113
  888MPD2    H313076   0.917   4.263  14.502 -3.2757 -0.7931 -0.3164
  888MPD2     N13077   1.029   4.576  14.816 -0.1304  0.1577  0.4732
  888MPD2    H513078   1.014   4.604  14.913  1.0944  3.6229 -0.3514
  888MPD2    N113079   0.740   4.215  14.926  0.1290 -0.1640 -0.2887
  888MPD2    H713080   0.731   4.269  15.012  0.7961  1.2928 -1.1394
  889MPD2     C13081   0.052   3.748  12.769 -0.0717 -0.3862  0.2206
  889MPD2    C113082   0.102   3.753  12.897 -0.3015 -0.2972  0.0569
  889MPD2    C213083   0.122   3.875  12.958  0.0249  0.8891  0.4721
  889MPD2    C313084   0.051   3.983  12.897 -0.3256 -0.3530  0.2095
  889MPD2    C413085   0.006   3.976  12.768  0.2464 -0.0343  0.2018
  889MPD2    C513086   0.005   3.860  12.703  0.4135  0.4882 -0.2680
  889MPD2     H13087   0.147   3.875  13.064  2.0255  0.3411  0.0059
  889MPD2    H113088   4.707   4.062  12.714  0.6777 -0.7295 -1.2021
  889MPD2    H213089   0.031   3.652  12.722 -1.2752  0.0317 -0.1108
  889MPD2    H313090   4.700   3.852  12.605  2.4710  1.5245 -1.2821
  889MPD2     N13091   0.038   4.100  12.975 -0.3884  0.0080  0.2928
  889MPD2    H513092   0.071   4.095  13.070  1.2409  0.4062 -0.2622
  889MPD2    N113093   0.156   3.644  12.960 -0.3013 -0.1365 -0.3275
  889MPD2    H713094   0.195   3.676  13.047 -0.5450 -1.5023  0.2810
  890MPD2     C13095   4.359   1.021  14.466  1.1727 -0.2725  0.4172
  890MPD2    C113096   4.453   1.093  14.545 -0.7431 -0.8339  0.0823
  890MPD2    C213097   4.560   1.020  14.607 -0.3720  0.6271  0.0631
  890MPD2    C313098   4.558   0.883  14.604  0.3726 -0.2646  0.4454
  890MPD2    C413099   4.463   0.815  14.529 -0.2480  0.3521  0.5386
  890MPD2    C513100   4.368   0.884  14.460 -0.1010 -0.1230 -0.1105
  890MPD2     H13101   4.636   1.073  14.664 -0.3350  0.4384  0.1904
  890MPD2    H113102   4.461   0.707  14.520  2.2498  0.2534  1.1203
  890MPD2    H213103   4.285   1.081  14.415  0.4597  0.0449  1.8139
  890MPD2    H313104   4.295   0.835  14.397 -0.8766  0.7010  0.1446
  890MPD2     N13105   4.659   0.820  14.682 -0.0395 -0.4784  0.1406
  890MPD2    H513106   4.726   0.881  14.727 -0.0202 -1.4936  1.5003
  890MPD2    N113107   4.444   1.233  14.541 -0.1422 -0.2958  0.2716
  890MPD2    H713108   4.357   1.279  14.516 -0.9176 -0.1658  3.1636
  891MPD2     C13109   2.638   4.313  16.992 -0.7339  0.8713  0.6404
  891MPD2    C113110   2.531   4.226  16.991  0.1746  0.0681 -0.1251
  891MPD2    C213111   2.535   4.120  17.084  0.8655  0.0448  0.3733
  891MPD2    C313112   2.644   4.097  17.169  0.1045 -0.5207  0.0560
  891MPD2    C413113   2.750   4.186  17.163  0.1586  0.7674 -0.3429
  891MPD2    C513114   2.744   4.289  17.077  0.1397 -0.1765 -0.5136
  891MPD2     H13115   2.456   4.045  17.083  2.1386 -1.2907 -0.1054
  891MPD2    H113116   2.840   4.169  17.221  0.5285 -1.4525 -1.5360
  891MPD2    H213117   2.644   4.399  16.926  1.4991 -1.6734 -2.4542
  891MPD2    H313118   2.823   4.360  17.055  0.4502 -0.4096 -0.1638
  891MPD2     N13119   2.638   3.989  17.256 -0.0137 -0.3004  0.7001
  891MPD2    H513120   2.550   3.943  17.274 -1.0836  0.9302 -1.3976
  891MPD2    N113121   2.416   4.252  16.908 -0.1606  0.3489 -0.1655
  891MPD2    H713122   2.414   4.327  16.841  1.0131 -0.0047 -0.6045
  892MPD2     C13123   3.548   0.262  14.294  0.5303  0.1594 -0.2559
  892MPD2    C113124   3.511   0.255  14.424  1.0496 -0.8223 -0.0134
  892MPD2    C213125   3.552   0.161  14.513  0.3850  0.9969 -0.0599
  892MPD2    C313126   3.634   0.062  14.466  0.2956  0.4153 -0.7407
  892MPD2    C413127   3.680   0.069  14.328  0.3630 -0.2689 -0.1601
  892MPD2    C513128   3.633   0.171  14.246  0.0975 -0.1035  0.3712
  892MPD2     H13129   3.507   0.147  14.611  0.3750  0.1263 -0.1864
  892MPD2    H113130   3.749   4.737  14.285 -1.2723 -0.5660 -2.2644
  892MPD2    H213131   3.507   0.333  14.223 -2.3098 -0.1108  1.1370
  892MPD2    H313132   3.650   0.165  14.139 -2.7068  0.8827 -0.1065
  892MPD2     N13133   3.670   4.685  14.545  0.0670  0.1054 -0.5458
  892MPD2    H513134   3.743   4.625  14.508  0.2725 -0.0381  0.0968
  892MPD2    N113135   3.429   0.368  14.459  0.4995  0.5944  0.1925
  892MPD2    H713136   3.395   0.431  14.387 -0.6952 -0.2732 -0.0065
  893MPD2     C13137   4.719   3.450   1.653  0.2329 -0.1128  0.6301
  893MPD2    C113138   4.686   3.491   1.523 -0.0776 -0.0800 -0.1357
  893MPD2    C213139   4.574   3.440   1.471 -0.0731  0.0783 -0.2782
  893MPD2    C313140   4.487   3.349   1.536 -0.1377  0.0128  0.2823
  893MPD2    C413141   4.532   3.300   1.660  0.6949  0.0840 -0.1643
  893MPD2    C513142   4.644   3.359   1.717  0.2471  0.5352  0.6486
  893MPD2     H13143   4.547   3.464   1.368 -2.3581 -0.0341  0.2919
  893MPD2    H113144   4.476   3.231   1.721  0.2576  1.1657  0.6748
  893MPD2    H213145   0.072   3.471   1.706  0.6330  0.6881 -0.3896
  893MPD2    H313146   4.672   3.324   1.816 -3.8544 -0.1458  1.5563
  893MPD2     N13147   4.360   3.302   1.487  0.0762  0.1940 -0.2430
  893MPD2    H513148   4.310   3.252   1.560 -0.5539 -0.3056 -1.0209
  893MPD2    N113149   0.043   3.575   1.461 -0.6181  0.3006 -0.6245
  893MPD2    H713150   0.121   3.607   1.517  0.7949 -2.5265 -1.0082
  894MPD2     C13151   3.133   1.829   1.325  0.0022  0.3913  0.6222
  894MPD2    C113152   3.248   1.768   1.365  0.2535  0.4515 -0.2650
  894MPD2    C213153   3.333   1.842   1.448  0.0826  0.7329 -0.2310
  894MPD2    C313154   3.319   1.975   1.479 -0.2848 -0.1243  0.1540
  894MPD2    C413155   3.198   2.036   1.439 -0.4420 -0.4546  1.1027
  894MPD2    C513156   3.110   1.960   1.373  1.6063  0.0506 -0.1050
  894MPD2     H13157   3.412   1.786   1.497  2.5795  3.1198 -1.5330
  894MPD2    H113158   3.176   2.139   1.465 -1.8771 -0.8443  1.4350
  894MPD2    H213159   3.061   1.797   1.250  0.8670  0.2033 -0.1299
  894MPD2    H313160   3.025   2.019   1.340 -1.5334 -3.4693  1.7410
  894MPD2     N13161   3.415   2.055   1.548  0.3200  0.1539 -0.5477
  894MPD2    H513162   3.381   2.147   1.577  0.7982  0.6997 -1.7361
  894MPD2    N113163   3.282   1.628   1.351  0.9174 -0.3720  0.2408
  894MPD2    H713164   3.372   1.601   1.387  1.8375  3.4937  0.7988
  895MPD2     C13165   2.965   4.128  13.526  0.2096 -0.2802 -0.1255
  895MPD2    C113166   2.901   4.083  13.417 -0.2550 -0.6644 -0.4904
  895MPD2    C213167   2.807   3.986  13.435  1.0028 -0.3209 -0.5841
  895MPD2    C313168   2.785   3.928  13.558  0.0653  0.4232 -0.1004
  895MPD2    C413169   2.844   3.984  13.666  0.2092  0.2823 -0.1959
  895MPD2    C513170   2.935   4.079  13.655 -0.6196 -0.1611  0.4561
  895MPD2     H13171   2.770   3.936  13.347  2.3619  1.3830 -2.1178
  895MPD2    H113172   2.823   3.938  13.762 -1.1400  2.4609  0.5434
  895MPD2    H213173   3.048   4.197  13.519 -0.7862  0.9063 -0.2680
  895MPD2    H313174   2.990   4.114  13.741 -0.7379  0.3892  0.3046
  895MPD2     N13175   2.700   3.815  13.583  0.5935 -0.2248 -0.3592
  895MPD2    H513176   2.698   3.779  13.678 -0.8467 -0.5455 -0.5128
  895MPD2    N113177   2.924   4.139  13.294  0.0970 -0.4373  0.4536
  895MPD2    H713178   2.882   4.096  13.212 -3.3349  1.1204  1.4105
  896MPD2     C13179   0.445   1.807   1.821 -0.2023  0.0491  0.1323
  896MPD2    C113180   0.402   1.804   1.689 -0.2294  0.2927 -0.0508
  896MPD2    C213181   0.269   1.837   1.663 -0.3456  0.4422  0.6168
  896MPD2    C313182   0.182   1.861   1.770  0.3740  0.3755  0.1663
  896MPD2    C413183   0.227   1.828   1.897  0.1283 -0.3537 -0.0642
  896MPD2    C513184   0.356   1.810   1.924  0.6263 -0.2032  0.0915
  896MPD2     H13185   0.233   1.853   1.562 -1.1751 -0.0027  0.8439
  896MPD2    H113186   0.159   1.833   1.982 -1.1427 -1.9328 -1.0081
  896MPD2    H213187   0.551   1.792   1.840 -0.2692 -0.0009  0.4736
  896MPD2    H313188   0.385   1.804   2.028 -1.0861 -1.1298  0.5241
  896MPD2     N13189   0.049   1.899   1.747  0.1252 -0.6969 -0.2864
  896MPD2    H513190   0.029   1.918   1.649 -0.2522 -0.3465 -0.1381
  896MPD2    N113191   0.494   1.795   1.582 -1.0782 -0.0647 -0.4082
  896MPD2    H713192   0.591   1.781   1.610 -0.4491  1.5376 -1.8042
  897MPD2     C13193   1.240   3.210  10.196 -0.2075 -0.6764  0.1639
  897MPD2    C113194   1.205   3.307  10.286  0.8195 -0.6252  0.2362
  897MPD2    C213195   1.156   3.268  10.409 -0.0034  0.6245  0.0435
  897MPD2    C313196   1.147   3.137  10.442  0.0870 -0.6547 -0.2699
  897MPD2    C413197   1.195   3.045  10.360 -0.2717  0.7793  0.2177
  897MPD2    C513198   1.240   3.077  10.235 -0.1430  0.3834 -0.9308
  897MPD2     H13199   1.106   3.351  10.458  0.4300  0.6291  0.4752
  897MPD2    H113200   1.186   2.939  10.382  1.0622  0.7756  0.7501
  897MPD2    H213201   1.280   3.227  10.097 -2.8445 -0.7391 -0.9111
  897MPD2    H313202   1.283   2.999  10.173 -1.1751  0.2535 -1.4780
  897MPD2     N13203   1.074   3.108  10.558  1.0219  0.0943  0.0239
  897MPD2    H513204   1.039   3.195  10.599  1.5998  0.0181  0.6854
  897MPD2    N113205   1.206   3.442  10.243  0.3673 -0.0892  0.0353
  897MPD2    H713206   1.221   3.468  10.146 -1.8877  1.9314  0.2193
  898MPD2     C13207   2.825   4.475  17.575  0.0791 -0.2183 -0.3623
  898MPD2    C113208   2.931   4.557  17.585 -0.6919 -0.4638 -0.7068
  898MPD2    C213209   2.935   4.675  17.520 -0.1717  0.2820  0.0567
  898MPD2    C313210   2.827   4.715  17.446  0.6267  0.7632 -0.0628
  898MPD2    C413211   2.712   4.646  17.449 -0.2347 -0.5328  0.0255
  898MPD2    C513212   2.713   4.523  17.514 -0.0030 -0.3568  0.2569
  898MPD2     H13213   3.022   0.001  17.522  0.5712 -0.7399  1.0617
  898MPD2    H113214   2.618   4.673  17.401 -0.7431 -0.6521  0.9640
  898MPD2    H213215   2.827   4.375  17.615  1.1421 -0.8807 -2.0541
  898MPD2    H313216   2.616   4.475  17.523 -1.4168  2.3818 -0.3712
  898MPD2     N13217   2.826   0.108  17.394 -0.0142  0.0521  0.2668
  898MPD2    H513218   2.918   0.149  17.378  0.1582  0.1663  1.5729
  898MPD2    N113219   3.050   4.526  17.653 -0.2181  0.3577 -0.2371
  898MPD2    H713220   3.112   4.606  17.653  3.3877 -2.4087 -3.2991
  899MPD2     C13221   3.795   0.647  17.699  0.3311 -0.0167 -0.5982
  899MPD2    C113222   3.860   0.761  17.737 -0.3509  0.1959 -0.3791
  899MPD2    C213223   3.873   0.780   0.122  0.1678  0.1058  0.0209
  899MPD2    C313224   3.819   0.692   0.216 -0.2487 -0.4476  0.1659
  899MPD2    C413225   3.745   0.587   0.174  0.0865 -0.0762  0.6434
  899MPD2    C513226   3.727   0.567   0.038 -0.5313 -0.0318 -0.8905
  899MPD2     H13227   3.912   0.872   0.164 -1.3789  0.4077  0.8141
  899MPD2    H113228   3.686   0.530   0.246  1.2179 -0.1423  1.5098
  899MPD2    H213229   3.783   0.616  17.596 -0.2874 -1.3741 -0.1130
  899MPD2    H313230   3.668   0.482   0.005 -0.4711 -0.2252 -0.4929
  899MPD2     N13231   3.807   0.724   0.354 -0.5086 -0.1599 -0.5716
  899MPD2    H513232   3.737   0.669   0.403 -0.5366 -0.0718 -0.5132
  899MPD2    N113233   3.912   0.839  17.632  0.1852  0.2679 -0.3827
  899MPD2    H713234   3.882   0.804  17.542 -0.6740  1.0265 -0.3888
  900MPD2     C13235   3.603   1.395  12.720 -0.1823 -0.1236 -0.6260
  900MPD2    C113236   3.511   1.321  12.656 -0.2050 -0.4045 -0.1553
  900MPD2    C213237   3.386   1.371  12.628  0.2674 -0.4301 -0.6415
  900MPD2    C313238   3.361   1.502  12.646  0.4928 -0.9285 -0.2564
  900MPD2    C413239   3.460   1.585  12.705  0.5697 -0.0654 -0.4705
  900MPD2    C513240   3.578   1.529  12.742 -0.3836  0.0643 -0.6015
  900MPD2     H13241   3.312   1.312  12.574  0.7382 -1.4966 -0.1059
  900MPD2    H113242   3.448   1.690  12.730  1.5587 -0.1729  0.4226
  900MPD2    H213243   3.696   1.351  12.756 -2.3792 -1.5118  3.2793
  900MPD2    H313244   3.656   1.577  12.800  0.1261  1.7907 -2.6892
  900MPD2     N13245   3.231   1.559  12.619  0.0720 -0.5923 -0.5304
  900MPD2    H513246   3.170   1.488  12.580  0.7577 -1.1460 -0.5960
  900MPD2    N113247   3.552   1.182  12.633  0.1530 -0.4472 -0.5177
  900MPD2    H713248   3.638   1.147  12.674 -0.6738 -2.4960 -0.5677
  901MPD2     C13249   3.399   0.130  12.894 -1.2699  0.2579  0.4637
  901MPD2    C113250   3.527   0.168  12.878 -0.0812  0.1848 -0.5973
  901MPD2    C213251   3.561   0.292  12.825  0.2193 -0.3099  0.2172
  901MPD2    C313252   3.463   0.378  12.774 -0.3189  0.1405 -0.1395
  901MPD2    C413253   3.332   0.341  12.785 -0.0626 -0.8317 -0.4831
  901MPD2    C513254   3.305   0.221  12.845  0.6159 -0.2382 -1.1600
  901MPD2     H13255   3.662   0.321  12.798  0.2280 -0.4101  0.1409
  901MPD2    H113256   3.251   0.402  12.747  0.0845 -0.7043 -0.5918
  901MPD2    H213257   3.364   0.033  12.929  3.0963 -0.7407  2.0640
  901MPD2    H313258   3.202   0.191  12.859  0.1773  3.1055  2.9501
  901MPD2     N13259   3.505   0.505  12.730 -0.4840 -0.3678 -0.4868
  901MPD2    H513260   3.604   0.511  12.710 -0.2876 -0.3829  0.5035
  901MPD2    N113261   3.624   0.073  12.915 -0.4341  0.0605  0.4498
  901MPD2    H713262   3.591   4.718  12.934 -1.2042  0.3739  0.6856
  902MPD2     C13263   3.053   4.287  12.439 -0.0135 -0.0606 -0.5257
  902MPD2    C113264   2.920   4.283  12.403  0.1228  0.4622 -0.1836
  902MPD2    C213265   2.882   4.180  12.315 -0.1342 -0.2744 -0.2705
  902MPD2    C313266   2.965   4.087  12.268 -0.0278 -0.1139 -0.1594
  902MPD2    C413267   3.095   4.097  12.299  0.2787 -0.2546  0.1113
  902MPD2    C513268   3.141   4.193  12.381  0.7453  0.1267 -0.2188
  902MPD2     H13269   2.780   4.177  12.279  0.7659  1.7935 -2.9969
  902MPD2    H113270   3.168   4.028  12.259 -0.4326 -0.6731 -0.4542
  902MPD2    H213271   3.102   4.363  12.499 -0.7977  0.1708 -0.1854
  902MPD2    H313272   3.247   4.214  12.394  1.3214 -1.2461 -2.7022
  902MPD2     N13273   2.942   3.988  12.176 -0.5587  0.5296 -0.4607
  902MPD2    H513274   3.015   3.928  12.139 -0.1688  1.1626 -0.7248
  902MPD2    N113275   2.830   4.389  12.440 -0.4245 -0.3416 -0.6241
  902MPD2    H713276   2.874   4.457  12.501 -1.3480 -0.1280 -0.1847
  903MPD2     C13277   2.334   3.726  11.475  0.6626 -0.0639 -0.4691
  903MPD2    C113278   2.350   3.759  11.606 -0.1619  0.0080  0.1479
  903MPD2    C213279   2.239   3.777  11.692 -1.0051  0.1199 -0.4999
  903MPD2    C313280   2.114   3.757  11.640 -0.0806 -0.0735 -0.1722
  903MPD2    C413281   2.103   3.721  11.509 -0.0389 -0.5276  0.3241
  903MPD2    C513282   2.205   3.715  11.428  0.2925  0.0390 -0.4200
  903MPD2     H13283   2.254   3.799  11.797  0.9502  1.0518 -0.9530
  903MPD2    H113284   2.007   3.707  11.461  0.4921  1.4355 -1.2918
  903MPD2    H213285   2.421   3.716  11.412  1.4321 -1.7426  0.8668
  903MPD2    H313286   2.191   3.691  11.323  0.0744 -1.6283 -0.0019
  903MPD2     N13287   2.005   3.770  11.731  0.5205  0.2233  0.2703
  903MPD2    H513288   2.018   3.820  11.818 -2.1167 -0.1195  0.8764
  903MPD2    N113289   2.480   3.783  11.663 -0.5142 -0.0002  0.3556
  903MPD2    H713290   2.562   3.748  11.615 -0.7294  2.2201 -1.5886
  904MPD2     C13291   2.937   4.211  14.010  0.9429  0.4378 -0.3676
  904MPD2    C113292   2.869   4.144  14.121  0.3822  0.4146  0.3865
  904MPD2    C213293   2.944   4.095  14.226 -0.4391  0.6036  0.1031
  904MPD2    C313294   3.077   4.117  14.227 -0.1560  0.9065 -0.0647
  904MPD2    C413295   3.141   4.190  14.131 -0.2061  0.3233  0.9041
  904MPD2    C513296   3.073   4.239  14.023 -0.6813  0.2009 -0.3191
  904MPD2     H13297   2.882   4.037  14.294 -1.6275  3.7350  1.6688
  904MPD2    H113298   3.247   4.214  14.132 -0.4097  1.2442 -1.5178
  904MPD2    H213299   2.878   4.251  13.929 -1.3958 -1.5641  0.3489
  904MPD2    H313300   3.136   4.290  13.951  0.9358  1.0765  1.7084
  904MPD2     N13301   3.140   4.051  14.335  0.4904 -0.7054 -0.0645
  904MPD2    H513302   3.071   4.011  14.398 -2.2510  0.5772 -2.2793
  904MPD2    N113303   2.731   4.110  14.127  0.0110  0.7824  0.3195
  904MPD2    H713304   2.705   4.063  14.213 -2.4973  0.1633 -0.8003
  905MPD2     C13305   1.972   3.652  13.824  0.1531  0.4127  0.1002
  905MPD2    C113306   2.088   3.703  13.762  0.5232  0.0734 -0.2709
  905MPD2    C213307   2.123   3.657  13.637  0.6729 -0.2387  0.0104
  905MPD2    C313308   2.056   3.550  13.583 -1.4838  0.1419 -0.2235
  905MPD2    C413309   1.926   3.522  13.631 -0.1912  0.2031  0.3213
  905MPD2    C513310   1.891   3.572  13.752 -0.1223 -0.3410 -0.1759
  905MPD2     H13311   2.211   3.701  13.592  0.7744  0.2108  0.6428
  905MPD2    H113312   1.845   3.475  13.577  0.3192 -1.6251  1.1623
  905MPD2    H213313   1.950   3.669  13.929 -0.7492  1.0025 -0.1822
  905MPD2    H313314   1.793   3.552  13.792  0.3652 -1.2975  0.5262
  905MPD2     N13315   2.105   3.498  13.464 -0.0159 -0.9035 -0.2433
  905MPD2    H513316   2.032   3.461  13.404  0.3587 -2.4406  0.2263
  905MPD2    N113317   2.170   3.775  13.845 -0.5587  0.1033 -0.1273
  905MPD2    H713318   2.128   3.794  13.936 -1.1998  1.1206 -0.6454
  906MPD2     C13319   4.562   3.584  11.287  0.1880 -0.3998 -0.1936
  906MPD2    C113320   4.515   3.474  11.221  0.0959 -0.2511 -0.5013
  906MPD2    C213321   4.472   3.367  11.295 -0.3299  0.2669 -0.2659
  906MPD2    C313322   4.469   3.370  11.433 -0.1532  0.5649  0.0883
  906MPD2    C413323   4.503   3.490  11.492  0.2732  0.0917 -0.6742
  906MPD2    C513324   4.551   3.599  11.422 -0.2639  0.3417  0.6790
  906MPD2     H13325   4.440   3.278  11.241  0.5464  0.0784 -0.4787
  906MPD2    H113326   4.498   3.506  11.599  2.3128  1.7619 -0.8390
  906MPD2    H213327   4.605   3.672  11.240  0.9981 -1.3029 -1.1349
  906MPD2    H313328   4.590   3.684  11.477 -1.4865  2.2461 -1.3734
  906MPD2     N13329   4.411   3.269  11.510  0.8205  0.4259 -0.4758
  906MPD2    H513330   4.384   3.313  11.598  1.3964 -0.1867  0.0065
  906MPD2    N113331   4.534   3.457  11.084  0.2705  0.3911 -0.3350
  906MPD2    H713332   4.519   3.362  11.053 -2.9402  0.7208  0.2209
  907MPD2     C13333   3.418   3.046  15.702  0.0624 -0.3912 -0.0736
  907MPD2    C113334   3.499   3.022  15.587 -0.3281 -0.0504  0.2631
  907MPD2    C213335   3.639   3.019  15.603 -0.1498  0.0339 -0.5595
  907MPD2    C313336   3.701   3.055  15.722  0.1262  0.1248  0.3094
  907MPD2    C413337   3.621   3.092  15.830  0.8035  0.3942  0.6755
  907MPD2    C513338   3.482   3.088  15.816  0.2433  0.2590 -0.7691
  907MPD2     H13339   3.697   2.969  15.526  0.4774 -1.3723  0.8422
  907MPD2    H113340   3.652   3.124  15.929  2.8030  1.1169 -0.2108
  907MPD2    H213341   3.310   3.051  15.705 -0.0229 -1.2691 -1.5092
  907MPD2    H313342   3.423   3.101  15.906 -0.1687 -1.6471 -0.7655
  907MPD2     N13343   3.839   3.038  15.736  0.2899  0.8444  0.3113
  907MPD2    H513344   3.883   2.989  15.659  0.8231  2.5321 -0.4692
  907MPD2    N113345   3.448   2.991  15.459  0.0432  0.2413  0.9056
  907MPD2    H713346   3.519   2.990  15.387  1.5759 -0.5569  2.4296
  908MPD2     C13347   0.884   3.614   9.532 -0.0822  0.1826  0.3566
  908MPD2    C113348   0.850   3.553   9.648  0.6888 -0.6120  0.5480
  908MPD2    C213349   0.901   3.592   9.771  0.2004 -0.5002  0.1668
  908MPD2    C313350   0.991   3.699   9.780  0.7247 -0.7388 -0.3400
  908MPD2    C413351   1.006   3.773   9.661  0.6536 -0.4540 -0.0830
  908MPD2    C513352   0.960   3.728   9.542 -0.6446  0.5285  0.2136
  908MPD2     H13353   0.880   3.535   9.860 -0.8634 -0.5439 -0.1156
  908MPD2    H113354   1.061   3.867   9.664 -0.6168  0.2926 -0.5119
  908MPD2    H213355   0.845   3.574   9.440  0.2171  0.1884  0.2275
  908MPD2    H313356   0.987   3.793   9.460  0.2271 -0.0971  0.0062
  908MPD2     N13357   1.050   3.728   9.907  0.3968 -0.5895 -0.1392
  908MPD2    H513358   1.016   3.676   9.987 -0.2008 -2.5266 -1.6754
  908MPD2    N113359   0.760   3.444   9.638  0.3680  0.0409  0.1514
  908MPD2    H713360   0.716   3.433   9.547 -0.8672  0.7138  0.6731
  909MPD2     C13361   1.230   1.346  11.942  0.2178  0.5224  0.1467
  909MPD2    C113362   1.253   1.480  11.896 -0.0155  0.2095  1.2293
  909MPD2    C213363   1.173   1.580  11.951 -0.1585  0.0974 -0.1463
  909MPD2    C313364   1.081   1.555  12.050 -0.1292 -0.0156 -0.2704
  909MPD2    C413365   1.059   1.427  12.091  0.2778  0.5503  0.6258
  909MPD2    C513366   1.131   1.325  12.031  0.2901 -0.3448 -0.5659
  909MPD2     H13367   1.185   1.684  11.924  0.6633  0.1442  0.4014
  909MPD2    H113368   0.982   1.396  12.161 -0.7696  1.1821 -0.2400
  909MPD2    H213369   1.282   1.261  11.900 -0.5987  0.0051  0.1818
  909MPD2    H313370   1.098   1.225  12.055 -1.0311  0.5577  1.4236
  909MPD2     N13371   1.005   1.667  12.098 -0.2905  0.5086  0.1044
  909MPD2    H513372   1.021   1.756  12.052  2.2665  0.6897  1.4045
  909MPD2    N113373   1.354   1.506  11.794  0.1057 -0.4401 -0.0155
  909MPD2    H713374   1.386   1.601  11.776  1.6378 -0.7762  0.9801
  910MPD2     C13375   3.172   2.457  15.700  0.6051  0.0445 -0.1928
  910MPD2    C113376   3.177   2.504  15.829 -0.3490  0.4650  0.2572
  910MPD2    C213377   3.150   2.639  15.847 -0.5238 -0.9897 -0.9000
  910MPD2    C313378   3.131   2.725  15.741 -0.6161 -0.3183  0.4964
  910MPD2    C413379   3.115   2.670  15.618  0.2037  0.7429  0.0968
  910MPD2    C513380   3.142   2.537  15.593  0.0482 -0.2421  0.9759
  910MPD2     H13381   3.130   2.670  15.949  1.6546  0.2437 -0.8590
  910MPD2    H113382   3.092   2.734  15.534 -1.0874  0.4064  0.1960
  910MPD2    H213383   3.200   2.354  15.679  1.4171  0.0420  0.8312
  910MPD2    H313384   3.143   2.494  15.494 -2.3331  1.9294  0.0245
  910MPD2     N13385   3.112   2.866  15.760  0.7649  0.6935 -0.1275
  910MPD2    H513386   3.094   2.920  15.676  0.7856 -0.5128 -0.9158
  910MPD2    N113387   3.205   2.423  15.944  0.0971 -0.1364 -0.5723
  910MPD2    H713388   3.198   2.457  16.039 -0.6032 -1.1655 -0.2628
  911MPD2     C13389   0.709   3.896  16.281  0.4215 -0.3275  0.5652
  911MPD2    C113390   0.779   3.994  16.348 -0.3976  0.0218  0.4153
  911MPD2    C213391   0.734   4.127  16.353  0.0772  0.1180 -0.1937
  911MPD2    C313392   0.622   4.152  16.280  0.7001  0.9008 -0.8752
  911MPD2    C413393   0.555   4.055  16.209 -0.2196 -0.3918  0.0101
  911MPD2    C513394   0.599   3.922  16.203 -0.2058 -0.5118 -0.2325
  911MPD2     H13395   0.795   4.210  16.386  1.2095 -0.6630 -0.3126
  911MPD2    H113396   0.473   4.081  16.143 -0.3351 -0.6740  0.0415
  911MPD2    H213397   0.732   3.790  16.294 -0.4758 -0.6178 -0.2678
  911MPD2    H313398   0.545   3.846  16.148  0.0285 -1.7440  1.2362
  911MPD2     N13399   0.575   4.287  16.261  0.6249  0.0962 -0.1765
  911MPD2    H513400   0.497   4.295  16.197  0.3464  0.9818  0.2755
  911MPD2    N113401   0.891   3.946  16.424 -0.3751 -0.1225  0.1541
  911MPD2    H713402   0.928   3.854  16.401 -1.0263 -0.2777 -0.2772
  912MPD2     C13403   0.365   4.299  15.650  0.1609 -0.4285  0.6874
  912MPD2    C113404   0.349   4.278  15.784  0.2330 -0.4369 -0.4985
  912MPD2    C213405   0.278   4.169  15.836 -0.1343 -0.2817 -0.0472
  912MPD2    C313406   0.252   4.064  15.749  0.4012 -0.2560 -0.4883
  912MPD2    C413407   0.282   4.081  15.616 -0.0723  0.2608 -0.5545
  912MPD2    C513408   0.335   4.198  15.565  0.6222 -0.1449 -0.0252
  912MPD2     H13409   0.246   4.156  15.939  0.6665 -0.9813  0.1145
  912MPD2    H113410   0.255   4.000  15.549 -1.9108 -2.0023  2.9272
  912MPD2    H213411   0.410   4.384  15.599 -1.6529  1.0435  1.5815
  912MPD2    H313412   0.358   4.210  15.460  5.0876  0.4033  1.0149
  912MPD2     N13413   0.207   3.941  15.804  0.4788 -0.1872 -0.4627
  912MPD2    H513414   0.180   3.950  15.901 -1.4443 -2.1119 -0.8486
  912MPD2    N113415   0.384   4.386  15.868  0.5737  0.1490 -0.2961
  912MPD2    H713416   0.419   4.469  15.821 -1.1667  2.3795  2.3556
  913MPD2     C13417   0.861   4.380  11.149  0.4316 -1.4317 -0.5928
  913MPD2    C113418   0.901   4.513  11.160 -0.0787 -0.3092  0.5553
  913MPD2    C213419   0.907   4.584  11.043  0.7118  0.5535 -0.4398
  913MPD2    C313420   0.854   4.537  10.918 -0.3457 -0.5317  0.0178
  913MPD2    C413421   0.804   4.416  10.923  0.4596 -0.8003  0.5721
  913MPD2    C513422   0.810   4.333  11.033  0.3769 -0.1839 -0.3827
  913MPD2     H13423   0.962   4.677  11.032  1.3633  0.1838 -0.3361
  913MPD2    H113424   0.773   4.368  10.831 -1.5269  0.8181  0.4049
  913MPD2    H213425   0.868   4.308  11.230 -3.1703 -0.6770  0.4077
  913MPD2    H313426   0.773   4.232  11.031  0.8346 -0.3088 -2.2914
  913MPD2     N13427   0.846   4.613  10.798  0.2000  0.2376  0.2300
  913MPD2    H513428   0.820   4.560  10.716  0.6739  0.1105  0.1614
  913MPD2    N113429   0.974   4.554  11.272  0.5227 -0.0141 -0.1959
  913MPD2    H713430   1.000   4.485  11.342 -0.7801  0.6825  0.9957
  914MPD2     C13431   3.808   4.515  12.186  0.7512 -0.8710 -0.0721
  914MPD2    C113432   3.830   4.638  12.244 -0.7636  0.4734  0.1597
  914MPD2    C213433   3.845   4.656  12.379 -0.0846  0.1959  0.6204
  914MPD2    C313434   3.838   4.539  12.455  0.0852  0.3870 -1.0674
  914MPD2    C413435   3.813   4.414  12.397 -0.5084  0.1314 -0.0140
  914MPD2    C513436   3.797   4.405  12.261  0.1828 -0.6056  0.3509
  914MPD2     H13437   3.872   0.012  12.425  3.6110  1.7653 -4.7213
  914MPD2    H113438   3.808   4.326  12.460  2.1802 -0.0123  0.0065
  914MPD2    H213439   3.788   4.497  12.081  0.8644 -1.4025 -0.0006
  914MPD2    H313440   3.792   4.307  12.215  1.4112 -1.0098  1.0823
  914MPD2     N13441   3.851   4.563  12.593 -0.1958  0.5353  0.3751
  914MPD2    H513442   3.872   4.660  12.615  1.8279  0.3266 -0.5759
  914MPD2    N113443   3.856   4.738  12.150 -0.0086 -0.3329  0.0551
  914MPD2    H713444   3.836   4.715  12.053 -1.6377  0.9910  0.0635
  915MPD2     C13445   1.749   0.572  15.455 -0.3887  0.2605 -0.3382
  915MPD2    C113446   1.625   0.539  15.520  0.0930  0.4367  0.2384
  915MPD2    C213447   1.617   0.570  15.657 -0.0035  0.9765  0.4754
  915MPD2    C313448   1.710   0.655  15.719  0.1538  0.5430 -0.4770
  915MPD2    C413449   1.817   0.696  15.651  0.2672 -0.3515  0.3688
  915MPD2    C513450   1.839   0.650  15.521  0.3611  0.5393 -0.1071
  915MPD2     H13451   1.528   0.538  15.710 -0.4747  2.1450  0.3919
  915MPD2    H113452   1.891   0.755  15.704  0.6891 -0.2347 -0.3469
  915MPD2    H213453   1.777   0.544  15.354 -1.2180 -1.6238 -0.0450
  915MPD2    H313454   1.926   0.678  15.462  1.6851  1.0919  2.1294
  915MPD2     N13455   1.689   0.685  15.859  0.5263 -0.8022 -0.7995
  915MPD2    H513456   1.591   0.692  15.884  1.0335 -0.6916  1.1797
  915MPD2    N113457   1.521   0.488  15.440  0.2016 -0.1618 -0.1517
  915MPD2    H713458   1.547   0.472  15.343  2.7046  1.4954  0.2427
  916MPD2     C13459   4.490   3.687  15.867 -0.9317  0.1013 -0.1858
  916MPD2    C113460   4.535   3.582  15.945  0.2109  0.5545 -0.6913
  916MPD2    C213461   4.634   3.495  15.900  0.2728 -0.2987 -0.4177
  916MPD2    C313462   4.683   3.507  15.771 -0.7202 -0.6463 -0.2328
  916MPD2    C413463   4.635   3.602  15.687  0.7365  0.1000 -0.1841
  916MPD2    C513464   4.540   3.697  15.738 -0.0751 -0.1184 -0.7185
  916MPD2     H13465   4.680   3.412  15.953 -0.8297 -1.9350 -2.0201
  916MPD2    H113466   4.677   3.627  15.591 -2.4910  2.1631 -1.0575
  916MPD2    H213467   4.434   3.772  15.906 -1.2391 -0.5456  0.7782
  916MPD2    H313468   4.518   3.787  15.681 -0.4076 -1.0359 -2.0377
  916MPD2     N13469   0.050   3.421  15.737  0.6090 -0.1086 -0.0829
  916MPD2    H513470   0.083   3.355  15.807  1.1989  0.2117 -0.0590
  916MPD2    N113471   4.473   3.583  16.073  0.0562  0.5305 -0.1612
  916MPD2    H713472   4.411   3.660  16.098 -0.9890 -0.4169  0.1418
  917MPD2     C13473   0.027   0.859  11.022  0.4283 -0.4051  0.4832
  917MPD2    C113474   4.683   0.909  11.117  1.1106  0.3451  0.2906
  917MPD2    C213475   4.578   0.991  11.076 -0.1314 -0.7033  0.5467
  917MPD2    C313476   4.562   1.030  10.946  0.4154  0.1828 -0.1858
  917MPD2    C413477   4.646   0.979  10.855  0.5607  0.0882 -0.7357
  917MPD2    C513478   0.006   0.890  10.891  1.0771 -0.0103  0.2463
  917MPD2     H13479   4.515   1.038  11.151  0.4752 -1.1395  1.3251
  917MPD2    H113480   4.634   1.000  10.750  0.8344  2.0055 -0.3904
  917MPD2    H213481   0.106   0.790  11.051  0.8624 -0.2067 -0.2175
  917MPD2    H313482   0.064   0.845  10.812  0.2838 -1.0842  0.2770
  917MPD2     N13483   4.462   1.126  10.907  0.1441  0.8016 -0.1102
  917MPD2    H513484   4.456   1.151  10.809 -4.8758 -0.0953 -0.0496
  917MPD2    N113485   4.707   0.864  11.249 -0.0070 -0.2588 -0.1981
  917MPD2    H713486   0.047   0.804  11.268 -1.0132 -1.8901 -1.0323
  918MPD2     C13487   4.637   1.229  12.192 -0.5733  0.0001  0.1664
  918MPD2    C113488   0.016   1.222  12.117 -1.1714  0.1294  0.4565
  918MPD2    C213489   0.034   1.133  12.012  0.0262 -0.7421  0.4741
  918MPD2    C313490   4.677   1.045  11.984  0.0347  0.3303 -0.1846
  918MPD2    C413491   4.558   1.050  12.056  0.4984 -0.2149 -0.3128
  918MPD2    C513492   4.539   1.145  12.151  0.5878  0.0825 -0.2770
  918MPD2     H13493   0.130   1.129  11.961 -0.5989  0.7978 -0.8309
  918MPD2    H113494   4.478   0.979  12.037  0.9791 -1.0385  0.7131
  918MPD2    H213495   4.619   1.304  12.268 -0.1167 -0.0306  0.3030
  918MPD2    H313496   4.442   1.139  12.199  1.7394  0.2823  2.0400
  918MPD2     N13497   4.691   0.968  11.870 -0.6255  0.0077  1.0000
  918MPD2    H513498   0.020   1.001  11.802 -2.9779 -1.6885 -2.1608
  918MPD2    N113499   0.125   1.306  12.151 -0.3654 -0.1547 -0.1379
  918MPD2    H713500   0.194   1.313  12.077 -1.3967  0.9336 -0.9834
  919MPD2     C13501   0.790   0.062  11.688 -0.0899 -0.0986 -0.2826
  919MPD2    C113502   0.731   4.683  11.654  0.7405 -0.7398 -0.3757
  919MPD2    C213503   0.681   4.668  11.528  0.3987  0.2114  0.0128
  919MPD2    C313504   0.695   0.030  11.434 -0.0080  0.2347 -0.3452
  919MPD2    C413505   0.766   0.149  11.472  0.0878  0.8256  0.2818
  919MPD2    C513506   0.805   0.166  11.603 -0.3399 -0.2317  0.5107
  919MPD2     H13507   0.629   4.575  11.507 -0.4187  0.3666  1.4104
  919MPD2    H113508   0.776   0.233  11.404 -0.7414  0.3064 -0.4859
  919MPD2    H213509   0.840   0.071  11.784 -0.3675  0.6060 -0.2102
  919MPD2    H313510   0.845   0.262  11.636 -2.1167 -0.3924  3.1193
  919MPD2     N13511   0.636   0.020  11.302  0.0172  0.7646  0.1641
  919MPD2    H513512   0.665   0.085  11.229 -1.7863  1.5639  0.1490
  919MPD2    N113513   0.740   4.578  11.744 -0.1590  0.1855 -0.2818
  919MPD2    H713514   0.774   4.599  11.837 -0.6856  2.0906 -0.5177
  920MPD2     C13515   0.527   0.454  10.397 -0.8646  0.4365 -0.5790
  920MPD2    C113516   0.442   0.345  10.392 -0.1686  0.1627 -0.5271
  920MPD2    C213517   0.433   0.253  10.502  0.3127 -0.4878 -0.1928
  920MPD2    C313518   0.512   0.264  10.612 -0.3374 -0.0315  0.1400
  920MPD2    C413519   0.610   0.362  10.606 -0.0890  0.9474  0.5958
  920MPD2    C513520   0.617   0.449  10.505 -0.0278  0.4335 -0.3347
  920MPD2     H13521   0.369   0.166  10.491 -0.1931 -0.2801  1.1692
  920MPD2    H113522   0.693   0.361  10.676  0.7043 -1.4624 -0.3607
  920MPD2    H213523   0.540   0.524  10.316  0.9756 -0.3387 -0.9374
  920MPD2    H313524   0.695   0.524  10.500 -2.0914  2.5172 -1.4475
  920MPD2     N13525   0.484   0.179  10.725  0.1928  0.0973  0.4425
  920MPD2    H513526   0.426   0.099  10.701 -0.6151  0.7567  0.1954
  920MPD2    N113527   0.357   0.328  10.279  0.8033 -0.2118 -0.5911
  920MPD2    H713528   0.316   0.236  10.271 -0.8172  0.4498 -0.0291
  921MPD2     C13529   1.643   4.225  17.095 -0.0007  0.1057  0.5858
  921MPD2    C113530   1.672   4.168  16.974  0.0277 -0.3180  0.1948
  921MPD2    C213531   1.579   4.087  16.915  0.5388 -0.3953  0.5217
  921MPD2    C313532   1.454   4.067  16.971 -0.3920 -0.6591 -0.1428
  921MPD2    C413533   1.421   4.134  17.088  0.2154  0.0950 -0.3205
  921MPD2    C513534   1.521   4.201  17.156 -0.4171  0.9287 -0.3074
  921MPD2     H13535   1.606   4.041  16.820  0.5411  0.3763  0.1539
  921MPD2    H113536   1.321   4.136  17.131 -0.0628  1.2251 -1.0359
  921MPD2    H213537   1.714   4.281  17.155 -1.2986  1.6170  0.6813
  921MPD2    H313538   1.500   4.251  17.250 -3.4688 -0.5642 -0.2024
  921MPD2     N13539   1.360   4.010  16.879 -0.7546  0.1343 -0.0318
  921MPD2    H513540   1.409   3.996  16.792  1.2865  1.4871  0.8933
  921MPD2    N113541   1.800   4.197  16.914  0.1260  0.2494  0.1770
  921MPD2    H713542   1.862   4.255  16.970  3.1386 -1.2755 -1.5759
  922MPD2     C13543   2.293   2.159  17.702  0.3366 -0.5265  0.3737
  922MPD2    C113544   2.219   2.108   0.049  1.1362 -0.7912  0.1252
  922MPD2    C213545   2.165   1.986   0.034 -0.1073 -0.2313  1.0120
  922MPD2    C313546   2.186   1.911  17.672 -0.4766  0.4944 -0.6337
  922MPD2    C413547   2.259   1.970  17.565 -1.0444  0.4836  0.5936
  922MPD2    C513548   2.313   2.094  17.584 -0.0712  0.0415 -0.0540
  922MPD2     H13549   2.089   1.957   0.107 -0.8453 -0.3443  0.2049
  922MPD2    H113550   2.279   1.921  17.471 -0.3098 -0.1892  1.1041
  922MPD2    H213551   2.334   2.259  17.713  0.4981 -0.5547  0.0382
  922MPD2    H313552   2.357   2.145  17.500  0.3901 -2.7411 -1.4950
  922MPD2     N13553   2.133   1.777  17.659 -0.2461 -0.2439  0.6046
  922MPD2    H513554   2.053   1.746  17.713 -1.6160  0.9300 -0.7620
  922MPD2    N113555   2.193   2.187   0.168 -0.7606 -0.0423 -0.1567
  922MPD2    H713556   2.140   2.134   0.236 -1.3710  0.5220 -0.1918
  923MPD2     C13557   3.151   3.464   8.965 -0.2082  0.7546 -0.2748
  923MPD2    C113558   3.122   3.406   9.084  0.3314 -0.6020 -0.3928
  923MPD2    C213559   3.210   3.420   9.191 -0.2170 -0.5020 -0.8407
  923MPD2    C313560   3.304   3.512   9.179 -0.2687  0.3249 -0.2650
  923MPD2    C413561   3.326   3.581   9.061 -0.2813  0.9385  0.5384
  923MPD2    C513562   3.251   3.552   8.953  1.2195 -0.3121 -0.5074
  923MPD2     H13563   3.184   3.367   9.282 -0.8776  0.0567 -0.7084
  923MPD2    H113564   3.405   3.654   9.050  1.0443 -0.5494  0.1430
  923MPD2    H213565   3.082   3.456   8.882 -1.6997  2.2059  0.8125
  923MPD2    H313566   3.268   3.591   8.854  1.0917 -2.9359 -1.5641
  923MPD2     N13567   3.395   3.544   9.283  0.3300 -0.1457  0.4550
  923MPD2    H513568   3.450   3.628   9.272  0.1100 -0.0709 -0.0575
  923MPD2    N113569   3.001   3.334   9.104  0.0515  1.1178  0.0299
  923MPD2    H713570   2.945   3.339   9.020 -0.1897  2.1234  0.2560
  924MPD2     C13571   4.292   2.366  15.447 -0.2163 -0.1784 -0.5367
  924MPD2    C113572   4.320   2.379  15.581  0.3596  0.4202  0.7721
  924MPD2    C213573   4.320   2.503  15.636  0.1444 -0.1901 -0.2020
  924MPD2    C313574   4.286   2.617  15.565  0.0263 -0.0021  0.4368
  924MPD2    C413575   4.250   2.604  15.427 -0.0939  0.4507  0.3117
  924MPD2    C513576   4.259   2.479  15.375  0.0574 -0.5569  0.5616
  924MPD2     H13577   4.346   2.505  15.742 -2.6794 -0.6099  0.4855
  924MPD2    H113578   4.209   2.682  15.363 -0.5703  1.3164  1.6778
  924MPD2    H213579   4.290   2.270  15.398  2.6652 -1.0536  1.0400
  924MPD2    H313580   4.237   2.457  15.271 -1.2318  0.7604  0.5619
  924MPD2     N13581   4.287   2.743  15.635 -0.1777 -0.7757 -0.7719
  924MPD2    H513582   4.327   2.732  15.728  0.8252  0.6441 -1.0499
  924MPD2    N113583   4.332   2.259  15.661 -0.3997 -0.4912 -0.1046
  924MPD2    H713584   4.332   2.166  15.621 -1.0612 -0.3614 -0.4116
  925MPD2     C13585   2.122   0.040  14.767  0.7588  0.4308 -0.3530
  925MPD2    C113586   2.179   4.648  14.773 -0.3595 -0.6825  0.4130
  925MPD2    C213587   2.154   4.566  14.885 -0.6583 -0.7890 -0.1160
  925MPD2    C313588   2.066   4.617  14.981  1.1602  0.1695  0.2549
  925MPD2    C413589   2.011   0.005  14.967 -0.0670  0.1469  0.2100
  925MPD2    C513590   2.034   0.087  14.865 -0.1279 -0.1562 -0.2477
  925MPD2     H13591   2.194   4.465  14.892  0.0995 -0.6284 -1.8357
  925MPD2    H113592   1.939   0.039  15.040  1.0750 -1.2982  2.0110
  925MPD2    H213593   2.148   0.118  14.697 -0.1484 -0.3949 -1.5887
  925MPD2    H313594   1.990   0.186  14.870  1.8449  0.6395  1.5904
  925MPD2     N13595   2.033   4.553  15.104  0.7167 -0.1962 -0.3224
  925MPD2    H513596   1.987   4.608  15.176 -1.5210  0.7865 -2.5189
  925MPD2    N113597   2.276   4.604  14.684 -0.2234 -0.0865 -0.3233
  925MPD2    H713598   2.324   4.520  14.714 -1.4779  0.3618  2.8721
  926MPD2     C13599   1.358   3.402  13.863  0.3601 -0.2044 -0.8063
  926MPD2    C113600   1.251   3.442  13.782  0.2201 -0.8444  0.0632
  926MPD2    C213601   1.276   3.509  13.668  0.1263 -0.2388 -0.5553
  926MPD2    C313602   1.400   3.530  13.632 -0.4573 -0.0896 -0.2363
  926MPD2    C413603   1.505   3.495  13.712  0.1995 -0.1991 -0.0183
  926MPD2    C513604   1.482   3.434  13.821 -0.3185  0.6085 -0.0779
  926MPD2     H13605   1.199   3.545  13.602  1.0592  4.6868  1.0872
  926MPD2    H113606   1.604   3.501  13.668 -0.5202 -0.8142 -1.7288
  926MPD2    H213607   1.344   3.361  13.963  0.7252  1.4624 -0.0677
  926MPD2    H313608   1.567   3.413  13.885  0.4011  0.5545 -1.0420
  926MPD2     N13609   1.441   3.608  13.516  0.1226  0.1554  0.9697
  926MPD2    H513610   1.541   3.623  13.509  0.1685 -0.6365 -0.0917
  926MPD2    N113611   1.116   3.416  13.826 -0.2771 -0.5223 -0.2395
  926MPD2    H713612   1.052   3.468  13.767 -0.1210  0.8846  0.8324
  927MPD2     C13613   0.520   1.049   0.587 -0.0057  0.3882  0.2073
  927MPD2    C113614   0.522   0.915   0.544  0.1220  0.1726  0.0349
  927MPD2    C213615   0.551   0.885   0.411 -0.8704 -0.6965  0.1301
  927MPD2    C313616   0.608   0.981   0.327  0.5147  0.2213 -0.0910
  927MPD2    C413617   0.613   1.109   0.373  0.7170 -0.3111  0.3345
  927MPD2    C513618   0.561   1.145   0.500  0.1912  0.2338 -0.4966
  927MPD2     H13619   0.531   0.784   0.379 -2.8411 -0.1189 -0.5304
  927MPD2    H113620   0.660   1.187   0.314  0.0444 -0.9052 -0.9686
  927MPD2    H213621   0.488   1.080   0.686 -1.6360 -0.1606 -0.1491
  927MPD2    H313622   0.568   1.251   0.525 -0.4397 -0.0514  0.8391
  927MPD2     N13623   0.635   0.942   0.195 -0.2983 -0.5805 -0.2028
  927MPD2    H513624   0.618   0.843   0.180 -0.2448 -0.9503  2.2403
  927MPD2    N113625   0.466   0.822   0.632 -0.0014 -0.3492 -0.3786
  927MPD2    H713626   0.430   0.859   0.719 -0.9338 -0.5497 -0.6838
  928MPD2     C13627   3.182   3.442   0.905 -0.3153 -0.1669 -0.4571
  928MPD2    C113628   3.221   3.567   0.940  0.0523  0.3316 -0.6405
  928MPD2    C213629   3.299   3.642   0.858  0.3019 -0.1218 -0.4255
  928MPD2    C313630   3.340   3.600   0.733 -0.4029  0.0844  0.7943
  928MPD2    C413631   3.305   3.474   0.699 -0.0263 -0.4196 -0.5780
  928MPD2    C513632   3.224   3.406   0.783 -0.1552  0.0013 -0.4892
  928MPD2     H13633   3.316   3.743   0.894  2.4878 -0.2361 -1.1069
  928MPD2    H113634   3.340   3.432   0.606 -1.0771  0.4686 -1.3797
  928MPD2    H213635   3.114   3.379   0.962 -0.7865  1.2007  0.4972
  928MPD2    H313636   3.187   3.311   0.748  1.0615 -0.5060 -0.3765
  928MPD2     N13637   3.420   3.680   0.648  0.1255 -0.1211  0.0307
  928MPD2    H513638   3.445   3.642   0.558  0.0371  2.9540 -1.2804
  928MPD2    N113639   3.182   3.608   1.075  0.7819  0.8508  0.1163
  928MPD2    H713640   3.168   3.533   1.142 -0.4175  1.9972  1.1566
  929MPD2     C13641   3.071   3.819   9.630 -0.3468 -0.0518  0.6148
  929MPD2    C113642   2.956   3.796   9.711  0.0057 -0.3044  0.1235
  929MPD2    C213643   2.826   3.836   9.664 -0.5784 -0.6467 -1.1692
  929MPD2    C313644   2.810   3.900   9.538 -0.0377 -0.3091  0.0902
  929MPD2    C413645   2.922   3.929   9.457 -0.5446 -0.5386  0.3989
  929MPD2    C513646   3.050   3.889   9.508 -0.4166  0.3271  0.2891
  929MPD2     H13647   2.740   3.818   9.728  0.0603 -0.8347 -0.3692
  929MPD2    H113648   2.923   3.971   9.357  1.0122 -0.5823  0.4049
  929MPD2    H213649   3.173   3.805   9.662 -0.3022  2.7530  1.7182
  929MPD2    H313650   3.140   3.908   9.451 -0.1503  1.3142  1.0522
  929MPD2     N13651   2.683   3.925   9.484  0.4168 -0.3257 -0.3485
  929MPD2    H513652   2.677   3.960   9.389  2.6582  1.6194  0.2136
  929MPD2    N113653   2.975   3.751   9.842  0.2230 -0.3229 -0.1964
  929MPD2    H713654   3.069   3.725   9.870  0.6015 -0.3014 -1.4484
  930MPD2     C13655   1.499   1.236  14.229 -0.5676  0.0384 -0.0715
  930MPD2    C113656   1.412   1.335  14.204 -0.1250  0.3034  1.4214
  930MPD2    C213657   1.299   1.298  14.124 -0.2756  0.7422 -0.0138
  930MPD2    C313658   1.276   1.169  14.075  0.2918 -0.6642  0.1503
  930MPD2    C413659   1.378   1.078  14.101  0.0073  0.2508  0.1655
  930MPD2    C513660   1.477   1.105  14.185 -0.6096  0.3031  0.0706
  930MPD2     H13661   1.232   1.378  14.095  1.3127  2.4425  1.0130
  930MPD2    H113662   1.388   0.979  14.058  0.9389 -0.9999  3.2610
  930MPD2    H213663   1.585   1.262  14.290 -0.6241  0.7387 -0.2933
  930MPD2    H313664   1.548   1.029  14.217  2.3236  2.4426 -1.2484
  930MPD2     N13665   1.179   1.142  13.982 -0.0067  0.3147 -0.3464
  930MPD2    H513666   1.175   1.053  13.932  2.0738 -0.7241  1.3883
  930MPD2    N113667   1.442   1.473  14.242  0.0066 -0.3360 -0.2225
  930MPD2    H713668   1.538   1.497  14.261 -0.4891 -0.0922  2.0068
  931MPD2     C13669   0.448   0.113   0.444  0.2749  0.0884 -0.4683
  931MPD2    C113670   0.397   0.120   0.573 -0.3138  0.6808 -0.3413
  931MPD2    C213671   0.410   0.022   0.667  0.4973 -0.3574 -0.1587
  931MPD2    C313672   0.481   4.648   0.631  0.4218 -0.1687  0.0305
  931MPD2    C413673   0.537   4.633   0.504 -0.3144 -0.8253  0.4803
  931MPD2    C513674   0.514   4.734   0.411 -1.2986 -0.3991 -0.2158
  931MPD2     H13675   0.370   0.035   0.767  0.6375  1.3486 -0.3284
  931MPD2    H113676   0.585   4.538   0.480  0.5700 -0.3558  0.4051
  931MPD2    H213677   0.451   0.205   0.386 -0.7499  1.1046  1.0889
  931MPD2    H313678   0.554   4.717   0.311  0.7942  2.0976  0.1780
  931MPD2     N13679   0.489   4.539   0.722 -0.1903  0.1278  0.6458
  931MPD2    H513680   0.551   4.467   0.687 -0.5223  0.1188  0.0884
  931MPD2    N113681   0.323   0.239   0.612 -0.2513  0.3166 -0.0178
  931MPD2    H713682   0.351   0.315   0.551 -0.3172 -0.2385 -0.7416
  932MPD2     C13683   2.293   3.947  11.141  0.2058  0.0265  0.5604
  932MPD2    C113684   2.427   3.975  11.120  0.1154 -0.0803 -0.1444
  932MPD2    C213685   2.505   3.896  11.035  0.1765 -0.1594  0.2000
  932MPD2    C313686   2.452   3.770  10.994  0.3515 -0.2468  0.4265
  932MPD2    C413687   2.326   3.738  11.036  0.6174 -0.6503 -0.1121
  932MPD2    C513688   2.246   3.820  11.109 -0.1451  0.0657 -0.0336
  932MPD2     H13689   2.603   3.931  11.004 -0.5271 -0.5960 -2.5506
  932MPD2    H113690   2.287   3.639  11.015  2.7463 -1.2120 -1.4257
  932MPD2    H213691   2.222   4.018  11.180 -1.1603 -0.7658 -0.4635
  932MPD2    H313692   2.146   3.788  11.135 -0.1826  0.9577  0.9371
  932MPD2     N13693   2.524   3.675  10.923  0.3408 -0.5498 -0.2813
  932MPD2    H513694   2.483   3.583  10.913 -0.5940 -0.0874 -0.6656
  932MPD2    N113695   2.477   4.108  11.163 -1.0257  1.0913 -0.3125
  932MPD2    H713696   2.555   4.140  11.107 -0.0505 -1.3136 -0.3248
  933MPD2     C13697   3.600   4.234   1.602 -0.9294 -0.1062  0.7338
  933MPD2    C113698   3.484   4.222   1.519  0.5316  0.6483  0.2231
  933MPD2    C213699   3.423   4.336   1.483  0.0918 -0.4196 -0.4828
  933MPD2    C313700   3.462   4.459   1.542  1.0294  0.3471 -0.7910
  933MPD2    C413701   3.575   4.466   1.625  0.2211  0.0579 -0.4724
  933MPD2    C513702   3.647   4.351   1.646 -0.3499  0.6950 -0.7725
  933MPD2     H13703   3.339   4.322   1.416  0.8153 -0.9721 -1.2703
  933MPD2    H113704   3.619   4.559   1.657  2.5270 -1.2330  0.1387
  933MPD2    H213705   3.643   4.141   1.638  0.5258  0.7012  1.0806
  933MPD2    H313706   3.742   4.345   1.698 -1.3353  1.2908  1.0960
  933MPD2     N13707   3.391   4.572   1.499 -0.1742 -0.1801  0.9044
  933MPD2    H513708   3.313   4.549   1.438 -0.3547 -1.3885  1.5875
  933MPD2    N113709   3.441   4.091   1.499 -0.1327 -0.0090  0.1786
  933MPD2    H713710   3.497   4.011   1.527  0.6497  0.0585 -1.2173
  934MPD2     C13711   0.223   1.808   2.487 -0.4932 -0.3774 -0.3059
  934MPD2    C113712   0.266   1.735   2.378  0.3591  0.1718 -1.0319
  934MPD2    C213713   0.183   1.724   2.271 -0.9064  0.2934  0.3084
  934MPD2    C313714   0.042   1.756   2.279 -0.0064 -0.1278  0.6428
  934MPD2    C413715   0.001   1.822   2.391  0.7954 -0.1017  0.4443
  934MPD2    C513716   0.093   1.860   2.493  0.2198  0.4101 -0.1869
  934MPD2     H13717   0.226   1.679   2.183 -1.3914  2.0347 -0.8044
  934MPD2    H113718   4.638   1.855   2.408 -0.1015 -1.8882 -1.3029
  934MPD2    H213719   0.289   1.838   2.567 -1.0807 -1.4311  0.5738
  934MPD2    H313720   0.068   1.921   2.578  0.3748  1.2170 -0.7214
  934MPD2     N13721   4.693   1.717   2.177  0.4136 -0.1592  0.6951
  934MPD2    H513722   4.596   1.745   2.189 -0.0968 -0.4776 -2.7576
  934MPD2    N113723   0.399   1.691   2.364 -0.5543 -0.1875 -0.5280
  934MPD2    H713724   0.419   1.645   2.276  2.3102  0.7125 -0.3575
  935MPD2     C13725   0.088   0.968   1.555 -0.5375  0.4147  0.3627
  935MPD2    C113726   4.690   0.966   1.555 -0.1763 -0.4838  0.0245
  935MPD2    C213727   4.631   1.085   1.588 -0.4769 -0.0785  0.7908
  935MPD2    C313728   4.704   1.202   1.630  0.6275  0.3205  0.1970
  935MPD2    C413729   0.100   1.195   1.624 -0.6474  0.0417  0.6134
  935MPD2    C513730   0.161   1.079   1.582  0.1109 -0.5094  0.1538
  935MPD2     H13731   4.523   1.091   1.597 -0.4967  1.8076 -0.7391
  935MPD2    H113732   0.165   1.277   1.652  0.5676 -0.3028 -1.2005
  935MPD2    H213733   0.138   0.883   1.509  1.2664  1.7882 -0.2328
  935MPD2    H313734   0.266   1.070   1.559 -0.0051 -1.8857  0.1407
  935MPD2     N13735   4.651   1.322   1.689  0.0273  0.0325 -0.5849
  935MPD2    H513736   4.714   1.398   1.712  0.3293 -0.5802  0.6221
  935MPD2    N113737   4.615   0.852   1.522 -0.2573  0.3086 -0.1613
  935MPD2    H713738   4.514   0.866   1.515 -0.5008 -1.9702 -1.1864
  936MPD2     C13739   3.002   2.840  12.982 -0.0377  0.4231  0.9302
  936MPD2    C113740   2.936   2.957  13.014  0.7630  0.2772  0.2510
  936MPD2    C213741   2.914   3.063  12.925  0.2273  0.5198 -0.0565
  936MPD2    C313742   2.967   3.049  12.796 -1.0539 -0.0390 -0.0094
  936MPD2    C413743   3.015   2.922  12.763 -0.0072 -0.4381 -0.3319
  936MPD2    C513744   3.029   2.820  12.853 -0.4743  0.1326 -0.5136
  936MPD2     H13745   2.864   3.155  12.955 -1.1922  0.0604 -0.9866
  936MPD2    H113746   3.041   2.905  12.659 -0.0589 -1.7106 -0.1360
  936MPD2    H213747   3.036   2.767  13.055  3.7349  2.5739  1.3451
  936MPD2    H313748   3.070   2.724  12.822  0.3145  0.9135 -1.8442
  936MPD2     N13749   2.979   3.163  12.706 -0.2831  0.1894 -0.2325
  936MPD2    H513750   2.946   3.253  12.740  2.8338  1.1053  0.3658
  936MPD2    N113751   2.904   2.997  13.150 -0.2961 -0.1558  0.0066
  936MPD2    H713752   2.876   3.093  13.168 -1.3467 -0.3683 -0.5261
  937MPD2     C13753   0.856   3.766  11.607  0.2095 -0.5121  0.3616
  937MPD2    C113754   0.939   3.867  11.641 -0.5115  0.2847 -0.0742
  937MPD2    C213755   1.048   3.889  11.556  0.7889 -0.5564 -0.0114
  937MPD2    C313756   1.093   3.798  11.472 -0.4785  0.3147  0.2699
  937MPD2    C413757   1.010   3.688  11.444 -0.0922 -0.1540 -0.1055
  937MPD2    C513758   0.886   3.683  11.504  0.2344  0.4446  0.2148
  937MPD2     H13759   1.100   3.984  11.567  1.2889 -0.8877  0.4890
  937MPD2    H113760   1.038   3.616  11.368 -1.5624 -0.9544  0.1060
  937MPD2    H213761   0.758   3.757  11.651 -0.6983  0.5533 -1.4515
  937MPD2    H313762   0.815   3.603  11.487  0.4483 -0.0169  1.4295
  937MPD2     N13763   1.212   3.809  11.397 -0.4448  0.3568  0.1881
  937MPD2    H513764   1.240   3.734  11.335 -0.1875  2.0718 -1.7699
  937MPD2    N113765   0.891   3.981  11.718  0.2463 -0.1646 -0.6333
  937MPD2    H713766   0.935   4.072  11.723  0.2095 -0.1733 -0.1880
  938MPD2     C13767   3.310   1.601   0.825  0.2667 -0.2599  0.3492
  938MPD2    C113768   3.377   1.587   0.945 -0.0019  0.0908  0.3831
  938MPD2    C213769   3.390   1.460   0.995  0.2489  0.1959  0.4432
  938MPD2    C313770   3.351   1.348   0.915 -0.4015  0.4474 -0.9444
  938MPD2    C413771   3.293   1.372   0.796  1.2586 -0.3592 -0.2480
  938MPD2    C513772   3.270   1.496   0.746 -1.5736  0.4834 -0.3343
  938MPD2     H13773   3.429   1.445   1.095  0.9237 -1.5107 -0.0599
  938MPD2    H113774   3.255   1.287   0.741 -0.2284  1.2198 -1.6428
  938MPD2    H213775   3.279   1.700   0.793  2.1994  0.5344  0.9347
  938MPD2    H313776   3.227   1.523   0.650 -1.0654 -0.3509 -0.8042
  938MPD2     N13777   3.359   1.210   0.952  0.2241 -0.0577 -0.0734
  938MPD2    H513778   3.311   1.134   0.906 -2.0100  0.8816  0.7178
  938MPD2    N113779   3.428   1.701   1.022  0.0280 -0.2065  0.0560
  938MPD2    H713780   3.462   1.687   1.117 -1.4547 -0.8618  0.4741
  939MPD2     C13781   0.359   1.629   1.106  0.0456 -0.9117 -0.2300
  939MPD2    C113782   0.340   1.753   1.044  0.2242  0.1430 -0.3853
  939MPD2    C213783   0.346   1.758   0.909 -0.3109  0.5793 -0.1415
  939MPD2    C313784   0.375   1.639   0.833  0.8170  0.0353 -0.0938
  939MPD2    C413785   0.408   1.520   0.893 -0.5443  0.6193 -0.0370
  939MPD2    C513786   0.396   1.518   1.030 -0.5045 -0.5244  0.0474
  939MPD2     H13787   0.345   1.850   0.852  0.1433  0.7845  0.1857
  939MPD2    H113788   0.448   1.432   0.843 -1.6239 -0.3784  0.8668
  939MPD2    H213789   0.342   1.628   1.213  1.0356  2.2435 -0.0347
  939MPD2    H313790   0.417   1.431   1.092  1.4105 -0.1161 -0.0382
  939MPD2     N13791   0.361   1.658   0.695 -0.3021 -0.4740 -1.1765
  939MPD2    H513792   0.337   1.750   0.660  2.9619  1.0764  0.6035
  939MPD2    N113793   0.304   1.864   1.118 -0.2431  0.2834 -0.1666
  939MPD2    H713794   0.290   1.842   1.217  0.8775  1.2684  0.2131
  940MPD2     C13795   3.280   3.291  13.092  0.2957 -0.3532 -0.1462
  940MPD2    C113796   3.318   3.175  13.158  0.8420 -0.0572 -0.1589
  940MPD2    C213797   3.356   3.067  13.080 -0.1579  0.1028 -1.0568
  940MPD2    C313798   3.349   3.064  12.941 -0.3089 -0.2971  0.5708
  940MPD2    C413799   3.281   3.172  12.887  0.1940  0.2271 -0.0455
  940MPD2    C513800   3.252   3.285  12.958 -0.6947 -0.2033 -0.3732
  940MPD2     H13801   3.397   2.981  13.131  0.3522 -0.1777 -1.9346
  940MPD2    H113802   3.258   3.172  12.781  0.7652  1.9067 -0.1729
  940MPD2    H213803   3.259   3.386  13.138 -0.0217 -0.1820 -0.6499
  940MPD2    H313804   3.206   3.370  12.910  1.8511  0.3907 -1.7394
  940MPD2     N13805   3.397   2.962  12.856  0.0162 -0.5801  0.1444
  940MPD2    H513806   3.380   2.972  12.756  1.4144  0.4080 -0.0039
  940MPD2    N113807   3.343   3.158  13.291 -0.5520  0.2718 -0.2720
  940MPD2    H713808   3.392   3.073  13.317 -1.3511 -0.0783  0.1033
  941MPD2     C13809   2.301   2.136  10.028  0.1493 -0.2221 -0.4091
  941MPD2    C113810   2.419   2.108  10.097 -0.9093 -0.4180  0.3146
  941MPD2    C213811   2.420   2.008  10.198  0.1085  0.1270 -0.6859
  941MPD2    C313812   2.303   1.934  10.224 -0.2941  0.1249 -0.3785
  941MPD2    C413813   2.187   1.971  10.161  0.4695  0.5423  0.2585
  941MPD2    C513814   2.185   2.067  10.059  0.4791  0.1743  0.3824
  941MPD2     H13815   2.511   1.979  10.248  0.5138  1.2254 -0.7892
  941MPD2    H113816   2.096   1.913  10.169  0.7325  0.1509  0.4537
  941MPD2    H213817   2.303   2.200   9.941 -0.5250  0.2004 -0.1229
  941MPD2    H313818   2.094   2.080  10.001 -0.7310 -2.3818  1.7004
  941MPD2     N13819   2.298   1.841  10.326  0.4243 -0.1741  0.6020
  941MPD2    H513820   2.206   1.802  10.345 -0.4200  2.7595  2.5497
  941MPD2    N113821   2.542   2.175  10.072  0.5604 -0.3803  0.0591
  941MPD2    H713822   2.620   2.166  10.136 -0.3878  0.9447  1.4227
  942MPD2     C13823   1.895   3.285   9.406  0.3653  0.1653  1.1480
  942MPD2    C113824   1.813   3.351   9.319  0.6770  0.1826 -0.9444
  942MPD2    C213825   1.868   3.437   9.226 -0.2737 -0.0744 -0.1572
  942MPD2    C313826   2.005   3.475   9.235  0.1725 -0.1467 -1.0224
  942MPD2    C413827   2.077   3.412   9.333 -0.3032  0.2951 -0.5600
  942MPD2    C513828   2.025   3.319   9.422  0.3405 -0.0341  0.3349
  942MPD2     H13829   1.795   3.500   9.176  0.0040 -0.0324 -0.5074
  942MPD2    H113830   2.181   3.434   9.357 -0.1666  1.1322 -1.9481
  942MPD2    H213831   1.860   3.208   9.474  0.4381 -2.4791 -1.8018
  942MPD2    H313832   2.090   3.263   9.488  0.5961 -0.4607 -0.2796
  942MPD2     N13833   2.072   3.573   9.158 -0.2436  0.2990  0.4554
  942MPD2    H513834   2.170   3.588   9.178  0.2364  0.8743 -2.4042
  942MPD2    N113835   1.675   3.318   9.306  1.1810  0.7980  0.1784
  942MPD2    H713836   1.620   3.372   9.240  0.6417 -0.3818 -0.3395
  943MPD2     C13837   1.552   0.886   9.738 -0.0000 -0.0996 -0.9770
  943MPD2    C113838   1.598   0.961   9.842 -0.2686  0.8596  0.6497
  943MPD2    C213839   1.612   1.097   9.820 -0.9461 -0.2470 -0.0381
  943MPD2    C313840   1.602   1.162   9.698 -0.1057  0.7294  0.0558
  943MPD2    C413841   1.556   1.084   9.596 -0.6299  0.2008 -0.4432
  943MPD2    C513842   1.531   0.950   9.617  0.1038  0.3769 -0.1912
  943MPD2     H13843   1.618   1.152   9.913  1.9564 -0.3854 -0.1425
  943MPD2    H113844   1.554   1.118   9.493  0.9576  2.0595  0.1420
  943MPD2    H213845   1.542   0.779   9.750 -2.3300  0.0188 -1.9729
  943MPD2    H313846   1.486   0.893   9.536 -1.5568 -1.0346  1.7355
  943MPD2     N13847   1.627   1.306   9.681 -0.5648 -0.8959 -0.3932
  943MPD2    H513848   1.603   1.348   9.592  2.1009 -0.1583 -0.7630
  943MPD2    N113849   1.616   0.906   9.973  0.2700  0.0245  0.1977
  943MPD2    H713850   1.581   0.814   9.996  1.1456 -0.0291  1.3199
  944MPD2     C13851   1.097   0.495  11.297 -0.6139 -0.2481  0.3244
  944MPD2    C113852   1.168   0.583  11.215 -0.4672 -0.6655 -0.1495
  944MPD2    C213853   1.180   0.717  11.259  0.0196  0.1806 -0.4082
  944MPD2    C313854   1.126   0.755  11.380  0.0406  0.8749  0.1711
  944MPD2    C413855   1.045   0.665  11.448  0.0217  0.2861 -0.4169
  944MPD2    C513856   1.039   0.533  11.415  0.6725  0.2750 -0.3444
  944MPD2     H13857   1.228   0.797  11.203  1.2588  1.8829  3.0852
  944MPD2    H113858   0.995   0.687  11.541 -1.8301  0.3542 -1.4425
  944MPD2    H213859   1.101   0.388  11.276  0.7333 -0.0022 -0.6490
  944MPD2    H313860   0.987   0.464  11.480 -2.2147  1.4120 -1.4676
  944MPD2     N13861   1.132   0.891  11.419  0.1317 -0.0846  0.4687
  944MPD2    H513862   1.190   0.951  11.360  0.4393 -0.2060  0.6445
  944MPD2    N113863   1.212   0.531  11.095  0.1649 -0.0619  0.4952
  944MPD2    H713864   1.186   0.436  11.072 -0.4638  0.6383 -1.7238
    1TMC1    C113865   4.732   2.740  15.733 -0.1680  0.1667 -0.1691
    1TMC1    C213866   4.708   2.762  15.866 -0.4036  0.4315 -0.6756
    1TMC1    C313867   4.668   2.656  15.942 -0.2802 -0.2235 -0.0282
    1TMC1    C413868   4.737   2.613  15.687  0.3869 -0.2219  0.2960
    1TMC1    C513869   4.703   2.510  15.769 -0.2268 -0.3679  0.4557
    1TMC1    C613870   4.659   2.528  15.898  0.0783  0.6099 -0.1188
    1TMC1     C13871   0.043   2.845  15.650 -0.2462  0.2589  0.2802
    1TMC1     O13872   0.073   2.941  15.722 -0.5571  0.0465  0.5358
    1TMC1     H13873   4.722   2.862  15.907  0.6274  0.1467 -0.3221
    1TMC1    H113874   0.041   2.580  15.593  3.0414  0.8268  1.1544
    1TMC1    H213875   4.621   2.440  15.949 -1.3747  1.6618  0.6311
    1TMC1    C713876   4.684   2.381  15.713  0.4701  0.3309  0.4356
    1TMC1    C813877   4.619   2.691  16.079  0.0353  0.0893 -0.1830
    1TMC1    O113878   4.700   2.272  15.767 -0.0114 -0.1820 -0.3745
    1TMC1    O213879   4.599   2.810  16.096 -0.0046 -0.6608 -0.5642
    1TMC1    O313880   4.639   2.391  15.585  0.4916 -0.2070  0.0077
    1TMC1    H313881   4.625   2.482  15.552 -2.4120 -0.8423 -0.5995
    1TMC1    O513882   4.702   2.620  16.161  0.2563 -0.4221 -0.1356
    1TMC1    H513883   4.700   2.526  16.135 -0.0632 -0.4548  0.0091
    2MPD2     C13884   0.062   3.125  15.212 -0.1727  0.1782 -0.1708
    2MPD2    C113885   0.038   2.991  15.183  0.7800 -0.1086 -0.0460
    2MPD2    C213886   0.015   2.900  15.288  0.0525 -0.5986  0.0677
    2MPD2    C313887   0.037   2.936  15.420 -0.0069  0.0488  0.3413
    2MPD2    C413888   0.058   3.074  15.450 -0.2372 -0.0211 -0.3398
    2MPD2    C513889   0.072   3.167  15.346  0.3227  0.0040 -0.2658
    2MPD2     H13890   4.733   2.797  15.261 -1.6340 -0.4862  0.9710
    2MPD2    H113891   0.066   3.109  15.552 -0.7594 -1.7205  0.2770
    2MPD2    H213892   0.080   3.200  15.136  1.1763  0.2543  0.2164
    2MPD2    H313893   0.086   3.273  15.365  2.4569 -0.9434  3.4905
    2MPD2     N13894   0.020   2.831  15.515  0.5581 -0.5900  0.4629
    2MPD2    H513895   4.719   2.744  15.482 -1.7232  1.1787 -1.5130
    2MPD2    N113896   0.041   2.948  15.044  0.3258 -0.2733 -0.0588
    2MPD2    H713897   0.069   3.013  14.971  0.4893 -1.0271 -0.6594
    3TMC2    C113898   0.027   2.803  14.843  0.0119  0.6966 -0.0060
    3TMC2    C213899   0.099   2.901  14.782  0.2471 -0.0439 -0.1400
    3TMC2    C313900   0.088   2.896  14.647 -0.2071 -0.3874  0.9160
    3TMC2    C413901   4.676   2.723  14.778 -0.6317 -0.3395 -0.5352
    3TMC2    C513902   4.669   2.724  14.639  0.5055  0.1014 -0.3393
    3TMC2    C613903   0.009   2.815  14.568 -0.2378  0.0358 -0.8690
    3TMC2     C13904   0.002   2.830  14.989  0.0333  0.3829 -0.2162
    3TMC2     O13905   4.680   2.742  15.047 -0.1456 -0.1144  0.2808
    3TMC2     H13906   0.173   2.967  14.826  1.9147 -3.3146  1.9569
    3TMC2    H113907   4.619   2.650  14.834 -1.2426  0.0586 -0.6370
    3TMC2    H213908   0.012   2.821  14.460 -1.3776 -1.5640 -0.9864
    3TMC2    C713909   4.591   2.630  14.572  0.5814  0.0584  0.5056
    3TMC2    C813910   0.208   2.942  14.580  0.3431 -0.5301 -0.0053
    3TMC2    O113911   4.583   2.520  14.622  0.0849 -0.4515  0.2310
    3TMC2    O213912   0.245   2.886  14.479 -0.3568  0.5737 -0.3579
    3TMC2    O513913   0.222   3.069  14.608  0.5487 -0.5403 -0.5881
    3TMC2    H513914   0.179   3.097  14.692 -0.3606 -1.0573 -0.8786
    4TMC2    C113915   3.967   3.043  13.916  0.4921  0.0211  0.4025
    4TMC2    C213916   3.967   3.015  13.780 -0.3196 -0.0103  0.2686
    4TMC2    C313917   4.070   2.940  13.732 -0.0189 -0.3014  0.3677
    4TMC2    C413918   4.054   2.983  14.002 -0.0852  0.0668 -0.1844
    4TMC2    C513919   4.149   2.896  13.951 -0.2124  0.0204 -0.1190
    4TMC2    C613920   4.163   2.872  13.815  0.3030 -0.0920  0.0723
    4TMC2     C13921   3.878   3.139  13.982 -0.6456 -0.4912 -0.5947
    4TMC2     O13922   3.888   3.151  14.101 -0.4068  0.7338  0.3463
    4TMC2     H13923   3.903   3.060  13.705 -1.5245 -0.7633  0.8381
    4TMC2    H113924   4.061   3.005  14.108 -0.6325 -1.7418  0.2291
    4TMC2    H213925   4.250   2.820  13.778  0.4913 -0.3648  0.8982
    4TMC2    C713926   4.254   2.849  14.036 -0.3922 -0.3579 -1.0132
    4TMC2    C813927   4.089   2.948  13.585  0.3795 -0.7763  1.2167
    4TMC2    O113928   4.292   2.931  14.118 -0.1207 -0.3042 -0.0345
    4TMC2    O213929   3.991   2.952  13.510 -0.1970 -0.0606 -0.4447
    4TMC2    O513930   4.215   2.989  13.568  0.6857 -0.5614 -0.0443
    4TMC2    H513931   4.254   3.012  13.655  0.5079 -1.4568  0.2706
    5MPD2     C13932   3.424   3.385  13.986  0.0405 -0.8078 -0.0154
    5MPD2    C113933   3.487   3.404  13.868  0.1397 -0.6158  0.1382
    5MPD2    C213934   3.605   3.335  13.831 -0.1941 -0.7323  0.3859
    5MPD2    C313935   3.674   3.274  13.931 -0.8415 -0.1551 -0.9257
    5MPD2    C413936   3.621   3.270  14.059  0.0515  0.1227 -0.0078
    5MPD2    C513937   3.504   3.337  14.089  0.0163 -0.4361  0.1704
    5MPD2     H13938   3.651   3.342  13.733 -0.9733 -0.9125  0.0013
    5MPD2    H113939   3.679   3.228  14.141 -0.1777  0.7380  0.4713
    5MPD2    H213940   3.328   3.433  14.003  0.9832  1.2398 -0.5540
    5MPD2    H313941   3.469   3.338  14.192  2.2127  0.9097  0.9022
    5MPD2     N13942   3.792   3.201  13.892 -0.4475 -0.7559 -0.4392
    5MPD2    H513943   3.813   3.195  13.793  0.3578 -0.7957 -0.2686
    5MPD2    N113944   3.420   3.492  13.774  0.3737  0.2368 -0.9005
    5MPD2    H713945   3.339   3.536  13.816 -0.3641 -1.6614 -0.3527
    6MPD1     C13946   3.600   0.628  13.183 -0.2216 -0.1029  0.7533
    6MPD1    C113947   3.664   0.559  13.288 -0.0586  0.0827 -0.3340
    6MPD1    C213948   3.622   0.436  13.330  0.4833  0.3384 -0.2770
    6MPD1    C313949   3.502   0.385  13.276 -0.5722  0.4689 -0.1273
    6MPD1    C413950   3.439   0.452  13.167 -0.0299  0.1139 -0.1320
    6MPD1    C513951   3.493   0.567  13.123  1.5522 -0.7951 -0.9688
    6MPD1     H13952   3.689   0.385  13.399  0.3526 -0.9044 -1.0603
    6MPD1    H113953   3.345   0.414  13.127 -1.4468  3.0866  0.3988
    6MPD1    H213954   3.646   0.715  13.140 -1.5994  0.2408 -0.0296
    6MPD1    H313955   3.436   0.616  13.045 -0.7704  0.6328  1.6389
    6MPD1     N13956   3.445   0.262  13.315 -0.1409  0.3118 -0.3142
    6MPD1    H513957   3.363   0.233  13.263  0.1658 -1.0363 -0.0472
    6MPD1    N113958   3.782   0.609  13.345 -0.3694  0.5931  0.3787
    6MPD1    H613959   3.779   0.703  13.307  0.0362  0.8746  1.0401
    6MPD1    H713960   3.782   0.608  13.447  1.0780  0.8564  0.3775
    7MPD2     C13961   3.498   4.349  13.864 -0.0521  0.8224  0.0328
    7MPD2    C113962   3.390   4.340  13.788 -0.2711  0.0847  0.1387
    7MPD2    C213963   3.332   4.218  13.760 -0.2758 -0.0997  0.3457
    7MPD2    C313964   3.381   4.106  13.820 -0.1026 -0.3173 -0.5727
    7MPD2    C413965   3.485   4.114  13.905 -0.6811 -0.1278 -1.0475
    7MPD2    C513966   3.545   4.236  13.932  0.2895 -0.3095 -0.7595
    7MPD2     H13967   3.252   4.219  13.687 -1.0234 -1.2140  1.1372
    7MPD2    H113968   3.530   4.022  13.941 -0.9456  0.1501  0.0049
    7MPD2    H213969   3.539   4.449  13.872  0.3583  0.6990 -0.5729
    7MPD2    H313970   3.635   4.234  13.993 -0.2428  0.8304  0.0560
    7MPD2     N13971   3.329   3.977  13.781  0.4413  0.1949 -0.3220
    7MPD2    H513972   3.347   3.900  13.844  0.7134  0.0919 -0.5238
    7MPD2    N113973   3.329   4.457  13.742 -0.7256  0.3719 -0.4829
    7MPD2    H713974   3.235   4.453  13.704 -0.9376 -0.1949  0.0908
    8TMC3    C113975   3.231   3.794  13.638  0.3620 -0.1256 -0.4137
    8TMC3    C213976   3.334   3.710  13.674 -0.2101  0.3536 -0.0407
    8TMC3    C313977   3.382   3.618  13.584 -0.2673 -0.2401 -0.1112
    8TMC3    C413978   3.182   3.787  13.508  0.3530 -0.3384  0.2799
    8TMC3    C513979   3.246   3.710  13.416 -0.0693  0.6231  0.3601
    8TMC3    C613980   3.339   3.619  13.453  0.3641  1.0922  0.0817
    8TMC3     C13981   3.252   3.937  13.671 -0.3198 -1.0756 -0.7376
    8TMC3     O13982   3.229   4.000  13.569  0.1330  0.0003  0.3446
    8TMC3     H13983   3.390   3.725  13.766 -1.4667  0.5058  0.7033
    8TMC3    H113984   3.101   3.848  13.470  0.7857 -0.7458 -1.3170
    8TMC3    H213985   3.386   3.543  13.392 -0.0669  0.4315  0.5662
    8TMC3    C713986   3.289   3.781  13.300  0.4270 -0.1210  0.2171
    8TMC3    C813987   3.450   3.510  13.645 -0.3254 -0.1963 -0.0305
    8TMC3    O113988   3.324   3.727  13.194  0.7702  0.0441  0.6235
    8TMC3    O213989   3.507   3.434  13.568  0.0454 -0.2038 -0.4937
    9TMC3    C113990   3.416   0.064  13.442  0.0063 -0.3553  1.0716
    9TMC3    C213991   3.369   4.736  13.336 -0.3533  0.2656  0.6378
    9TMC3    C313992   3.316   4.618  13.369 -0.3531  0.3058  0.6052
    9TMC3    C413993   3.402   0.032  13.579 -0.0233 -0.3099 -0.9824
    9TMC3    C513994   3.353   4.649  13.603 -0.1734  0.2915 -0.6916
    9TMC3    C613995   3.301   4.573  13.495 -0.0562  0.8622  0.4447
    9TMC3     C13996   3.492   0.183  13.424  0.1245 -0.0049 -0.2160
    9TMC3     O13997   3.580   0.197  13.506 -0.6957 -0.0530  0.0976
    9TMC3     H13998   3.378   0.033  13.234  0.7402  1.1910  1.0597
    9TMC3    H113999   3.443   0.093  13.658 -0.2550 -0.5627 -0.6661
    9TMC3    H214000   3.241   4.486  13.521  2.2905 -0.6678  0.7116
    9TMC3    C714001   3.393   4.579  13.727 -0.7824 -0.5922  0.5794
    9TMC3    C814002   3.308   4.516  13.265 -0.1469  0.5418 -0.0310
    9TMC3    O114003   3.493   4.635  13.773  0.1393 -0.0392  0.3326
    9TMC3    O214004   3.316   4.546  13.147 -0.2564  0.0318  0.1163
   10MPD2     C14005   3.319   4.011  13.107 -0.0126  0.0565  0.5134
   10MPD2    C114006   3.321   4.030  13.243 -0.4795  0.4088 -0.7308
   10MPD2    C214007   3.329   4.149  13.308  0.3264 -0.0466 -0.1290
   10MPD2    C314008   3.329   4.269  13.244  0.0644  0.0247  0.3005
   10MPD2    C414009   3.317   4.252  13.102  0.2981  0.0131 -0.4114
   10MPD2    C514010   3.309   4.129  13.040 -0.2202  0.5981  0.1662
   10MPD2     H14011   3.328   4.157  13.416  1.0725  0.5206 -0.1669
   10MPD2    H114012   3.300   4.335  13.035  0.3737  0.5950  0.2826
   10MPD2    H214013   3.323   3.914  13.060 -0.3072 -1.5394  3.7598
   10MPD2    H314014   3.302   4.124  12.932 -2.2142  1.0818  0.2701
   10MPD2     N14015   3.315   4.391  13.315 -0.0182  0.1895 -0.1206
   10MPD2    H514016   3.337   4.391  13.414  0.5949  0.7106 -0.2617
   10MPD2    N114017   3.308   3.919  13.330  1.1378  0.4962  0.3666
   10MPD2    H714018   3.295   3.948  13.427  0.6579  1.9324 -0.1291
   11MPD2     C14019   4.458   2.491  14.347  0.2269 -0.1198  0.1015
   11MPD2    C114020   4.473   2.628  14.353 -0.5693 -0.3297  0.1459
   11MPD2    C214021   4.419   2.704  14.244  0.0122  0.1420 -0.2666
   11MPD2    C314022   4.346   2.643  14.143 -0.4775  0.4838  0.5293
   11MPD2    C414023   4.344   2.510  14.136 -0.2646  0.0800 -0.4579
   11MPD2    C514024   4.399   2.435  14.241 -0.5650 -0.0042 -0.1013
   11MPD2     H14025   4.429   2.811  14.254  1.7299 -0.4091  3.9007
   11MPD2    H114026   4.295   2.467  14.048  0.3424  0.2780 -0.8918
   11MPD2    H214027   4.490   2.432  14.432 -1.3741 -0.1406  0.7011
   11MPD2    H314028   4.392   2.326  14.243 -1.3188  0.0287 -0.7803
   11MPD2     N14029   4.269   2.711  14.040 -0.5978 -0.0227 -0.6231
   11MPD2    H514030   4.210   2.653  13.982 -0.7149 -0.3162 -0.2150
   11MPD2    N114031   4.549   2.692  14.457  0.2202  0.2535  0.2222
   11MPD2    H714032   4.571   2.790  14.449  1.6990 -0.1139 -0.4143
    1MPD1     C14033   2.348   4.214  17.353  0.4818 -0.5499 -0.0600
    1MPD1    C114034   2.225   4.159  17.348 -0.7738  0.2848 -0.2743
    1MPD1    C214035   2.161   4.133  17.471  0.7412 -0.4030 -0.0076
    1MPD1    C314036   2.213   4.167  17.593 -0.0811 -0.9128  0.0309
    1MPD1    C414037   2.341   4.217  17.593 -0.2383 -0.0092 -0.1623
    1MPD1    C514038   2.410   4.241  17.475  0.1442  0.2194 -0.0398
    1MPD1     H14039   2.062   4.089  17.473 -0.3218  2.0320  0.9639
    1MPD1    H114040   2.389   4.244  17.687 -1.9826 -3.4564  1.7200
    1MPD1    H214041   2.405   4.254  17.270  0.9060  1.1625  1.0549
    1MPD1    H314042   2.512   4.277  17.484  0.2174  0.1093 -0.4130
    1MPD1     N14043   2.150   4.138  17.716  0.4026 -0.2757 -0.3017
    1MPD1    H514044   2.203   4.151   0.048 -2.2191 -1.0316  1.4314
    1MPD1    N114045   2.161   4.139  17.227 -0.5539 -0.0318 -0.1432
    1MPD1    H614046   2.223   4.114  17.150  1.2314 -1.6446  1.7916
    1MPD1    H714047   2.091   4.066  17.235  0.7004 -1.5382 -3.0454
    2MPD1     C14048   1.382   3.589   0.551  0.3186  0.1479 -0.4062
    2MPD1    C114049   1.393   3.618   0.414  0.1046 -0.2927  0.2974
    2MPD1    C214050   1.496   3.698   0.371 -0.2079  0.4716  0.2554
    2MPD1    C314051   1.589   3.760   0.453 -0.5456  0.2266  0.0978
    2MPD1    C414052   1.571   3.735   0.591  0.0110  0.3856  0.2774
    2MPD1    C514053   1.474   3.652   0.634  0.0529 -0.1737 -0.3998
    2MPD1     H14054   1.489   3.715   0.264  0.2083  0.3102  0.2041
    2MPD1    H114055   1.627   3.788   0.667 -2.0600  1.3819  1.0936
    2MPD1    H214056   1.317   3.512   0.591 -0.4785  1.5127  0.9251
    2MPD1    H314057   1.469   3.620   0.738  2.5179  1.3079  0.1720
    2MPD1     N14058   1.689   3.850   0.406  0.0829 -0.2248 -0.7781
    2MPD1    H514059   1.740   3.908   0.473 -1.5289  1.8126 -1.3005
    2MPD1    N114060   1.299   3.563   0.327 -0.5831 -0.4110 -0.0009
    2MPD1    H614061   1.326   3.551   0.230 -1.2990 -1.3981 -0.0788
    2MPD1    H714062   1.261   3.474   0.358  1.0962 -0.6772  1.2832
    3TMC3    C114063   1.843   3.964   0.269  0.7008  0.3046 -0.2456
    3TMC3    C214064   1.917   4.006   0.382  0.0894 -0.2110  0.1967
    3TMC3    C314065   2.033   4.083   0.351 -0.3348 -0.0030 -1.0916
    3TMC3    C414066   1.879   4.002   0.141  0.3815  0.3833  0.1931
    3TMC3    C514067   1.985   4.089   0.119 -0.2358  0.4563 -0.5292
    3TMC3    C614068   2.062   4.125   0.225  0.0915 -0.4273  0.3814
    3TMC3     C14069   1.726   3.872   0.279  0.1890 -1.4609  0.0435
    3TMC3     O14070   1.674   3.839   0.175 -0.2322 -0.0558 -0.4926
    3TMC3     H14071   1.891   3.970   0.481  2.7142 -0.0277  0.9527
    3TMC3    H114072   1.817   3.980   0.056 -0.1644  2.1875  0.1153
    3TMC3    H214073   2.134   4.201   0.197 -0.6202 -0.3687 -1.2927
    3TMC3    C714074   2.018   4.121  17.734  0.3983 -0.2021  0.3808
    3TMC3    C814075   2.115   4.124   0.467  0.0552  0.3146 -0.4795
    3TMC3    O114076   1.925   4.138  17.656 -0.3956 -0.7577  0.7853
    3TMC3    O214077   2.125   4.049   0.567  0.0897 -0.0209 -0.0431
    4MPD1     C14078   2.392   4.457   0.740 -0.3363  0.3185  0.3167
    4MPD1    C114079   2.371   4.512   0.615 -0.1974  0.2065  0.2721
    4MPD1    C214080   2.300   4.435   0.527 -0.0842 -0.1653  0.5293
    4MPD1    C314081   2.242   4.315   0.564  0.1030 -0.5181  0.2034
    4MPD1    C414082   2.263   4.270   0.690  0.1019  0.4322 -0.4460
    4MPD1    C514083   2.341   4.337   0.774 -0.4474 -0.3360 -0.6325
    4MPD1     H14084   2.285   4.471   0.427 -0.5473 -0.3481  0.5343
    4MPD1    H114085   2.217   4.178   0.726  0.0023 -0.3917 -2.6637
    4MPD1    H214086   2.457   4.503   0.815  0.8217  1.1292 -1.1722
    4MPD1    H314087   2.348   4.304   0.877 -1.1843 -1.7456 -1.0324
    4MPD1     N14088   2.173   4.245   0.459  0.2382  0.0667 -0.0867
    4MPD1    H514089   2.171   4.289   0.368  1.2000 -0.2629 -0.2624
    4MPD1    N114090   2.429   4.628   0.570  0.1598  0.2669  0.4327
    4MPD1    H614091   2.384   4.679   0.495  0.9806 -0.2577 -0.4082
    4MPD1    H714092   2.447   4.685   0.653  2.6600  0.4536 -0.2312
    1TCq1    O114093   3.361   3.635  11.404  0.2872 -0.6051  0.4413
    1TCq1    C114094   3.294   3.738  11.456  0.6082 -0.6128 -0.2600
    1TCq1    O214095   3.282   3.761  11.578  0.4440 -0.1625  0.3240
    1TCq1    C214096   3.183   3.775  11.370 -0.2614 -0.4016 -0.6359
    1TCq1    C314097   3.206   3.783  11.232 -0.1817  0.2919 -0.1991
    1TCq1    C414098   3.100   3.813  11.154 -0.5959 -0.0179 -0.4130
    1TCq1    C514099   2.997   3.885  11.211 -0.1473 -1.0572  0.6653
    1TCq1    C614100   2.981   3.882  11.353  0.3102  0.1009  1.3324
    1TCq1    C714101   3.070   3.811  11.432  0.9942  0.5079 -0.5443
    1TCq1    C814102   2.864   3.945  11.412  0.3340 -0.2376  0.5931
    1TCq1    O414103   2.774   3.969  11.329  0.0426  0.0087 -0.3344
    1TCq1    C914104   3.120   3.842  11.012  0.7658 -0.3449  0.7036
    1TCq1    O514105   3.055   3.942  10.968 -0.4639 -0.1788  0.3323
    1TCq1    O614106   3.213   3.786  10.957  0.2426  0.4968  0.2186
    1TCq1    H114107   3.338   3.623  11.309 -1.0718 -0.9797  0.8198
    1TCq1    H214108   3.288   3.736  11.179 -0.6316  1.1747 -1.6684
    1TCq1    H314109   2.924   3.933  11.147  0.9425 -0.4294 -0.1071
    1TCq1    H414110   3.066   3.816  11.540 -2.2844 -0.7232 -0.5846
    2MPD1     C14111   2.631   4.231  11.753 -0.1722 -0.1490  0.7321
    2MPD1    C114112   2.759   4.217  11.793 -0.5673 -0.4578  0.1519
    2MPD1    C214113   2.842   4.134  11.726 -1.2898 -0.2548 -0.0375
    2MPD1    C314114   2.794   4.067  11.617  0.2444 -0.7064  0.1373
    2MPD1    C414115   2.658   4.081  11.582 -0.5097  0.4635  0.2785
    2MPD1    C514116   2.572   4.156  11.650 -0.5495  0.5017 -0.8279
    2MPD1     H14117   2.947   4.127  11.753 -0.7195 -1.2379 -2.5689
    2MPD1    H114118   2.621   4.034  11.492 -0.7439  0.9668  0.1089
    2MPD1    H214119   2.571   4.304  11.807 -2.0453 -2.6838  2.0658
    2MPD1    H314120   2.466   4.157  11.628 -0.1907 -0.1181 -2.5889
    2MPD1     N14121   2.882   3.984  11.542 -0.5318 -0.3866 -0.3326
    2MPD1    H514122   2.977   3.973  11.575 -0.1268  1.4142 -0.8938
    2MPD1    N114123   2.813   4.297  11.895 -0.1464 -0.2976 -0.0229
    2MPD1    H614124   2.900   4.252  11.924  0.0657 -1.8906 -3.0409
    2MPD1    H714125   2.742   4.305  11.967 -0.0436 -0.9881  0.1529
    1TMC1    C114126   2.503   2.855   0.695 -0.0962  0.3400  0.1816
    1TMC1    C214127   2.516   2.944   0.800  0.1210  0.3560 -0.4733
    1TMC1    C314128   2.647   2.983   0.825  0.3456 -0.2096 -0.6019
    1TMC1    C414129   2.602   2.823   0.615 -0.5943  0.6865  0.6215
    1TMC1    C514130   2.728   2.858   0.648 -0.5243 -0.1237 -0.2097
    1TMC1    C614131   2.751   2.942   0.752  0.0530  1.3156  0.3409
    1TMC1     C14132   2.366   2.856   0.640  0.0572  0.0129 -0.0775
    1TMC1     O14133   2.275   2.897   0.713  0.4109  0.0690 -0.0047
    1TMC1     H14134   2.436   2.973   0.867  2.4451  4.0408  0.6962
    1TMC1    H114135   2.590   2.733   0.555  1.4426  2.2887 -2.1956
    1TMC1    H214136   2.857   2.956   0.771  0.4845  0.6219 -1.5350
    1TMC1    C714137   2.844   2.830   0.566 -0.0410  0.6846 -0.2758
    1TMC1    C814138   2.686   3.014   0.961  0.4340  0.1266  0.1881
    1TMC1    O114139   2.956   2.868   0.600  0.3978 -0.5851  0.4582
    1TMC1    O214140   2.798   3.001   1.012 -1.1283 -0.4261 -0.1350
    1TMC1    O314141   2.806   2.831   0.434  0.0809 -0.4909  0.1308
    1TMC1    H314142   2.710   2.839   0.413  0.0309  1.7164  1.2423
    1TMC1    O514143   2.590   3.083   1.024  0.0541 -0.0935  0.6640
    1TMC1    H514144   2.540   3.139   0.961  1.0630 -1.6539 -1.4960
    2MPD1     C14145   2.045   2.684   0.264 -0.2966 -0.6197  0.0092
    2MPD1    C114146   2.177   2.674   0.225  0.4569 -0.1502 -1.0895
    2MPD1    C214147   2.283   2.714   0.304  0.1311  0.7301  0.7435
    2MPD1    C314148   2.256   2.762   0.434 -0.3771 -0.4175  0.2103
    2MPD1    C414149   2.121   2.763   0.475  0.1544 -0.8938 -0.7608
    2MPD1    C514150   2.019   2.718   0.394 -0.1406 -0.7318  0.2306
    2MPD1     H14151   2.383   2.698   0.265  0.5033  0.2230  1.9220
    2MPD1    H114152   2.092   2.802   0.572  0.6729 -0.9737 -0.5724
    2MPD1    H214153   1.973   2.638   0.197 -1.0966  0.0473  0.4091
    2MPD1    H314154   1.916   2.710   0.428 -0.3581  1.4566  0.0896
    2MPD1     N14155   2.366   2.810   0.513 -0.3742 -0.0043  0.1231
    2MPD1    H514156   2.453   2.816   0.463 -0.6158  0.1870 -0.2764
    2MPD1    N114157   2.195   2.642   0.086 -0.5064  0.0697  0.5942
    2MPD1    H614158   2.292   2.626   0.059 -1.5726 -0.1284 -3.1401
    2MPD1    H714159   2.140   2.568   0.043  0.2770  1.0989 -2.2087
    1MPD1     C14160   3.841   3.324  12.155  0.6033 -0.6632  0.0473
    1MPD1    C114161   3.876   3.349  12.282 -0.5320  0.9870  0.0475
    1MPD1    C214162   4.006   3.352  12.321 -0.8746 -0.5832  0.3631
    1MPD1    C314163   4.106   3.338  12.236  0.3735 -0.2756  0.5465
    1MPD1    C414164   4.068   3.317  12.100 -0.5466  1.1130 -0.0307
    1MPD1    C514165   3.938   3.306  12.071  0.0363 -0.8344  0.1681
    1MPD1     H14166   4.025   3.376  12.425  0.8454 -0.2855 -0.0196
    1MPD1    H114167   4.136   3.324  12.016  0.7549  1.3810  1.0538
    1MPD1    H214168   3.739   3.334  12.120  0.3989  2.1466  1.3756
    1MPD1    H314169   3.926   3.287  11.964  1.7396  0.5377 -0.2666
    1MPD1     N14170   4.231   3.367  12.292  0.7442  0.3489  0.6116
    1MPD1    H514171   4.239   3.378  12.393 -2.5825  0.9923  0.8161
    1MPD1    N114172   3.779   3.405  12.364  0.7769  0.3557  0.0935
    1MPD1    H614173   3.821   3.411  12.457  1.6064 -0.0187 -0.2579
    1MPD1    H714174   3.700   3.340  12.372  1.0592  0.1886  1.5195
    2MPD1     C14175   3.736   4.308  11.770  0.2990  0.2047 -0.1062
    2MPD1    C114176   3.695   4.292  11.637  0.2547  0.2091  0.1294
    2MPD1    C214177   3.778   4.208  11.566 -0.1588 -0.2342 -0.1512
    2MPD1    C314178   3.899   4.158  11.601  0.0344 -0.4974  0.0699
    2MPD1    C414179   3.946   4.185  11.728 -0.1141 -0.0411  0.3736
    2MPD1    C514180   3.866   4.265  11.800  0.3396  0.2214 -0.3946
    2MPD1     H14181   3.743   4.191  11.464  0.8029 -0.6736 -0.4085
    2MPD1    H114182   4.037   4.141  11.765 -0.4553 -1.1288 -0.0765
    2MPD1    H214183   3.678   4.365  11.842  2.0137 -0.3641  1.7244
    2MPD1    H314184   3.898   4.280  11.902  0.2186 -0.3033 -0.2830
    2MPD1     N14185   3.979   4.079  11.511  0.4422  0.1514 -0.0112
    2MPD1    H514186   4.063   4.034  11.547  1.0025 -1.4154 -3.2324
    2MPD1    N114187   3.569   4.333  11.591  0.2744  0.4945  0.1548
    2MPD1    H614188   3.560   4.318  11.490 -0.1168 -1.5862  0.4937
    2MPD1    H714189   3.540   4.426  11.621 -0.7534  0.3151 -0.2770
    3MPD1     C14190   3.845   3.388  10.777  0.2222  0.7512 -0.2920
    3MPD1    C114191   3.758   3.489  10.817 -0.1399  0.4496  0.2687
    3MPD1    C214192   3.793   3.593  10.897  0.6121  0.1593 -0.1387
    3MPD1    C314193   3.931   3.611  10.926 -0.3184  0.3509 -0.1974
    3MPD1    C414194   4.019   3.512  10.885  0.9558 -0.0336 -0.6557
    3MPD1    C514195   3.974   3.400  10.822  0.1663  0.1334  0.2183
    3MPD1     H14196   3.723   3.671  10.925  1.3119 -0.1625  2.4439
    3MPD1    H114197   4.124   3.527  10.908  1.3293  1.8225 -3.6045
    3MPD1    H214198   3.813   3.298  10.727 -0.5513  1.7263 -1.5510
    3MPD1    H314199   4.043   3.321  10.793  2.2031  1.0331  2.7004
    3MPD1     N14200   3.978   3.720  11.008 -0.2364 -0.0095 -0.2962
    3MPD1    H514201   3.901   3.771  11.051 -0.4948 -1.7819  1.3377
    3MPD1    N114202   3.621   3.461  10.801  0.0204  0.2457 -0.3726
    3MPD1    H614203   3.567   3.547  10.807 -0.7533 -0.3011  0.3814
    3MPD1    H714204   3.604   3.419  10.709 -1.2895  0.3131 -0.1591
    4MPD2     C14205   4.543   3.991  12.337 -0.3358  0.0489 -0.4212
    4MPD2    C114206   4.634   3.887  12.306 -0.1304 -0.1395 -0.2104
    4MPD2    C214207   4.732   3.916  12.214  0.4521 -0.3701 -0.6085
    4MPD2    C314208   0.011   4.044  12.157  0.1245  0.1049  0.3034
    4MPD2    C414209   4.657   4.143  12.192 -0.2289 -1.2622 -0.7727
    4MPD2    C514210   4.559   4.113  12.287 -0.3242  0.3563 -0.2884
    4MPD2     H14211   0.060   3.839  12.177 -0.3038 -1.1404 -0.3648
    4MPD2    H114212   4.664   4.248  12.164  1.7698 -0.7825  1.4456
    4MPD2    H214213   4.472   3.975  12.417 -0.6227  0.7246 -0.5420
    4MPD2    H314214   4.500   4.198  12.321  0.7584  1.1188 -0.3217
    4MPD2     N14215   0.113   4.070  12.066  0.1515  0.2151 -0.2177
    4MPD2    H514216   0.127   4.165  12.033 -2.1608  0.8828  0.6895
    4MPD2    N114217   4.633   3.763  12.368  0.4660 -0.0594 -0.2983
    4MPD2    H714218   4.698   3.698  12.326 -1.7440 -1.0576 -2.1977
    5TMC3    C114219   4.551   3.574  12.455  0.4367 -0.4223 -0.5425
    5TMC3    C214220   4.445   3.520  12.383 -0.2425  0.4891 -0.3522
    5TMC3    C314221   4.458   3.428  12.286 -0.6566 -0.2619 -0.3380
    5TMC3    C414222   4.674   3.528  12.420 -0.1878  0.1888 -0.4975
    5TMC3    C514223   4.692   3.433  12.323  0.1857 -0.0209  0.0502
    5TMC3    C614224   4.586   3.380  12.259 -0.2057 -0.1934 -0.4699
    5TMC3     C14225   4.537   3.714  12.454 -0.0485 -0.0744  0.6817
    5TMC3     O14226   4.446   3.768  12.511  0.0494 -0.2805  0.3205
    5TMC3     H14227   4.348   3.556  12.413  0.2569  1.6186 -0.0840
    5TMC3    H114228   0.022   3.566  12.470  0.1566 -0.3230 -0.7049
    5TMC3    H214229   4.600   3.306  12.181  1.9299  0.0835 -0.3589
    5TMC3    C714230   0.058   3.474  12.244 -0.8098 -0.4375  0.5714
    5TMC3    C814231   4.342   3.393  12.214 -0.3514 -0.0243 -0.2529
    5TMC3    O114232   0.093   3.589  12.258  0.7084 -0.3540  0.1799
    5TMC3    O214233   4.360   3.403  12.094  0.5377 -0.5036  0.4771
    6TMC3    C114234   4.059   3.969  11.323 -0.4772 -0.2084  0.4971
    6TMC3    C214235   4.024   3.906  11.202 -0.1164 -0.1253 -0.6415
    6TMC3    C314236   4.132   3.848  11.131 -0.2458 -0.0626  0.3813
    6TMC3    C414237   4.185   3.975  11.376  0.2808  0.2729  0.3096
    6TMC3    C514238   4.283   3.908  11.314  0.0651  0.4084  0.0447
    6TMC3    C614239   4.254   3.850  11.191  0.3162 -0.0553 -0.0050
    6TMC3     C14240   3.951   4.040  11.384  0.7782  0.2491  0.3261
    6TMC3     O14241   3.855   4.061  11.311  0.1004  0.4839  0.5895
    6TMC3     H14242   3.923   3.906  11.163 -0.6388 -0.9218  0.7166
    6TMC3    H114243   4.214   4.035  11.462  3.0024 -2.3095  1.1946
    6TMC3    H214244   4.335   3.799  11.140 -0.9061 -0.4185 -1.5706
    6TMC3    C714245   4.414   3.962  11.334 -0.0086  0.1983  0.3215
    6TMC3    C814246   4.106   3.751  11.032 -0.4262 -0.6230 -0.0800
    6TMC3    O114247   4.443   3.999  11.447  0.6219  0.0547 -0.7758
    6TMC3    O214248   4.201   3.721  10.956 -1.1560  0.0380  0.3934
    7MPD2     C14249   0.362   3.446  11.838 -0.8071  0.6447  0.3809
    7MPD2    C114250   0.332   3.549  11.924 -0.1678  0.0133 -0.1340
    7MPD2    C214251   0.242   3.527  12.024  0.0464 -0.1022  0.3364
    7MPD2    C314252   0.179   3.405  12.041  0.6517 -0.2701 -0.0226
    7MPD2    C414253   0.217   3.302  11.960 -0.1983  1.2031  0.3580
    7MPD2    C514254   0.317   3.319  11.870 -0.2291 -0.1377 -0.3416
    7MPD2     H14255   0.214   3.616  12.078  0.3993 -0.9338  1.8675
    7MPD2    H114256   0.183   3.201  11.976 -1.2599  1.7338  1.4239
    7MPD2    H214257   0.441   3.451  11.764 -0.3864  0.3488  0.8085
    7MPD2    H314258   0.354   3.232  11.816 -0.6804  0.5547 -1.7878
    7MPD2     N14259   0.089   3.377  12.148  0.4667  0.0485  0.2648
    7MPD2    H514260   0.055   3.281  12.148 -0.1167  0.2452  1.3711
    7MPD2    N114261   0.381   3.670  11.904  0.0985 -0.3063 -0.7504
    7MPD2    H714262   0.330   3.736  11.962  1.8209  1.2694 -1.0065
    8TMC3    C114263   0.395   3.856  11.771 -0.2213 -0.3755  0.0843
    8TMC3    C214264   0.326   3.902  11.659  0.1444  0.6982 -0.0211
    8TMC3    C314265   0.238   4.002  11.674  0.2524  0.4922 -0.3025
    8TMC3    C414266   0.370   3.916  11.889 -0.0134  0.2036 -0.4454
    8TMC3    C514267   0.279   4.015  11.906  0.7234  0.1380  0.2590
    8TMC3    C614268   0.200   4.043  11.800 -0.0078  0.2864 -0.3075
    8TMC3     C14269   0.420   3.716  11.781 -0.1400 -0.3884 -0.4532
    8TMC3     O14270   0.454   3.657  11.682  0.3404  0.1598  0.1174
    8TMC3     H14271   0.346   3.856  11.563  3.0606  1.5333  0.1805
    8TMC3    H114272   0.446   3.904  11.965 -0.8855 -0.4223  0.3225
    8TMC3    H214273   0.108   4.099  11.813 -0.0618  0.4563 -1.4627
    8TMC3    C714274   0.203   3.979  12.019 -0.4120  0.4661  0.3636
    8TMC3    C814275   0.136   4.021  11.572 -0.2507  0.0772  0.1325
    8TMC3    O114276   0.242   3.877  12.074  0.1892 -0.2188  0.8884
    8TMC3    O214277   0.025   4.061  11.607  0.7636 -0.4993  0.2075
    9MPD2     C14278   0.176   3.978  11.206 -0.0447 -1.1896  0.7537
    9MPD2    C114279   0.112   3.994  11.328  0.0630  0.5304  0.0556
    9MPD2    C214280   4.709   3.984  11.334 -0.1287 -0.4503 -0.0346
    9MPD2    C314281   4.637   3.965  11.215  0.0843 -0.1282  0.0841
    9MPD2    C414282   4.700   3.950  11.100 -0.4229 -0.3933 -0.2252
    9MPD2    C514283   0.098   3.965  11.092  0.5078  0.3959  0.2924
    9MPD2     H14284   4.651   3.995  11.425 -0.3958  1.2132 -0.4024
    9MPD2    H114285   4.643   3.914  11.015  0.4096 -1.5143 -0.3154
    9MPD2    H214286   0.284   3.971  11.194  0.0882  0.1275  1.2349
    9MPD2    H314287   0.147   3.963  10.995 -1.1356 -0.8225 -0.4962
    9MPD2     N14288   4.497   3.944  11.218 -0.1004 -0.2745  0.3647
    9MPD2    H514289   4.452   3.904  11.136 -0.5089 -1.0948  0.9883
    9MPD2    N114290   0.190   4.006  11.442 -0.1693  0.2221  0.1771
    9MPD2    H714291   0.291   4.000  11.436 -0.3351 -1.2091 -1.4300
    1MPD1     C14292   4.397   1.869   0.750 -0.5700 -1.0431 -0.9328
    1MPD1    C114293   4.264   1.842   0.710 -0.3221 -0.2385 -0.0810
    1MPD1    C214294   4.179   1.954   0.701 -0.4320 -0.3569 -0.0073
    1MPD1    C314295   4.213   2.080   0.742 -0.6548  0.1526  0.3286
    1MPD1    C414296   4.347   2.098   0.775  0.0939 -0.2585 -0.1422
    1MPD1    C514297   4.433   1.996   0.788  0.2171 -0.2633  0.1099
    1MPD1     H14298   4.076   1.938   0.669 -0.2965  0.1028 -0.6587
    1MPD1    H114299   4.394   2.191   0.807 -1.3336  1.6038 -3.5100
    1MPD1    H214300   4.478   1.797   0.747  0.2565 -0.1111 -0.9377
    1MPD1    H314301   4.530   2.026   0.825  2.0189 -1.5206 -3.6366
    1MPD1     N14302   4.132   2.191   0.733  0.6130  0.4762 -0.4554
    1MPD1    H514303   4.178   2.277   0.762  1.5205 -0.7400  1.6789
    1MPD1    N114304   4.207   1.716   0.687  0.1410 -0.3356  0.2184
    1MPD1    H614305   4.271   1.640   0.663 -0.1341 -0.5105  0.0456
    1MPD1    H714306   4.135   1.719   0.616  0.4421  1.5097 -0.0186
    2TMC2    C114307   3.741   2.427   0.666 -0.7264  0.0145  0.2834
    2TMC2    C214308   3.768   2.532   0.749  0.0614  0.0188  0.2414
    2TMC2    C314309   3.891   2.516   0.818  0.1381  0.0303 -0.2105
    2TMC2    C414310   3.829   2.328   0.621  0.0713  0.0969  0.2302
    2TMC2    C514311   3.952   2.325   0.683  0.5635 -0.0989 -0.1079
    2TMC2    C614312   3.972   2.405   0.794 -0.8128  0.5184 -0.2271
    2TMC2     C14313   3.610   2.425   0.604 -0.8108  0.8551 -0.8596
    2TMC2     O14314   3.586   2.372   0.497  0.2785 -0.3944 -0.1337
    2TMC2     H14315   3.694   2.605   0.780 -0.1533  0.0460 -0.3367
    2TMC2    H114316   3.815   2.260   0.539 -0.6270  1.2301 -0.5875
    2TMC2    H214317   4.062   2.391   0.854  0.4476  0.8658 -2.0427
    2TMC2    C714318   4.016   2.196   0.669 -0.9646  0.1283 -0.5384
    2TMC2    C814319   3.950   2.634   0.875  0.4437 -0.1034 -0.6415
    2TMC2    O114320   3.961   2.118   0.592  0.4931  0.2917  0.0762
    2TMC2    O214321   3.885   2.740   0.859  0.5851 -0.2498  0.2918
    2TMC2    O514322   4.027   2.601   0.987  0.1971 -0.2340  0.4556
    2TMC2    H514323   4.035   2.503   0.982 -3.2293 -0.4996  0.1632
    3MPD1     C14324   3.122   2.280   0.675  0.0115 -0.1321 -1.2841
    3MPD1    C114325   3.185   2.287   0.804 -0.4926  0.2018  0.2362
    3MPD1    C214326   3.315   2.336   0.807  0.1510 -0.0734  0.3656
    3MPD1    C314327   3.379   2.386   0.693  0.4184 -0.1538  1.4966
    3MPD1    C414328   3.310   2.392   0.577 -0.2124  0.4906  0.4060
    3MPD1    C514329   3.181   2.342   0.570  0.0845  0.1388 -0.3915
    3MPD1     H14330   3.365   2.322   0.902 -0.0909 -0.3935  0.4450
    3MPD1    H114331   3.345   2.442   0.488  0.3158  0.5997  0.6807
    3MPD1    H214332   3.026   2.232   0.669 -0.5635  0.9379 -0.6891
    3MPD1    H314333   3.122   2.349   0.480 -0.4293 -2.1415 -0.2393
    3MPD1     N14334   3.520   2.412   0.708 -0.1417 -0.1716  0.4838
    3MPD1    H514335   3.550   2.427   0.804 -0.1808  1.6998  0.1914
    3MPD1    N114336   3.130   2.223   0.915  0.6992  0.3247 -1.0529
    3MPD1    H614337   3.029   2.215   0.919  0.7150  0.6758  0.0523
    3MPD1    H714338   3.172   2.278   0.990  1.7903 -0.9200 -0.7490
    1TMC1    C114339   3.420   2.564  13.556 -0.2281 -0.1609 -0.0828
    1TMC1    C214340   3.396   2.611  13.430 -0.1873 -0.1571 -0.7565
    1TMC1    C314341   3.301   2.697  13.412  0.4993  0.0740 -0.0758
    1TMC1    C414342   3.336   2.596  13.663  0.2086  0.1323 -0.6497
    1TMC1    C514343   3.245   2.696  13.637  0.4444  0.2958  0.0072
    1TMC1    C614344   3.226   2.743  13.513  0.4221 -0.1689  0.5291
    1TMC1     C14345   3.543   2.481  13.563  0.0688  0.3175 -0.3248
    1TMC1     O14346   3.598   2.457  13.456 -0.0007  0.1107 -0.0805
    1TMC1     H14347   3.466   2.599  13.348  0.4763  1.2454 -0.3847
    1TMC1    H114348   3.334   2.547  13.760 -0.5102 -2.1071 -1.8084
    1TMC1    H214349   3.149   2.817  13.496  0.8401  0.4265  1.1806
    1TMC1    C714350   3.137   2.730  13.728 -0.7653 -0.6935  0.0652
    1TMC1    C814351   3.322   2.804  13.316 -0.3905 -0.5903  0.2585
    1TMC1    O114352   3.064   2.828  13.720  0.1182 -0.0630 -0.1638
    1TMC1    O214353   3.222   2.865  13.283 -0.2862 -0.1367 -0.0043
    1TMC1    O314354   3.115   2.621  13.807 -0.3079  0.0248  0.1261
    1TMC1    H314355   3.182   2.550  13.805 -0.4726 -0.1180 -0.2908
    1TMC1    O514356   3.442   2.861  13.348  0.6172 -0.0229  0.1447
    1TMC1    H514357   3.506   2.797  13.387  1.4715 -0.3949 -1.8723
    2MPD2     C14358   3.783   2.313  13.648 -0.7598 -0.0668  0.3561
    2MPD2    C114359   3.699   2.392  13.725  0.1868  0.0808 -0.0937
    2MPD2    C214360   3.736   2.395  13.859  0.3326  0.7506  0.0834
    2MPD2    C314361   3.849   2.324  13.906  0.0063  0.1477 -0.3928
    2MPD2    C414362   3.921   2.240  13.821  0.3263  0.9550  0.3318
    2MPD2    C514363   3.889   2.234  13.687 -0.2130 -0.4826 -0.3638
    2MPD2     H14364   3.673   2.455  13.924  0.7720  1.4175 -0.1045
    2MPD2    H114365   4.014   2.191  13.847 -0.3856 -2.5573 -3.7257
    2MPD2    H214366   3.764   2.304  13.541  1.7528 -0.2809 -0.0671
    2MPD2    H314367   3.946   2.175  13.616  0.2250 -0.7263  0.1866
    2MPD2     N14368   3.887   2.333  14.043  0.1467  0.9180 -0.4656
    2MPD2    H514369   3.830   2.395  14.100 -1.6734  1.9891 -3.4408
    2MPD2    N114370   3.585   2.458  13.690  0.1295  0.2935 -0.8056
    2MPD2    H714371   3.530   2.497  13.765  1.5459 -1.0555  0.9342
    3TCq1    O114372   4.288   2.081  14.457 -0.1575 -0.3386  0.4733
    3TCq1    C114373   4.249   2.199  14.503  0.1550  0.1165 -0.4475
    3TCq1    O214374   4.278   2.250  14.607  0.2575 -0.1706 -0.5749
    3TCq1    C214375   4.132   2.251  14.434  0.1721  0.0088 -0.4284
    3TCq1    C314376   4.057   2.360  14.494  0.3092 -0.1838  1.4461
    3TCq1    C414377   3.988   2.453  14.420  0.5150  0.6400 -0.4980
    3TCq1    C514378   3.979   2.432  14.289 -0.7023  0.0836  0.9441
    3TCq1    C614379   4.024   2.320  14.236  0.5217  0.1187  0.9207
    3TCq1    C714380   4.113   2.234  14.301 -0.9351  0.1500 -0.2602
    3TCq1    C814381   4.011   2.299  14.095 -0.1656 -0.2859 -0.5151
    3TCq1    O414382   4.105   2.253  14.037  0.0031  0.1198 -0.4415
    3TCq1    C914383   3.923   2.561  14.483  0.2374 -0.4650  0.0855
    3TCq1    O514384   3.906   2.540  14.605 -0.5105 -0.5050 -0.1712
    3TCq1    O614385   3.869   2.649  14.407 -0.0024  0.0317  0.3127
    3TCq1    H114386   4.214   2.043  14.405 -0.7064 -1.3249  1.9835
    3TCq1    H214387   4.069   2.388  14.598 -3.5405  2.1304  1.2851
    3TCq1    H314388   3.916   2.501  14.234  0.6588  1.7166  1.4343
    3TCq1    H414389   4.166   2.158  14.245  1.3936  2.0462 -0.5959
    1MPD2     C14390   2.445   3.075  15.428 -0.1330  1.1336  0.3110
    1MPD2    C114391   2.329   3.044  15.481  0.2201 -0.6190  0.2035
    1MPD2    C214392   2.267   2.922  15.450 -0.1493 -0.5850 -0.4005
    1MPD2    C314393   2.337   2.829  15.378  0.0290 -0.3957 -0.6568
    1MPD2    C414394   2.461   2.859  15.325  0.6377 -0.4819  0.6456
    1MPD2    C514395   2.513   2.980  15.355  0.5522  0.6060 -0.4401
    1MPD2     H14396   2.171   2.900  15.495  0.4411  1.2543  1.7302
    1MPD2    H114397   2.517   2.791  15.262 -2.8744 -1.6926 -1.1756
    1MPD2    H214398   2.482   3.174  15.455  1.4222  0.4823  0.5958
    1MPD2    H314399   2.609   3.002  15.311  0.9306 -0.6235 -0.2291
    1MPD2     N14400   2.277   2.706  15.357  0.4592  0.2204 -0.1784
    1MPD2    H514401   2.179   2.707  15.383  0.5853  0.4356  0.2820
    1MPD2    N114402   2.267   3.150  15.564 -0.2172  0.0778 -0.1666
    1MPD2    H714403   2.305   3.244  15.568  0.8191 -0.3804  0.5226
    2TMC3    C114404   2.082   3.238  15.681 -0.3657 -0.6522 -0.4141
    2TMC3    C214405   2.001   3.208  15.784 -0.2622  0.2571  0.6640
    2TMC3    C314406   1.877   3.252  15.789 -0.3160 -0.0376  0.9570
    2TMC3    C414407   2.041   3.331  15.586  0.2219 -0.1607 -0.1297
    2TMC3    C514408   1.909   3.372  15.596  0.1431 -0.0763  0.2771
    2TMC3    C614409   1.830   3.341  15.700 -0.4122 -0.3049  0.6024
    2TMC3     C14410   2.154   3.127  15.635 -1.1302 -0.0810 -0.0705
    2TMC3     O14411   2.101   3.022  15.673  0.0276 -0.2174 -0.1277
    2TMC3     H14412   2.031   3.139  15.863 -0.1524 -1.6275 -1.0259
    2TMC3    H114413   2.098   3.351  15.496  0.5033  1.5674  0.4184
    2TMC3    H214414   1.725   3.369  15.700 -0.2551  0.2952  1.3084
    2TMC3    C714415   1.865   3.469  15.500  0.4137 -0.7934  1.0821
    2TMC3    C814416   1.783   3.144  15.812 -0.1365  1.0240  0.5678
    2TMC3    O114417   1.755   3.450  15.451  0.3565 -0.6971 -0.1331
    2TMC3    O214418   1.668   3.169  15.836 -0.0638 -0.2226  0.3655
    3TCq1    O114419   2.548   4.395  14.930 -0.4216  0.3329 -0.2865
    3TCq1    C114420   2.476   4.295  14.868  0.2593  0.3548  0.3717
    3TCq1    O214421   2.403   4.321  14.777  0.5349 -0.6127  0.1010
    3TCq1    C214422   2.454   4.196  14.963  0.1129 -0.4500 -0.6625
    3TCq1    C314423   2.550   4.174  15.057  0.2065  0.0131  0.0428
    3TCq1    C414424   2.514   4.099  15.172  0.0764  0.0745 -0.5590
    3TCq1    C514425   2.395   4.034  15.181 -0.3961 -0.4498 -0.1125
    3TCq1    C614426   2.311   4.045  15.068 -0.3798  0.3604  0.1138
    3TCq1    C714427   2.342   4.121  14.957  0.3132  0.0745  1.0757
    3TCq1    C814428   2.201   3.948  15.060 -0.6382  0.4064  0.1446
    3TCq1    O414429   2.162   3.938  14.944 -0.9950  0.3293 -0.2364
    3TCq1    C914430   2.609   4.092  15.283 -0.3858 -0.6593 -0.0800
    3TCq1    O514431   2.589   3.997  15.361  0.1651  0.2554  0.1298
    3TCq1    O614432   2.707   4.166  15.276  0.3588  0.3337 -0.1262
    3TCq1    H114433   2.578   4.369  15.019 -1.6975 -0.6603 -0.1425
    3TCq1    H214434   2.650   4.217  15.057  0.8808 -1.5773  0.7496
    3TCq1    H314435   2.366   3.991  15.276 -2.8941  0.4621 -0.4789
    3TCq1    H414436   2.269   4.140  14.880  1.1720 -1.2487 -0.0880
    4MPD2     C14437   2.006   3.733  15.079  0.1948 -0.2589  0.9881
    4MPD2    C114438   2.084   3.773  15.184 -0.5820 -0.0947  0.6664
    4MPD2    C214439   2.060   3.716  15.306 -0.7274  0.7801  0.4425
    4MPD2    C314440   1.969   3.617  15.330 -0.3869 -0.3320  0.1031
    4MPD2    C414441   1.896   3.570  15.221  0.3383  0.2034 -0.5557
    4MPD2    C514442   1.920   3.626  15.098 -0.6532  0.0403  0.6767
    4MPD2     H14443   2.120   3.750  15.389  0.0784 -0.4872  0.3794
    4MPD2    H114444   1.823   3.490  15.225 -0.8172  1.3213  0.4413
    4MPD2    H214445   2.022   3.768  14.978 -2.8279  0.1876  0.6708
    4MPD2    H314446   1.862   3.606  15.008  0.5406 -0.4010  0.0054
    4MPD2     N14447   1.966   3.551  15.456  0.4177 -0.1217 -0.0397
    4MPD2    H514448   2.039   3.566  15.525  1.0822 -1.7907 -0.3835
    4MPD2    N114449   2.176   3.879  15.173 -0.2186 -0.3495  0.0536
    4MPD2    H714450   2.224   3.906  15.258 -0.1264  0.4009 -0.2355
    5TMC2    C114451   1.989   2.521  15.360 -0.0668 -0.4421 -0.2420
    5TMC2    C214452   2.007   2.410  15.437 -0.0674  0.3180 -0.1299
    5TMC2    C314453   2.126   2.341  15.431 -0.0362  0.3217 -0.0305
    5TMC2    C414454   2.090   2.561  15.280  0.4003  0.3341 -0.2555
    5TMC2    C514455   2.210   2.502  15.282 -0.4878  0.2772  0.3645
    5TMC2    C614456   2.222   2.385  15.349  0.5840  0.2803 -0.1215
    5TMC2     C14457   1.935   2.629  15.442 -0.1092  0.7247 -0.4480
    5TMC2     O14458   1.963   2.741  15.407  0.4357 -0.3555  0.0794
    5TMC2     H14459   1.935   2.372  15.507  0.2412 -0.9877 -0.5244
    5TMC2    H114460   2.068   2.652  15.225  1.6667  1.5586  1.2714
    5TMC2    H214461   2.325   2.353  15.360  0.0498 -0.7742  1.8348
    5TMC2    C714462   2.327   2.592  15.303  0.7216 -0.6152  0.0827
    5TMC2    C814463   2.159   2.238  15.530  0.3589  0.1276 -0.1610
    5TMC2    O114464   2.442   2.553  15.281  0.2176  0.0275  0.2546
    5TMC2    O214465   2.096   2.228  15.640  0.1879  0.1592 -0.3422
    5TMC2    O514466   2.183   2.130  15.450 -0.6076 -0.0309 -0.5180
    5TMC2    H514467   2.207   2.152  15.357  1.5370  0.2475  0.1071
    6MPD2     C14468   1.652   2.876  15.781  0.2986  0.1669  0.3786
    6MPD2    C114469   1.767   2.906  15.723 -0.2056 -0.4281 -0.4514
    6MPD2    C214470   1.838   2.815  15.642  0.2573 -0.0883 -0.5082
    6MPD2    C314471   1.790   2.681  15.629 -0.3996 -0.1045 -0.0432
    6MPD2    C414472   1.681   2.648  15.701 -0.1355 -0.1594  0.2040
    6MPD2    C514473   1.611   2.740  15.778  0.8270 -0.3192  0.1543
    6MPD2     H14474   1.924   2.854  15.589 -0.1112 -0.9249 -1.7480
    6MPD2    H114475   1.636   2.549  15.695 -2.8742  1.0828  0.4075
    6MPD2    H214476   1.592   2.940  15.844  0.4569 -0.1813  0.8816
    6MPD2    H314477   1.524   2.704  15.830  0.9488 -1.6966 -0.5947
    6MPD2     N14478   1.839   2.597  15.532  0.3333 -0.2018 -0.0166
    6MPD2    H514479   1.798   2.504  15.536  0.2736 -0.1367  0.9917
    6MPD2    N114480   1.833   3.033  15.748 -0.4412  0.0628 -0.1060
    6MPD2    H714481   1.930   3.035  15.717 -0.4869  2.2548 -0.1096
  945NH4     N114482   2.834   4.050  10.894  0.0215 -0.1722 -0.3365
  945NH4     H214483   2.926   4.024  10.934  0.1353 -2.1212 -1.8596
  945NH4     H314484   2.792   3.959  10.865 -0.5596  0.1678 -0.5662
  945NH4     H414485   2.843   4.109  10.809 -2.0037 -0.7671 -0.9748
  945NH4     H514486   2.787   4.098  10.974 -0.0140  0.9851 -1.0469
  946SOD     NA14487   2.450   2.091   5.720 -0.4241  0.2583 -0.1827
  947SOD     NA14488   3.467   0.461  16.597  0.0935 -0.0477 -0.4988
  948SOD     NA14489   0.996   1.440  14.226 -0.2111  0.0640 -0.1364
  949SOD     NA14490   3.310   2.102  14.069 -0.0105 -0.4041 -0.3049
  950SOD     NA14491   1.892   1.233  10.054  0.1833 -0.0693 -0.3073
  951SOD     NA14492   4.439   1.453   4.356 -0.4415 -0.1471 -0.6396
  952SOD     NA14493   2.539   2.218  12.240 -0.9388  0.3359  0.3932
  953SOL     OW14494   3.141   1.687   3.246 -0.5894 -0.9813  0.1228
  953SOL    HW114495   3.124   1.598   3.276 -0.2758 -1.5878 -1.5129
  953SOL    HW214496   3.225   1.695   3.291 -0.7829 -0.3460  0.3706
  954SOL     OW14497   3.283   0.046   5.176  0.4348 -0.8081 -0.1526
  954SOL    HW114498   3.338   0.028   5.099  2.3300 -1.6660  1.3940
  954SOL    HW214499   3.336   0.085   5.244 -2.2595  2.5334  0.0011
  955SOL     OW14500   3.096   0.075  11.753 -0.2747  0.2572  0.0789
  955SOL    HW114501   3.106   4.726  11.718 -1.7650  0.3636 -0.6479
  955SOL    HW214502   3.040   0.109  11.683 -1.0281 -1.1041  0.0238
  956SOL     OW14503   2.512   3.231  12.041 -0.2797 -0.0385 -0.1862
  956SOL    HW114504   2.505   3.304  11.980  0.6124  2.1642  2.3414
  956SOL    HW214505   2.573   3.169  12.001 -0.3488 -1.4639  1.8962
  957SOL     OW14506   0.499   3.895   8.592  0.0010 -0.3482 -0.6000
  957SOL    HW114507   0.548   3.973   8.616 -0.0844 -0.4240 -0.1697
  957SOL    HW214508   0.420   3.905   8.646  0.3805 -2.0118  0.2565
  958SOL     OW14509   0.956   3.113   1.244 -0.0874 -0.4193 -0.3015
  958SOL    HW114510   0.986   3.080   1.159  0.9649 -0.8713  0.2546
  958SOL    HW214511   0.905   3.186   1.209 -0.0452 -0.7450 -1.0421
  959SOL     OW14512   3.984   2.147   9.094 -0.3012  0.6969 -0.1189
  959SOL    HW114513   3.998   2.144   9.188 -1.6149 -1.1329 -0.0059
  959SOL    HW214514   4.052   2.091   9.056  1.2772  2.7779 -0.3901
  960SOL     OW14515   2.441   2.830   8.252  0.4013  0.2705 -0.6145
  960SOL    HW114516   2.420   2.818   8.160 -1.8463 -2.6714  0.2732
  960SOL    HW214517   2.484   2.915   8.251 -0.3664  0.6595 -0.1969
  961SOL     OW14518   2.493   2.461  11.789 -0.3937 -0.3933 -0.4487
  961SOL    HW114519   2.471   2.375  11.824 -1.6028 -0.9435 -2.5510
  961SOL    HW214520   2.473   2.525  11.857  0.3879 -1.7677  1.0726
  962SOL     OW14521   0.557   4.618   7.626 -0.0928 -0.1899  0.5174
  962SOL    HW114522   0.589   4.707   7.612  0.7728 -0.5141  0.4469
  962SOL    HW214523   0.464   4.622   7.602 -0.4273  2.6382  2.3036
  963SOL     OW14524   2.192   4.509   8.174 -0.0815 -0.3261 -0.2131
  963SOL    HW114525   2.097   4.506   8.187  0.1488 -1.4184  1.3035
  963SOL    HW214526   2.202   4.571   8.102 -4.2561  0.5981  0.0089
  964SOL     OW14527   2.484   0.096   0.751 -0.1110  0.0374  0.0706
  964SOL    HW114528   2.578   0.096   0.734 -0.4701 -0.9111 -1.9124
  964SOL    HW214529   2.476   0.085   0.846  1.4424  1.2034  0.3454
  965SOL     OW14530   0.267   0.909   5.390 -0.0396  0.0128  0.4882
  965SOL    HW114531   0.297   0.919   5.480 -1.5500  0.1789  0.9625
  965SOL    HW214532   0.186   0.959   5.395 -0.2563 -0.2836 -0.0694
  966SOL     OW14533   1.283   0.294   4.792  0.5904 -0.2620 -0.0411
  966SOL    HW114534   1.208   0.341   4.826 -0.0966 -1.6998  0.4456
  966SOL    HW214535   1.242   0.253   4.715  0.5756 -1.5662  0.6541
  967SOL     OW14536   0.650   4.550  14.431 -0.0953  0.6698 -0.4379
  967SOL    HW114537   0.722   4.526  14.373 -0.6476 -0.3429 -0.7106
  967SOL    HW214538   0.584   4.480  14.428 -0.6392  1.1657  0.0120
  968SOL     OW14539   0.676   0.828  15.117  0.0674 -0.0154 -0.7550
  968SOL    HW114540   0.701   0.737  15.129 -0.9211 -0.1242  0.5420
  968SOL    HW214541   0.616   0.827  15.043  1.2567 -1.5630 -1.6827
  969SOL     OW14542   3.046   3.139   3.046 -0.9140  0.0444 -0.3402
  969SOL    HW114543   3.076   3.228   3.028  2.0516 -0.9557 -0.4135
  969SOL    HW214544   3.111   3.114   3.111  0.2975 -1.0500 -1.9510
  970SOL     OW14545   2.888   3.524   1.973 -0.1845 -0.0675 -0.2474
  970SOL    HW114546   2.840   3.458   1.924 -0.3465  0.2784 -0.5592
  970SOL    HW214547   2.955   3.471   2.017 -0.5830 -0.7686 -0.4904
  971SOL     OW14548   3.292   4.195   7.198  0.1935  0.3946  0.4752
  971SOL    HW114549   3.258   4.285   7.194 -0.7213 -0.0592 -2.0077
  971SOL    HW214550   3.327   4.190   7.287  0.5030  1.4326  0.4173
  972SOL     OW14551   1.313   0.959   5.246  0.7267 -0.0074  0.5173
  972SOL    HW114552   1.277   0.873   5.265  1.7358 -0.5891 -0.1770
  972SOL    HW214553   1.404   0.932   5.257  1.3236  2.5782  1.9046
  973SOL     OW14554   3.684   1.604   5.130  0.2342 -0.1135 -0.1800
  973SOL    HW114555   3.714   1.637   5.214 -3.4004  0.3847  0.8843
  973SOL    HW214556   3.759   1.613   5.071  1.0993 -1.2012  0.7507
  974SOL     OW14557   0.118   3.184   1.437 -0.0675  0.3514  0.3470
  974SOL    HW114558   0.111   3.273   1.472 -3.6541  0.0691  0.3600
  974SOL    HW214559   0.192   3.198   1.378 -1.0732  2.0815 -0.4989
  975SOL     OW14560   3.699   0.253  11.048 -0.1245  0.2172  0.6458
  975SOL    HW114561   3.748   0.272  11.128  1.8680 -1.7287 -0.1052
  975SOL    HW214562   3.777   0.231  10.996 -0.6880 -0.3717  0.0480
  976SOL     OW14563   2.480   0.563   3.142 -0.2036 -0.3262 -0.0733
  976SOL    HW114564   2.521   0.485   3.180 -1.1966 -2.2581 -2.8816
  976SOL    HW214565   2.477   0.627   3.213 -1.3464  0.1991 -0.6020
  977SOL     OW14566   4.225   3.884   5.064 -0.1689  0.4154 -0.5439
  977SOL    HW114567   4.296   3.866   5.002  0.7053 -0.5929  0.7780
  977SOL    HW214568   4.263   3.854   5.146 -0.9980 -0.0475 -0.3275
  978SOL     OW14569   2.648   3.574   6.023  0.4713  0.2703 -0.8094
  978SOL    HW114570   2.676   3.546   5.935 -0.2798  1.2325 -1.3581
  978SOL    HW214571   2.575   3.633   6.005 -2.2686 -3.5764 -2.1080
  979SOL     OW14572   3.000   0.151   6.972 -0.1733 -0.4425 -1.1261
  979SOL    HW114573   2.933   0.100   7.017  0.2729  2.1684  2.4906
  979SOL    HW214574   3.048   0.087   6.919  1.7136 -2.2644  2.6805
  980SOL     OW14575   0.430   2.705   7.129  0.7504  0.5727  0.7000
  980SOL    HW114576   0.377   2.625   7.128  3.1066 -1.0601  4.2633
  980SOL    HW214577   0.516   2.681   7.164  0.0232 -1.3917  1.1619
  981SOL     OW14578   2.050   1.977   9.437 -0.3953 -0.3177 -0.5501
  981SOL    HW114579   2.080   2.020   9.517  1.0814 -1.1362 -0.6735
  981SOL    HW214580   2.138   1.957   9.406 -0.4070  0.6619 -1.2138
  982SOL     OW14581   3.421   3.348  16.078 -0.1369  0.0294  0.1050
  982SOL    HW114582   3.432   3.435  16.118  1.9923 -1.0439  1.8714
  982SOL    HW214583   3.447   3.363  15.987  0.5251  0.3783  0.3528
  983SOL     OW14584   3.352   1.255   9.128  0.0646 -0.0920  0.5981
  983SOL    HW114585   3.269   1.255   9.079  0.7431  1.1721 -0.5451
  983SOL    HW214586   3.340   1.170   9.170 -0.3448  0.6773  2.0245
  984SOL     OW14587   2.446   1.826   3.788 -0.5539 -0.2659  0.2342
  984SOL    HW114588   2.359   1.824   3.749 -0.6070 -2.3863  0.4522
  984SOL    HW214589   2.462   1.920   3.790 -1.0244 -0.1299 -2.6491
  985SOL     OW14590   2.268   4.513   8.662 -0.1404  0.5555 -0.3324
  985SOL    HW114591   2.308   4.591   8.624 -0.5945  0.8875 -0.1184
  985SOL    HW214592   2.178   4.520   8.630 -0.5529 -1.1496  0.4649
  986SOL     OW14593   2.196   4.024   1.061  0.4693  0.0558  0.1051
  986SOL    HW114594   2.213   4.032   1.154  0.6083  1.6535 -0.0555
  986SOL    HW214595   2.101   4.031   1.052  0.7507  0.9843 -2.1909
  987SOL     OW14596   0.411   2.358  17.358  0.0875 -0.1908 -0.3236
  987SOL    HW114597   0.427   2.433  17.416 -0.4474  0.4454 -0.9982
  987SOL    HW214598   0.489   2.305  17.376 -1.9809 -3.6585 -1.7087
  988SOL     OW14599   0.605   1.243   1.198  0.1720 -0.0128  0.0802
  988SOL    HW114600   0.557   1.265   1.278  1.4873  0.1122  0.8293
  988SOL    HW214601   0.666   1.317   1.204  0.1433 -0.1001  1.4581
  989SOL     OW14602   2.986   1.282   5.333 -0.2638 -0.3947  0.2602
  989SOL    HW114603   2.891   1.294   5.328 -0.1528  0.5535  0.4385
  989SOL    HW214604   3.003   1.363   5.382  1.3526  0.3937 -1.6170
  990SOL     OW14605   3.917   0.872   4.941  0.4492  0.1605 -0.4071
  990SOL    HW114606   3.908   0.804   4.875  0.5055 -0.9821  0.7682
  990SOL    HW214607   3.859   0.942   4.910 -0.3086 -0.5143 -0.5089
  991SOL     OW14608   0.941   2.606   7.158  0.0457  0.4006 -0.0812
  991SOL    HW114609   0.960   2.630   7.068 -0.2130  1.2742  0.0935
  991SOL    HW214610   1.031   2.599   7.190 -0.0055  0.1275  0.0042
  992SOL     OW14611   1.412   0.001   2.804 -0.2331 -0.1934 -0.0125
  992SOL    HW114612   1.502   0.015   2.775 -0.1161 -1.8550 -0.4353
  992SOL    HW214613   1.409   4.645   2.800 -0.4323 -0.2544  1.8501
  993SOL     OW14614   0.014   0.184  15.857  0.1429 -0.0883  0.1288
  993SOL    HW114615   0.083   0.209  15.919  0.0902 -2.4851  1.1924
  993SOL    HW214616   4.699   0.263  15.862  1.6427  0.9659 -0.3314
  994SOL     OW14617   2.066   2.730  17.485  0.2351 -0.6104  0.4954
  994SOL    HW114618   2.068   2.635  17.473  2.1306 -0.8225  2.4997
  994SOL    HW214619   2.017   2.765  17.411 -0.9379 -0.9799  1.0881
  995SOL     OW14620   3.351   1.765   6.484  0.0221 -0.1988  0.1370
  995SOL    HW114621   3.266   1.772   6.526  0.3104  0.2047  0.6572
  995SOL    HW214622   3.321   1.759   6.393  1.0889  2.0812 -0.3910
  996SOL     OW14623   1.229   3.540   6.511  0.2792 -0.3850  0.4130
  996SOL    HW114624   1.178   3.560   6.432 -1.1005 -2.0772  0.8923
  996SOL    HW214625   1.159   3.538   6.576 -1.6827  0.0539 -1.6725
  997SOL     OW14626   3.661   4.005  14.194 -0.4435  0.2152 -0.1629
  997SOL    HW114627   3.570   4.026  14.213 -1.2894 -2.0660 -1.7878
  997SOL    HW214628   3.708   4.088  14.203 -1.4792  0.5185  2.4697
  998SOL     OW14629   0.588   3.483   5.113 -0.1657  0.8862  0.5362
  998SOL    HW114630   0.650   3.441   5.054  0.3630  0.1033  1.6428
  998SOL    HW214631   0.600   3.421   5.185  1.0602  0.2107 -0.2432
  999SOL     OW14632   3.692   0.685   9.606  0.0021 -0.2893  0.0960
  999SOL    HW114633   3.763   0.696   9.543  0.0194  0.1149  0.1827
  999SOL    HW214634   3.698   0.759   9.667  1.1553  0.5755 -1.0652
 1000SOL     OW14635   0.213   4.431   4.452  0.0324  0.0515 -0.1254
 1000SOL    HW114636   0.278   4.405   4.387 -0.1236  0.1396 -0.3182
 1000SOL    HW214637   0.225   4.524   4.433  0.5212  0.1695  0.7380
 1001SOL     OW14638   2.538   3.933   7.627 -0.3869  0.1235  0.4119
 1001SOL    HW114639   2.469   3.902   7.568 -1.9923  1.3861  1.6396
 1001SOL    HW214640   2.497   3.985   7.695  0.2960 -0.0448  0.9519
 1002SOL     OW14641   4.193   3.552  17.431 -0.2634  0.6292  0.0338
 1002SOL    HW114642   4.133   3.542  17.357 -0.2991  2.4645 -0.1917
 1002SOL    HW214643   4.248   3.624  17.401  0.7655 -0.7411 -1.3379
 1003SOL     OW14644   4.262   4.132  12.235  0.1976 -0.6643  0.7075
 1003SOL    HW114645   4.272   4.194  12.163 -0.0170 -0.6834  0.6596
 1003SOL    HW214646   4.299   4.055  12.191  0.2326 -0.9376  1.2185
 1004SOL     OW14647   3.832   0.082   4.967 -0.4893 -0.0296  0.1053
 1004SOL    HW114648   3.892   0.137   4.917 -0.5416  1.8904  2.1323
 1004SOL    HW214649   3.889   0.068   5.043  0.5351 -1.8902 -1.0244
 1005SOL     OW14650   1.901   1.915  14.518  0.1537  0.9436  0.3253
 1005SOL    HW114651   1.850   1.968  14.580 -0.2536  0.8848  0.0414
 1005SOL    HW214652   1.973   1.876  14.567  0.4243  0.9297 -0.0835
 1006SOL     OW14653   3.179   3.388   5.299 -0.1009 -0.1937 -0.2567
 1006SOL    HW114654   3.153   3.437   5.377 -0.6732  0.0309 -0.5840
 1006SOL    HW214655   3.250   3.436   5.256  0.5604  0.6824  1.7985
 1007SOL     OW14656   0.682   2.795   3.731 -0.4132  0.0407 -0.2107
 1007SOL    HW114657   0.697   2.880   3.690 -1.1795  0.0813 -0.4134
 1007SOL    HW214658   0.641   2.819   3.814 -1.4966 -3.5486  0.2780
 1008SOL     OW14659   0.382   3.703  12.262  0.0135  0.1904 -0.3836
 1008SOL    HW114660   0.332   3.641  12.316  1.9264 -0.6958  0.3695
 1008SOL    HW214661   0.302   3.751  12.240  1.6505  3.1365 -0.0047
 1009SOL     OW14662   1.017   4.538   9.142  0.4898 -0.6203 -0.6192
 1009SOL    HW114663   0.963   4.587   9.203  2.9340  0.7916  0.4053
 1009SOL    HW214664   0.992   4.446   9.135 -0.1799 -0.4792 -0.1149
 1010SOL     OW14665   1.002   3.666   2.796 -0.0272  0.2987  0.3024
 1010SOL    HW114666   1.045   3.630   2.719 -1.8695 -1.2473 -0.0094
 1010SOL    HW214667   0.942   3.594   2.812 -1.8562  1.7286 -0.0938
 1011SOL     OW14668   1.045   4.100   0.259  0.0632 -0.2574  0.2321
 1011SOL    HW114669   1.067   4.154   0.183 -1.4646  1.8247  1.2662
 1011SOL    HW214670   1.094   4.019   0.246  1.0292  0.2601  0.6519
 1012SOL     OW14671   2.076   3.911   4.685 -0.2966 -0.1684 -0.0149
 1012SOL    HW114672   2.002   3.891   4.742 -0.4839 -1.7324 -0.8148
 1012SOL    HW214673   2.116   3.985   4.731 -0.0895 -0.3887  0.1601
 1013SOL     OW14674   1.356   0.830   9.104 -0.1646 -0.0922  0.2740
 1013SOL    HW114675   1.280   0.858   9.154  0.8258  2.5956  0.3236
 1013SOL    HW214676   1.339   0.871   9.019 -2.1411 -0.1529  0.6397
 1014SOL     OW14677   1.012   4.567   3.444  0.1219  0.2054 -0.3482
 1014SOL    HW114678   1.068   4.580   3.368  1.8938 -0.0133  0.9249
 1014SOL    HW214679   1.069   4.537   3.515  0.6534  2.4822  0.1928
 1015SOL     OW14680   2.022   4.695   4.531 -0.2680 -0.2657  0.6036
 1015SOL    HW114681   2.041   4.603   4.550  1.7570  0.3515  1.5606
 1015SOL    HW214682   1.959   4.701   4.602  0.0532  1.9168  0.7072
 1016SOL     OW14683   0.216   0.228  14.491 -0.7662  0.1348  0.2344
 1016SOL    HW114684   0.263   0.275  14.559 -1.6849  0.3460  0.7285
 1016SOL    HW214685   0.129   0.264  14.507 -0.1720  1.4496  0.4497
 1017SOL     OW14686   2.787   0.331   9.057  0.6550 -0.2085 -0.6593
 1017SOL    HW114687   2.728   0.263   9.090 -0.0790  1.4133  1.3541
 1017SOL    HW214688   2.777   0.403   9.118  0.2928  0.3905 -1.4203
 1018SOL     OW14689   0.326   2.989   8.352  0.2434  0.1194  0.0529
 1018SOL    HW114690   0.232   2.987   8.337  0.4791  1.4719 -1.5880
 1018SOL    HW214691   0.319   3.046   8.429 -0.7205 -1.6224  1.2421
 1019SOL     OW14692   3.733   1.856   9.400 -0.0511 -0.4829 -0.4026
 1019SOL    HW114693   3.793   1.846   9.473  0.5658  0.3333 -0.8101
 1019SOL    HW214694   3.756   1.780   9.345  0.6097  0.3301 -1.2402
 1020SOL     OW14695   2.440   1.020   6.379  0.1746 -0.1554 -0.3207
 1020SOL    HW114696   2.401   1.052   6.460  0.2463 -1.7248  0.3225
 1020SOL    HW214697   2.381   1.053   6.311  0.5724  0.9020 -0.1578
 1021SOL     OW14698   0.542   3.455  11.224 -0.4474 -0.4069  0.1862
 1021SOL    HW114699   0.535   3.440  11.319 -0.3586 -2.7699 -0.1959
 1021SOL    HW214700   0.637   3.456  11.223 -0.4833 -0.5829 -2.3024
 1022SOL     OW14701   2.236   3.441   5.255  0.1133  0.7544  0.2783
 1022SOL    HW114702   2.156   3.433   5.307  1.0165 -0.1509  1.5252
 1022SOL    HW214703   2.273   3.357   5.283  0.6563  1.1429  0.7195
 1023SOL     OW14704   4.019   0.195  10.614  0.3172  0.2866  0.5894
 1023SOL    HW114705   3.996   0.113  10.571 -0.3164 -0.7776  2.9643
 1023SOL    HW214706   4.111   0.202  10.587 -0.5113  1.2923 -2.0402
 1024SOL     OW14707   0.563   3.631  12.920 -0.0607  0.3655  0.1933
 1024SOL    HW114708   0.647   3.586  12.928  0.2450  0.9158  0.0360
 1024SOL    HW214709   0.548   3.661  13.009  0.2256  2.4200 -0.4624
 1025SOL     OW14710   0.089   1.741  11.447  0.4362  0.2412 -0.2424
 1025SOL    HW114711   0.003   1.781  11.431 -0.6076 -2.2628 -0.9028
 1025SOL    HW214712   0.083   1.649  11.421 -2.1385  0.3070  0.1301
 1026SOL     OW14713   2.071   0.976   3.604 -0.1496  0.0174 -0.2633
 1026SOL    HW114714   2.093   0.884   3.620  0.5852  0.7928  3.1378
 1026SOL    HW214715   1.985   0.984   3.645  0.0686 -1.2332  0.4460
 1027SOL     OW14716   1.856   3.445   4.559  0.0916  0.2850  0.5404
 1027SOL    HW114717   1.855   3.529   4.605  3.7449 -0.6993  2.3604
 1027SOL    HW214718   1.930   3.468   4.503 -1.4548 -1.5000 -2.2535
 1028SOL     OW14719   1.099   2.203   8.411 -0.6120 -0.4629 -0.5827
 1028SOL    HW114720   1.108   2.290   8.371  1.8832 -0.4727 -0.0374
 1028SOL    HW214721   1.189   2.180   8.434 -0.6720  2.1556  2.3694
 1029SOL     OW14722   1.525   2.921  13.357 -0.2807  0.0881  0.0745
 1029SOL    HW114723   1.606   2.886  13.393 -1.1219 -0.8397  1.0783
 1029SOL    HW214724   1.469   2.844  13.364 -1.5377  1.0377  0.3765
 1030SOL     OW14725   4.648   1.086  15.515  0.0349 -0.7090 -0.7122
 1030SOL    HW114726   4.623   1.065  15.605 -3.5281  0.0256 -1.5353
 1030SOL    HW214727   4.710   1.014  15.501  0.1073 -0.4818 -1.5498
 1031SOL     OW14728   0.483   0.372  15.170 -0.2323 -0.0712  0.1848
 1031SOL    HW114729   0.443   0.296  15.213 -0.5106  0.8663  1.5361
 1031SOL    HW214730   0.406   0.428  15.179 -1.2364 -1.6221  1.4408
 1032SOL     OW14731   1.286   0.877   0.415  0.4665 -0.0570  0.0998
 1032SOL    HW114732   1.202   0.831   0.423  0.4064  0.2287  1.0578
 1032SOL    HW214733   1.304   0.845   0.326  2.3604  0.4162  0.3245
 1033SOL     OW14734   0.088   0.127   7.754  0.3129 -0.0876 -0.5461
 1033SOL    HW114735   0.165   0.092   7.799 -0.3478 -0.5694  0.2183
 1033SOL    HW214736   0.116   0.130   7.662  1.2399  5.2271 -0.0960
 1034SOL     OW14737   2.376   1.704  17.148  0.3790  0.1902  0.3656
 1034SOL    HW114738   2.286   1.731  17.130  0.5114  2.0690  2.5883
 1034SOL    HW214739   2.396   1.638  17.081  1.7582  0.9978 -0.0217
 1035SOL     OW14740   0.981   4.667   7.520  0.1201 -0.0131 -0.3291
 1035SOL    HW114741   1.045   4.689   7.588  0.4256 -1.6201 -0.1115
 1035SOL    HW214742   0.901   4.677   7.572 -0.1233 -2.1011 -0.3321
 1036SOL     OW14743   4.281   2.429   0.747  0.6937 -0.1896 -0.5407
 1036SOL    HW114744   4.239   2.460   0.667  0.8244  1.0814 -0.1189
 1036SOL    HW214745   4.348   2.496   0.761  0.6489 -0.6511  1.9956
 1037SOL     OW14746   3.761   3.885   4.310 -0.7270  0.4273 -0.4116
 1037SOL    HW114747   3.837   3.834   4.336 -2.4875 -2.0632 -0.1208
 1037SOL    HW214748   3.802   3.931   4.237 -1.5698  2.3312  0.3145
 1038SOL     OW14749   1.110   1.072   9.402  0.1443  0.0677  0.2604
 1038SOL    HW114750   1.150   1.073   9.489  0.0903  0.3508  0.2820
 1038SOL    HW214751   1.022   1.043   9.426  0.0636  0.8186  0.8450
 1039SOL     OW14752   0.420   4.451   2.220  0.4993  0.3640 -0.1821
 1039SOL    HW114753   0.389   4.360   2.224  0.3135  0.4443  0.2012
 1039SOL    HW214754   0.366   4.473   2.144  0.2004  0.3166  0.0139
 1040SOL     OW14755   2.853   3.299   4.744  0.1170 -0.0932  0.2674
 1040SOL    HW114756   2.807   3.217   4.761  1.3765 -0.4888  1.8167
 1040SOL    HW214757   2.806   3.363   4.798  0.1204  0.4614 -0.3992
 1041SOL     OW14758   3.836   0.953   4.551 -0.2007 -0.5346  0.4746
 1041SOL    HW114759   3.744   0.976   4.538 -0.1076  0.1864  1.1363
 1041SOL    HW214760   3.870   0.976   4.465  1.7886 -0.0900  1.3748
 1042SOL     OW14761   3.112   4.586   7.945  0.7845  0.4583 -0.4515
 1042SOL    HW114762   3.141   4.677   7.935  0.6437  0.4391 -1.0127
 1042SOL    HW214763   3.054   4.585   8.021  1.1486 -1.4522 -0.1971
 1043SOL     OW14764   4.572   0.778  12.785  0.0006  0.3981 -0.1559
 1043SOL    HW114765   4.654   0.824  12.766  0.7134 -0.0635  1.7671
 1043SOL    HW214766   4.603   0.690  12.766 -1.6227 -0.3414  0.6078
 1044SOL     OW14767   3.363   2.142   1.927  0.1124  0.1687 -1.1397
 1044SOL    HW114768   3.329   2.054   1.912  0.6394 -0.2433  0.0341
 1044SOL    HW214769   3.415   2.103   1.997  0.6849 -0.8336 -2.1295
 1045SOL     OW14770   0.337   2.627   0.444  0.0169  0.1840  0.0467
 1045SOL    HW114771   0.406   2.563   0.461 -0.8859 -0.5192  1.0616
 1045SOL    HW214772   0.387   2.708   0.444 -1.5527  1.1435  0.0545
 1046SOL     OW14773   3.880   0.595  12.975  0.4851  0.1902  0.3358
 1046SOL    HW114774   3.875   0.613  13.069 -0.8934 -0.8722  0.4621
 1046SOL    HW214775   3.960   0.544  12.970  1.4855  1.8906 -1.0478
 1047SOL     OW14776   0.238   0.567   8.212  0.1066  0.1046 -0.0613
 1047SOL    HW114777   0.268   0.496   8.156  0.3592 -0.6280  0.9988
 1047SOL    HW214778   0.244   0.638   8.149  1.8421  1.4034  1.5617
 1048SOL     OW14779   3.628   3.186  16.629 -0.2229  0.1039  0.2459
 1048SOL    HW114780   3.696   3.144  16.576 -2.0036  1.5173 -3.1455
 1048SOL    HW214781   3.632   3.119  16.698  0.0696 -1.1999 -1.0458
 1049SOL     OW14782   0.580   0.733   3.656  0.0610  0.3090  0.7001
 1049SOL    HW114783   0.568   0.812   3.709 -4.9254  0.3154 -0.3879
 1049SOL    HW214784   0.600   0.763   3.567 -0.0069 -2.9695 -0.3949
 1050SOL     OW14785   0.523   1.001   6.261  0.0507 -0.0218 -0.2401
 1050SOL    HW114786   0.579   1.071   6.227 -0.8482  0.4800 -0.6755
 1050SOL    HW214787   0.450   1.060   6.279 -0.1474  0.4224 -2.4390
 1051SOL     OW14788   2.944   1.548  10.155  0.5601  0.2606  0.9245
 1051SOL    HW114789   2.918   1.569  10.066 -0.3204 -2.1173  0.6160
 1051SOL    HW214790   2.894   1.617  10.198 -1.4915 -0.0396 -1.0193
 1052SOL     OW14791   2.586   3.029   1.779 -0.6301 -0.0290  0.8854
 1052SOL    HW114792   2.570   3.071   1.695  1.2825  1.3523  1.2034
 1052SOL    HW214793   2.539   2.946   1.769  1.0454 -0.5622 -2.4500
 1053SOL     OW14794   0.912   3.521  15.793 -0.0375  0.3961  0.2942
 1053SOL    HW114795   0.928   3.569  15.711  2.7727 -0.0528  0.5804
 1053SOL    HW214796   0.925   3.433  15.758 -0.5380  0.2397  0.5107
 1054SOL     OW14797   1.274   3.237  17.356 -0.0725 -0.6635 -0.2544
 1054SOL    HW114798   1.307   3.182  17.427  2.6384  0.8842 -0.3104
 1054SOL    HW214799   1.320   3.316  17.384  1.0293 -1.0637 -0.9185
 1055SOL     OW14800   4.277   4.141   3.993 -0.2498  0.7199 -0.0915
 1055SOL    HW114801   4.214   4.151   3.922 -0.7767  1.3009  0.4599
 1055SOL    HW214802   4.257   4.215   4.050  0.5533  0.5151  0.4576
 1056SOL     OW14803   1.640   3.491   1.614  0.2060  0.0925 -0.3719
 1056SOL    HW114804   1.649   3.478   1.708  0.0089  1.8554 -0.1033
 1056SOL    HW214805   1.573   3.427   1.590  2.3744 -1.1648 -3.1420
 1057SOL     OW14806   0.569   2.031   3.361 -0.1496  0.5791 -0.1892
 1057SOL    HW114807   0.645   1.977   3.342 -0.1671 -0.0499  1.5541
 1057SOL    HW214808   0.571   2.095   3.289  0.6911  0.5794 -0.1658
 1058SOL     OW14809   3.553   0.778  13.721 -0.3485  0.0084  0.9276
 1058SOL    HW114810   3.646   0.779  13.701 -0.2772 -0.6905  1.2191
 1058SOL    HW214811   3.540   0.869  13.749 -1.0192  1.2794 -3.5912
 1059SOL     OW14812   1.674   4.208   7.553  0.2438 -0.2408  0.1340
 1059SOL    HW114813   1.578   4.207   7.549  0.3911 -1.2244 -2.6137
 1059SOL    HW214814   1.701   4.260   7.478  0.7043 -0.5011  0.1182
 1060SOL     OW14815   1.334   4.199   8.241 -0.0738 -0.0085  0.0099
 1060SOL    HW114816   1.317   4.252   8.319 -0.3115 -1.2244  0.7958
 1060SOL    HW214817   1.254   4.149   8.225 -0.0661  0.0613 -0.2504
 1061SOL     OW14818   3.713   1.409   8.403  0.5221  0.2461  0.0328
 1061SOL    HW114819   3.690   1.395   8.311  1.2186  0.0785 -0.1157
 1061SOL    HW214820   3.788   1.466   8.386  0.0661  0.8846  0.1904
 1062SOL     OW14821   2.956   2.338   3.645 -0.5937 -0.4168 -0.2569
 1062SOL    HW114822   2.898   2.330   3.720  0.9440 -1.8200  0.7844
 1062SOL    HW214823   2.988   2.249   3.628 -0.0388 -0.0530 -1.1067
 1063SOL     OW14824   1.966   0.485   5.243  0.3733  0.6910 -0.3940
 1063SOL    HW114825   1.929   0.536   5.171  0.7505  2.3413  0.5715
 1063SOL    HW214826   1.990   0.401   5.204  1.4110  0.7903  0.0410
 1064SOL     OW14827   1.099   1.552  13.799 -0.2930 -0.1126 -0.0265
 1064SOL    HW114828   1.065   1.517  13.881 -0.0034  1.2597  0.6893
 1064SOL    HW214829   1.117   1.644  13.817  0.3488 -0.7040  2.2862
 1065SOL     OW14830   3.440   2.118  10.541  0.2940 -0.1556  0.2183
 1065SOL    HW114831   3.353   2.149  10.568 -0.0439 -0.7507 -0.1862
 1065SOL    HW214832   3.493   2.163  10.607 -0.7425 -1.3175  1.8266
 1066SOL     OW14833   4.204   2.142   9.320  0.2160  0.5318  0.3985
 1066SOL    HW114834   4.132   2.176   9.372 -0.2846 -1.2950  0.9185
 1066SOL    HW214835   4.231   2.229   9.293  2.2160 -0.9974 -2.6083
 1067SOL     OW14836   3.932   1.729   4.706 -0.1246 -0.5123 -0.9303
 1067SOL    HW114837   3.977   1.813   4.706 -1.9936  0.4816  0.6086
 1067SOL    HW214838   3.958   1.695   4.620 -1.5532 -1.1420 -1.1031
 1068SOL     OW14839   3.726   3.593   2.216  0.2537 -0.1317 -0.2326
 1068SOL    HW114840   3.642   3.633   2.239  0.5274  1.1180 -1.4347
 1068SOL    HW214841   3.745   3.563   2.305 -3.8334  1.6969  1.2471
 1069SOL     OW14842   2.123   0.020  12.954  0.4474 -1.1627  0.3696
 1069SOL    HW114843   2.150   4.714  12.874  1.1121 -0.4744  0.2130
 1069SOL    HW214844   2.191   4.733  13.016  2.5988  2.5366 -0.4711
 1070SOL     OW14845   2.451   2.266   9.033  0.2206  0.4310  0.3814
 1070SOL    HW114846   2.459   2.261   9.129 -0.0612  0.1364  0.3904
 1070SOL    HW214847   2.504   2.342   9.011  1.3815 -0.7291 -0.7937
 1071SOL     OW14848   1.535   3.259  15.419  0.2367 -0.4775  0.4276
 1071SOL    HW114849   1.521   3.338  15.471  0.9919  1.2609 -2.0347
 1071SOL    HW214850   1.516   3.187  15.479  2.8299 -1.0028  0.6318
 1072SOL     OW14851   0.324   4.364   9.388 -0.5874  0.3896  0.0553
 1072SOL    HW114852   0.296   4.352   9.479  0.6090 -2.7579 -0.0182
 1072SOL    HW214853   0.241   4.343   9.345  0.1584 -0.3137 -1.0159
 1073SOL     OW14854   0.652   0.411  17.061  0.3588  0.2751 -0.0932
 1073SOL    HW114855   0.638   0.473  16.989  2.1306  0.1033 -0.5728
 1073SOL    HW214856   0.602   0.343  17.017 -1.8638  0.4750  2.1119
 1074SOL     OW14857   1.643   0.651   0.399  0.3995  0.0996  0.0562
 1074SOL    HW114858   1.714   0.593   0.427 -1.3948 -1.7650  0.7401
 1074SOL    HW214859   1.641   0.632   0.305 -1.5003 -0.7115  0.2595
 1075SOL     OW14860   1.961   0.585   1.001  0.3815  0.2352  0.0237
 1075SOL    HW114861   1.887   0.644   1.012 -0.2539 -0.1935 -2.0510
 1075SOL    HW214862   1.961   0.546   1.089  2.1333  2.0319  0.8334
 1076SOL     OW14863   3.271   1.976   3.525 -0.0664 -0.1193  0.2183
 1076SOL    HW114864   3.234   2.047   3.472 -0.2184  1.0157  1.8557
 1076SOL    HW214865   3.362   2.006   3.532 -0.1616  0.3821 -0.6905
 1077SOL     OW14866   1.730   3.072   0.062  0.4364 -0.1052  0.5566
 1077SOL    HW114867   1.739   2.991   0.113 -2.0710  0.4493  1.9113
 1077SOL    HW214868   1.727   3.132   0.136  1.1701  0.8512 -0.1991
 1078SOL     OW14869   3.457   4.476   7.872  0.0558  0.3107  0.1549
 1078SOL    HW114870   3.471   4.419   7.948  0.1350 -0.2386 -0.2729
 1078SOL    HW214871   3.365   4.454   7.862 -0.9192  3.6536  1.6102
 1079SOL     OW14872   0.375   0.323  15.606 -0.0410  0.2824 -0.1904
 1079SOL    HW114873   0.357   0.378  15.682  1.3599 -0.4832  0.6914
 1079SOL    HW214874   0.309   0.256  15.622  0.1275  0.6448  2.0672
 1080SOL     OW14875   1.028   0.883  10.157 -0.0053 -0.0524 -0.4552
 1080SOL    HW114876   1.110   0.837  10.141  0.6424  0.6252  0.8746
 1080SOL    HW214877   0.958   0.818  10.159 -1.4480  1.5049  0.3443
 1081SOL     OW14878   4.290   4.378   5.201 -0.1837  0.3402  0.7366
 1081SOL    HW114879   4.200   4.363   5.231 -0.5374  0.0111 -0.4952
 1081SOL    HW214880   4.344   4.333   5.266  0.0860  0.7740  0.8152
 1082SOL     OW14881   1.717   3.033   0.529  0.1759  0.4601  0.2901
 1082SOL    HW114882   1.729   2.981   0.609 -0.7739  0.7924  0.6507
 1082SOL    HW214883   1.657   2.975   0.483 -0.1071  0.9078  0.1039
 1083SOL     OW14884   4.699   2.772   0.658  0.1375 -0.1748 -0.6609
 1083SOL    HW114885   4.631   2.798   0.596 -1.3215  0.4660  1.1897
 1083SOL    HW214886   4.737   2.857   0.681  1.0422 -0.4167 -1.2849
 1084SOL     OW14887   3.126   1.615  13.317 -0.3431  0.1707  0.2832
 1084SOL    HW114888   3.038   1.633  13.285 -1.1600  0.2967  2.5741
 1084SOL    HW214889   3.172   1.670  13.254  0.6108 -2.3531 -1.2470
 1085SOL     OW14890   0.683   4.084   8.627 -0.2954  0.7177 -0.2050
 1085SOL    HW114891   0.701   4.177   8.615  1.0419  0.6984  1.5776
 1085SOL    HW214892   0.748   4.054   8.563  0.9984  1.0850  0.9197
 1086SOL     OW14893   0.815   3.488  11.220  0.4494  0.4565  0.9076
 1086SOL    HW114894   0.869   3.415  11.251 -0.5039  0.2142  1.9884
 1086SOL    HW214895   0.882   3.549  11.191  0.7353 -0.0833  0.4128
 1087SOL     OW14896   2.309   2.635   8.674  0.4640 -0.1056  0.1149
 1087SOL    HW114897   2.278   2.687   8.600  0.3512 -0.7878 -0.3220
 1087SOL    HW214898   2.237   2.637   8.737 -0.5654 -0.9891 -1.0356
 1088SOL     OW14899   3.956   3.630   5.627  0.3116 -0.3495  0.7250
 1088SOL    HW114900   3.881   3.675   5.668  1.8582  1.1179  1.9317
 1088SOL    HW214901   4.013   3.590   5.692  0.5318 -0.6810  0.3253
 1089SOL     OW14902   2.272   0.751  12.644  0.3025 -0.3118  0.0773
 1089SOL    HW114903   2.231   0.677  12.688  0.0065 -1.0428 -1.4170
 1089SOL    HW214904   2.205   0.818  12.656  1.0738  0.0679  2.1849
 1090SOL     OW14905   3.644   3.177   2.722 -0.0798  0.1907 -0.2240
 1090SOL    HW114906   3.584   3.131   2.663  1.1618 -0.4983 -0.9477
 1090SOL    HW214907   3.700   3.101   2.740 -1.7179 -1.2797 -1.2564
 1091SOL     OW14908   4.426   4.706   4.381 -0.1361  0.3424 -0.1284
 1091SOL    HW114909   4.377   0.049   4.386 -1.9375 -0.7118 -0.7384
 1091SOL    HW214910   4.513   0.003   4.400  0.4647 -0.4925 -1.2896
 1092SOL     OW14911   1.176   1.422   5.001 -0.3665 -0.0570 -0.2628
 1092SOL    HW114912   1.190   1.479   4.925 -1.3530  0.9302  0.2945
 1092SOL    HW214913   1.164   1.487   5.070  0.7232 -1.2563  1.0510
 1093SOL     OW14914   1.860   3.548   5.125  0.0135 -0.3644 -0.4694
 1093SOL    HW114915   1.777   3.558   5.079  0.4779  1.7477 -0.8568
 1093SOL    HW214916   1.873   3.458   5.094  1.1894 -0.4294  0.1898
 1094SOL     OW14917   0.479   2.574   4.645  0.2905  0.0561 -0.2934
 1094SOL    HW114918   0.464   2.535   4.558 -3.1953  2.3376 -0.7290
 1094SOL    HW214919   0.496   2.665   4.623 -0.3215  0.0018 -1.0095
 1095SOL     OW14920   3.915   1.753   6.034  0.3867 -0.1562 -0.1402
 1095SOL    HW114921   3.898   1.841   6.065 -0.9567 -0.6307  0.4676
 1095SOL    HW214922   3.925   1.708   6.118 -1.3490 -0.5542 -0.1596
 1096SOL     OW14923   1.759   1.379  17.753  0.1188 -0.1838  0.4675
 1096SOL    HW114924   1.749   1.369  17.659 -1.7873 -1.1572  0.7707
 1096SOL    HW214925   1.721   1.297   0.030 -1.2476  0.6608  1.0463
 1097SOL     OW14926   4.710   2.810   7.798  0.3679  0.0385 -0.3376
 1097SOL    HW114927   4.716   2.744   7.728  0.0241  0.3740 -0.6833
 1097SOL    HW214928   0.063   2.807   7.824  0.0886  2.0213  0.8593
 1098SOL     OW14929   2.279   2.509   3.926 -0.2942 -0.1995 -0.1955
 1098SOL    HW114930   2.258   2.429   3.974  0.6484 -0.6186 -0.4959
 1098SOL    HW214931   2.209   2.565   3.960 -0.1744 -0.6341  0.7485
 1099SOL     OW14932   2.199   1.584   5.418  0.8018  0.0017 -0.0270
 1099SOL    HW114933   2.213   1.672   5.383  1.5346 -0.6250 -1.3115
 1099SOL    HW214934   2.199   1.533   5.337  1.4871  1.0990 -0.7166
 1100SOL     OW14935   3.222   1.348  13.298  0.2664  0.5322 -0.2613
 1100SOL    HW114936   3.152   1.291  13.267 -0.2100 -0.1030  1.9617
 1100SOL    HW214937   3.170   1.428  13.286 -0.2682  0.2935  0.4219
 1101SOL     OW14938   2.861   3.864   3.758 -0.2724  0.1809  0.3746
 1101SOL    HW114939   2.845   3.783   3.806  1.3549  1.0750  2.4436
 1101SOL    HW214940   2.832   3.936   3.814 -0.9806  1.7673 -2.0377
 1102SOL     OW14941   1.522   2.360   2.941 -0.3718  0.1432 -0.0627
 1102SOL    HW114942   1.582   2.415   2.889  1.4160  2.2175  4.1540
 1102SOL    HW214943   1.582   2.334   3.011 -0.1572 -1.3615 -0.8154
 1103SOL     OW14944   3.300   2.308   4.263 -0.5008  0.2699 -0.4329
 1103SOL    HW114945   3.237   2.236   4.264  0.0548 -0.1604  2.5608
 1103SOL    HW214946   3.261   2.356   4.191 -0.1815  0.9491 -0.1553
 1104SOL     OW14947   3.296   2.323  10.311 -0.2272 -0.1774  0.4883
 1104SOL    HW114948   3.214   2.370  10.303 -0.5618 -0.2811  3.1964
 1104SOL    HW214949   3.300   2.302  10.405 -1.1070  3.5705  1.3560
 1105SOL     OW14950   0.642   0.999   7.174  0.0674  0.9702 -0.1991
 1105SOL    HW114951   0.727   1.006   7.131  0.1409  0.2127 -0.1853
 1105SOL    HW214952   0.580   1.028   7.107 -0.0682  1.8054  0.2910
 1106SOL     OW14953   4.453   3.997   7.886 -0.6841 -0.2519  0.1310
 1106SOL    HW114954   4.521   3.932   7.898  0.3586  0.9239  0.6046
 1106SOL    HW214955   4.394   3.946   7.831  0.2718 -0.0952 -1.0446
 1107SOL     OW14956   4.525   1.161   6.994 -0.5210  0.3375 -0.7412
 1107SOL    HW114957   4.582   1.105   6.942 -0.8353 -0.1762 -0.5320
 1107SOL    HW214958   4.463   1.095   7.023 -1.5725  2.0877  1.0184
 1108SOL     OW14959   1.220   3.984   1.696  0.2319  0.8142  0.8144
 1108SOL    HW114960   1.165   4.062   1.703 -0.7050  0.2449 -0.2841
 1108SOL    HW214961   1.281   4.008   1.766  3.9654  0.2526 -2.2921
 1109SOL     OW14962   1.155   2.405   7.066  0.6443  0.2350  0.3854
 1109SOL    HW114963   1.187   2.436   7.150 -0.7679 -0.7488  1.2799
 1109SOL    HW214964   1.098   2.472   7.028  0.7835  0.2816  0.2557
 1110SOL     OW14965   1.888   3.551   7.071 -0.6193  0.1182  0.4325
 1110SOL    HW114966   1.807   3.580   7.028 -0.6401 -1.0366 -0.3080
 1110SOL    HW214967   1.916   3.633   7.113  1.5019 -0.4754  0.1484
 1111SOL     OW14968   2.007   2.238   7.987  0.1809  0.4027 -0.3696
 1111SOL    HW114969   2.035   2.167   8.043 -0.8428  0.8805  0.7412
 1111SOL    HW214970   2.038   2.307   8.047 -0.4431 -0.1538  0.5809
 1112SOL     OW14971   4.298   2.394  12.593 -0.0493 -0.5291 -0.6195
 1112SOL    HW114972   4.339   2.310  12.575  1.1672  0.3332 -1.8771
 1112SOL    HW214973   4.233   2.402  12.522 -1.2989  3.9832  1.0533
 1113SOL     OW14974   3.660   4.622  14.049  0.0497 -0.0562 -0.2697
 1113SOL    HW114975   3.575   4.597  14.086  0.0741  1.5613  0.8877
 1113SOL    HW214976   3.690   4.554  13.988  1.2572 -1.2491  1.6512
 1114SOL     OW14977   3.680   0.751   6.699 -0.4984 -0.3627 -0.1712
 1114SOL    HW114978   3.733   0.830   6.702 -0.1307 -0.6057 -0.3077
 1114SOL    HW214979   3.631   0.773   6.778 -1.3000  0.2480 -0.8360
 1115SOL     OW14980   2.795   4.034   2.932 -0.7737 -0.8133  0.0381
 1115SOL    HW114981   2.863   4.102   2.933 -0.8372 -0.7451 -0.2147
 1115SOL    HW214982   2.750   4.061   2.851  0.0584 -0.3464 -0.2715
 1116SOL     OW14983   3.840   1.050   3.982  0.6201  0.3165 -0.6344
 1116SOL    HW114984   3.750   1.046   4.015 -0.3494 -0.7940 -3.4346
 1116SOL    HW214985   3.822   1.001   3.902 -0.7774 -3.6172  2.0861
 1117SOL     OW14986   2.577   2.793   5.443 -0.4362 -0.0003 -0.3081
 1117SOL    HW114987   2.543   2.782   5.354  0.3568 -1.5471 -0.4131
 1117SOL    HW214988   2.494   2.834   5.469  0.1081 -0.5088  2.2448
 1118SOL     OW14989   1.954   2.830   8.471 -0.2602  0.5074  0.2491
 1118SOL    HW114990   1.930   2.833   8.564 -1.8138 -2.3160 -0.0584
 1118SOL    HW214991   1.867   2.840   8.431 -0.2641  1.5249  0.5038
 1119SOL     OW14992   1.476   1.997  12.669 -0.1131 -0.3944 -0.5897
 1119SOL    HW114993   1.392   2.042  12.675 -0.2970 -0.8845  0.5713
 1119SOL    HW214994   1.506   2.012  12.759  1.5279  0.7571 -1.3264
 1120SOL     OW14995   3.116   4.068   5.678 -0.0908  0.5843 -0.3120
 1120SOL    HW114996   3.089   4.130   5.611 -0.4238 -1.6491 -2.2479
 1120SOL    HW214997   3.085   4.114   5.756  0.6925  1.5847 -0.5882
 1121SOL     OW14998   4.285   4.035   8.996  0.4599  0.0400  0.5062
 1121SOL    HW114999   4.321   3.961   9.045  0.0530 -0.9784 -0.7411
 1121SOL    HW215000   4.189   4.030   8.999  0.3859  0.4501 -1.3613
 1122SOL     OW15001   1.920   3.536  12.100  0.5363 -0.2324 -0.3494
 1122SOL    HW115002   1.854   3.586  12.148 -0.4699 -2.7110  0.8599
 1122SOL    HW215003   1.864   3.481  12.047  1.1583 -1.4399  0.2465
 1123SOL     OW15004   2.349   0.651   0.958  0.0236  0.6655 -0.6925
 1123SOL    HW115005   2.408   0.579   0.978  0.1567  1.1448  0.6149
 1123SOL    HW215006   2.345   0.624   0.866  0.2716  0.7528 -0.7308
 1124SOL     OW15007   1.624   1.550   7.153  0.0157 -0.4491 -0.3160
 1124SOL    HW115008   1.550   1.492   7.174  0.6526 -1.0531  0.2590
 1124SOL    HW215009   1.605   1.625   7.210  1.4189 -0.0149 -0.4278
 1125SOL     OW15010   2.947   0.439   3.008  0.3336 -0.2216 -0.3671
 1125SOL    HW115011   3.012   0.510   3.010 -1.3870  1.2971  1.8477
 1125SOL    HW215012   2.889   0.479   3.074  0.9887 -0.4323  0.3413
 1126SOL     OW15013   4.702   0.993   2.452 -0.2756  0.2912 -0.2687
 1126SOL    HW115014   4.662   1.077   2.430  0.4079  1.2171  2.0249
 1126SOL    HW215015   0.043   1.006   2.402  0.3478  0.5026  0.7736
 1127SOL     OW15016   3.460   4.119   3.278  0.4066  0.3432 -0.6026
 1127SOL    HW115017   3.410   4.148   3.355 -1.4802 -0.1884 -1.6257
 1127SOL    HW215018   3.393   4.066   3.234  1.5668 -0.4906 -1.3347
 1128SOL     OW15019   4.417   3.739  17.311  0.4932 -0.2811 -0.4540
 1128SOL    HW115020   4.469   3.817  17.330  0.0197 -0.0470 -0.1136
 1128SOL    HW215021   4.449   3.679  17.378 -1.6075 -3.3424 -2.1241
 1129SOL     OW15022   4.304   0.108   3.990  1.0316  0.0457 -0.0205
 1129SOL    HW115023   4.322   0.158   4.070  1.5933 -1.8828  1.0784
 1129SOL    HW215024   4.244   0.171   3.951 -0.7758 -2.4183 -1.1710
 1130SOL     OW15025   2.378   4.387   6.787  0.3673  0.4112  0.2712
 1130SOL    HW115026   2.286   4.363   6.792 -0.4668  3.3392 -1.0903
 1130SOL    HW215027   2.378   4.482   6.793  0.2154  0.3372  1.5851
 1131SOL     OW15028   2.369   0.379  15.217  0.0969  0.3164 -0.5013
 1131SOL    HW115029   2.448   0.325  15.224 -0.2338 -0.0198  0.5674
 1131SOL    HW215030   2.379   0.436  15.292 -0.0282  0.0700 -0.2983
 1132SOL     OW15031   2.645   2.314   6.694  0.2270  0.3925  0.1021
 1132SOL    HW115032   2.656   2.250   6.764  2.5502  0.0995 -0.5115
 1132SOL    HW215033   2.732   2.354   6.696  0.8631 -0.9800  0.2046
 1133SOL     OW15034   2.693   2.901  12.142 -0.0265  0.0629  0.1237
 1133SOL    HW115035   2.620   2.926  12.198  1.7091  0.3235  2.2834
 1133SOL    HW215036   2.765   2.918  12.203 -0.6693 -0.7460  1.1029
 1134SOL     OW15037   0.555   1.285   7.239  0.0512 -0.2032 -0.2365
 1134SOL    HW115038   0.609   1.317   7.167  0.0869  0.8810  0.2682
 1134SOL    HW215039   0.617   1.213   7.252  0.4262  0.8019  3.4823
 1135SOL     OW15040   0.432   0.542   6.240 -0.3230  0.0884  0.1018
 1135SOL    HW115041   0.384   0.580   6.165  0.9992 -0.0488 -0.8069
 1135SOL    HW215042   0.373   0.468   6.254  0.7355 -0.6986  0.3892
 1136SOL     OW15043   2.762   1.099  16.077  0.4384  0.3561 -0.5254
 1136SOL    HW115044   2.730   1.179  16.036 -1.9873  0.6261  1.8988
 1136SOL    HW215045   2.833   1.071  16.019  0.1227  3.4264 -2.4166
 1137SOL     OW15046   3.383   0.444   0.374  0.2176 -1.3317  0.0113
 1137SOL    HW115047   3.343   0.394   0.303  1.8697  1.2657 -2.7582
 1137SOL    HW215048   3.312   0.506   0.388  1.1209 -0.0106 -1.1992
 1138SOL     OW15049   1.560   1.184   1.425  0.2636  0.0247 -0.6433
 1138SOL    HW115050   1.512   1.265   1.441  2.5799  0.6278  3.2130
 1138SOL    HW215051   1.543   1.134   1.504  2.0356  0.0491 -0.2505
 1139SOL     OW15052   3.159   4.163  10.891 -1.0372 -0.1593 -0.7036
 1139SOL    HW115053   3.120   4.084  10.928 -1.1122  1.4692  2.6316
 1139SOL    HW215054   3.245   4.129  10.865 -0.2935  0.6150  0.7462
 1140SOL     OW15055   2.269   2.038   9.302 -0.4430 -0.0275 -0.7308
 1140SOL    HW115056   2.195   2.097   9.309 -0.8999 -0.7739  0.6421
 1140SOL    HW215057   2.234   1.983   9.232 -0.2989 -0.0520 -0.7849
 1141SOL     OW15058   4.011   0.807   5.638  0.4768  0.6519 -0.5979
 1141SOL    HW115059   3.931   0.858   5.651  0.8098  1.2895 -1.0821
 1141SOL    HW215060   4.069   0.863   5.587 -0.3151  3.4072  1.4822
 1142SOL     OW15061   1.689   2.049  13.598 -0.5073 -0.1549 -0.4159
 1142SOL    HW115062   1.618   1.986  13.580  0.2000 -0.4093 -2.3409
 1142SOL    HW215063   1.667   2.070  13.688  0.3878 -3.6018  0.6069
 1143SOL     OW15064   1.698   1.753   0.299  0.5357 -0.4391  0.0862
 1143SOL    HW115065   1.608   1.756   0.265  0.9883 -0.6655 -1.1328
 1143SOL    HW215066   1.669   1.694   0.369 -1.1965 -0.7463 -0.8949
 1144SOL     OW15067   3.634   2.637   2.206 -0.7322 -1.3696  0.4399
 1144SOL    HW115068   3.696   2.665   2.272  1.1146  0.5217 -2.0839
 1144SOL    HW215069   3.555   2.688   2.225 -0.8716 -1.2368 -0.4600
 1145SOL     OW15070   3.001   1.137   2.205 -0.0025 -0.4045  0.8025
 1145SOL    HW115071   3.024   1.204   2.269  0.5287 -0.5183  0.7275
 1145SOL    HW215072   2.924   1.172   2.159  0.7239 -1.7425 -1.4390
 1146SOL     OW15073   4.491   1.127  16.174 -0.3863  0.0031 -0.4843
 1146SOL    HW115074   4.577   1.108  16.138 -1.5591 -1.8077 -2.3264
 1146SOL    HW215075   4.446   1.169  16.101 -0.0574 -0.6203 -1.0452
 1147SOL     OW15076   2.993   0.041   5.079  0.4373 -0.2395 -0.1303
 1147SOL    HW115077   2.990   0.061   5.173 -0.2669  0.1687 -0.2347
 1147SOL    HW215078   3.084   0.012   5.074  0.1557 -0.9614 -0.9507
 1148SOL     OW15079   4.554   0.542   2.931 -0.1580  0.2452  0.2294
 1148SOL    HW115080   4.563   0.474   2.864 -0.5258 -1.8150  2.2666
 1148SOL    HW215081   4.603   0.504   3.005 -1.3124 -1.6568  0.0192
 1149SOL     OW15082   1.551   1.516  17.516 -0.2924 -0.0470  0.3279
 1149SOL    HW115083   1.483   1.451  17.531  0.3141 -0.7829 -0.0562
 1149SOL    HW215084   1.508   1.584  17.464 -0.1065 -0.2147 -0.0468
 1150SOL     OW15085   0.429   2.179   5.310 -0.0436 -0.3648 -0.1168
 1150SOL    HW115086   0.371   2.235   5.259 -0.4782  0.3667  1.1673
 1150SOL    HW215087   0.364   2.133   5.364  1.7478 -0.5491  1.8544
 1151SOL     OW15088   1.400   0.227   1.363 -0.4093 -0.1700 -0.2042
 1151SOL    HW115089   1.330   0.173   1.326 -1.0014  0.3489  0.1626
 1151SOL    HW215090   1.353   0.281   1.427 -0.8150  1.0143 -1.5051
 1152SOL     OW15091   1.200   1.695  17.202  0.1627 -0.3332  0.0584
 1152SOL    HW115092   1.133   1.642  17.246  0.3272  1.1676  2.1167
 1152SOL    HW215093   1.154   1.703  17.118 -1.8494 -0.3986  1.1422
 1153SOL     OW15094   2.017   3.000   6.929 -0.2132  0.5429 -0.1724
 1153SOL    HW115095   2.085   2.971   6.868 -0.4281  0.1931 -0.2430
 1153SOL    HW215096   2.058   2.974   7.012 -0.9794  1.8823  0.6147
 1154SOL     OW15097   3.536   0.890  17.448  0.3303 -0.3314 -0.1269
 1154SOL    HW115098   3.466   0.930  17.396  0.4383 -1.7739 -1.3722
 1154SOL    HW215099   3.611   0.948  17.439 -0.5348  0.7707 -0.2555
 1155SOL     OW15100   0.949   4.318   4.243 -0.5676 -0.0565  0.6075
 1155SOL    HW115101   1.041   4.343   4.227 -0.8529 -0.0139 -1.0024
 1155SOL    HW215102   0.933   4.237   4.195  0.0168 -0.0921  0.4712
 1156SOL     OW15103   4.545   2.660   2.470 -0.0039  0.0712  0.0425
 1156SOL    HW115104   4.489   2.737   2.465 -2.0490 -1.7381 -4.8328
 1156SOL    HW215105   4.478   2.593   2.452  0.0790  0.1283 -0.4860
 1157SOL     OW15106   3.606   3.042   5.021 -0.5388  0.0432  0.5843
 1157SOL    HW115107   3.556   2.975   5.067 -3.0749  2.4147  1.3047
 1157SOL    HW215108   3.601   3.012   4.930  2.8719  2.0986 -0.2562
 1158SOL     OW15109   0.323   2.525   2.187  0.0419  0.2980 -0.5599
 1158SOL    HW115110   0.265   2.577   2.132 -0.5746 -0.0729 -0.2557
 1158SOL    HW215111   0.377   2.596   2.223 -0.1111  0.1813 -0.0979
 1159SOL     OW15112   2.757   3.497  14.755 -0.0977  0.1876  0.2702
 1159SOL    HW115113   2.799   3.413  14.736 -1.7693 -0.4097 -0.8441
 1159SOL    HW215114   2.823   3.532  14.814  0.1605  0.5377 -0.2179
 1160SOL     OW15115   4.652   4.530   7.387  0.2911 -0.3665  0.7658
 1160SOL    HW115116   4.593   4.466   7.426  0.0775  0.0479  1.1151
 1160SOL    HW215117   4.627   4.599   7.449  0.0263  0.5340 -0.3488
 1161SOL     OW15118   3.351   3.118   2.936 -0.7229  0.1668  0.0156
 1161SOL    HW115119   3.351   3.209   2.964  0.7478  0.6023 -1.3979
 1161SOL    HW215120   3.346   3.133   2.842 -0.1165 -1.0999 -0.2188
 1162SOL     OW15121   2.593   4.651  15.909 -0.0076  0.1698 -0.1314
 1162SOL    HW115122   2.541   4.582  15.949  1.9758 -2.1020 -1.4469
 1162SOL    HW215123   2.542   4.665  15.829 -0.0626 -0.2506 -0.1734
 1163SOL     OW15124   1.552   1.599   2.797 -0.4014  0.1478 -0.0340
 1163SOL    HW115125   1.580   1.559   2.879  1.2499  0.7436 -0.2966
 1163SOL    HW215126   1.591   1.550   2.724  1.9271  2.0826 -0.0876
 1164SOL     OW15127   0.895   2.385   1.714  0.1356 -0.1142 -0.3220
 1164SOL    HW115128   0.906   2.433   1.796 -0.3183 -1.9935  0.8290
 1164SOL    HW215129   0.810   2.419   1.688 -0.2845  0.5842  1.9814
 1165SOL     OW15130   2.463   1.171   8.126  0.0845 -0.4184  0.3569
 1165SOL    HW115131   2.387   1.217   8.163 -0.6789 -0.4308 -1.1623
 1165SOL    HW215132   2.527   1.237   8.098  0.2027 -0.5968  0.2056
 1166SOL     OW15133   3.632   0.461   6.766 -0.2778  0.2543  0.7772
 1166SOL    HW115134   3.653   0.552   6.744 -1.2453 -0.2064 -1.9724
 1166SOL    HW215135   3.637   0.473   6.861 -0.6902  0.1272  0.8177
 1167SOL     OW15136   1.722   0.462   8.912  0.0333  0.3881 -0.0158
 1167SOL    HW115137   1.635   0.493   8.936  1.0905  3.2822  0.1255
 1167SOL    HW215138   1.713   0.387   8.852  0.0163 -0.4155  0.9971
 1168SOL     OW15139   4.512   2.349   7.081  0.0847  0.2832 -0.0670
 1168SOL    HW115140   4.567   2.353   7.002 -0.2515 -1.6810 -0.4027
 1168SOL    HW215141   4.503   2.256   7.103  1.2068 -0.2297 -1.7450
 1169SOL     OW15142   4.015   3.191   6.151  0.5506 -0.0995  0.0902
 1169SOL    HW115143   4.020   3.286   6.166  2.7570 -0.2586  0.3676
 1169SOL    HW215144   4.024   3.163   6.242 -1.2394  0.9176  0.5656
 1170SOL     OW15145   1.555   3.519  15.571 -0.0545  0.0682  0.1909
 1170SOL    HW115146   1.634   3.499  15.521 -0.4158 -0.9053  0.0097
 1170SOL    HW215147   1.515   3.554  15.491 -0.9300 -0.9374  0.1945
 1171SOL     OW15148   2.891   0.553   2.669 -0.2252 -0.4138  0.2976
 1171SOL    HW115149   2.832   0.590   2.603  1.0015  1.2720  0.1381
 1171SOL    HW215150   2.973   0.597   2.648 -1.1297  1.5067  0.7890
 1172SOL     OW15151   3.817   0.763   8.809  0.2358 -0.6670  0.2176
 1172SOL    HW115152   3.900   0.785   8.767 -0.7444 -0.1208 -1.4398
 1172SOL    HW215153   3.839   0.781   8.900 -0.2603 -0.2502  0.2516
 1173SOL     OW15154   3.570   1.779  10.378  0.0672 -0.1932 -0.3069
 1173SOL    HW115155   3.565   1.748  10.469 -1.1665  0.3706 -0.1863
 1173SOL    HW215156   3.651   1.729  10.367  0.0780 -0.3801  0.5947
 1174SOL     OW15157   1.594   0.499   4.976  0.4663  0.2665 -0.1319
 1174SOL    HW115158   1.611   0.420   5.028  0.6251 -1.1033 -2.2593
 1174SOL    HW215159   1.553   0.454   4.902 -0.2632  0.3827  0.2025
 1175SOL     OW15160   1.077   1.275   7.028 -0.4370  0.1907 -0.5648
 1175SOL    HW115161   1.149   1.229   7.071 -0.1801 -0.6687 -1.8864
 1175SOL    HW215162   1.122   1.290   6.945 -0.1806  0.8218 -0.3092
 1176SOL     OW15163   3.156   2.127   5.731  0.1568  0.2882  0.4262
 1176SOL    HW115164   3.244   2.122   5.692 -0.3683 -1.8396 -0.4925
 1176SOL    HW215165   3.122   2.049   5.687  0.6617 -0.3141  1.1039
 1177SOL     OW15166   3.331   2.574   9.264 -0.5343 -0.0544 -0.0394
 1177SOL    HW115167   3.259   2.595   9.205  0.8911  0.0788 -1.7449
 1177SOL    HW215168   3.349   2.480   9.258 -1.5063 -0.1263 -1.9613
 1178SOL     OW15169   2.500   4.193   1.095 -0.0909  0.2760  0.5090
 1178SOL    HW115170   2.502   4.255   1.168  1.3463  0.2675  0.4755
 1178SOL    HW215171   2.594   4.195   1.075 -0.2003  1.6157  0.1544
 1179SOL     OW15172   0.604   1.294   5.411 -0.4852 -0.2701 -0.1610
 1179SOL    HW115173   0.685   1.314   5.460  0.4829  0.9618 -2.2635
 1179SOL    HW215174   0.552   1.374   5.421 -1.2923 -0.5522 -2.2108
 1180SOL     OW15175   1.961   3.674   2.550 -0.4367 -0.4176  0.1792
 1180SOL    HW115176   1.921   3.599   2.506 -1.6520  0.2861  0.0752
 1180SOL    HW215177   1.942   3.744   2.487  0.0475 -0.5845 -0.1533
 1181SOL     OW15178   3.820   3.457   2.020  0.2360  0.2913 -0.4204
 1181SOL    HW115179   3.864   3.495   1.944  1.9807 -0.7576  0.0616
 1181SOL    HW215180   3.789   3.526   2.079  1.4260 -0.5538  1.1894
 1182SOL     OW15181   1.183   1.642   5.555  0.3171  0.3773  0.9062
 1182SOL    HW115182   1.120   1.708   5.526 -1.2249 -1.6417 -0.4676
 1182SOL    HW215183   1.132   1.560   5.551  0.1236  0.4655  1.7207
 1183SOL     OW15184   4.488   2.225   5.072  0.3979  0.5593 -0.0632
 1183SOL    HW115185   4.573   2.237   5.029  0.5385 -1.0735 -0.2274
 1183SOL    HW215186   4.506   2.211   5.165 -0.0349 -0.5317 -0.1411
 1184SOL     OW15187   4.212   0.937  11.918 -0.9589  0.5124  0.5358
 1184SOL    HW115188   4.155   0.954  11.993  0.2047  0.9378  1.3252
 1184SOL    HW215189   4.304   0.947  11.942 -1.0495  1.5423  0.4413
 1185SOL     OW15190   4.079   3.444  17.211 -0.1194  0.0658  0.2608
 1185SOL    HW115191   4.034   3.362  17.190  1.9361 -0.9863 -0.0362
 1185SOL    HW215192   4.144   3.445  17.142  0.4364  0.5144  0.7915
 1186SOL     OW15193   4.629   1.872   8.289  0.3777  0.9693 -0.1375
 1186SOL    HW115194   4.570   1.803   8.259  1.6280 -0.2461  0.1936
 1186SOL    HW215195   4.704   1.847   8.234  0.6873 -0.7630  1.0996
 1187SOL     OW15196   0.601   2.155   6.658  0.4555  0.2971  0.1070
 1187SOL    HW115197   0.623   2.241   6.693  2.2191 -0.2986  0.4613
 1187SOL    HW215198   0.506   2.166   6.657  0.5572  1.1387 -0.7385
 1188SOL     OW15199   4.187   4.010   9.658 -0.0796  0.0191  0.1591
 1188SOL    HW115200   4.174   4.024   9.752 -0.7256  0.1627  0.0469
 1188SOL    HW215201   4.170   4.095   9.616  3.4515  1.2285  1.1599
 1189SOL     OW15202   3.354   1.539  12.974  0.2116 -0.3861 -0.2366
 1189SOL    HW115203   3.399   1.484  13.037  0.2898 -1.3322 -1.1102
 1189SOL    HW215204   3.423   1.547  12.908 -1.5504 -1.3813 -2.2320
 1190SOL     OW15205   2.497   0.047   6.389 -0.3069  0.0806 -0.2110
 1190SOL    HW115206   2.569   4.726   6.407 -2.1873 -2.2280 -0.3555
 1190SOL    HW215207   2.526   0.074   6.301  0.6313  0.0657  0.0897
 1191SOL     OW15208   2.155   3.830  12.892  0.3280  0.3927  0.1536
 1191SOL    HW115209   2.205   3.877  12.959 -0.0425  0.5600  0.3149
 1191SOL    HW215210   2.086   3.896  12.882 -0.2150 -0.3138 -0.6786
 1192SOL     OW15211   0.566   0.159   6.392 -0.0225  0.0774  0.2830
 1192SOL    HW115212   0.576   0.161   6.297 -1.7645  1.5574  0.1265
 1192SOL    HW215213   0.657   0.178   6.415 -0.2658  1.7739 -0.1852
 1193SOL     OW15214   1.795   2.545  11.059 -0.6766 -0.2999 -0.0646
 1193SOL    HW115215   1.745   2.626  11.068 -0.5197 -0.2991  0.8058
 1193SOL    HW215216   1.737   2.493  11.004 -1.3225 -0.2154  0.5390
 1194SOL     OW15217   3.318   1.165   7.486 -0.0047 -0.5277 -0.0796
 1194SOL    HW115218   3.356   1.090   7.441  0.6000  1.2065 -2.4655
 1194SOL    HW215219   3.293   1.106   7.557  1.2654 -0.2927  0.5618
 1195SOL     OW15220   1.983   2.280   9.908 -0.6071 -0.4263  0.0185
 1195SOL    HW115221   1.906   2.289   9.963  0.0556  0.6513  0.7494
 1195SOL    HW215222   2.002   2.368   9.875 -1.9183  1.8278  5.3753
 1196SOL     OW15223   0.887   0.784   9.275  0.2713  0.5385 -0.2576
 1196SOL    HW115224   0.832   0.861   9.288 -2.2953 -1.0290 -1.7765
 1196SOL    HW215225   0.836   0.714   9.316 -0.2767 -0.4263 -2.5458
 1197SOL     OW15226   3.451   1.142  13.684  0.1530  0.0587 -0.4581
 1197SOL    HW115227   3.377   1.084  13.705  0.0943  0.6004  0.8690
 1197SOL    HW215228   3.410   1.215  13.637 -3.1089 -0.8668  0.8974
 1198SOL     OW15229   4.088   2.943   4.104 -0.1200 -0.2994  0.2809
 1198SOL    HW115230   3.998   2.919   4.124 -0.8555  0.5739 -1.8923
 1198SOL    HW215231   4.132   2.892   4.172  3.4007  1.7335 -0.4331
 1199SOL     OW15232   4.081   2.591   4.738  0.0470 -0.0331  0.1351
 1199SOL    HW115233   4.167   2.617   4.703 -0.0886  0.0033 -0.1739
 1199SOL    HW215234   4.087   2.497   4.725 -1.2925 -0.1777  0.6346
 1200SOL     OW15235   0.466   3.239  16.621 -0.4371 -0.4370  0.0113
 1200SOL    HW115236   0.370   3.243  16.616 -0.5212 -3.3115 -0.9469
 1200SOL    HW215237   0.484   3.181  16.546 -3.9495  1.7293 -2.5459
 1201SOL     OW15238   2.101   1.112  14.846  0.0201  0.2428 -0.0072
 1201SOL    HW115239   2.100   1.022  14.815  0.1390  0.7222 -1.4126
 1201SOL    HW215240   2.020   1.132  14.798  0.6516  1.9185 -0.3801
 1202SOL     OW15241   3.893   2.613  15.331 -0.9007 -0.1238  0.7737
 1202SOL    HW115242   3.912   2.539  15.389  0.8279  1.3491  2.0731
 1202SOL    HW215243   3.954   2.595  15.259 -0.5145 -0.6455  1.2259
 1203SOL     OW15244   2.308   2.963   7.487 -0.5665  0.0255  0.3678
 1203SOL    HW115245   2.215   2.964   7.511 -1.3591  1.9295 -2.7922
 1203SOL    HW215246   2.317   2.875   7.449  0.8040 -0.1053  0.9688
 1204SOL     OW15247   0.419   0.420   3.465  0.2188  0.1347  0.4123
 1204SOL    HW115248   0.365   0.448   3.539  0.3399  0.2094  0.4729
 1204SOL    HW215249   0.409   0.487   3.398 -2.7998 -1.7547 -1.0204
 1205SOL     OW15250   3.352   0.591   6.788  0.1064 -0.0567  0.0058
 1205SOL    HW115251   3.416   0.653   6.825  0.3369 -0.8762  0.9912
 1205SOL    HW215252   3.360   0.522   6.854 -1.1550  0.1102  0.3355
 1206SOL     OW15253   2.589   4.551   0.340 -0.0780 -0.8398  0.3136
 1206SOL    HW115254   2.510   4.515   0.299 -0.9050  1.5709 -0.1684
 1206SOL    HW215255   2.569   4.537   0.432  3.1316 -1.2523  0.9493
 1207SOL     OW15256   2.857   2.082   4.829 -0.6851 -0.6177 -0.2400
 1207SOL    HW115257   2.881   2.114   4.742 -2.4521 -0.6027 -0.7071
 1207SOL    HW215258   2.801   2.007   4.813  1.0471 -1.6966 -1.2951
 1208SOL     OW15259   2.540   1.463   6.078  0.4844 -0.2359 -0.6870
 1208SOL    HW115260   2.514   1.493   5.991  0.3537  0.8871 -0.2591
 1208SOL    HW215261   2.540   1.367   6.069  0.7180 -0.3587  0.6195
 1209SOL     OW15262   2.673   4.412  15.180  0.0570 -0.0627 -0.2500
 1209SOL    HW115263   2.689   4.327  15.221 -0.1201 -0.1163 -0.2894
 1209SOL    HW215264   2.750   4.455  15.217  1.8011 -3.3483 -0.0588
 1210SOL     OW15265   4.136   4.446  12.496  0.6449 -0.2681 -0.1079
 1210SOL    HW115266   4.137   4.352  12.475 -0.7456 -0.3895  0.3609
 1210SOL    HW215267   4.041   4.455  12.500  0.6025  0.4904 -2.6021
 1211SOL     OW15268   2.849   4.240  16.132 -0.0270  0.2657  0.1883
 1211SOL    HW115269   2.927   4.209  16.086 -1.0470  0.5530 -1.7498
 1211SOL    HW215270   2.872   4.276  16.218 -2.2259 -1.3488  1.4405
 1212SOL     OW15271   0.456   4.443   7.967  0.3106 -0.1127 -0.3528
 1212SOL    HW115272   0.361   4.434   7.963  0.3887 -0.6235 -1.2087
 1212SOL    HW215273   0.464   4.483   8.053  0.8253  0.4118 -0.6445
 1213SOL     OW15274   4.216   2.362  11.559  0.1812  0.1014 -0.7052
 1213SOL    HW115275   4.243   2.453  11.556  1.6945 -0.2379  2.4522
 1213SOL    HW215276   4.211   2.336  11.651 -0.7632  2.3857 -0.1089
 1214SOL     OW15277   3.995   1.598  16.180 -0.0579  0.1417  0.2314
 1214SOL    HW115278   3.924   1.648  16.220  1.7003  1.5280  1.5722
 1214SOL    HW215279   3.943   1.567  16.105 -0.1177  1.5350 -0.3037
 1215SOL     OW15280   3.757   3.510  15.051  0.1871 -0.0729  0.5074
 1215SOL    HW115281   3.685   3.556  15.094 -0.0052 -0.4915  0.6394
 1215SOL    HW215282   3.726   3.508  14.960  2.2361  0.2878 -0.1986
 1216SOL     OW15283   1.217   1.461   6.118 -0.4289  0.1980  0.1099
 1216SOL    HW115284   1.130   1.423   6.106 -0.5432  0.2033  0.8832
 1216SOL    HW215285   1.245   1.391   6.177 -0.8815  0.4035  0.5682
 1217SOL     OW15286   3.408   1.306   8.034  0.2046  0.0297 -0.4829
 1217SOL    HW115287   3.318   1.281   8.012  0.6375 -2.7978  0.8610
 1217SOL    HW215288   3.408   1.309   8.129 -0.6805  0.8063 -0.5086
 1218SOL     OW15289   0.154   1.022  13.795  0.0759 -0.0742 -0.1138
 1218SOL    HW115290   0.247   1.000  13.796 -0.2667 -1.5742 -1.8022
 1218SOL    HW215291   0.121   0.939  13.763  0.6457 -0.4583  0.2983
 1219SOL     OW15292   1.826   4.412   7.819  0.1898 -0.5150 -0.8162
 1219SOL    HW115293   1.889   4.457   7.762 -2.0783 -1.2776 -3.9516
 1219SOL    HW215294   1.761   4.405   7.749 -0.5952  0.8225 -0.2261
 1220SOL     OW15295   0.474   3.708  15.496 -0.5690  0.1229 -0.0881
 1220SOL    HW115296   0.386   3.718  15.533 -0.2870 -2.7382  1.3778
 1220SOL    HW215297   0.514   3.647  15.558  1.2493  1.0200 -0.3781
 1221SOL     OW15298   1.317   2.799   3.674 -0.0009 -0.2217  0.4721
 1221SOL    HW115299   1.224   2.778   3.683  0.0752 -0.8790 -0.2237
 1221SOL    HW215300   1.321   2.893   3.687  1.5248 -0.2206  0.0711
 1222SOL     OW15301   0.600   2.177   9.136 -0.1462 -0.0670 -0.0787
 1222SOL    HW115302   0.636   2.248   9.082 -1.5866  0.4582 -0.3518
 1222SOL    HW215303   0.616   2.218   9.221  0.3865  4.3730 -2.3028
 1223SOL     OW15304   3.535   0.447   6.343 -0.4311 -0.4246  0.0954
 1223SOL    HW115305   3.511   0.390   6.416  0.9906  0.1661  1.0180
 1223SOL    HW215306   3.513   0.528   6.389  2.5780 -0.4448  1.5407
 1224SOL     OW15307   1.123   0.971   4.453 -0.2252  0.1603 -0.0905
 1224SOL    HW115308   1.134   0.963   4.548 -1.6491 -0.7622 -0.0063
 1224SOL    HW215309   1.129   1.066   4.441  1.3237  0.1789  0.7142
 1225SOL     OW15310   3.594   3.056  15.213 -0.4213 -0.2927 -0.4602
 1225SOL    HW115311   3.611   3.131  15.156  1.9242 -1.0128 -0.7319
 1225SOL    HW215312   3.679   3.011  15.208 -0.6143 -0.9017  1.5411
 1226SOL     OW15313   4.236   2.444   7.527  0.2194  0.0044  0.3729
 1226SOL    HW115314   4.175   2.448   7.600  1.4742 -2.8008  1.6137
 1226SOL    HW215315   4.202   2.512   7.469  0.0220  0.4979  1.0688
 1227SOL     OW15316   3.056   4.052  16.867 -0.5403 -0.0943  0.2609
 1227SOL    HW115317   3.005   4.007  16.934 -0.3520  0.8918  1.0719
 1227SOL    HW215318   2.991   4.083  16.803 -1.7492  0.4231  1.7412
 1228SOL     OW15319   3.712   1.819   4.296 -0.4170 -0.2140  0.2047
 1228SOL    HW115320   3.686   1.739   4.251 -3.2941  1.5138 -1.2203
 1228SOL    HW215321   3.701   1.891   4.233  1.0702 -1.2851 -1.2888
 1229SOL     OW15322   1.666   3.064   2.692 -0.7315 -0.0327 -0.4592
 1229SOL    HW115323   1.650   3.104   2.777  0.0914  1.1989 -0.8821
 1229SOL    HW215324   1.580   3.079   2.652 -0.3036  0.2578 -1.2611
 1230SOL     OW15325   1.700   2.519   3.634 -0.5432 -0.2402 -0.0945
 1230SOL    HW115326   1.655   2.452   3.686  1.4262 -1.9795 -0.6205
 1230SOL    HW215327   1.784   2.530   3.678  0.0548 -0.0757 -1.2917
 1231SOL     OW15328   3.112   0.709   4.755 -0.2392  0.4706 -0.1004
 1231SOL    HW115329   3.029   0.688   4.798  2.0434 -1.7536  3.2196
 1231SOL    HW215330   3.177   0.711   4.825 -1.1422  0.8483  0.7270
 1232SOL     OW15331   1.942   1.988  13.281  0.5816 -0.0621 -0.2547
 1232SOL    HW115332   1.866   1.968  13.227  0.3328 -0.2557  0.1660
 1232SOL    HW215333   1.954   2.082  13.275  0.0478  0.2024  2.6002
 1233SOL     OW15334   4.621   0.920   9.349  0.0104  0.1887 -0.2653
 1233SOL    HW115335   4.610   0.869   9.430 -1.5187  0.7497 -0.1195
 1233SOL    HW215336   4.631   0.848   9.286  0.3222  0.3600 -0.4125
 1234SOL     OW15337   2.857   2.635   3.254 -0.0176  0.2906  0.0265
 1234SOL    HW115338   2.918   2.708   3.269 -0.4467  1.2000 -2.6164
 1234SOL    HW215339   2.773   2.672   3.282  0.8260  0.8061  1.8817
 1235SOL     OW15340   1.145   1.274   4.406 -0.1477  0.0138 -0.0839
 1235SOL    HW115341   1.094   1.335   4.461 -0.6915 -0.2100 -0.3369
 1235SOL    HW215342   1.123   1.302   4.317  0.3780  0.7999  0.0353
 1236SOL     OW15343   1.165   3.944   6.823  0.0761  0.2442 -0.3407
 1236SOL    HW115344   1.228   3.986   6.881  1.3272 -1.7673 -0.2423
 1236SOL    HW215345   1.129   3.862   6.856 -0.3508 -0.3981 -2.3899
 1237SOL     OW15346   3.603   0.014   9.755 -0.1793 -0.6005  0.8147
 1237SOL    HW115347   3.649   0.098   9.759 -0.1743 -0.5657 -0.1103
 1237SOL    HW215348   3.599   4.737   9.661 -2.8453  1.7300  0.5166
 1238SOL     OW15349   2.559   4.223   0.413  0.6551  0.1726 -0.5722
 1238SOL    HW115350   2.556   4.184   0.500 -0.5518  0.0305 -0.6858
 1238SOL    HW215351   2.653   4.232   0.395  1.1815  0.8221  2.5870
 1239SOL     OW15352   2.880   1.573   2.467 -0.2395  0.3142  0.3259
 1239SOL    HW115353   2.941   1.501   2.456  0.1835  0.8314 -0.7536
 1239SOL    HW215354   2.815   1.566   2.397 -1.5819 -0.2618  1.6423
 1240SOL     OW15355   2.700   4.055  13.130  0.2502  0.0901  0.5857
 1240SOL    HW115356   2.649   3.975  13.116  2.2129 -0.9616 -0.6376
 1240SOL    HW215357   2.641   4.103  13.188  1.4518 -1.6348  3.2527
 1241SOL     OW15358   2.002   0.276   3.920 -0.3094  1.1712  0.2081
 1241SOL    HW115359   2.096   0.262   3.936 -1.0578 -1.4904  2.3389
 1241SOL    HW215360   1.986   0.303   4.010  2.4987 -0.3224  1.1670
 1242SOL     OW15361   0.783   2.821   6.274  0.2075  0.0402 -0.6024
 1242SOL    HW115362   0.863   2.792   6.317  0.0214 -0.6481 -0.7120
 1242SOL    HW215363   0.805   2.912   6.253 -0.0673  0.3261  0.3589
 1243SOL     OW15364   2.465   4.371   7.077 -0.4102 -0.2447 -0.5122
 1243SOL    HW115365   2.490   4.353   6.986  0.9813 -1.5328  0.1170
 1243SOL    HW215366   2.541   4.341   7.127 -0.7925 -2.4438 -1.2159
 1244SOL     OW15367   2.788   2.351   8.092  0.3128 -0.4376  0.1124
 1244SOL    HW115368   2.877   2.378   8.070  0.2250 -0.4408 -0.2367
 1244SOL    HW215369   2.778   2.394   8.177  0.9911  1.6997 -0.8951
 1245SOL     OW15370   3.193   1.496  15.823 -0.0551 -0.1159  0.1075
 1245SOL    HW115371   3.135   1.460  15.756 -0.6902 -0.3542  0.7841
 1245SOL    HW215372   3.127   1.486  15.892 -1.1826  0.2705 -0.9263
 1246SOL     OW15373   3.948   4.262   3.422  0.4184  0.0485 -0.1244
 1246SOL    HW115374   3.950   4.219   3.336  0.8250  0.1850 -0.1822
 1246SOL    HW215375   3.881   4.325   3.395  1.4635  0.2912 -2.1387
 1247SOL     OW15376   1.492   2.056  13.836  0.2388  0.4161  0.7299
 1247SOL    HW115377   1.584   2.053  13.862  0.6066  0.7212 -0.5618
 1247SOL    HW215378   1.480   2.151  13.846  0.4093  0.2960  2.2140
 1248SOL     OW15379   3.855   0.712   9.393  0.1730  0.4049  0.5544
 1248SOL    HW115380   3.949   0.711   9.372  0.5458  2.7352  2.0440
 1248SOL    HW215381   3.834   0.776   9.325 -0.8342 -0.4325  0.0897
 1249SOL     OW15382   1.129   0.760  13.046 -0.0498 -0.1956 -0.3945
 1249SOL    HW115383   1.060   0.694  13.037 -0.2181 -0.5637  3.5457
 1249SOL    HW215384   1.214   0.716  13.054 -0.5586 -0.9531  0.8993
 1250SOL     OW15385   4.491   3.047   2.622  0.3439 -0.7422  0.8089
 1250SOL    HW115386   4.501   3.129   2.671  1.3787 -0.6872  0.4926
 1250SOL    HW215387   4.424   3.002   2.673  1.1849 -0.3674  2.2424
 1251SOL     OW15388   0.346   0.336   5.873 -0.0587  0.3308 -0.2839
 1251SOL    HW115389   0.403   0.266   5.840 -0.7883 -0.0563 -0.7097
 1251SOL    HW215390   0.274   0.279   5.899  0.3673  0.1851  0.5754
 1252SOL     OW15391   2.992   2.201  15.309  0.7125  0.2740 -0.2005
 1252SOL    HW115392   2.928   2.130  15.318 -0.8423  1.8345  1.1031
 1252SOL    HW215393   3.052   2.196  15.383 -0.2635  0.3950  0.6012
 1253SOL     OW15394   0.310   4.284  11.217 -0.4225  0.2939 -0.3525
 1253SOL    HW115395   0.259   4.325  11.288  0.1825 -2.2564  1.5458
 1253SOL    HW215396   0.395   4.269  11.258  0.2017  0.8839 -1.4412
 1254SOL     OW15397   3.520   3.517   0.441 -0.7024 -0.0572  0.0173
 1254SOL    HW115398   3.569   3.476   0.512 -0.7774  2.4583  1.5178
 1254SOL    HW215399   3.514   3.440   0.385  0.2873 -0.5869  0.6476
 1255SOL     OW15400   0.325   4.063   3.998  0.2570 -0.5837 -0.0024
 1255SOL    HW115401   0.237   4.068   4.036  1.3075 -2.8443  2.7762
 1255SOL    HW215402   0.317   4.015   3.916  3.0094 -2.4206  0.8100
 1256SOL     OW15403   1.050   2.584   6.279 -0.8637 -0.0328 -0.2442
 1256SOL    HW115404   1.004   2.591   6.195  1.5381 -0.8587 -1.6610
 1256SOL    HW215405   1.104   2.509   6.251  1.3672  1.6962 -0.5689
 1257SOL     OW15406   0.799   0.502   4.314 -0.4598  0.1072  0.0640
 1257SOL    HW115407   0.776   0.440   4.246 -0.5558  2.0046 -1.6259
 1257SOL    HW215408   0.767   0.587   4.283  1.1717  1.2985  1.6034
 1258SOL     OW15409   1.210   3.863   7.813 -0.2959 -0.0296  0.0308
 1258SOL    HW115410   1.211   3.925   7.886  0.3159  0.1885 -0.1657
 1258SOL    HW215411   1.193   3.914   7.734  2.6371 -0.5053 -0.8934
 1259SOL     OW15412   2.732   3.104   5.151 -0.1409  0.5426  0.6132
 1259SOL    HW115413   2.776   3.021   5.136 -3.6194 -1.1160 -0.5538
 1259SOL    HW215414   2.643   3.069   5.162  0.5105 -1.7760 -1.4017
 1260SOL     OW15415   0.635   2.465   2.016 -0.5947 -0.7134  0.1447
 1260SOL    HW115416   0.577   2.423   1.953  0.2019  0.4475 -1.3466
 1260SOL    HW215417   0.586   2.451   2.097  0.6344  0.7068  1.1210
 1261SOL     OW15418   3.432   3.691  10.853 -0.5095 -0.2204 -0.5735
 1261SOL    HW115419   3.482   3.723  10.928 -0.4442  1.5191 -1.3732
 1261SOL    HW215420   3.347   3.721  10.885 -0.3061 -0.1812 -0.0724
 1262SOL     OW15421   0.136   2.389   4.409  0.1218  0.1126  0.1521
 1262SOL    HW115422   0.067   2.348   4.461 -1.4576 -0.3431 -2.3070
 1262SOL    HW215423   0.133   2.477   4.446 -0.1598 -0.0316  0.4770
 1263SOL     OW15424   1.893   0.695   4.108 -0.1126  0.2689  0.3317
 1263SOL    HW115425   1.802   0.687   4.080  0.2648 -1.7285 -0.3057
 1263SOL    HW215426   1.909   0.636   4.181 -0.7804 -0.2148  0.0761
 1264SOL     OW15427   3.528   4.644  15.765 -0.2306  0.0366  0.4849
 1264SOL    HW115428   3.444   4.608  15.739 -0.6105  1.0766  0.2917
 1264SOL    HW215429   3.575   4.654  15.682  1.7144 -1.1313  1.4366
 1265SOL     OW15430   2.202   3.741   6.095 -0.3854  0.6239 -0.2991
 1265SOL    HW115431   2.115   3.721   6.059 -0.3811  0.3148 -0.1369
 1265SOL    HW215432   2.193   3.695   6.179 -1.7381 -0.4732 -1.0422
 1266SOL     OW15433   3.010   0.419   2.110 -0.0735 -0.1959  0.6000
 1266SOL    HW115434   2.989   0.360   2.182  1.5584 -1.1251  0.3044
 1266SOL    HW215435   3.105   0.411   2.099  0.2613  2.2301  1.5807
 1267SOL     OW15436   0.052   0.516  12.544 -0.4444  0.3524  0.7256
 1267SOL    HW115437   4.706   0.559  12.554 -0.5676 -0.3815  3.0706
 1267SOL    HW215438   0.103   0.572  12.486  0.7288 -2.7057 -1.1923
 1268SOL     OW15439   1.407   3.393  10.576  0.5288  0.0785 -0.4991
 1268SOL    HW115440   1.344   3.450  10.532 -0.6565 -1.4526 -0.7976
 1268SOL    HW215441   1.446   3.332  10.513 -1.9219  0.3054 -2.2143
 1269SOL     OW15442   4.552   1.612  11.880  0.0414  0.0319 -0.5128
 1269SOL    HW115443   4.472   1.637  11.925  0.7421  1.3197  0.0072
 1269SOL    HW215444   4.543   1.519  11.901  1.4726  0.0662  0.2999
 1270SOL     OW15445   0.530   1.920   9.380 -0.4924 -0.2037 -0.1387
 1270SOL    HW115446   0.528   1.824   9.374 -1.6235 -0.1606 -0.4620
 1270SOL    HW215447   0.616   1.949   9.350 -1.4135  0.1118 -2.4783
 1271SOL     OW15448   3.718   4.643   4.773 -0.4469  0.2484  0.4819
 1271SOL    HW115449   3.761   4.699   4.838 -0.6374  0.5324  0.3665
 1271SOL    HW215450   3.783   4.573   4.776 -1.1472 -0.3879  0.7641
 1272SOL     OW15451   0.289   2.246   2.050  0.3986  0.3683  0.2002
 1272SOL    HW115452   0.273   2.182   2.119 -0.9531  0.1649 -0.3079
 1272SOL    HW215453   0.275   2.324   2.104  2.0388  0.6367  0.2407
 1273SOL     OW15454   2.231   3.377  11.491 -0.4704 -0.8081  0.2962
 1273SOL    HW115455   2.265   3.288  11.501  2.0315 -0.0568 -1.4887
 1273SOL    HW215456   2.303   3.425  11.531 -0.4264 -0.6217 -0.0015
 1274SOL     OW15457   4.156   4.731   6.018  0.4764 -0.1386  0.0162
 1274SOL    HW115458   4.138   4.725   6.112  3.6149 -2.7638  0.4651
 1274SOL    HW215459   4.108   4.649   6.002  0.0604 -0.0250  0.6715
 1275SOL     OW15460   3.759   1.670  15.444  0.0371 -0.2204 -0.5767
 1275SOL    HW115461   3.784   1.730  15.514 -0.5191 -0.9699  0.2639
 1275SOL    HW215462   3.833   1.668  15.383  0.1951 -0.6546 -0.3742
 1276SOL     OW15463   4.106   3.156  12.867 -0.2829  0.1052  0.0817
 1276SOL    HW115464   4.179   3.189  12.814  1.1950 -0.4867  1.7604
 1276SOL    HW215465   4.121   3.063  12.880  0.0921  0.4204  1.8578
 1277SOL     OW15466   3.130   1.004   3.120 -0.1475  0.3729  0.4441
 1277SOL    HW115467   3.084   1.044   3.046  0.8002  0.0549 -0.3205
 1277SOL    HW215468   3.064   0.937   3.142 -0.7902  0.9150  0.1835
 1278SOL     OW15469   0.089   0.239   6.578  0.0251 -0.0689  0.1273
 1278SOL    HW115470   0.074   0.314   6.636  1.7968 -0.7995  1.5236
 1278SOL    HW215471   0.180   0.264   6.560  0.4671 -0.5713  1.6130
 1279SOL     OW15472   1.579   1.193   2.121 -0.2030 -0.6859 -0.1995
 1279SOL    HW115473   1.497   1.231   2.153  1.3759  1.3784  1.3276
 1279SOL    HW215474   1.580   1.111   2.170  0.3649 -0.8772 -0.5244
 1280SOL     OW15475   0.978   2.646  16.803  0.1334 -0.0788 -0.8493
 1280SOL    HW115476   0.980   2.727  16.854 -0.4499 -0.5262 -0.1243
 1280SOL    HW215477   0.900   2.596  16.826  0.2792 -0.4718 -1.1977
 1281SOL     OW15478   0.398   1.746   7.137 -0.0679 -0.4764 -0.5164
 1281SOL    HW115479   0.414   1.665   7.186  1.5426  0.4906  0.5574
 1281SOL    HW215480   0.310   1.756   7.175 -0.2253 -2.1724 -0.4360
 1282SOL     OW15481   1.811   1.947   8.447  0.3846  0.1154  0.1363
 1282SOL    HW115482   1.845   1.910   8.528  1.6323  2.7744  0.8155
 1282SOL    HW215483   1.734   1.892   8.431  0.2083  0.3622  0.1373
 1283SOL     OW15484   3.064   0.402  13.054  0.1838  0.2094 -0.2291
 1283SOL    HW115485   3.129   0.472  13.052  0.4800 -0.1463 -2.9484
 1283SOL    HW215486   3.036   0.415  13.145 -0.1247  1.2203 -0.4738
 1284SOL     OW15487   1.712   1.048   6.113 -0.1156  0.2235  0.0579
 1284SOL    HW115488   1.801   1.025   6.141  0.1859 -1.4508 -2.2860
 1284SOL    HW215489   1.725   1.126   6.059  0.6504 -0.4543 -0.7478
 1285SOL     OW15490   3.631   3.643   3.836 -0.6880 -0.3273 -0.3692
 1285SOL    HW115491   3.623   3.717   3.776  0.8935 -0.9336 -1.3344
 1285SOL    HW215492   3.712   3.604   3.801 -1.4631 -3.9440  1.8906
 1286SOL     OW15493   3.936   1.550   8.395  0.4291  0.2241 -0.2929
 1286SOL    HW115494   4.005   1.530   8.458 -1.5517 -2.4705  1.0322
 1286SOL    HW215495   3.918   1.643   8.409  0.7820  0.0417  1.3164
 1287SOL     OW15496   0.271   0.153  13.711  0.2146  0.8125  0.0781
 1287SOL    HW115497   0.220   0.221  13.667  1.6415  1.0281 -1.2257
 1287SOL    HW215498   0.225   0.081  13.669 -1.2890  1.7861  0.0215
 1288SOL     OW15499   1.062   2.698   3.684  0.0183 -0.1899  0.1221
 1288SOL    HW115500   0.973   2.667   3.667  0.2123 -0.4618 -0.4394
 1288SOL    HW215501   1.059   2.734   3.772 -1.3714 -0.6936  0.2735
 1289SOL     OW15502   4.496   2.886   2.150 -0.2017  0.3966  0.1986
 1289SOL    HW115503   4.443   2.889   2.229 -0.6978  0.4187 -0.1345
 1289SOL    HW215504   4.466   2.805   2.108 -1.0363  1.7047 -1.7611
 1290SOL     OW15505   2.047   2.428  16.128 -0.7109 -0.1733 -0.3617
 1290SOL    HW115506   2.098   2.386  16.059 -0.1699 -0.7384  0.3698
 1290SOL    HW215507   1.979   2.476  16.081 -1.5721 -1.0118  0.0060
 1291SOL     OW15508   0.811   1.067   3.517  0.2065 -0.3084  0.0328
 1291SOL    HW115509   0.892   1.027   3.548 -0.5129  0.4164  2.8181
 1291SOL    HW215510   0.774   1.110   3.595 -1.8911  1.6729 -2.0448
 1292SOL     OW15511   4.564   1.254   4.272  0.1067 -0.1589  0.4528
 1292SOL    HW115512   4.579   1.181   4.333  3.4768  0.2954  0.1187
 1292SOL    HW215513   4.540   1.206   4.193 -2.3566 -1.6527  2.1001
 1293SOL     OW15514   2.749   4.058   6.020  0.4596  0.1657  0.2002
 1293SOL    HW115515   2.670   4.024   6.062 -1.2877  0.1907 -3.0590
 1293SOL    HW215516   2.793   3.981   5.983 -1.5037 -2.1961  2.7298
 1294SOL     OW15517   1.183   1.559   7.139  0.3056  0.1076 -0.0084
 1294SOL    HW115518   1.191   1.567   7.044  0.0563 -3.3571 -0.3361
 1294SOL    HW215519   1.163   1.648   7.166  0.5363  0.1349  0.0741
 1295SOL     OW15520   0.002   1.473   5.440  0.1077 -0.0016 -0.0564
 1295SOL    HW115521   4.689   1.457   5.361 -0.8087  0.2214  0.5040
 1295SOL    HW215522   4.714   1.392   5.484  1.9740 -0.7309 -0.2638
 1296SOL     OW15523   2.670   0.408   7.165  0.0156 -0.5072  0.0407
 1296SOL    HW115524   2.749   0.394   7.218 -0.9198  1.3582  1.9671
 1296SOL    HW215525   2.642   0.495   7.195 -0.8578 -0.5600 -0.6247
 1297SOL     OW15526   0.684   0.599   9.186  0.5576  0.4716  0.4104
 1297SOL    HW115527   0.726   0.557   9.261 -0.0213  0.2468  0.6041
 1297SOL    HW215528   0.636   0.521   9.158 -1.8345  2.2683 -0.4247
 1298SOL     OW15529   1.670   1.805   8.905 -0.3706  0.1121  0.1728
 1298SOL    HW115530   1.680   1.837   8.815  0.3506 -2.3008 -0.6023
 1298SOL    HW215531   1.728   1.730   8.892 -0.8029  0.1161 -1.8104
 1299SOL     OW15532   1.046   0.170  17.422  0.9244 -0.3135 -0.4279
 1299SOL    HW115533   1.025   0.263  17.410  0.3612 -0.6574 -2.0853
 1299SOL    HW215534   0.980   0.140  17.484  2.4990  0.5567  1.6495
 1300SOL     OW15535   1.399   1.264   6.939  0.1176 -0.3072 -0.4076
 1300SOL    HW115536   1.404   1.177   6.900  0.9144  0.8665 -2.8639
 1300SOL    HW215537   1.332   1.294   6.878 -0.9070 -0.7535  0.4996
 1301SOL     OW15538   4.652   0.035  14.383 -0.2210 -0.5439 -0.5857
 1301SOL    HW115539   4.582   0.065  14.440 -0.2453 -2.1293  0.2329
 1301SOL    HW215540   4.718   0.094  14.418  0.0604 -0.8314 -0.6325
 1302SOL     OW15541   0.996   2.457   2.338 -0.3826 -0.2565  0.3036
 1302SOL    HW115542   1.064   2.475   2.403 -1.0711  1.8805  0.4421
 1302SOL    HW215543   0.925   2.521   2.344 -0.0230  0.2910 -1.4263
 1303SOL     OW15544   2.879   2.515   5.889  0.0107 -0.2095  0.5060
 1303SOL    HW115545   2.874   2.560   5.805 -1.6396 -0.1760  0.6315
 1303SOL    HW215546   2.953   2.454   5.892  1.1318  1.0463 -1.3388
 1304SOL     OW15547   3.790   1.068   2.081 -0.5596 -0.2461  0.0662
 1304SOL    HW115548   3.850   1.006   2.122  0.3013 -0.0484 -0.8856
 1304SOL    HW215549   3.705   1.026   2.088  0.0520 -1.8654 -2.1144
 1305SOL     OW15550   1.015   4.022   6.607  0.5774 -0.0473 -0.5248
 1305SOL    HW115551   1.077   4.092   6.585  0.6704  0.1809  0.4816
 1305SOL    HW215552   1.053   4.003   6.693  0.4606  0.6209 -0.3332
 1306SOL     OW15553   1.882   1.144  14.733 -0.2789 -0.0468 -0.2425
 1306SOL    HW115554   1.870   1.231  14.695  1.5575 -0.0355 -0.8211
 1306SOL    HW215555   1.818   1.093  14.684 -1.6420  0.6652  0.8161
 1307SOL     OW15556   3.962   3.486   6.161 -0.2976  0.2701  0.0540
 1307SOL    HW115557   3.939   3.512   6.072 -0.8604  0.6429  0.3085
 1307SOL    HW215558   3.894   3.432   6.202  1.8402 -2.3312  0.1762
 1308SOL     OW15559   1.340   3.669   8.966  0.4021  0.4903  0.1107
 1308SOL    HW115560   1.412   3.717   9.006 -1.1205  1.7861  1.3014
 1308SOL    HW215561   1.329   3.589   9.018  1.5242 -0.5591 -1.2545
 1309SOL     OW15562   0.981   1.793  13.196 -0.3823 -0.4604  0.3457
 1309SOL    HW115563   0.955   1.724  13.257 -1.0291  2.6994  3.6632
 1309SOL    HW215564   0.929   1.869  13.225  1.1881  0.4604  0.7465
 1310SOL     OW15565   1.634   3.840   8.728 -0.1825  0.2847  0.6868
 1310SOL    HW115566   1.569   3.840   8.657  0.3617 -0.5400  0.1815
 1310SOL    HW215567   1.682   3.921   8.713 -0.7095  0.4231 -0.2669
 1311SOL     OW15568   1.269   4.569   4.693 -0.2309  0.3586 -0.1197
 1311SOL    HW115569   1.286   4.528   4.778 -0.0394 -1.6582 -1.1357
 1311SOL    HW215570   1.350   4.618   4.678  0.5102 -0.8494 -0.0156
 1312SOL     OW15571   0.715   4.117   2.800  0.2243 -0.1249 -0.2633
 1312SOL    HW115572   0.741   4.049   2.737 -0.4942 -0.8739  0.2558
 1312SOL    HW215573   0.799   4.164   2.797 -0.7423  1.7493  2.7596
 1313SOL     OW15574   1.248   2.625   1.837 -0.5897  0.2639  0.8993
 1313SOL    HW115575   1.322   2.643   1.894  1.5558 -1.9448 -1.1573
 1313SOL    HW215576   1.275   2.538   1.805  1.4144  0.0854  3.1097
 1314SOL     OW15577   2.209   4.480   4.933  0.1383 -0.2075 -0.4723
 1314SOL    HW115578   2.178   4.395   4.901 -0.8409 -0.7054  1.8149
 1314SOL    HW215579   2.300   4.467   4.961 -0.8953 -1.4541  2.3133
 1315SOL     OW15580   0.102   0.180   4.315  0.1770 -0.1741  0.3350
 1315SOL    HW115581   0.025   0.160   4.261 -0.9836 -0.7595  2.2130
 1315SOL    HW215582   0.057   0.186   4.399 -0.0143  0.4366  0.1900
 1316SOL     OW15583   1.026   3.376   8.674  0.0854  0.2664  0.3876
 1316SOL    HW115584   0.943   3.414   8.647 -1.5905 -2.7097  1.4150
 1316SOL    HW215585   1.072   3.387   8.591  1.1575 -1.5358  0.7378
 1317SOL     OW15586   2.735   1.069   5.406  0.0463 -0.4529  0.5029
 1317SOL    HW115587   2.682   1.050   5.328 -1.7249 -0.4068  1.7150
 1317SOL    HW215588   2.690   1.148   5.436  1.2851  0.3913  0.1509
 1318SOL     OW15589   3.966   1.488  14.647  0.1740 -0.1360  0.2041
 1318SOL    HW115590   3.889   1.531  14.609 -0.3709 -0.1699  1.2771
 1318SOL    HW215591   4.035   1.542  14.608  0.5102 -1.2275 -0.7105
 1319SOL     OW15592   4.552   4.094   5.334 -0.2386  0.7018 -0.2361
 1319SOL    HW115593   4.532   4.148   5.410 -1.8180  0.6687 -0.6254
 1319SOL    HW215594   4.466   4.060   5.310 -0.0232  0.1433 -0.1983
 1320SOL     OW15595   2.026   0.959  11.206  0.4922  0.0565  0.2498
 1320SOL    HW115596   2.069   1.039  11.174 -1.2411  1.2495  0.8991
 1320SOL    HW215597   1.988   0.990  11.288 -2.0745  0.0990 -0.9499
 1321SOL     OW15598   2.041   0.447   2.951  0.0007  0.5388 -0.5489
 1321SOL    HW115599   2.018   0.368   2.903 -2.1776 -0.9988  3.0567
 1321SOL    HW215600   2.134   0.468   2.941 -0.5291  1.5869 -3.3731
 1322SOL     OW15601   3.856   2.823   8.740 -0.5639  0.1548  0.3296
 1322SOL    HW115602   3.827   2.733   8.759  0.0401 -0.0228  0.4123
 1322SOL    HW215603   3.845   2.865   8.825  1.4038  1.5295 -0.0884
 1323SOL     OW15604   2.489   4.692   1.550 -0.2528  0.1067  0.2992
 1323SOL    HW115605   2.405   4.666   1.587 -0.6354  1.1573  0.1586
 1323SOL    HW215606   2.542   4.616   1.574  0.9231  1.3169  1.5177
 1324SOL     OW15607   4.183   3.369   8.760 -1.1045  0.7917  0.4077
 1324SOL    HW115608   4.154   3.279   8.744  1.3708 -0.0263  0.6585
 1324SOL    HW215609   4.261   3.376   8.706 -0.8978 -0.1963  0.5846
 1325SOL     OW15610   0.197   4.717   0.103  0.2509  0.0197  0.1119
 1325SOL    HW115611   0.207   4.635   0.055 -0.9215 -0.8129  1.3023
 1325SOL    HW215612   0.217   4.686   0.191 -2.3475  1.8998  1.3498
 1326SOL     OW15613   3.433   3.487  15.547 -0.0320 -0.2336 -0.5054
 1326SOL    HW115614   3.522   3.476  15.516  0.5798 -0.1620  1.2536
 1326SOL    HW215615   3.395   3.419  15.490  0.9515 -1.4607  0.3066
 1327SOL     OW15616   4.455   2.764   8.447  0.8505  0.0517 -0.4148
 1327SOL    HW115617   4.395   2.737   8.516 -0.2987 -0.6641 -1.6853
 1327SOL    HW215618   4.420   2.715   8.372  1.0967 -0.4537 -0.1985
 1328SOL     OW15619   2.788   1.506   1.694  0.2056 -0.5978 -0.0889
 1328SOL    HW115620   2.832   1.548   1.767 -3.5835  1.6195  0.8801
 1328SOL    HW215621   2.728   1.449   1.742  0.0714  1.5881  2.2743
 1329SOL     OW15622   2.203   4.067   3.766 -0.0321 -0.0890 -0.0934
 1329SOL    HW115623   2.282   4.013   3.759 -0.0542 -0.1593  0.2097
 1329SOL    HW215624   2.211   4.105   3.854  0.2923  0.8856 -0.5526
 1330SOL     OW15625   1.117   3.816   8.962 -0.6381  0.3902 -0.3803
 1330SOL    HW115626   1.059   3.749   9.000  1.4828 -1.7824 -0.9967
 1330SOL    HW215627   1.197   3.763   8.962 -1.2346 -0.5206 -0.2585
 1331SOL     OW15628   1.243   1.114   1.754  0.2012 -0.2566 -0.0389
 1331SOL    HW115629   1.223   1.117   1.660  1.1450 -0.7195 -0.2546
 1331SOL    HW215630   1.184   1.184   1.781 -1.7227 -1.4231 -1.2576
 1332SOL     OW15631   0.763   2.973   8.732  0.1072  0.4996 -0.0937
 1332SOL    HW115632   0.727   3.030   8.665  0.8667  0.6607 -0.3646
 1332SOL    HW215633   0.857   2.965   8.713  0.9422 -0.5550  4.5308
 1333SOL     OW15634   2.173   1.275   4.609  0.0038  0.6284  0.1540
 1333SOL    HW115635   2.127   1.194   4.587 -0.6128  1.3462 -1.2305
 1333SOL    HW215636   2.123   1.321   4.678 -1.9429  0.3263 -1.0404
 1334SOL     OW15637   4.457   2.580   6.796 -0.0605 -0.0385 -0.0870
 1334SOL    HW115638   4.550   2.595   6.779  0.2319 -1.8969 -0.0919
 1334SOL    HW215639   4.450   2.494   6.756 -0.7248 -0.0474  0.0448
 1335SOL     OW15640   0.966   0.826   5.009  0.2349  0.3477 -0.3434
 1335SOL    HW115641   1.036   0.891   5.010 -0.5752  1.2430 -2.6275
 1335SOL    HW215642   0.892   0.885   5.000 -1.6279 -1.5291  2.7134
 1336SOL     OW15643   3.693   4.395   5.617 -0.2622 -0.0664  0.2765
 1336SOL    HW115644   3.702   4.374   5.524  0.5974  1.8446 -0.0745
 1336SOL    HW215645   3.718   4.310   5.653  3.5540  0.5132 -0.9859
 1337SOL     OW15646   0.945   1.041   6.305 -0.0381  0.3302  0.4607
 1337SOL    HW115647   0.972   1.105   6.239 -0.3140 -0.0673 -0.0398
 1337SOL    HW215648   0.963   0.962   6.254  2.4263  1.5039 -0.4879
 1338SOL     OW15649   4.393   3.689   0.406  0.0392  0.1757 -0.9527
 1338SOL    HW115650   4.370   3.711   0.316 -0.3623  2.1118 -0.3699
 1338SOL    HW215651   4.346   3.757   0.453  2.3895 -0.0942  1.8151
 1339SOL     OW15652   0.478   3.692  13.153 -0.4171  0.1739  0.1218
 1339SOL    HW115653   0.391   3.688  13.192 -0.2744  0.7477  0.4843
 1339SOL    HW215654   0.502   3.782  13.174 -0.8265  0.6125 -1.2879
 1340SOL     OW15655   1.048   0.397   8.951  0.5679  0.0853  0.1333
 1340SOL    HW115656   1.071   0.446   9.030 -0.6179 -0.6011  0.9184
 1340SOL    HW215657   0.952   0.397   8.960  0.4341 -1.4962 -1.1316
 1341SOL     OW15658   2.030   1.321  10.719  0.7883 -0.5482  0.9813
 1341SOL    HW115659   1.998   1.269  10.794 -0.0300  0.1993  1.1505
 1341SOL    HW215660   1.998   1.263  10.650 -2.1480 -0.1212  1.9584
 1342SOL     OW15661   4.631   2.587  15.406  0.0428 -0.2932 -0.3936
 1342SOL    HW115662   4.568   2.635  15.352 -0.3636 -0.3507  0.0372
 1342SOL    HW215663   4.625   2.509  15.351  3.8171 -0.6128 -0.3345
 1343SOL     OW15664   4.097   2.550   7.013  0.1658 -0.7178  0.7535
 1343SOL    HW115665   4.034   2.484   7.044 -1.1639  1.1807  2.0639
 1343SOL    HW215666   4.047   2.587   6.941 -0.3730 -1.2961  0.8193
 1344SOL     OW15667   2.689   3.115  14.532 -0.5689  1.3544 -0.4167
 1344SOL    HW115668   2.692   3.020  14.545  0.9390  1.5224  0.4338
 1344SOL    HW215669   2.755   3.151  14.591 -1.1305  1.3846  0.1992
 1345SOL     OW15670   2.314   4.276   4.638  0.3910  0.7116  0.2089
 1345SOL    HW115671   2.385   4.339   4.649  0.4748  0.7715 -0.7318
 1345SOL    HW215672   2.278   4.299   4.553 -1.8960 -0.5734  0.8019
 1346SOL     OW15673   3.577   1.157  14.936 -0.8644  0.5668 -0.1632
 1346SOL    HW115674   3.657   1.156  14.884  0.0720  1.0980  1.2961
 1346SOL    HW215675   3.588   1.238  14.986  1.7318 -0.0771  0.2702
 1347SOL     OW15676   4.035   0.833   8.647 -0.4036 -0.2126  0.1538
 1347SOL    HW115677   4.110   0.774   8.656 -1.2557 -1.1220  1.2821
 1347SOL    HW215678   4.061   0.922   8.670 -0.2716 -0.2884  0.3014
 1348SOL     OW15679   2.422   4.488   8.385 -0.4200  0.1169  0.3555
 1348SOL    HW115680   2.330   4.510   8.367  0.1017  1.3356 -0.7362
 1348SOL    HW215681   2.451   4.579   8.393  0.5306 -0.1600  0.0537
 1349SOL     OW15682   4.525   4.688   3.381  0.2159 -0.2678  0.0312
 1349SOL    HW115683   4.596   0.013   3.389  1.4589 -1.8749  1.7999
 1349SOL    HW215684   4.498   4.662   3.469 -0.1393 -2.5514 -0.7513
 1350SOL     OW15685   1.439   1.758   9.305  0.6949 -0.0725 -0.2297
 1350SOL    HW115686   1.521   1.747   9.353  0.2872  1.7058  0.8627
 1350SOL    HW215687   1.465   1.767   9.214 -1.3799  1.0737 -0.7008
 1351SOL     OW15688   2.149   1.308   7.924 -0.4859 -0.0007  0.1991
 1351SOL    HW115689   2.061   1.293   7.890 -0.3471  1.2024 -0.6766
 1351SOL    HW215690   2.182   1.219   7.923  3.0443  1.2892  0.0098
 1352SOL     OW15691   4.457   3.380   8.679 -0.2920  0.3502  0.0050
 1352SOL    HW115692   4.482   3.295   8.644  0.5912  0.5489  0.1484
 1352SOL    HW215693   4.459   3.358   8.772  0.6781  1.9486  0.3770
 1353SOL     OW15694   0.510   3.365   1.063 -0.3973  0.0434 -0.0570
 1353SOL    HW115695   0.442   3.348   0.998  1.2984 -3.6133 -0.8748
 1353SOL    HW215696   0.520   3.459   1.052 -2.5205  0.3610  0.7225
 1354SOL     OW15697   3.592   1.355   5.232 -0.4433  0.2517  0.8725
 1354SOL    HW115698   3.582   1.433   5.178 -0.4666  0.5775  1.3524
 1354SOL    HW215699   3.507   1.313   5.216  0.3827 -1.4220  0.8211
 1355SOL     OW15700   1.992   2.030   1.253  0.1314 -0.0346 -0.3769
 1355SOL    HW115701   2.047   2.106   1.267 -0.7050 -0.1339  3.3062
 1355SOL    HW215702   1.965   2.042   1.162 -1.3061 -1.0474 -0.0926
 1356SOL     OW15703   2.630   0.266   4.653 -0.1526  0.0004  0.0425
 1356SOL    HW115704   2.604   0.210   4.580  0.3893 -1.9308  1.3413
 1356SOL    HW215705   2.554   0.324   4.642 -1.7671 -2.1137  0.2000
 1357SOL     OW15706   4.009   1.207   3.266  0.0600  0.0330 -0.6405
 1357SOL    HW115707   4.053   1.193   3.181  2.0225  2.5514 -0.0569
 1357SOL    HW215708   3.928   1.163   3.239 -1.2704  1.2881  1.3303
 1358SOL     OW15709   2.580   2.144   1.752  0.5495 -0.2598 -0.6677
 1358SOL    HW115710   2.592   2.064   1.802  0.1883  0.3885  0.4684
 1358SOL    HW215711   2.492   2.176   1.775  0.5519 -2.6810  2.6821
 1359SOL     OW15712   2.464   4.090   7.836  0.2237 -0.3650  0.4572
 1359SOL    HW115713   2.428   4.177   7.856  1.2896  0.5255 -1.5074
 1359SOL    HW215714   2.556   4.096   7.861  0.3886 -0.1936 -0.2007
 1360SOL     OW15715   1.590   4.655  13.107  0.6363 -0.1645  0.0236
 1360SOL    HW115716   1.551   4.644  13.194 -0.6307  0.5818 -0.4505
 1360SOL    HW215717   1.540   4.734  13.086  2.0631  1.3682  2.3124
 1361SOL     OW15718   3.990   2.096  17.405 -0.0375 -0.2548 -0.1798
 1361SOL    HW115719   3.911   2.058  17.443  0.3881 -1.0839 -0.1166
 1361SOL    HW215720   4.039   2.014  17.409 -1.1236 -0.8545  0.8158
 1362SOL     OW15721   1.707   3.882   1.535  0.3922 -0.0550  0.2044
 1362SOL    HW115722   1.681   3.858   1.624  1.3147 -1.8729 -0.0179
 1362SOL    HW215723   1.791   3.922   1.553 -0.2639 -0.0888  3.2593
 1363SOL     OW15724   0.132   0.942  17.598 -0.8254  0.2195 -0.4000
 1363SOL    HW115725   0.192   1.005  17.637 -0.9066 -0.5356  0.9404
 1363SOL    HW215726   0.090   0.906  17.676 -2.0276  0.2395 -1.0391
 1364SOL     OW15727   1.149   2.856   0.831  0.3035  0.2309  0.3170
 1364SOL    HW115728   1.102   2.776   0.808  1.1272  0.0290 -0.6415
 1364SOL    HW215729   1.218   2.851   0.765 -0.5675  0.2142 -0.5975
 1365SOL     OW15730   1.035   4.537   2.033 -0.0705  0.1897  0.1197
 1365SOL    HW115731   1.003   4.451   2.005 -3.2031  0.4151  3.0476
 1365SOL    HW215732   0.965   4.568   2.090  0.6717  1.0858  0.5503
 1366SOL     OW15733   0.375   2.966   2.144 -0.1339 -0.0904 -0.0940
 1366SOL    HW115734   0.396   3.015   2.224  0.5618  2.2534 -1.7143
 1366SOL    HW215735   0.399   3.038   2.085 -2.4646 -0.1362 -1.1075
 1367SOL     OW15736   2.532   4.083   2.733  0.1403  0.1163 -0.5991
 1367SOL    HW115737   2.450   4.058   2.776 -1.8149  2.3443 -3.0074
 1367SOL    HW215738   2.551   4.003   2.684  1.2139  0.6781 -1.1026
 1368SOL     OW15739   1.468   0.936   4.965  1.2550  0.6950  1.1019
 1368SOL    HW115740   1.427   0.854   4.992 -0.1313  1.7880  2.3041
 1368SOL    HW215741   1.561   0.913   4.957  1.0559 -0.4135  1.9871
 1369SOL     OW15742   4.076   0.966  10.028 -0.1193 -0.2644  0.0126
 1369SOL    HW115743   4.145   0.933  10.086 -1.3389  0.3389  1.8140
 1369SOL    HW215744   4.025   0.885  10.024  1.2713 -0.9750 -2.8069
 1370SOL     OW15745   1.719   3.276   5.377  0.2346  0.6375 -0.6874
 1370SOL    HW115746   1.745   3.184   5.381 -0.9316  0.2915 -0.8787
 1370SOL    HW215747   1.804   3.317   5.366  0.7499  0.3156  1.9179
 1371SOL     OW15748   2.981   3.656   0.173  0.3734  0.0314  0.4394
 1371SOL    HW115749   2.967   3.595   0.100  0.2498  0.4186  0.1398
 1371SOL    HW215750   3.076   3.669   0.178  0.4898 -0.1629 -1.1552
 1372SOL     OW15751   2.612   3.447   2.270 -0.0672  0.2993  0.2011
 1372SOL    HW115752   2.578   3.411   2.352 -1.7461  1.6274  0.0845
 1372SOL    HW215753   2.690   3.395   2.250 -0.6157 -0.2575 -0.5195
 1373SOL     OW15754   2.336   3.565   3.112 -0.3796  0.6205 -0.0560
 1373SOL    HW115755   2.337   3.512   3.033 -2.7504  1.4465 -0.6476
 1373SOL    HW215756   2.425   3.551   3.144  0.4975  1.4505 -2.1366
 1374SOL     OW15757   3.479   0.248   1.770  0.1168  0.1441  0.3031
 1374SOL    HW115758   3.460   0.312   1.701 -0.8318  1.5033  1.8226
 1374SOL    HW215759   3.431   0.173   1.735 -2.4256  2.1255 -0.4641
 1375SOL     OW15760   0.250   4.702   4.059  0.1305  0.9713 -0.3052
 1375SOL    HW115761   0.344   4.701   4.076 -0.3802  0.4798  2.4098
 1375SOL    HW215762   0.232   0.051   4.092  1.6178  0.6420  1.4008
 1376SOL     OW15763   0.638   4.567   7.274  0.2163 -0.2694  0.5763
 1376SOL    HW115764   0.584   4.644   7.256  0.2017 -0.7483 -1.4928
 1376SOL    HW215765   0.621   4.545   7.365  1.0861 -1.7911  0.3632
 1377SOL     OW15766   3.988   1.237  11.935  0.2391 -0.2501  0.5617
 1377SOL    HW115767   3.919   1.182  11.900  0.9021 -0.1765 -0.8623
 1377SOL    HW215768   3.966   1.260  12.025 -1.6849 -0.0366  0.0220
 1378SOL     OW15769   3.465   3.711   2.297  0.3148 -0.0229 -0.3463
 1378SOL    HW115770   3.402   3.783   2.301  0.0472 -0.3132  0.7861
 1378SOL    HW215771   3.502   3.712   2.385  0.9679 -0.8540 -0.6060
 1379SOL     OW15772   2.701   2.713   8.908 -0.0905 -0.2904  0.0882
 1379SOL    HW115773   2.733   2.781   8.967  0.5213 -1.3059  0.9374
 1379SOL    HW215774   2.645   2.768   8.853  0.1839 -2.2493 -2.1811
 1380SOL     OW15775   4.197   3.673  17.063 -0.2510 -0.2552  0.1296
 1380SOL    HW115776   4.105   3.653  17.048 -0.4064 -0.0864  0.8786
 1380SOL    HW215777   4.192   3.706  17.153 -0.6695  0.1077 -0.0269
 1381SOL     OW15778   3.507   3.417   5.226  0.6442  0.7843 -0.3316
 1381SOL    HW115779   3.483   3.391   5.137  0.1186 -0.4760  0.1791
 1381SOL    HW215780   3.602   3.415   5.215  0.6820 -2.5964  0.6805
 1382SOL     OW15781   1.739   1.089   8.561 -0.4876 -0.2879 -0.0604
 1382SOL    HW115782   1.685   1.020   8.523 -2.3144  1.1612 -0.0851
 1382SOL    HW215783   1.823   1.042   8.567  0.3848  0.9010 -2.7523
 1383SOL     OW15784   0.244   3.181   5.951 -0.0911 -0.0745  0.1126
 1383SOL    HW115785   0.266   3.269   5.920  1.2853 -0.8725 -1.1513
 1383SOL    HW215786   0.156   3.173   5.914  0.5229 -0.3863 -1.2958
 1384SOL     OW15787   0.510   2.320  15.330  0.0514 -0.3320  0.2015
 1384SOL    HW115788   0.466   2.385  15.384 -0.0586 -0.3271  0.1045
 1384SOL    HW215789   0.460   2.241  15.350 -0.2858  0.0144  0.7198
 1385SOL     OW15790   2.467   0.691   4.346 -0.0554 -0.3156  0.3493
 1385SOL    HW115791   2.525   0.639   4.402 -1.8026 -2.0008  0.5948
 1385SOL    HW215792   2.389   0.638   4.329 -0.7706  0.9084 -0.2483
 1386SOL     OW15793   2.038   0.811  15.255  0.4209  0.1072  0.1398
 1386SOL    HW115794   2.055   0.882  15.193 -1.8446  0.1130 -0.4862
 1386SOL    HW215795   1.971   0.855  15.308 -0.8160 -1.6238  0.0327
 1387SOL     OW15796   0.778   3.702   8.777 -0.1526 -0.5515 -0.4587
 1387SOL    HW115797   0.781   3.712   8.872 -0.3355  1.4151 -0.6686
 1387SOL    HW215798   0.818   3.788   8.762 -0.9623 -0.3275 -1.3448
 1388SOL     OW15799   0.208   4.689   2.896 -0.3007 -0.0901 -0.3636
 1388SOL    HW115800   0.223   0.042   2.918  0.1921 -0.2267 -0.1358
 1388SOL    HW215801   0.179   4.695   2.805 -0.2137 -0.5302 -0.4174
 1389SOL     OW15802   1.104   4.526   9.572  0.3435  0.3633  0.1397
 1389SOL    HW115803   1.197   4.506   9.582 -0.6561 -3.5750  1.9696
 1389SOL    HW215804   1.075   4.513   9.663  1.4097 -1.5770  0.1958
 1390SOL     OW15805   0.822   3.900   2.635 -0.0806  0.8775 -0.4143
 1390SOL    HW115806   0.898   3.850   2.607  0.4784  0.6331  1.5286
 1390SOL    HW215807   0.762   3.886   2.562  0.1576  3.0321 -1.0267
 1391SOL     OW15808   3.375   3.902   5.003  0.4341  0.0784 -0.1302
 1391SOL    HW115809   3.379   3.808   5.021 -0.0542  0.0570 -0.1229
 1391SOL    HW215810   3.380   3.890   4.908  0.3299 -1.2365  0.0298
 1392SOL     OW15811   1.892   1.041   1.698  0.2856 -0.1583 -0.2499
 1392SOL    HW115812   1.922   1.036   1.607  1.8815 -1.7440  0.3639
 1392SOL    HW215813   1.853   0.954   1.708 -2.6564  1.3274  1.2782
 1393SOL     OW15814   4.619   4.392   0.380 -0.1694  0.1114 -0.6874
 1393SOL    HW115815   4.640   4.466   0.322 -2.4802 -0.0599 -1.7006
 1393SOL    HW215816   4.704   4.380   0.423 -0.0521  0.4508 -0.8248
 1394SOL     OW15817   0.886   4.293   6.197  0.2364  0.0004  0.0323
 1394SOL    HW115818   0.832   4.270   6.273  0.6660 -1.1365 -0.0147
 1394SOL    HW215819   0.880   4.204   6.164  2.2503 -0.4819  1.0255
 1395SOL     OW15820   4.720   4.662   2.656  0.0306 -0.4802  0.3655
 1395SOL    HW115821   4.653   4.604   2.691  1.6711 -0.3901  3.5975
 1395SOL    HW215822   4.718   4.640   2.563  1.4152  1.1328 -0.0543
 1396SOL     OW15823   2.453   1.498   3.986  0.3726  0.1818  0.4198
 1396SOL    HW115824   2.424   1.563   4.051  0.3707  1.3390 -0.7341
 1396SOL    HW215825   2.377   1.498   3.928  1.7656  0.0243 -1.4063
 1397SOL     OW15826   2.482   0.127   9.741  0.2397  0.5682 -0.2981
 1397SOL    HW115827   2.549   0.059   9.745 -2.2939 -1.8729  1.2063
 1397SOL    HW215828   2.475   0.148   9.834 -0.2481 -1.1599  0.0623
 1398SOL     OW15829   1.934   3.399   6.545  0.3014  0.0838 -0.1670
 1398SOL    HW115830   1.879   3.469   6.577  0.8357 -0.0015  0.9477
 1398SOL    HW215831   1.942   3.412   6.450 -0.6924 -1.7718 -0.5199
 1399SOL     OW15832   0.239   1.386   4.497 -0.3415 -0.1455  0.0470
 1399SOL    HW115833   0.183   1.362   4.423 -0.6482 -3.3219  1.3385
 1399SOL    HW215834   0.278   1.301   4.518  1.2860 -0.0770 -2.6299
 1400SOL     OW15835   2.048   4.138  10.394  0.0900 -0.1721  0.5599
 1400SOL    HW115836   2.139   4.168  10.392 -0.4402  1.3099 -0.8137
 1400SOL    HW215837   2.054   4.051  10.434  0.2475 -0.1224  0.6465
 1401SOL     OW15838   3.156   1.511   1.672 -0.3854 -0.2931 -0.0215
 1401SOL    HW115839   3.133   1.604   1.672  0.7074 -0.0216  0.5825
 1401SOL    HW215840   3.249   1.515   1.694 -0.1893 -0.4038 -0.8464
 1402SOL     OW15841   3.752   1.189   6.049 -0.0277 -0.1357 -0.0206
 1402SOL    HW115842   3.830   1.139   6.026 -2.1985 -2.7813 -1.5406
 1402SOL    HW215843   3.778   1.279   6.026  2.4186  0.1703  3.8760
 1403SOL     OW15844   2.963   3.317  17.076 -0.1495 -0.4511 -0.1586
 1403SOL    HW115845   2.994   3.370  17.003 -0.9287  0.6060  0.2788
 1403SOL    HW215846   2.977   3.230  17.038 -0.7881  0.9089 -3.4743
 1404SOL     OW15847   3.197   2.776  10.046  0.5658 -0.1048  0.0648
 1404SOL    HW115848   3.213   2.682  10.059 -2.2485 -0.7333 -0.9375
 1404SOL    HW215849   3.194   2.781   9.950 -0.9580  0.3447  0.1381
 1405SOL     OW15850   3.193   0.942   4.271 -0.0439 -0.2539  0.4551
 1405SOL    HW115851   3.143   0.886   4.212 -2.1828 -1.1415  3.1494
 1405SOL    HW215852   3.158   0.919   4.357 -0.7596 -0.4303  0.1090
 1406SOL     OW15853   3.618   1.945  12.837  0.1137 -0.0308  0.4151
 1406SOL    HW115854   3.647   2.026  12.880  0.0176 -0.9316  2.1626
 1406SOL    HW215855   3.687   1.882  12.853  0.1581 -0.6401 -2.0544
 1407SOL     OW15856   2.653   2.785   7.247  0.4875  0.2286 -0.5568
 1407SOL    HW115857   2.585   2.832   7.198  1.0472  0.1347 -1.4388
 1407SOL    HW215858   2.612   2.699   7.256  0.5258  0.1903 -0.7514
 1408SOL     OW15859   2.987   1.498   5.493 -0.5437 -0.0411  0.1659
 1408SOL    HW115860   2.927   1.572   5.494 -1.1224 -0.5059 -1.4742
 1408SOL    HW215861   3.030   1.496   5.579  0.7814  1.4826 -0.4576
 1409SOL     OW15862   2.877   0.363   6.302  0.0414 -0.1266  0.7784
 1409SOL    HW115863   2.783   0.379   6.313 -0.3852 -0.6579 -2.2128
 1409SOL    HW215864   2.884   0.309   6.381  1.0282 -0.5992  0.3611
 1410SOL     OW15865   0.226   1.227   4.793 -0.0563 -0.1439  0.7301
 1410SOL    HW115866   0.162   1.204   4.861  0.6903  0.1266  1.5208
 1410SOL    HW215867   0.296   1.264   4.846 -0.5633  0.8621  0.7030
 1411SOL     OW15868   1.185   4.733   7.690  0.4920  0.8893  0.0464
 1411SOL    HW115869   1.225   4.690   7.615  0.1805 -0.2344  0.5370
 1411SOL    HW215870   1.211   4.685   7.768 -2.2241 -0.4925  0.0785
 1412SOL     OW15871   2.832   1.328   7.899 -0.4930 -0.2348 -0.0748
 1412SOL    HW115872   2.858   1.281   7.820 -0.3417  0.7038 -0.5765
 1412SOL    HW215873   2.785   1.257   7.943  0.1816 -0.5485  0.1410
 1413SOL     OW15874   0.692   2.624   6.675 -1.0722  0.3540  0.3386
 1413SOL    HW115875   0.700   2.667   6.760 -0.9524 -0.9115  0.9624
 1413SOL    HW215876   0.690   2.698   6.614 -0.4011 -0.6047 -0.8406
 1414SOL     OW15877   0.832   1.980   2.384  0.2754  0.1288 -0.4455
 1414SOL    HW115878   0.860   1.957   2.473  0.0823  0.9968 -0.1577
 1414SOL    HW215879   0.913   1.952   2.342  0.2939  0.3391 -0.5524
 1415SOL     OW15880   2.111   0.716   1.446 -0.3843  0.6425 -0.2065
 1415SOL    HW115881   2.079   0.647   1.503 -2.3625  2.0416  0.3777
 1415SOL    HW215882   2.188   0.741   1.497  0.0018 -3.1830  1.0554
 1416SOL     OW15883   4.063   3.765   3.931 -0.2486 -0.3734  0.1040
 1416SOL    HW115884   4.101   3.791   4.015 -0.4342  0.4126 -0.0568
 1416SOL    HW215885   3.976   3.747   3.967 -0.0771 -1.0451  0.1806
 1417SOL     OW15886   4.035   4.686   2.747  0.4777  0.4151  0.0499
 1417SOL    HW115887   3.981   4.609   2.766  0.3627  0.5942  0.4484
 1417SOL    HW215888   3.969   4.734   2.697  1.0209  0.9353 -0.1639
 1418SOL     OW15889   2.235   1.321   8.930  0.0696  0.3771 -0.2200
 1418SOL    HW115890   2.274   1.241   8.897 -2.4038 -0.6982 -0.5298
 1418SOL    HW215891   2.254   1.367   8.848 -0.3350 -1.2895 -1.2432
 1419SOL     OW15892   0.642   4.084   8.887  0.6474 -0.1178 -0.2606
 1419SOL    HW115893   0.660   4.095   8.794 -1.6016  0.7246 -0.5859
 1419SOL    HW215894   0.685   4.005   8.921  0.3577 -0.2900 -0.2990
 1420SOL     OW15895   2.757   3.243   2.802  0.4178 -0.5931  0.2938
 1420SOL    HW115896   2.807   3.169   2.835  0.3045  0.4044  2.7107
 1420SOL    HW215897   2.669   3.231   2.837 -0.4680 -1.0432 -2.0599
 1421SOL     OW15898   1.772   3.410   0.622 -0.6344 -0.0732 -0.0136
 1421SOL    HW115899   1.811   3.423   0.535 -1.1352  0.4733 -0.1620
 1421SOL    HW215900   1.831   3.468   0.670  2.0051 -0.4292 -2.7836
 1422SOL     OW15901   2.044   2.321   3.035 -0.5241 -0.3240  0.0459
 1422SOL    HW115902   2.088   2.242   3.002  0.5173  0.2162  0.1525
 1422SOL    HW215903   2.110   2.389   3.022 -0.9329 -0.1128 -0.9359
 1423SOL     OW15904   0.532   1.040   3.140  0.1321  0.2709 -0.4928
 1423SOL    HW115905   0.493   0.994   3.065  0.4985 -1.1355  0.1787
 1423SOL    HW215906   0.549   1.128   3.106 -2.8488  1.0047 -0.1044
 1424SOL     OW15907   0.229   0.897  14.457 -0.3927 -0.6061  0.4146
 1424SOL    HW115908   0.197   0.967  14.514  0.2182 -0.4662  0.5827
 1424SOL    HW215909   0.212   0.935  14.371 -0.5679  0.5307  0.9568
 1425SOL     OW15910   4.042   0.294  14.400  0.6039  1.1404  0.0420
 1425SOL    HW115911   4.023   0.221  14.342 -1.8727  1.4886  0.4238
 1425SOL    HW215912   4.061   0.239  14.476 -1.2335  1.7885  0.9803
 1426SOL     OW15913   4.733   3.525   3.126  0.4055  0.2441 -0.8409
 1426SOL    HW115914   4.711   3.582   3.199  1.0382  0.8019 -1.0874
 1426SOL    HW215915   4.708   3.440   3.163  3.2175 -1.2115 -2.2009
 1427SOL     OW15916   1.592   2.529   6.405  0.1109 -0.3059 -0.4871
 1427SOL    HW115917   1.640   2.547   6.485  0.0695 -2.2370 -0.0219
 1427SOL    HW215918   1.570   2.436   6.412 -2.7750  0.3944 -0.1806
 1428SOL     OW15919   3.548   2.141   6.468 -0.7530 -0.6071  0.3687
 1428SOL    HW115920   3.558   2.047   6.454  0.0654 -0.6981  1.4942
 1428SOL    HW215921   3.610   2.152   6.541  0.2227  0.2520 -0.6020
 1429SOL     OW15922   2.753   3.760   5.490  0.2901 -0.3635 -0.0059
 1429SOL    HW115923   2.844   3.767   5.518  0.4556  1.3265 -0.9846
 1429SOL    HW215924   2.727   3.676   5.528 -1.0898 -0.2982 -0.7869
 1430SOL     OW15925   0.342   1.527   6.511  0.4955 -0.5253 -0.4364
 1430SOL    HW115926   0.313   1.581   6.585 -0.2882  0.8176 -1.7527
 1430SOL    HW215927   0.425   1.567   6.483 -0.0502  1.1965  0.4481
 1431SOL     OW15928   0.651   1.540  14.718  0.8522 -0.4789  0.1503
 1431SOL    HW115929   0.569   1.517  14.761 -2.0397 -0.3878 -5.3330
 1431SOL    HW215930   0.628   1.589  14.639 -0.3731  1.0724  1.4854
 1432SOL     OW15931   3.916   1.190   0.501  0.3800 -0.5112  0.3099
 1432SOL    HW115932   3.949   1.239   0.577 -0.7687 -2.6866  2.2017
 1432SOL    HW215933   3.981   1.120   0.493  1.5275  0.5352  0.3435
 1433SOL     OW15934   0.716   2.308   2.402  0.2360 -0.3138  0.2893
 1433SOL    HW115935   0.630   2.308   2.361 -1.4444  1.4772  3.7764
 1433SOL    HW215936   0.760   2.385   2.365  0.2877 -0.9553 -0.9461
 1434SOL     OW15937   3.584   0.222   2.018  0.4353 -0.4975 -0.1979
 1434SOL    HW115938   3.557   0.244   1.929  0.0743 -1.4096 -0.3090
 1434SOL    HW215939   3.656   0.284   2.027 -0.1157  0.0589  0.4087
 1435SOL     OW15940   3.518   4.590   3.486 -0.0467 -0.1122 -0.5265
 1435SOL    HW115941   3.433   4.548   3.495  0.0654 -0.2975 -0.3086
 1435SOL    HW215942   3.525   4.606   3.581 -0.6595 -3.1556  0.0386
 1436SOL     OW15943   3.960   3.825  13.234  0.2941 -0.8578 -0.0156
 1436SOL    HW115944   4.008   3.897  13.192  0.5949 -0.2175  1.4353
 1436SOL    HW215945   3.928   3.783  13.154 -1.3952 -1.5891  1.0396
 1437SOL     OW15946   0.231   3.294  12.649  0.2646 -0.5034  0.4467
 1437SOL    HW115947   0.261   3.373  12.605  0.3541 -0.4234  0.6506
 1437SOL    HW215948   0.315   3.269  12.688  0.1199  0.3405  1.2837
 1438SOL     OW15949   0.335   2.888   3.094 -0.3220  0.3403  0.2380
 1438SOL    HW115950   0.303   2.816   3.039 -1.0297 -1.3784  2.8934
 1438SOL    HW215951   0.265   2.885   3.159 -1.0126 -0.0477 -0.5249
 1439SOL     OW15952   2.833   3.286   4.170 -0.5498  0.0425 -0.2386
 1439SOL    HW115953   2.875   3.202   4.183  1.2900  1.1683  1.1057
 1439SOL    HW215954   2.822   3.292   4.075  3.4651  1.7985 -0.6213
 1440SOL     OW15955   0.414   3.742   8.998 -0.1698 -0.5010 -0.1249
 1440SOL    HW115956   0.402   3.831   8.964  1.0607  0.2202  1.3511
 1440SOL    HW215957   0.421   3.696   8.914  1.8459 -0.0937 -0.1767
 1441SOL     OW15958   0.648   0.230   4.662 -0.1079  0.3039  0.2037
 1441SOL    HW115959   0.662   0.321   4.639 -2.9242  1.2000  1.9622
 1441SOL    HW215960   0.673   0.241   4.753  0.8307 -2.0420  0.2529
 1442SOL     OW15961   0.737   4.711  16.509  0.1298 -0.5039 -0.3592
 1442SOL    HW115962   0.676   4.637  16.514  1.6909 -1.7451  0.5458
 1442SOL    HW215963   0.761   4.697  16.601  0.3577  0.5130 -0.2698
 1443SOL     OW15964   2.082   0.041  13.846 -0.1533  0.1118  0.0824
 1443SOL    HW115965   2.087   0.083  13.932 -0.2442 -2.4245  1.3164
 1443SOL    HW215966   2.177   0.034  13.834 -0.1801  0.3962 -0.3091
 1444SOL     OW15967   3.527   4.572  13.004 -0.1014 -0.2221  0.4463
 1444SOL    HW115968   3.441   4.539  13.032  0.3587 -1.6321  0.2001
 1444SOL    HW215969   3.557   4.597  13.092 -1.4496 -0.3417  0.9332
 1445SOL     OW15970   0.658   4.530   5.303 -0.9710 -0.3766 -0.3193
 1445SOL    HW115971   0.590   4.530   5.371 -0.1792 -0.9314  0.4689
 1445SOL    HW215972   0.701   4.446   5.319  0.8851  0.4266 -1.0928
 1446SOL     OW15973   0.775   3.205   5.756  0.3015 -0.2869 -0.2069
 1446SOL    HW115974   0.749   3.132   5.700 -0.8130  1.3583 -1.8151
 1446SOL    HW215975   0.839   3.246   5.697  0.8443 -0.6774  0.1070
 1447SOL     OW15976   0.547   3.558  17.111 -0.2836 -0.2863  0.2437
 1447SOL    HW115977   0.632   3.527  17.140 -0.3347 -1.2746 -0.6662
 1447SOL    HW215978   0.502   3.555  17.195  0.9580 -0.2614  0.9002
 1448SOL     OW15979   4.249   1.552   4.922  0.4383 -0.0497  0.0612
 1448SOL    HW115980   4.199   1.614   4.869 -0.0738 -0.7840 -0.3297
 1448SOL    HW215981   4.187   1.482   4.943  0.1649  0.4722  0.9894
 1449SOL     OW15982   0.428   2.117  10.824  0.3976  0.1187 -0.2386
 1449SOL    HW115983   0.398   2.192  10.876 -1.4554 -2.2375  2.0543
 1449SOL    HW215984   0.351   2.093  10.774  1.8348 -0.9445 -1.9330
 1450SOL     OW15985   4.431   2.230   1.492 -0.2088 -0.2477 -0.1458
 1450SOL    HW115986   4.387   2.309   1.460  1.2242 -0.3289 -2.3120
 1450SOL    HW215987   4.466   2.189   1.413 -0.0620 -0.3596 -0.0227
 1451SOL     OW15988   4.076   0.340   2.779  0.0266  0.2422 -0.0255
 1451SOL    HW115989   4.116   0.300   2.702 -0.6423 -1.2894  0.4250
 1451SOL    HW215990   4.097   0.288   2.857 -3.2866 -1.8445 -0.4975
 1452SOL     OW15991   2.267   2.152  15.180  0.2419  0.2848  0.6277
 1452SOL    HW115992   2.358   2.163  15.152  0.3358  0.3179  0.9559
 1452SOL    HW215993   2.223   2.113  15.104 -1.6973 -0.4310  2.1068
 1453SOL     OW15994   4.109   2.499  13.884 -0.3087  0.2466  0.0631
 1453SOL    HW115995   4.079   2.496  13.793  0.9675  2.0792 -0.4097
 1453SOL    HW215996   4.069   2.415  13.906 -0.1223  0.0617 -0.2836
 1454SOL     OW15997   0.096   1.796   8.120 -0.8187 -0.6681  0.3344
 1454SOL    HW115998   0.175   1.810   8.172 -1.8185 -0.5064  1.7868
 1454SOL    HW215999   0.109   1.705   8.091 -1.5147 -0.3869 -0.8651
 1455SOL     OW16000   1.188   0.259   5.774  0.5386 -0.3783 -0.5098
 1455SOL    HW116001   1.097   0.289   5.781  1.5803  2.0901  2.1544
 1455SOL    HW216002   1.197   0.235   5.681  0.0854 -1.6088 -0.2326
 1456SOL     OW16003   4.656   4.513  14.333 -0.5452  0.3169 -0.1314
 1456SOL    HW116004   4.562   4.523  14.320 -0.5125 -0.2069 -0.7391
 1456SOL    HW216005   4.675   4.600  14.370 -0.1853  0.2449 -0.1513
 1457SOL     OW16006   2.213   3.046   0.338  0.0352 -0.1471 -0.1193
 1457SOL    HW116007   2.145   3.066   0.402  2.1634  2.8820  1.1840
 1457SOL    HW216008   2.160   3.055   0.259 -0.7740  0.9795  0.5469
 1458SOL     OW16009   3.314   4.448   5.096  0.0724 -0.6084 -0.4054
 1458SOL    HW116010   3.368   4.524   5.074 -0.8172 -0.4547 -2.0230
 1458SOL    HW216011   3.324   4.389   5.021  1.0024 -0.6776 -0.2240
 1459SOL     OW16012   1.105   2.877   2.927  0.4786 -0.1562  0.8089
 1459SOL    HW116013   1.043   2.939   2.888  0.6394  1.3529  2.9728
 1459SOL    HW216014   1.048   2.821   2.978 -0.2907  1.7401  2.0155
 1460SOL     OW16015   0.167   0.753   7.938  0.6194  0.7288  0.0628
 1460SOL    HW116016   0.158   0.658   7.929  1.9713  0.6749 -0.8422
 1460SOL    HW216017   0.128   0.789   7.859  0.9843  0.6447 -0.1578
 1461SOL     OW16018   1.586   3.988   1.802  0.3633 -0.2970 -0.1216
 1461SOL    HW116019   1.594   4.074   1.762 -1.1439 -0.6962 -1.3027
 1461SOL    HW216020   1.517   4.006   1.866 -0.4048 -1.8513 -0.4875
 1462SOL     OW16021   0.823   3.904   3.186  0.1308  0.3150  0.0707
 1462SOL    HW116022   0.876   3.971   3.143 -0.2949  0.0603 -0.8458
 1462SOL    HW216023   0.756   3.953   3.233 -0.9176 -0.7621 -0.2994
 1463SOL     OW16024   3.923   0.501   5.057  0.1131  0.4224  0.7459
 1463SOL    HW116025   3.858   0.470   5.120 -2.5794  2.2944 -1.0731
 1463SOL    HW216026   3.951   0.420   5.013 -1.8315 -0.3979  1.0081
 1464SOL     OW16027   1.156   4.664   7.124 -0.2033  0.1794  0.1535
 1464SOL    HW116028   1.160   0.002   7.180 -0.0452  2.4614 -2.9691
 1464SOL    HW216029   1.069   4.629   7.141  0.9017 -1.1631  3.1170
 1465SOL     OW16030   3.848   4.593   3.040  0.1761 -0.7285  0.0082
 1465SOL    HW116031   3.770   4.613   3.092 -1.0041 -1.1217 -1.6100
 1465SOL    HW216032   3.813   4.573   2.953 -2.7127  0.3437  0.9238
 1466SOL     OW16033   0.488   0.495  15.422  0.4313 -0.4198  0.9572
 1466SOL    HW116034   0.454   0.415  15.464  0.6020 -1.6272 -1.1722
 1466SOL    HW216035   0.497   0.466  15.331  0.4824  2.0951  0.1782
 1467SOL     OW16036   3.837   2.432   4.083  0.4613 -0.2880  0.3578
 1467SOL    HW116037   3.757   2.404   4.127  2.1120 -2.3846  2.0239
 1467SOL    HW216038   3.844   2.375   4.007  0.7428 -1.1497  1.0376
 1468SOL     OW16039   4.629   3.128   4.784  0.1780  0.6371  0.1469
 1468SOL    HW116040   4.577   3.195   4.740  0.7464  0.3680 -0.9306
 1468SOL    HW216041   4.612   3.049   4.732 -0.1835  1.9002 -1.6415
 1469SOL     OW16042   1.698   0.886   8.369  0.0330  0.5779  0.0802
 1469SOL    HW116043   1.676   0.834   8.292 -0.4060  0.5993  0.1906
 1469SOL    HW216044   1.792   0.868   8.373 -0.0485  0.1894  0.1738
 1470SOL     OW16045   1.932   3.746   7.809 -0.1259  0.3064 -0.4274
 1470SOL    HW116046   1.869   3.754   7.881  0.9546 -1.1353  0.6779
 1470SOL    HW216047   1.970   3.833   7.808  0.0082  0.2524  0.0341
 1471SOL     OW16048   0.847   1.149   2.992 -0.4824  0.1217  0.0582
 1471SOL    HW116049   0.924   1.094   2.977 -2.1560 -2.3991  0.7113
 1471SOL    HW216050   0.863   1.187   3.078  0.9075 -0.3654  0.0116
 1472SOL     OW16051   0.640   2.486   1.409 -0.0317  0.6561  0.2703
 1472SOL    HW116052   0.591   2.568   1.398  0.4380  0.9116  0.1116
 1472SOL    HW216053   0.650   2.485   1.504  1.9236 -1.4211  0.0439
 1473SOL     OW16054   4.278   4.405   7.641  0.0672 -0.2874 -0.3762
 1473SOL    HW116055   4.297   4.468   7.711  0.6739 -3.0614  1.9575
 1473SOL    HW216056   4.250   4.469   7.576 -1.6101  0.2426  0.8512
 1474SOL     OW16057   0.035   4.528  12.768 -1.1200 -0.4473  0.4677
 1474SOL    HW116058   0.052   4.622  12.763 -1.3072 -0.5794 -2.6050
 1474SOL    HW216059   0.124   4.493  12.767 -1.3519 -0.9476 -2.4544
 1475SOL     OW16060   2.669   0.485   5.062 -0.3137 -0.1030 -0.6072
 1475SOL    HW116061   2.661   0.466   5.156 -0.5049  1.4385 -0.3176
 1475SOL    HW216062   2.764   0.496   5.054 -0.4177  0.3281 -1.2420
 1476SOL     OW16063   4.698   4.246   5.016  0.7326 -0.3399 -0.0250
 1476SOL    HW116064   0.002   4.173   4.971  0.7114 -0.9685  0.9708
 1476SOL    HW216065   4.612   4.244   4.974 -0.6547 -1.7450  2.8283
 1477SOL     OW16066   2.273   2.644  15.675 -0.5333 -0.1247  0.1472
 1477SOL    HW116067   2.344   2.663  15.614  0.3084  1.0999  1.5140
 1477SOL    HW216068   2.334   2.603  15.737 -0.2237 -0.2480 -0.2368
 1478SOL     OW16069   0.550   0.944   5.355  0.1253 -0.0641 -0.8124
 1478SOL    HW116070   0.567   0.861   5.310  1.8648 -0.0234 -0.2278
 1478SOL    HW216071   0.457   0.932   5.373 -0.2157 -0.2531 -2.7124
 1479SOL     OW16072   0.908   2.068   7.631 -0.2936 -0.0061  0.5237
 1479SOL    HW116073   0.825   2.105   7.661 -0.1656  2.4268 -2.0853
 1479SOL    HW216074   0.876   2.010   7.562  0.9082  0.3286 -0.3215
 1480SOL     OW16075   2.734   0.175   5.668 -0.0317 -0.2982  0.5569
 1480SOL    HW116076   2.756   0.085   5.645 -4.1536 -0.9608 -0.8864
 1480SOL    HW216077   2.807   0.227   5.634 -0.4001  1.2040  2.0442
 1481SOL     OW16078   3.649   1.445   8.138  0.7106 -0.1776 -0.6453
 1481SOL    HW116079   3.597   1.495   8.075 -0.4686  0.7177  1.0568
 1481SOL    HW216080   3.608   1.360   8.118 -1.5131  0.7736 -0.2041
 1482SOL     OW16081   1.926   1.783   2.451  0.5818  0.0227  0.4703
 1482SOL    HW116082   1.958   1.793   2.361 -1.1293  0.9411 -0.0326
 1482SOL    HW216083   1.858   1.850   2.456  0.2971  0.0073 -3.0336
 1483SOL     OW16084   0.634   1.980   3.007  0.0289  0.4461 -0.7969
 1483SOL    HW116085   0.608   1.955   2.919 -0.3059 -0.1361 -0.5310
 1483SOL    HW216086   0.672   2.066   2.989 -1.3986  1.3948  0.7179
 1484SOL     OW16087   3.058   3.028  16.313  0.4180 -0.1595  0.2529
 1484SOL    HW116088   3.074   3.122  16.308  1.9848 -0.5759 -2.5772
 1484SOL    HW216089   3.129   2.998  16.370  0.7823  0.5225  0.1563
 1485SOL     OW16090   1.937   1.550  12.238  0.0858 -0.1730 -0.2889
 1485SOL    HW116091   1.919   1.536  12.331  1.4482  1.0355  0.1556
 1485SOL    HW216092   1.847   1.576  12.218 -0.6233 -1.3125  1.4011
 1486SOL     OW16093   0.593   2.863   5.954  0.1357 -0.1586  0.0846
 1486SOL    HW116094   0.561   2.936   5.900  4.5266  1.8724  0.2215
 1486SOL    HW216095   0.663   2.901   6.007 -0.0706  1.2233 -0.6259
 1487SOL     OW16096   1.412   2.886   4.066  0.0663  0.1558 -0.2456
 1487SOL    HW116097   1.379   2.964   4.020 -1.7722 -1.7448 -2.1656
 1487SOL    HW216098   1.495   2.913   4.105 -0.5589  0.6999  0.6946
 1488SOL     OW16099   1.618   1.017   7.353  0.5238  0.1577 -0.3489
 1488SOL    HW116100   1.707   0.983   7.365  0.7187  0.9528  0.4249
 1488SOL    HW216101   1.613   1.081   7.423  0.5400 -2.3973  1.9893
 1489SOL     OW16102   1.301   2.346   3.082  0.5552 -0.6455 -0.6171
 1489SOL    HW116103   1.350   2.353   3.000  0.0237 -0.5019 -0.9151
 1489SOL    HW216104   1.375   2.317   3.135  0.6591  0.2076 -0.2971
 1490SOL     OW16105   1.663   1.533   6.027  1.1829  0.1458 -0.6220
 1490SOL    HW116106   1.640   1.551   6.119 -0.0911  0.7488 -1.0429
 1490SOL    HW216107   1.607   1.602   5.989  2.0281  1.7437  1.0271
 1491SOL     OW16108   3.997   1.534   5.413 -0.1102 -0.9294 -0.8109
 1491SOL    HW116109   3.949   1.579   5.482 -0.1036 -1.2834 -0.5784
 1491SOL    HW216110   4.058   1.490   5.472 -1.7004 -1.2725  0.5781
 1492SOL     OW16111   4.175   2.605  12.796 -0.1218 -0.1667 -0.5547
 1492SOL    HW116112   4.236   2.648  12.737  1.9343  0.0451  1.7648
 1492SOL    HW216113   4.150   2.530  12.742  0.3227  0.2753 -1.3705
 1493SOL     OW16114   0.773   0.036   5.321  0.2578 -0.1931  0.3963
 1493SOL    HW116115   0.721   0.070   5.394 -0.0135  0.8640 -0.2796
 1493SOL    HW216116   0.730   4.694   5.294 -0.4456  0.7534 -1.3459
 1494SOL     OW16117   2.412   3.707  12.330 -0.1797 -0.0717  0.2166
 1494SOL    HW116118   2.505   3.697  12.350  0.0418  1.2887 -0.1540
 1494SOL    HW216119   2.365   3.636  12.373  0.3189 -0.6593 -0.2020
 1495SOL     OW16120   0.168   3.589   3.789  0.0967  0.5080 -0.5377
 1495SOL    HW116121   0.090   3.605   3.842  1.5852  1.9540  1.1985
 1495SOL    HW216122   0.186   3.495   3.788 -1.1838  0.2612 -0.7579
 1496SOL     OW16123   2.474   3.763   6.411  0.5243  0.2075  0.7055
 1496SOL    HW116124   2.489   3.689   6.353 -0.4174  1.7978 -1.5828
 1496SOL    HW216125   2.553   3.761   6.465  0.5128  0.8100  0.7532
 1497SOL     OW16126   2.289   0.742   2.794  0.0830 -0.3669 -0.3678
 1497SOL    HW116127   2.308   0.744   2.700  0.7875 -1.2237 -0.2483
 1497SOL    HW216128   2.194   0.733   2.802 -0.2103  2.7393 -0.6172
 1498SOL     OW16129   1.498   0.619  12.101  0.2048 -0.1817  0.0457
 1498SOL    HW116130   1.414   0.586  12.133  0.6897  0.6723  2.1778
 1498SOL    HW216131   1.506   0.693  12.160  0.3976  0.5712 -0.9208
 1499SOL     OW16132   1.153   4.346   5.458 -0.4307  0.2344  0.2603
 1499SOL    HW116133   1.248   4.355   5.463 -0.6013  1.6111  1.1115
 1499SOL    HW216134   1.120   4.357   5.548 -0.7131 -0.3037  0.2215
 1500SOL     OW16135   4.504   0.455   5.240  0.3983  0.4282 -0.5069
 1500SOL    HW116136   4.468   0.412   5.317 -0.1719  0.6544 -0.6486
 1500SOL    HW216137   4.598   0.445   5.255  0.0118 -3.4029 -0.6257
 1501SOL     OW16138   2.152   4.148  14.549 -0.0882 -0.5410  0.1613
 1501SOL    HW116139   2.209   4.173  14.477 -2.1367  0.8731 -0.9785
 1501SOL    HW216140   2.131   4.225  14.603 -0.0584 -0.4567  0.0510
 1502SOL     OW16141   3.222   1.802   9.750  0.1125 -0.2607 -0.8754
 1502SOL    HW116142   3.312   1.832   9.766  0.5641 -1.3118 -1.4811
 1502SOL    HW216143   3.196   1.786   9.841  1.8280 -1.5265 -0.5976
 1503SOL     OW16144   3.522   4.717   1.907 -0.0407 -0.7586 -0.2021
 1503SOL    HW116145   3.542   0.065   1.941 -0.3493 -0.9204  0.3987
 1503SOL    HW216146   3.607   4.680   1.885  1.6593  1.3755  2.8666
 1504SOL     OW16147   4.215   1.397   9.251  0.4313 -0.6333 -0.2235
 1504SOL    HW116148   4.306   1.414   9.273 -0.5421  0.7642  2.7468
 1504SOL    HW216149   4.189   1.336   9.320 -1.0405  0.3155  0.0550
 1505SOL     OW16150   3.328   3.783  14.052  0.0270  0.4129  0.2759
 1505SOL    HW116151   3.325   3.726  14.129  2.9480  0.2883  0.2938
 1505SOL    HW216152   3.413   3.756  14.016  0.5410 -0.1625  1.9027
 1506SOL     OW16153   2.567   0.693   2.599  0.1346 -0.3882  0.0863
 1506SOL    HW116154   2.512   0.747   2.542 -0.0998 -0.4914  0.2166
 1506SOL    HW216155   2.644   0.688   2.542  0.5221 -0.5141  0.6210
 1507SOL     OW16156   2.586   2.871  12.958  0.0808  0.2554 -0.3516
 1507SOL    HW116157   2.566   2.918  13.039  1.2712 -0.3505  0.2908
 1507SOL    HW216158   2.658   2.814  12.986  0.3113  0.5300 -0.3807
 1508SOL     OW16159   3.671   0.589  16.249  0.4975 -0.3032 -0.1884
 1508SOL    HW116160   3.729   0.597  16.173  1.8369 -0.8068  0.7697
 1508SOL    HW216161   3.657   0.496  16.235 -1.9003  0.0186  0.0906
 1509SOL     OW16162   3.353   1.663   7.012 -0.4699 -0.1171  0.2489
 1509SOL    HW116163   3.369   1.731   7.077  1.9320  0.2714 -0.7736
 1509SOL    HW216164   3.292   1.613   7.066 -2.0825 -0.9325 -2.2987
 1510SOL     OW16165   1.474   4.451   2.861  0.3982 -0.1650  0.2667
 1510SOL    HW116166   1.548   4.484   2.913 -0.3677  1.1286  0.5343
 1510SOL    HW216167   1.460   4.367   2.905 -2.7735 -0.5879 -1.5204
 1511SOL     OW16168   3.446   4.206   2.412  0.0132 -0.6128  0.4837
 1511SOL    HW116169   3.389   4.270   2.369  0.2242 -1.2232 -0.6793
 1511SOL    HW216170   3.391   4.172   2.483 -1.2605  1.6259  0.5629
 1512SOL     OW16171   4.035   1.607   9.281  0.0698 -0.0846  0.1946
 1512SOL    HW116172   4.069   1.696   9.280 -0.8388  0.2695  1.6682
 1512SOL    HW216173   4.104   1.550   9.315 -0.4763 -1.0765 -0.3221
 1513SOL     OW16174   1.339   0.398   3.835 -0.4886  0.9567 -0.3760
 1513SOL    HW116175   1.317   0.402   3.742  1.6700  0.4497 -0.9268
 1513SOL    HW216176   1.297   0.476   3.869  0.5059  0.7985  1.1904
 1514SOL     OW16177   0.777   1.765   1.657 -0.0895 -0.4501 -0.3956
 1514SOL    HW116178   0.847   1.803   1.604  1.0077  1.1089  2.2024
 1514SOL    HW216179   0.819   1.763   1.743 -0.5773 -0.3869 -0.1582
 1515SOL     OW16180   3.201   2.316   8.093 -0.1499  0.3842 -0.3474
 1515SOL    HW116181   3.158   2.272   8.166 -0.3544  2.5614  0.8193
 1515SOL    HW216182   3.142   2.387   8.069 -0.4604 -0.0763 -0.9662
 1516SOL     OW16183   4.679   0.991   6.834 -0.1021  0.4719  0.0395
 1516SOL    HW116184   4.651   0.939   6.758 -2.6539  0.3779  1.0422
 1516SOL    HW216185   4.724   0.922   6.882  1.9453  1.4897 -0.4147
 1517SOL     OW16186   2.153   2.649   0.778  0.2468  0.1081  0.6120
 1517SOL    HW116187   2.161   2.688   0.866  0.9957 -0.4218  0.7750
 1517SOL    HW216188   2.167   2.731   0.731 -1.3793  1.5965  2.6672
 1518SOL     OW16189   4.576   1.571   8.020 -0.2997  0.7415 -0.4608
 1518SOL    HW116190   4.602   1.540   8.106 -1.1729  0.9433 -0.1326
 1518SOL    HW216191   4.663   1.610   8.007  0.2230 -1.0799 -2.3998
 1519SOL     OW16192   4.369   3.934   4.717 -0.9399  0.1692 -0.0492
 1519SOL    HW116193   4.402   3.889   4.795 -2.7339 -1.4818 -0.2442
 1519SOL    HW216194   4.448   3.933   4.664 -2.2090  1.1891 -1.9639
 1520SOL     OW16195   2.804   4.712   4.472 -0.6618 -0.1423  0.2090
 1520SOL    HW116196   2.853   0.054   4.464 -0.7398 -0.0911  0.2491
 1520SOL    HW216197   2.872   4.662   4.517  0.7404  1.2675 -0.3412
 1521SOL     OW16198   0.553   2.577   7.695  0.0017  0.3603 -0.4607
 1521SOL    HW116199   0.481   2.526   7.731 -0.3142  1.7662  0.8751
 1521SOL    HW216200   0.526   2.669   7.694 -1.3120 -0.0353 -0.7376
 1522SOL     OW16201   0.058   0.115   9.623 -0.1427 -0.1632  0.3309
 1522SOL    HW116202   0.105   0.194   9.595  0.1605  0.2222  1.9400
 1522SOL    HW216203   0.081   0.054   9.553  0.6954 -0.0853  0.5297
 1523SOL     OW16204   1.909   1.382  12.921 -0.5148  0.3230  0.6077
 1523SOL    HW116205   1.893   1.355  13.012 -2.0348 -4.2477 -1.0080
 1523SOL    HW216206   1.839   1.444  12.902  2.0415  2.8512 -0.5989
 1524SOL     OW16207   3.886   1.729  16.717 -0.3719 -0.3293 -0.0704
 1524SOL    HW116208   3.917   1.801  16.661 -1.6408 -0.4148 -0.8818
 1524SOL    HW216209   3.947   1.657  16.705  1.1677  0.7395  1.4029
 1525SOL     OW16210   2.926   1.325  12.770 -0.1164  0.2313 -0.2760
 1525SOL    HW116211   2.994   1.354  12.830 -1.4669 -0.2338  1.4855
 1525SOL    HW216212   2.897   1.244  12.812  0.7935 -0.6832 -1.4413
 1526SOL     OW16213   0.165   1.039   3.407  0.2324 -0.1749 -0.5686
 1526SOL    HW116214   0.149   1.028   3.313  0.1030 -0.7744 -0.4785
 1526SOL    HW216215   0.260   1.053   3.407  0.7333 -3.4757 -2.1260
 1527SOL     OW16216   0.017   0.841  13.655 -0.3929 -0.3617  0.4945
 1527SOL    HW116217   0.030   0.883  13.570 -2.5554  0.2305  0.4719
 1527SOL    HW216218   4.671   0.880  13.676 -0.9061 -0.6269 -1.1651
 1528SOL     OW16219   4.020   0.466   1.880 -0.3114 -0.5134  0.3477
 1528SOL    HW116220   4.097   0.522   1.890  0.7402 -1.9129  0.0035
 1528SOL    HW216221   4.051   0.390   1.832 -0.7996 -0.8554  0.5803
 1529SOL     OW16222   4.558   4.652   6.512 -0.0682  0.2478  0.5689
 1529SOL    HW116223   4.646   4.678   6.484 -0.9357  1.5726 -0.9938
 1529SOL    HW216224   4.567   4.558   6.500 -0.1762  0.3531 -0.3236
 1530SOL     OW16225   0.225   0.758   2.792  0.1125  0.3615 -0.4548
 1530SOL    HW116226   0.266   0.740   2.708 -2.5096  0.7327 -1.8223
 1530SOL    HW216227   0.144   0.804   2.768  0.1054 -0.1667 -1.4137
 1531SOL     OW16228   1.284   0.981  10.996 -0.1046  0.2004  0.6456
 1531SOL    HW116229   1.320   1.013  11.079 -1.3488  1.6504  0.6228
 1531SOL    HW216230   1.312   0.890  11.008  0.1532  0.5000  2.2876
 1532SOL     OW16231   1.379   0.173   8.921 -0.5672 -0.0401  0.7966
 1532SOL    HW116232   1.357   0.263   8.946 -0.4038  0.2715 -0.1611
 1532SOL    HW216233   1.313   0.127   8.973 -1.5963  0.1992 -0.3088
 1533SOL     OW16234   0.213   0.536   2.949 -0.3994  0.4281  0.1675
 1533SOL    HW116235   0.304   0.545   2.977 -0.4060  0.8841  0.0426
 1533SOL    HW216236   0.189   0.617   2.904  1.4680  0.9934  0.1879
 1534SOL     OW16237   2.341   3.652  13.096  0.0124 -0.2370 -0.5562
 1534SOL    HW116238   2.245   3.655  13.087 -0.2551 -1.5735  1.6924
 1534SOL    HW216239   2.343   3.577  13.155 -2.2582  1.2633  1.4338
 1535SOL     OW16240   4.486   0.590   5.958  0.5426  0.1981  0.2011
 1535SOL    HW116241   4.570   0.550   5.934 -0.6845 -2.2895  0.0462
 1535SOL    HW216242   4.518   0.648   6.028 -1.1854 -1.2914  2.2466
 1536SOL     OW16243   0.142   1.758  15.404 -0.0703 -0.0359 -0.8005
 1536SOL    HW116244   0.191   1.740  15.324 -0.6992  1.2214 -1.4744
 1536SOL    HW216245   0.215   1.746  15.465 -0.9080  1.5518  0.5165
 1537SOL     OW16246   1.617   3.663   1.395  0.0114  0.3108 -0.4915
 1537SOL    HW116247   1.662   3.745   1.416  0.6193  0.0068 -0.6133
 1537SOL    HW216248   1.600   3.633   1.484  0.7226 -1.2840 -0.9001
 1538SOL     OW16249   1.711   2.692  17.184 -0.3664 -0.2205  0.5196
 1538SOL    HW116250   1.664   2.683  17.268  0.8922 -1.2110  1.1207
 1538SOL    HW216251   1.799   2.720  17.210 -0.1276 -1.7022  1.3249
 1539SOL     OW16252   1.419   1.806   4.897  0.0216 -0.3163 -0.5656
 1539SOL    HW116253   1.455   1.795   4.985 -2.5972  0.7064  0.6312
 1539SOL    HW216254   1.351   1.738   4.891  0.7936 -1.1024 -0.2975
 1540SOL     OW16255   4.595   3.096   3.686  0.0115 -0.6604 -0.1586
 1540SOL    HW116256   4.517   3.096   3.630 -0.2635 -0.5922  0.2264
 1540SOL    HW216257   4.639   3.170   3.643 -1.7687  0.5961  0.1566
 1541SOL     OW16258   3.798   4.700   2.547  0.2036  0.4292 -0.6493
 1541SOL    HW116259   3.826   4.636   2.482 -1.8800 -2.2432  1.0487
 1541SOL    HW216260   3.718   4.661   2.584  0.5982  0.1299 -0.0985
 1542SOL     OW16261   0.926   3.422   7.823 -0.5039 -0.0955  0.0765
 1542SOL    HW116262   0.862   3.454   7.886 -0.7088 -0.1915 -0.0830
 1542SOL    HW216263   0.994   3.489   7.826 -0.9415  0.2366  2.0865
 1543SOL     OW16264   2.696   3.484   4.874  0.3099 -0.1929 -0.1478
 1543SOL    HW116265   2.671   3.570   4.905  1.9436 -0.4923  1.9740
 1543SOL    HW216266   2.613   3.454   4.836  0.4350 -0.9755  0.1896
 1544SOL     OW16267   0.945   4.550   6.021 -0.2192  0.2745  0.1283
 1544SOL    HW116268   0.889   4.493   5.968  1.0961 -0.4163 -0.5185
 1544SOL    HW216269   0.957   4.483   6.089  1.8655 -0.6290 -1.1636
 1545SOL     OW16270   3.293   0.245   2.512 -0.1760  0.0787 -0.0956
 1545SOL    HW116271   3.366   0.247   2.450 -0.7258 -0.3372 -0.7734
 1545SOL    HW216272   3.289   0.337   2.536  0.2441 -0.6267  2.6641
 1546SOL     OW16273   0.508   3.247   4.770  0.4573 -0.5165  0.2354
 1546SOL    HW116274   0.555   3.326   4.794 -0.9685  0.6847 -0.9248
 1546SOL    HW216275   0.570   3.192   4.722 -1.5504 -1.6590 -1.0848
 1547SOL     OW16276   3.319   3.347   0.184 -0.5051 -0.4545  0.3866
 1547SOL    HW116277   3.242   3.379   0.232 -0.2707  0.1126  0.3879
 1547SOL    HW216278   3.295   3.259   0.157  0.3891 -0.5478 -0.0914
 1548SOL     OW16279   4.261   3.019  14.426  0.4183 -0.5124  0.3352
 1548SOL    HW116280   4.180   2.974  14.406 -0.1109  0.0873  1.1318
 1548SOL    HW216281   4.315   3.002  14.348  0.8436 -0.9329  0.7262
 1549SOL     OW16282   4.387   3.659   2.421 -0.1061 -0.3399 -0.4900
 1549SOL    HW116283   4.320   3.648   2.488  1.9506 -1.5408  1.3793
 1549SOL    HW216284   4.408   3.571   2.389  1.7525  0.1757 -0.7018
 1550SOL     OW16285   3.163   4.186   5.931  0.3439  0.0526  0.6973
 1550SOL    HW116286   3.256   4.186   5.908  0.2243 -0.8949  0.2090
 1550SOL    HW216287   3.146   4.095   5.953  1.3224 -0.2535  0.2125
 1551SOL     OW16288   0.377   3.262  11.195 -0.0336  0.3785 -0.0295
 1551SOL    HW116289   0.431   3.340  11.188 -0.7046  0.8599  0.1527
 1551SOL    HW216290   0.289   3.299  11.206  0.5047  1.5120  0.4249
 1552SOL     OW16291   3.012   2.732  12.291 -0.3527  0.0190 -0.7218
 1552SOL    HW116292   3.100   2.731  12.329 -1.8258 -0.3038  2.6684
 1552SOL    HW216293   2.974   2.811  12.330  1.3675  0.1072  0.7704
 1553SOL     OW16294   0.436   3.216   0.578 -0.1090 -0.3424 -0.0023
 1553SOL    HW116295   0.367   3.227   0.513  0.2058 -0.0790 -0.2912
 1553SOL    HW216296   0.504   3.185   0.519  0.0566 -0.0412  0.0335
 1554SOL     OW16297   1.505   2.321   4.228  0.2439  0.0214  0.0967
 1554SOL    HW116298   1.439   2.292   4.290  2.0038 -1.8874  1.0466
 1554SOL    HW216299   1.514   2.241   4.176 -2.2395 -2.7523  3.9376
 1555SOL     OW16300   2.787   1.269  12.524  0.1998  0.1895 -0.2589
 1555SOL    HW116301   2.805   1.290  12.616  0.6995 -1.7126  0.0657
 1555SOL    HW216302   2.764   1.356  12.490  1.3251  0.6142  0.0677
 1556SOL     OW16303   2.337   0.820   9.228  0.3887 -0.2137  0.3485
 1556SOL    HW116304   2.271   0.824   9.159  1.2174  0.9232 -0.3720
 1556SOL    HW216305   2.308   0.884   9.293  0.4926  1.0464 -0.8761
 1557SOL     OW16306   2.168   4.536   4.228  0.2931  0.0632 -0.1087
 1557SOL    HW116307   2.095   4.576   4.181  0.9924  0.5590 -0.7920
 1557SOL    HW216308   2.243   4.562   4.174  1.7371 -3.0161  0.4537
 1558SOL     OW16309   4.363   3.617   8.592 -0.1998 -0.2915 -0.0555
 1558SOL    HW116310   4.380   3.594   8.501  1.4794 -0.7461  0.3816
 1558SOL    HW216311   4.400   3.539   8.634  1.3947  0.2459 -0.4529
 1559SOL     OW16312   1.155   0.573   5.922  0.0649  0.3148 -0.1775
 1559SOL    HW116313   1.082   0.568   5.983 -1.1188  0.5836 -1.5612
 1559SOL    HW216314   1.121   0.609   5.840  0.4071 -0.5217 -0.6820
 1560SOL     OW16315   2.336   2.617   5.691 -0.2553 -0.1157  0.0500
 1560SOL    HW116316   2.336   2.576   5.605 -0.1850 -1.5902  0.7524
 1560SOL    HW216317   2.432   2.612   5.694 -0.3776 -0.9841  2.7105
 1561SOL     OW16318   2.205   1.046   2.492 -0.2006  0.1681  0.2695
 1561SOL    HW116319   2.231   1.082   2.407  0.7368 -0.5665  0.2428
 1561SOL    HW216320   2.118   1.086   2.490 -1.1391 -1.8696 -0.9040
 1562SOL     OW16321   1.187   4.635   3.212  0.2557 -0.3180 -0.0432
 1562SOL    HW116322   1.155   4.674   3.130  0.4551 -1.1558 -0.5196
 1562SOL    HW216323   1.181   4.540   3.212  0.5472 -0.3388 -1.9681
 1563SOL     OW16324   2.476   3.483   0.733  0.1441  0.3001  0.0094
 1563SOL    HW116325   2.453   3.536   0.657 -0.0308  1.2854  0.7456
 1563SOL    HW216326   2.463   3.544   0.805  1.8535 -0.5145  1.0289
 1564SOL     OW16327   3.708   1.802  13.126  0.4192 -0.0770  0.3733
 1564SOL    HW116328   3.620   1.768  13.141 -0.6430  1.8669 -1.5581
 1564SOL    HW216329   3.715   1.873  13.190 -0.7861  1.9228 -1.7501
 1565SOL     OW16330   2.973   4.254   7.369 -0.7605  0.0761  0.8180
 1565SOL    HW116331   3.057   4.214   7.346 -0.9499  0.3660 -0.3406
 1565SOL    HW216332   2.943   4.279   7.282 -1.8234 -0.8671  0.9149
 1566SOL     OW16333   0.332   2.795  15.041 -0.9968  0.2174 -0.6828
 1566SOL    HW116334   0.350   2.887  15.063  1.6585 -0.3436 -0.4270
 1566SOL    HW216335   0.357   2.798  14.949 -2.7554 -0.1444 -1.1648
 1567SOL     OW16336   4.420   2.254   2.501  0.3093 -0.6782 -0.0873
 1567SOL    HW116337   4.435   2.165   2.534 -2.4956 -0.4417  1.7975
 1567SOL    HW216338   4.443   2.238   2.410 -2.5092  1.0427 -1.0733
 1568SOL     OW16339   4.398   2.887   2.407 -0.2160  0.2814 -0.7368
 1568SOL    HW116340   4.307   2.880   2.436 -0.3426 -1.1736 -1.4692
 1568SOL    HW216341   4.431   2.952   2.469 -1.6965  1.3117 -1.0311
 1569SOL     OW16342   3.146   0.932   7.238 -0.1189  0.3673  0.0847
 1569SOL    HW116343   3.202   1.006   7.212  1.7496 -0.7462  0.9630
 1569SOL    HW216344   3.058   0.970   7.229 -0.0791  0.8757  1.7797
 1570SOL     OW16345   3.103   1.428   9.287 -0.2076 -0.1684  0.2968
 1570SOL    HW116346   3.026   1.484   9.283 -0.6966 -1.0177 -1.8777
 1570SOL    HW216347   3.172   1.488   9.317  0.3329 -2.3683  3.5314
 1571SOL     OW16348   3.167   0.961   1.722  0.0621 -0.2858  0.3707
 1571SOL    HW116349   3.190   1.007   1.803  0.7474 -0.3402  0.2052
 1571SOL    HW216350   3.166   0.871   1.754  2.7429 -0.2934  0.4052
 1572SOL     OW16351   3.560   0.219   9.339 -0.4435 -0.0590  0.0973
 1572SOL    HW116352   3.615   0.142   9.323  0.7993  0.9515 -0.5885
 1572SOL    HW216353   3.513   0.195   9.418 -1.2219  0.8789 -0.0837
 1573SOL     OW16354   4.187   1.089   6.367  0.0970 -0.1661  0.3554
 1573SOL    HW116355   4.253   1.074   6.435 -0.8482  0.4654  1.4243
 1573SOL    HW216356   4.224   1.042   6.292  0.9077 -0.2579  0.8197
 1574SOL     OW16357   3.971   4.112  16.255 -0.8423  0.3354  0.0879
 1574SOL    HW116358   4.043   4.135  16.196 -0.3486  2.5669  1.5536
 1574SOL    HW216359   3.903   4.171  16.223 -2.1323 -1.2499 -0.0717
 1575SOL     OW16360   1.613   0.269   7.804  0.2224 -0.1528  0.1192
 1575SOL    HW116361   1.649   0.353   7.832  0.2343 -0.8187  2.1356
 1575SOL    HW216362   1.696   0.221   7.802  0.9883  1.2986 -2.4615
 1576SOL     OW16363   0.611   3.028   5.549 -0.1690 -0.4789 -0.0644
 1576SOL    HW116364   0.523   3.034   5.510  0.6618  0.7905 -1.7857
 1576SOL    HW216365   0.669   3.009   5.475  1.1071 -0.4563  0.9263
 1577SOL     OW16366   2.861   1.888   2.901  0.1338 -0.3541  0.2747
 1577SOL    HW116367   2.915   1.853   2.972  1.7375  0.4751 -0.5220
 1577SOL    HW216368   2.852   1.812   2.845 -1.4233  1.2952 -1.7126
 1578SOL     OW16369   1.503   1.997   2.838 -0.4760  0.0520  0.3954
 1578SOL    HW116370   1.445   1.945   2.893 -0.6285  0.6237  0.7760
 1578SOL    HW216371   1.497   1.938   2.763  0.7064  0.5177 -0.0565
 1579SOL     OW16372   0.547   2.302  16.131 -0.0005 -0.4118 -0.6194
 1579SOL    HW116373   0.506   2.216  16.139  2.0634 -1.5399 -1.9805
 1579SOL    HW216374   0.634   2.271  16.106  0.3468 -1.2155  1.5442
 1580SOL     OW16375   4.556   0.580   8.016 -0.2235 -0.1116 -0.2689
 1580SOL    HW116376   4.471   0.567   8.057 -0.4822  0.0295 -0.7647
 1580SOL    HW216377   4.555   0.522   7.940  1.5510 -2.5760  1.5915
 1581SOL     OW16378   2.689   3.389   5.183  0.5590  0.5580 -0.0977
 1581SOL    HW116379   2.715   3.426   5.099 -0.3695  2.2668  0.3639
 1581SOL    HW216380   2.733   3.304   5.184  2.9508  1.8242  3.7349
 1582SOL     OW16381   0.563   1.425   6.042 -0.3330  0.1392 -0.1034
 1582SOL    HW116382   0.500   1.391   5.978  0.0704 -2.0240  0.6701
 1582SOL    HW216383   0.503   1.482   6.091 -0.0988  1.2493 -1.1137
 1583SOL     OW16384   2.925   3.604  14.945  0.5793  0.0257  0.4841
 1583SOL    HW116385   2.944   3.674  14.883  1.3253 -0.1908  0.4738
 1583SOL    HW216386   3.008   3.560  14.960  0.2651 -0.3638  1.1032
 1584SOL     OW16387   4.347   4.514   3.868  0.1671 -0.4700  0.1755
 1584SOL    HW116388   4.442   4.508   3.875  0.2508  0.5309 -0.0621
 1584SOL    HW216389   4.344   4.533   3.774  1.1225  1.2451  0.4907
 1585SOL     OW16390   3.910   0.448   8.257 -0.4794 -0.5370 -0.1565
 1585SOL    HW116391   3.984   0.489   8.212 -0.8516  0.1252 -0.1705
 1585SOL    HW216392   3.866   0.528   8.287  1.0165 -0.3588  1.5240
 1586SOL     OW16393   1.857   1.309  10.254 -0.2223  0.1759  0.0988
 1586SOL    HW116394   1.797   1.368  10.299  0.4635  1.3819 -0.5690
 1586SOL    HW216395   1.888   1.260  10.330 -0.3251 -1.6173 -1.0049
 1587SOL     OW16396   1.362   1.958   7.816 -0.6905  0.3637  0.1146
 1587SOL    HW116397   1.395   1.880   7.862 -0.4985 -0.1587 -0.9088
 1587SOL    HW216398   1.438   1.969   7.760 -0.0949  1.8363  1.2047
 1588SOL     OW16399   3.709   1.807   5.394 -0.2611 -0.3563  0.2543
 1588SOL    HW116400   3.694   1.874   5.461  2.7480  0.4133  0.1679
 1588SOL    HW216401   3.623   1.765   5.390 -0.8078  0.7592  0.2190
 1589SOL     OW16402   2.334   3.419   4.298  1.0055 -0.4146  0.2070
 1589SOL    HW116403   2.398   3.350   4.316  1.6370 -0.0573 -0.6474
 1589SOL    HW216404   2.386   3.472   4.238  0.6697  0.4816  0.7042
 1590SOL     OW16405   1.094   4.343  11.429 -0.5455 -0.2672 -0.2739
 1590SOL    HW116406   1.043   4.267  11.398 -1.5920  0.3528 -0.0655
 1590SOL    HW216407   1.181   4.320  11.396 -0.0324 -0.3157  1.1434
 1591SOL     OW16408   2.677   3.907  14.341  0.5747  0.7891  0.0853
 1591SOL    HW116409   2.656   3.824  14.297  0.8962  1.2402 -0.9168
 1591SOL    HW216410   2.741   3.879  14.406  0.0130 -0.5746  0.0499
 1592SOL     OW16411   3.572   0.636  16.501 -0.5023 -0.1852 -0.1128
 1592SOL    HW116412   3.610   0.622  16.414 -1.5382 -0.3225 -0.5511
 1592SOL    HW216413   3.617   0.714  16.534  1.4368 -1.0645 -0.6635
 1593SOL     OW16414   2.731   1.000   8.534 -0.1386 -0.2536  0.1543
 1593SOL    HW116415   2.753   0.913   8.502  0.2064  0.4942 -1.6234
 1593SOL    HW216416   2.702   0.979   8.623  1.5131 -3.0767 -0.0036
 1594SOL     OW16417   1.479   0.623   8.915  0.0417 -0.4640 -0.1408
 1594SOL    HW116418   1.446   0.704   8.953 -1.6975 -1.4782  0.5138
 1594SOL    HW216419   1.444   0.551   8.968  3.3112 -2.6436 -0.8692
 1595SOL     OW16420   3.641   2.290  10.725  0.2998  0.1219  0.1082
 1595SOL    HW116421   3.715   2.313  10.781 -0.1628  1.3864  0.1942
 1595SOL    HW216422   3.572   2.294  10.791 -2.5024  1.0055 -2.8484
 1596SOL     OW16423   0.737   3.612  10.910  0.1654 -0.1523  0.1761
 1596SOL    HW116424   0.796   3.650  10.976 -0.3081  0.2419  0.3718
 1596SOL    HW216425   0.751   3.675  10.839  1.6137 -2.1415 -1.3157
 1597SOL     OW16426   2.953   0.472  13.616  0.0905  0.1114  0.5014
 1597SOL    HW116427   2.955   0.457  13.521  0.6531 -0.9973  0.6977
 1597SOL    HW216428   2.987   0.391  13.652  1.2416 -0.3188 -1.5249
 1598SOL     OW16429   3.060   3.439   7.390 -0.7358  0.0159  0.1486
 1598SOL    HW116430   2.979   3.478   7.355 -1.7301 -1.8503  0.3400
 1598SOL    HW216431   3.103   3.509   7.438  1.3200 -1.2715  0.1559
 1599SOL     OW16432   4.685   1.337   7.399  0.5926 -0.2167  0.0215
 1599SOL    HW116433   4.670   1.256   7.350  0.0442  0.1227 -0.3695
 1599SOL    HW216434   4.646   1.308   7.482  0.7013 -3.0285 -0.8831
 1600SOL     OW16435   4.371   2.154  10.456  0.4301  0.0652 -0.0178
 1600SOL    HW116436   4.407   2.182  10.372 -1.7757 -0.8695 -1.2596
 1600SOL    HW216437   4.337   2.068  10.433 -0.2228  0.1873  0.5169
 1601SOL     OW16438   4.599   2.109   3.036 -0.0014 -0.2547 -0.2433
 1601SOL    HW116439   4.553   2.138   2.958 -0.4560 -0.3837 -0.0212
 1601SOL    HW216440   4.566   2.020   3.048 -1.5546  0.5388  1.2888
 1602SOL     OW16441   0.481   1.823   5.399  0.3135  0.0923 -0.3884
 1602SOL    HW116442   0.430   1.893   5.439 -0.8413  0.2663 -2.1875
 1602SOL    HW216443   0.542   1.801   5.470  0.3703 -1.5894 -0.9529
 1603SOL     OW16444   3.220   2.741   7.864  0.4820 -0.0443  0.3916
 1603SOL    HW116445   3.304   2.785   7.874  0.9646 -1.0369  0.6602
 1603SOL    HW216446   3.197   2.716   7.953 -1.5911 -1.3459 -0.5010
 1604SOL     OW16447   3.921   3.831   2.626  0.3646 -0.5338  0.1341
 1604SOL    HW116448   3.948   3.787   2.545  0.0893  1.4932 -1.0540
 1604SOL    HW216449   3.977   3.792   2.692  2.7647  0.3112 -1.4067
 1605SOL     OW16450   1.916   3.881   2.802  0.3101 -0.0625  0.1638
 1605SOL    HW116451   1.923   3.839   2.716  0.1859 -0.1983  0.2206
 1605SOL    HW216452   1.955   3.815   2.860  1.6343 -0.6264 -1.3624
 1606SOL     OW16453   1.241   0.218   8.679  0.5302 -0.0438  0.0381
 1606SOL    HW116454   1.259   0.312   8.683 -0.1468  0.0565  0.9023
 1606SOL    HW216455   1.308   0.178   8.733  0.3727 -0.0384  0.2379
 1607SOL     OW16456   0.825   4.508  12.324 -0.2081  0.3505 -0.0028
 1607SOL    HW116457   0.731   4.508  12.306 -0.7116 -0.4325  2.7066
 1607SOL    HW216458   0.858   4.551  12.245  0.7222  0.2309  0.3209
 1608SOL     OW16459   4.392   2.789  17.717 -0.0648  0.3670 -0.3708
 1608SOL    HW116460   4.376   2.731   0.038  0.7432  1.1681  0.4221
 1608SOL    HW216461   4.466   2.833   0.005 -0.3048 -1.2703  1.7991
 1609SOL     OW16462   4.665   3.050  14.278  0.5938  0.1749  0.0308
 1609SOL    HW116463   4.679   3.012  14.191  0.6788 -0.9161  0.5157
 1609SOL    HW216464   0.005   3.102  14.289  1.1357 -0.4768 -0.7760
 1610SOL     OW16465   1.593   3.568   5.102  0.7159  0.6634  0.1370
 1610SOL    HW116466   1.574   3.546   5.193  1.4846 -0.2807  0.0730
 1610SOL    HW216467   1.539   3.500   5.062  1.4334  0.1808 -0.0072
 1611SOL     OW16468   1.670   2.954  11.240  0.6624  0.1118  0.2919
 1611SOL    HW116469   1.750   2.924  11.283  2.1783 -0.4095 -2.9100
 1611SOL    HW216470   1.675   2.903  11.159 -0.2174 -2.9094  2.1282
 1612SOL     OW16471   0.586   4.547   6.290 -0.1030 -0.0940 -0.4972
 1612SOL    HW116472   0.605   4.605   6.363  0.2261 -0.6848 -0.1195
 1612SOL    HW216473   0.638   4.468   6.300 -0.2779 -0.1107  0.2651
 1613SOL     OW16474   2.853   0.074   3.322 -0.1850  0.8037 -0.1094
 1613SOL    HW116475   2.911   0.150   3.312  1.9297 -0.7706  0.2942
 1613SOL    HW216476   2.825   0.088   3.413 -2.9268 -0.4772 -0.7492
 1614SOL     OW16477   0.105   2.959   4.844  0.2651  0.0324  0.0666
 1614SOL    HW116478   0.034   3.018   4.820 -0.9721 -2.2345 -1.8966
 1614SOL    HW216479   0.185   3.011   4.841  1.2427 -1.6079 -1.9650
 1615SOL     OW16480   2.375   3.160   5.397 -0.0990 -0.7171  0.6881
 1615SOL    HW116481   2.374   3.198   5.484  0.3931 -0.6033  0.6394
 1615SOL    HW216482   2.347   3.074   5.429 -1.4597 -0.4964  0.0991
 1616SOL     OW16483   4.544   3.907   3.105 -0.0635 -0.3218  0.9739
 1616SOL    HW116484   4.627   3.952   3.121 -0.2418  0.4881 -0.3836
 1616SOL    HW216485   4.540   3.828   3.159  1.5508 -1.9588 -1.2720
 1617SOL     OW16486   4.388   3.265   7.489  0.7690 -0.4793 -0.4295
 1617SOL    HW116487   4.333   3.311   7.427  0.9901  0.5245  0.1155
 1617SOL    HW216488   4.462   3.252   7.430  1.7711 -0.3390  0.7951
 1618SOL     OW16489   2.691   4.463   1.612 -0.0860 -0.1660 -0.5008
 1618SOL    HW116490   2.738   4.389   1.649 -2.3610 -2.0210 -1.3108
 1618SOL    HW216491   2.757   4.525   1.580  0.4379 -1.0872 -1.1961
 1619SOL     OW16492   0.612   4.378   3.120  0.4381  0.2713 -0.2788
 1619SOL    HW116493   0.547   4.441   3.087  0.0439  0.3415  0.6330
 1619SOL    HW216494   0.580   4.375   3.210  1.2388  1.2166  0.0388
 1620SOL     OW16495   4.225   1.800   3.774  0.4089 -0.2190  0.7730
 1620SOL    HW116496   4.292   1.861   3.803  0.7690  0.0444 -0.6451
 1620SOL    HW216497   4.256   1.780   3.686  0.1035 -0.0556  0.6272
 1621SOL     OW16498   3.191   4.529   6.061 -0.1734 -0.5394  0.4749
 1621SOL    HW116499   3.189   4.503   5.969  0.9903  1.3317 -0.0622
 1621SOL    HW216500   3.266   4.587   6.071  1.3300 -2.2756 -0.6985
 1622SOL     OW16501   2.466   4.525  13.566 -0.0658  0.7778  0.4197
 1622SOL    HW116502   2.556   4.520  13.536 -0.4685 -0.0753 -0.6271
 1622SOL    HW216503   2.417   4.582  13.506  0.6176  0.4712 -0.4324
 1623SOL     OW16504   1.263   4.718   0.476 -0.1433 -0.2252 -0.4135
 1623SOL    HW116505   1.322   4.644   0.464 -1.4560 -1.3841  0.2697
 1623SOL    HW216506   1.181   4.671   0.490 -0.6776  1.2346  1.3027
 1624SOL     OW16507   4.256   1.704   4.617  0.5108  0.3128  0.0040
 1624SOL    HW116508   4.344   1.742   4.626  0.7029 -0.5032  1.5469
 1624SOL    HW216509   4.209   1.781   4.648  1.0682  0.4553  0.5030
 1625SOL     OW16510   1.971   1.831   5.062 -0.1445 -0.9003  0.2457
 1625SOL    HW116511   1.887   1.873   5.080 -0.0926 -1.5355  1.9079
 1625SOL    HW216512   1.944   1.746   5.026 -0.1774  0.3780 -2.7780
 1626SOL     OW16513   4.463   4.294  17.287 -0.2156  0.1959 -0.0284
 1626SOL    HW116514   4.405   4.258  17.354  0.4955  0.1501  0.5586
 1626SOL    HW216515   4.413   4.302  17.205  1.0694  1.2051 -0.7152
 1627SOL     OW16516   4.735   0.184   4.551 -0.1855 -0.1160  0.2169
 1627SOL    HW116517   4.733   0.096   4.590 -0.2282 -0.7656 -1.2405
 1627SOL    HW216518   4.658   0.225   4.591 -0.2537  1.2148 -1.2899
 1628SOL     OW16519   1.657   2.476   7.967  0.6350  0.0252  0.7204
 1628SOL    HW116520   1.678   2.382   7.965 -1.2097 -0.3545 -0.5307
 1628SOL    HW216521   1.710   2.501   7.891 -2.2535  1.4044 -0.8241
 1629SOL     OW16522   3.948   2.663   6.788  0.1688 -0.3208 -0.2029
 1629SOL    HW116523   4.036   2.655   6.753 -0.6956 -0.3254 -2.3500
 1629SOL    HW216524   3.914   2.706   6.710  1.2427  2.1500  0.6776
 1630SOL     OW16525   2.235   3.337   3.466  0.0610 -0.0510 -0.3501
 1630SOL    HW116526   2.272   3.336   3.554  0.3427  2.5678 -0.4354
 1630SOL    HW216527   2.310   3.318   3.410  0.1540 -0.8509  0.0517
 1631SOL     OW16528   2.804   2.150   1.582  0.2642 -0.4792  0.3379
 1631SOL    HW116529   2.732   2.131   1.642  2.3930  0.4846  3.1759
 1631SOL    HW216530   2.879   2.103   1.619  0.6953 -0.4936 -0.5538
 1632SOL     OW16531   4.242   0.544   5.943  0.0520  0.1546  0.2287
 1632SOL    HW116532   4.334   0.562   5.962 -0.1332  0.1348  1.1858
 1632SOL    HW216533   4.203   0.628   5.917  0.1277 -0.6094 -2.3022
 1633SOL     OW16534   3.434   0.674   5.790  0.2540  0.7353 -0.5974
 1633SOL    HW116535   3.415   0.672   5.884 -0.2061 -3.9067 -0.7862
 1633SOL    HW216536   3.528   0.655   5.795 -0.6243 -3.3337  0.7479
 1634SOL     OW16537   3.472   1.309   4.829  0.7560  0.2412 -0.1953
 1634SOL    HW116538   3.409   1.266   4.771  0.1027  1.3867 -0.3389
 1634SOL    HW216539   3.521   1.229   4.847 -2.3841 -1.4881  0.7177
 1635SOL     OW16540   0.111   1.072   6.046  0.0444 -0.2565  0.5622
 1635SOL    HW116541   0.203   1.077   6.071 -0.1789  0.2847  1.2621
 1635SOL    HW216542   0.110   1.153   5.995  0.2417 -0.0862  0.8297
 1636SOL     OW16543   3.259   0.641  16.041 -0.0800  0.2432  0.3703
 1636SOL    HW116544   3.223   0.580  16.104 -2.1030 -1.7693 -2.7760
 1636SOL    HW216545   3.305   0.693  16.108 -0.4584 -0.8915  1.5150
 1637SOL     OW16546   4.110   1.000   8.385  0.0274 -0.2305 -0.2529
 1637SOL    HW116547   4.121   1.042   8.471 -0.0759  1.5263 -1.1086
 1637SOL    HW216548   4.198   0.963   8.376  1.4086  2.4420  2.4485
 1638SOL     OW16549   0.898   2.319   3.405  0.5724  0.1455 -0.5859
 1638SOL    HW116550   0.882   2.226   3.420 -0.7829  0.5814  0.6417
 1638SOL    HW216551   0.963   2.315   3.335 -0.4060 -0.7495 -1.4584
 1639SOL     OW16552   3.511   2.608   6.479 -0.4458  0.3381 -0.4324
 1639SOL    HW116553   3.575   2.560   6.531 -1.2436 -0.0923  0.1612
 1639SOL    HW216554   3.443   2.626   6.544 -1.8585  0.4299 -1.9291
 1640SOL     OW16555   3.724   3.210  17.654 -0.4128 -0.1644 -0.1251
 1640SOL    HW116556   3.801   3.163  17.621  2.2775  3.6399  0.6826
 1640SOL    HW216557   3.655   3.144  17.658  0.3977 -0.9322  1.2680
 1641SOL     OW16558   2.503   2.404  12.717  0.0808  0.4789 -0.0595
 1641SOL    HW116559   2.549   2.468  12.772  0.3344  0.5676 -0.3790
 1641SOL    HW216560   2.545   2.432  12.636  1.0610  1.3917  0.7647
 1642SOL     OW16561   1.152   1.779   7.307 -0.1581 -0.4353 -0.5274
 1642SOL    HW116562   1.198   1.821   7.379 -0.7543 -0.7033  0.0134
 1642SOL    HW216563   1.064   1.768   7.343 -0.2487 -1.9077 -1.2089
 1643SOL     OW16564   4.084   1.898   6.337 -0.1743  0.2432  0.0884
 1643SOL    HW116565   4.133   1.924   6.259 -2.0654  1.3819 -0.7084
 1643SOL    HW216566   4.070   1.805   6.317 -1.0263  0.5398 -0.7065
 1644SOL     OW16567   2.337   1.368   9.895  0.9830 -0.0940  0.2940
 1644SOL    HW116568   2.350   1.398   9.985  1.4930 -1.0448  0.5374
 1644SOL    HW216569   2.417   1.396   9.849  0.3403  0.4467 -0.4909
 1645SOL     OW16570   3.274   0.474   3.722  0.2643 -0.0279 -0.1682
 1645SOL    HW116571   3.288   0.462   3.628  1.8529  1.0213 -0.0656
 1645SOL    HW216572   3.205   0.409   3.737  1.3469 -1.6533 -2.1421
 1646SOL     OW16573   2.899   2.379  16.188  0.0356 -0.0568 -0.0700
 1646SOL    HW116574   2.910   2.405  16.280 -0.0503  0.6249 -0.2548
 1646SOL    HW216575   2.873   2.461  16.146 -2.5036 -0.2305  1.1281
 1647SOL     OW16576   4.695   2.796   8.827  0.4014  0.1115  0.3255
 1647SOL    HW116577   4.621   2.792   8.887  2.1203  0.9387  2.5336
 1647SOL    HW216578   0.015   2.858   8.870  1.3075 -0.4560 -0.0939
 1648SOL     OW16579   3.034   3.661   6.157  0.2804  0.2526  0.0578
 1648SOL    HW116580   3.126   3.648   6.180  0.0749  0.0383  0.7472
 1648SOL    HW216581   3.034   3.595   6.088 -0.0640  0.6576 -0.3258
 1649SOL     OW16582   4.325   3.996  15.523 -0.2106  0.3131 -0.2476
 1649SOL    HW116583   4.304   3.904  15.537 -0.1651  0.1087 -1.5048
 1649SOL    HW216584   4.386   4.020  15.593 -0.3396  0.5494 -0.2162
 1650SOL     OW16585   1.314   1.327   5.780  0.3004  0.4988  0.0686
 1650SOL    HW116586   1.369   1.250   5.798  0.7715  0.6333 -0.8000
 1650SOL    HW216587   1.257   1.346   5.855  0.1244  1.6121 -0.3587
 1651SOL     OW16588   3.364   3.280   1.242  0.1707  0.1927 -0.3722
 1651SOL    HW116589   3.444   3.270   1.294  0.4206  0.9286 -0.6081
 1651SOL    HW216590   3.399   3.269   1.153  3.0760 -1.3172  0.9507
 1652SOL     OW16591   1.775   3.427   3.895  0.1207 -0.1411  0.4334
 1652SOL    HW116592   1.731   3.512   3.892  1.3565  0.4521 -0.4461
 1652SOL    HW216593   1.783   3.415   3.990 -0.7046  0.1424  0.5394
 1653SOL     OW16594   3.356   3.952  12.762 -0.1715 -0.4374 -0.5131
 1653SOL    HW116595   3.359   3.895  12.686 -0.9018 -0.7386 -0.3152
 1653SOL    HW216596   3.447   3.947  12.793  0.4118  2.2759 -1.8195
 1654SOL     OW16597   0.094   0.870   7.692 -0.0082 -0.1604  0.1841
 1654SOL    HW116598   0.179   0.902   7.723  0.5057 -0.0322 -1.3674
 1654SOL    HW216599   0.102   0.871   7.597  1.7103 -0.7534  0.3201
 1655SOL     OW16600   1.190   1.724   8.486  0.0581 -0.2128  0.2207
 1655SOL    HW116601   1.253   1.741   8.416 -0.9802  0.8462 -0.4515
 1655SOL    HW216602   1.114   1.750   8.435 -0.5288  0.3590  1.4012
 1656SOL     OW16603   1.203   3.039   6.640  0.4816  0.8435 -0.2717
 1656SOL    HW116604   1.239   3.102   6.578  0.5893 -0.6985 -1.7748
 1656SOL    HW216605   1.156   3.103   6.693 -1.4228 -0.0207 -0.9158
 1657SOL     OW16606   0.946   0.260   3.068  0.5575 -0.5854  0.2105
 1657SOL    HW116607   0.984   0.241   3.154  0.4185  1.8629  0.8224
 1657SOL    HW216608   0.958   0.178   3.021  0.9040 -1.2253  1.4004
 1658SOL     OW16609   1.011   1.509  13.133  0.4374  0.7943  0.6369
 1658SOL    HW116610   0.953   1.532  13.060 -0.2205  1.6841  1.4330
 1658SOL    HW216611   0.945   1.491  13.200  0.7843 -0.7602  0.5575
 1659SOL     OW16612   3.240   1.164   6.568  0.3301 -0.5266  0.7804
 1659SOL    HW116613   3.224   1.257   6.586  0.2843 -0.1373 -1.3272
 1659SOL    HW216614   3.211   1.156   6.477 -2.1565 -1.7205  1.6847
 1660SOL     OW16615   1.366   0.651   3.644 -0.0850  0.6316  0.1684
 1660SOL    HW116616   1.338   0.567   3.607 -3.8881  2.1197 -0.2963
 1660SOL    HW216617   1.284   0.678   3.686  0.4151 -1.3367  2.3803
 1661SOL     OW16618   4.439   3.954  13.870 -0.0358  0.1234 -0.4328
 1661SOL    HW116619   4.472   3.920  13.787  2.2603  2.0762 -0.2830
 1661SOL    HW216620   4.460   4.047  13.859  3.1489 -0.6448 -0.7186
 1662SOL     OW16621   4.383   3.228  12.741  0.0878 -0.0505  0.1298
 1662SOL    HW116622   4.389   3.133  12.736 -2.2826 -0.2194  0.4464
 1662SOL    HW216623   4.432   3.238  12.660  0.8760  0.1525  0.6299
 1663SOL     OW16624   0.268   2.827   9.538 -0.0426  0.2647 -0.4076
 1663SOL    HW116625   0.274   2.743   9.493 -0.0586  1.0717 -1.9287
 1663SOL    HW216626   0.175   2.842   9.522 -0.5514 -0.1794  2.0900
 1664SOL     OW16627   1.414   3.210   2.631  0.2977  0.0845 -0.1977
 1664SOL    HW116628   1.428   3.271   2.703 -1.0967  2.4008 -1.9054
 1664SOL    HW216629   1.365   3.139   2.672  1.2367 -0.6214 -0.2819
 1665SOL     OW16630   2.885   1.463  12.236 -0.1044 -0.0104  0.4857
 1665SOL    HW116631   2.834   1.534  12.198 -0.0288 -0.0630  0.2902
 1665SOL    HW216632   2.946   1.429  12.171 -0.4202  1.3814 -0.5247
 1666SOL     OW16633   4.190   1.384  15.903 -0.0204 -0.3483  0.1709
 1666SOL    HW116634   4.099   1.396  15.929  0.5645 -0.2177  2.1470
 1666SOL    HW216635   4.224   1.437  15.975 -1.9286  0.9135  0.1388
 1667SOL     OW16636   3.743   2.693   8.148 -0.6007  0.1897  0.9311
 1667SOL    HW116637   3.741   2.651   8.062 -2.3603  1.4245  0.3743
 1667SOL    HW216638   3.820   2.651   8.188  2.2288  2.7033 -1.9554
 1668SOL     OW16639   0.840   0.579   6.722  0.2776  0.2307 -0.2931
 1668SOL    HW116640   0.746   0.597   6.725  0.2673 -0.3928  3.2886
 1668SOL    HW216641   0.859   0.651   6.782  0.7660  0.5988 -0.8826
 1669SOL     OW16642   0.526   0.984   3.843  0.2183 -0.8282  0.0738
 1669SOL    HW116643   0.435   1.013   3.855  0.3931 -0.1493 -0.2169
 1669SOL    HW216644   0.572   1.013   3.922 -0.6450  1.1364 -0.1412
 1670SOL     OW16645   2.323   0.452   2.012  0.1038 -0.2229  0.6214
 1670SOL    HW116646   2.392   0.507   1.976 -1.6668  1.5600 -0.0554
 1670SOL    HW216647   2.256   0.511   2.046 -1.0754 -0.6555 -0.9710
 1671SOL     OW16648   1.296   2.886   2.291 -0.0033  0.1099 -0.1137
 1671SOL    HW116649   1.203   2.899   2.312  0.5137  1.5023  1.3358
 1671SOL    HW216650   1.341   2.871   2.374 -0.8737  1.1786  0.5636
 1672SOL     OW16651   1.416   1.090   2.976 -0.2773  0.1015 -0.3837
 1672SOL    HW116652   1.388   1.088   3.068 -0.9327  3.7343 -0.5015
 1672SOL    HW216653   1.424   1.185   2.980  1.5863 -0.1587  1.9958
 1673SOL     OW16654   4.458   2.727   4.919  0.1612 -0.0435 -0.2811
 1673SOL    HW116655   4.397   2.729   4.845  0.5006  3.2546 -0.5006
 1673SOL    HW216656   4.437   2.819   4.938 -0.7483 -0.3707  0.2933
 1674SOL     OW16657   0.119   2.880  11.031  0.1613  0.0400  0.3783
 1674SOL    HW116658   0.040   2.908  11.078  0.0460  0.4175 -0.0451
 1674SOL    HW216659   0.154   2.966  11.008 -1.5495 -0.1254 -2.7358
 1675SOL     OW16660   3.541   2.478  15.966  0.7352 -0.4860 -0.0127
 1675SOL    HW116661   3.554   2.559  16.016  0.1155 -0.3352 -0.0975
 1675SOL    HW216662   3.486   2.505  15.893  3.7219  0.3466 -1.9624
 1676SOL     OW16663   2.786   0.401  15.678 -0.5614 -0.2219 -0.9121
 1676SOL    HW116664   2.722   0.366  15.616 -1.4262  0.8896 -0.6316
 1676SOL    HW216665   2.753   0.488  15.699  0.8725  0.2226 -0.4709
 1677SOL     OW16666   0.453   4.561  10.445  0.5018 -0.3429  0.1742
 1677SOL    HW116667   0.458   4.564  10.541 -0.4876 -0.6650  0.2351
 1677SOL    HW216668   0.539   4.594  10.420 -0.9436  2.2126 -1.4030
 1678SOL     OW16669   0.302   0.023   2.145  0.9225  0.0687 -0.3811
 1678SOL    HW116670   0.363   4.738   2.075 -0.6031 -1.2794 -1.2572
 1678SOL    HW216671   0.221   0.019   2.095  0.3679  1.2197  0.4217
 1679SOL     OW16672   3.070   2.362   7.300 -0.4096  0.2625 -0.1637
 1679SOL    HW116673   3.071   2.446   7.346 -2.8851 -1.1347  2.4945
 1679SOL    HW216674   3.034   2.302   7.366 -2.7225  0.4681 -1.2624
 1680SOL     OW16675   1.112   0.977  12.148 -0.2619 -0.3429  0.3298
 1680SOL    HW116676   1.109   0.959  12.054  0.1981  0.4223  0.1675
 1680SOL    HW216677   1.151   1.064  12.147  1.5128 -1.1590 -1.8187
 1681SOL     OW16678   4.471   1.692   8.801  0.3342  0.4550  0.0915
 1681SOL    HW116679   4.492   1.769   8.853 -1.0662  0.6830  0.3145
 1681SOL    HW216680   4.546   1.706   8.743  0.2986 -2.0114 -0.5764
 1682SOL     OW16681   4.091   1.933   6.600 -0.2003  0.4415 -0.5039
 1682SOL    HW116682   4.067   1.932   6.507  0.3273  0.3053 -0.6391
 1682SOL    HW216683   4.178   1.893   6.599 -0.0119  0.8411  1.1588
 1683SOL     OW16684   3.569   2.582  10.356 -0.6835 -0.0964  0.3809
 1683SOL    HW116685   3.657   2.605  10.324 -1.5817  3.5791  0.5954
 1683SOL    HW216686   3.588   2.502  10.405 -2.0072 -0.5886  0.0683
 1684SOL     OW16687   1.368   1.857   6.256  0.4101  0.4586 -0.2894
 1684SOL    HW116688   1.362   1.779   6.311 -0.1845  0.5026 -0.2873
 1684SOL    HW216689   1.463   1.867   6.255  0.6331 -1.5826  0.2802
 1685SOL     OW16690   3.203   1.617   2.717  0.3172 -0.3945  0.8141
 1685SOL    HW116691   3.128   1.558   2.711  1.5227 -2.2083  3.0455
 1685SOL    HW216692   3.253   1.570   2.784  0.4998 -0.0038  0.9521
 1686SOL     OW16693   2.474   4.592  14.046 -0.3100  0.4987  0.9558
 1686SOL    HW116694   2.491   4.676  14.005 -0.4019  1.0151  1.9769
 1686SOL    HW216695   2.458   4.532  13.973 -0.6015  1.9939 -0.1879
 1687SOL     OW16696   3.281   2.392   2.355  0.3032  0.4598  0.0551
 1687SOL    HW116697   3.351   2.327   2.361  0.8630  0.9842 -0.7357
 1687SOL    HW216698   3.210   2.344   2.397  1.1102 -1.6189 -0.9509
 1688SOL     OW16699   3.092   2.814   4.176  0.0740  0.1074 -1.0032
 1688SOL    HW116700   3.114   2.724   4.155 -1.6399 -0.7214  0.7839
 1688SOL    HW216701   3.128   2.865   4.103  0.6570  0.6406 -0.3552
 1689SOL     OW16702   4.111   1.396   8.578 -0.2418  0.3862 -0.0929
 1689SOL    HW116703   4.113   1.395   8.673  1.4244 -2.0368 -0.1479
 1689SOL    HW216704   4.061   1.318   8.554  0.2540 -0.5013  1.8019
 1690SOL     OW16705   2.264   0.039   2.223  0.3947 -0.6044  0.4570
 1690SOL    HW116706   2.336   0.064   2.165  1.1301 -1.5566  0.9435
 1690SOL    HW216707   2.305   4.699   2.260  0.2844 -0.0976  1.6777
 1691SOL     OW16708   2.608   2.595  10.654 -0.0815 -0.0804 -0.4729
 1691SOL    HW116709   2.619   2.534  10.581  0.1938  0.1447 -0.6203
 1691SOL    HW216710   2.690   2.642  10.638  1.5143 -2.2147  1.4386
 1692SOL     OW16711   2.307   4.495   2.341 -0.3578  0.4944 -0.2458
 1692SOL    HW116712   2.377   4.505   2.276 -0.0644 -0.3399 -0.0610
 1692SOL    HW216713   2.264   4.419   2.302  0.2308 -0.7490  1.5161
 1693SOL     OW16714   1.318   2.301   3.894  0.4156  0.4583  0.4665
 1693SOL    HW116715   1.241   2.337   3.939 -0.2675 -1.2361  0.6755
 1693SOL    HW216716   1.283   2.328   3.810  1.9065  1.0129  0.0196
 1694SOL     OW16717   1.772   3.717   2.051 -0.0364 -0.1262  0.2288
 1694SOL    HW116718   1.770   3.802   2.008  0.6013 -0.2144  0.0215
 1694SOL    HW216719   1.854   3.683   2.016 -1.1783 -0.9495 -1.6063
 1695SOL     OW16720   1.620   1.774   8.366 -0.4678 -0.0407 -0.0090
 1695SOL    HW116721   1.680   1.752   8.295  0.3167  3.4620 -0.4380
 1695SOL    HW216722   1.544   1.782   8.308  0.6312 -0.9591 -1.5712
 1696SOL     OW16723   2.696   1.859  16.087 -0.4644 -0.1916  0.3656
 1696SOL    HW116724   2.651   1.847  16.171 -2.2194 -2.2604 -0.8718
 1696SOL    HW216725   2.683   1.954  16.082  1.6877  0.1301  1.2013
 1697SOL     OW16726   3.191   1.730  16.451 -0.2015  0.1352  0.1799
 1697SOL    HW116727   3.159   1.641  16.471 -1.7596  0.4513 -0.8918
 1697SOL    HW216728   3.286   1.725  16.459 -0.3574 -0.6696  1.6160
 1698SOL     OW16729   3.976   0.918   3.664  0.0035 -0.4213  0.0423
 1698SOL    HW116730   3.972   0.955   3.576 -0.7659 -0.1499  0.1904
 1698SOL    HW216731   3.891   0.875   3.673 -0.4862  0.1649 -1.9570
 1699SOL     OW16732   4.015   2.618   4.214  0.3046  0.0776 -0.4191
 1699SOL    HW116733   3.947   2.564   4.173 -0.4140 -0.0924  0.9966
 1699SOL    HW216734   4.064   2.558   4.269  0.6434 -0.4152 -1.2601
 1700SOL     OW16735   3.058   2.181   1.992  0.4248 -0.2222 -0.0411
 1700SOL    HW116736   3.063   2.253   1.929  0.2591 -0.7752 -0.6818
 1700SOL    HW216737   3.146   2.145   2.005  2.2895  3.4863 -2.2178
 1701SOL     OW16738   0.091   4.299   5.243  0.1313 -0.0464  0.0739
 1701SOL    HW116739   0.035   4.251   5.182 -0.7709  1.5339 -0.3249
 1701SOL    HW216740   0.147   4.346   5.182 -0.9559 -0.8968 -1.5860
 1702SOL     OW16741   2.007   0.486   1.598  0.1808 -0.4712 -0.0027
 1702SOL    HW116742   2.025   0.404   1.553  2.2963  0.2593 -0.4608
 1702SOL    HW216743   1.925   0.455   1.637 -0.5500  0.1973 -1.0257
 1703SOL     OW16744   2.363   2.386   7.133  0.2846  0.2029  0.5656
 1703SOL    HW116745   2.343   2.301   7.174 -1.5169  0.4107  0.1373
 1703SOL    HW216746   2.367   2.360   7.041  0.4591  1.9747  0.0764
 1704SOL     OW16747   1.329   3.018  14.746  0.4845 -0.1269  0.0394
 1704SOL    HW116748   1.282   2.945  14.785  1.1679 -0.8794 -0.5390
 1704SOL    HW216749   1.328   3.083  14.816  0.8818  1.9026 -1.8137
 1705SOL     OW16750   1.145   0.712   9.379 -0.7094 -0.6256  0.2049
 1705SOL    HW116751   1.061   0.755   9.361  0.6450  0.5662 -3.3480
 1705SOL    HW216752   1.184   0.766   9.448  0.2978  0.0055 -0.8603
 1706SOL     OW16753   3.378   2.029  17.540  0.3548  0.0274  0.4841
 1706SOL    HW116754   3.416   1.941  17.537 -0.3141 -0.2096 -0.9376
 1706SOL    HW216755   3.373   2.049  17.447  0.3825 -3.6834 -0.3471
 1707SOL     OW16756   2.993   0.896  12.073  0.0167  0.4935 -0.1243
 1707SOL    HW116757   3.085   0.920  12.072  0.6103 -1.9758 -1.9617
 1707SOL    HW216758   2.977   0.847  12.154  1.2728  0.1372 -0.1056
 1708SOL     OW16759   3.248   0.305   8.608  0.4272  0.2570  0.1817
 1708SOL    HW116760   3.272   0.315   8.700  0.0789  0.2529  0.2729
 1708SOL    HW216761   3.265   0.211   8.596  0.4257  0.4993 -1.7220
 1709SOL     OW16762   4.147   1.787   9.646 -0.3078 -0.2480 -0.2556
 1709SOL    HW116763   4.063   1.823   9.620 -1.5053 -1.1495  2.3434
 1709SOL    HW216764   4.209   1.841   9.597  0.4034  0.6744  1.6780
 1710SOL     OW16765   0.371   3.671  11.332  0.2618  0.7024 -0.5819
 1710SOL    HW116766   0.430   3.602  11.304  0.6788  0.9631 -0.3422
 1710SOL    HW216767   0.293   3.642  11.284  0.4924  1.1344 -1.2063
 1711SOL     OW16768   0.935   2.899  13.390 -0.5772 -0.5873 -0.6926
 1711SOL    HW116769   0.848   2.914  13.353 -0.9657  1.2594  0.9607
 1711SOL    HW216770   0.917   2.913  13.483 -2.6868 -1.0378 -1.0171
 1712SOL     OW16771   0.094   2.777  17.597  0.2332 -0.3347  0.5803
 1712SOL    HW116772   0.098   2.703  17.537  1.9997  1.2377 -1.2546
 1712SOL    HW216773   0.127   2.743  17.680  0.4282  2.5485  1.7049
 1713SOL     OW16774   1.495   4.108   6.335 -0.4124 -0.7582  0.0806
 1713SOL    HW116775   1.583   4.117   6.299 -0.8028  0.9110 -0.4320
 1713SOL    HW216776   1.495   4.165   6.412  2.4199 -0.3526 -0.2306
 1714SOL     OW16777   1.996   3.934   4.055  0.2871  0.1684 -0.0391
 1714SOL    HW116778   2.003   4.022   4.093  0.7603  0.7152 -1.3876
 1714SOL    HW216779   2.089   3.914   4.059  0.9766  3.3946  0.1151
 1715SOL     OW16780   1.654   2.922   7.326  0.0096 -0.2848  0.1535
 1715SOL    HW116781   1.663   2.998   7.268 -2.1484 -0.2752 -0.1713
 1715SOL    HW216782   1.608   2.865   7.264 -0.3610 -1.5482  1.5948
 1716SOL     OW16783   2.802   0.961   2.301 -0.1887 -1.0022  0.2148
 1716SOL    HW116784   2.720   1.002   2.327  1.3549  2.1585  0.0786
 1716SOL    HW216785   2.863   1.033   2.288  0.0761 -1.0232  1.3312
 1717SOL     OW16786   2.074   2.766   6.187 -0.0224 -0.4815  0.1694
 1717SOL    HW116787   2.008   2.707   6.150 -1.2597  0.0670  1.5236
 1717SOL    HW216788   2.148   2.738   6.132 -0.5793 -1.3438 -0.1440
 1718SOL     OW16789   1.949   2.458   2.475  0.5136  0.8721  0.7564
 1718SOL    HW116790   1.879   2.416   2.525  0.5427 -0.0720  0.0035
 1718SOL    HW216791   1.946   2.404   2.396  0.4789  2.7785 -0.5434
 1719SOL     OW16792   2.678   4.728  16.153 -0.7411  0.3698 -0.0300
 1719SOL    HW116793   2.632   4.690  16.078 -0.4663  0.4204 -0.2214
 1719SOL    HW216794   2.712   0.071  16.116  1.3444 -0.0046  1.0644
 1720SOL     OW16795   4.592   3.877   8.982  0.4281  0.2341  0.4349
 1720SOL    HW116796   4.571   3.863   8.889  1.7727  0.5538  0.0715
 1720SOL    HW216797   4.672   3.926   8.964  0.9560 -0.5929  0.5217
 1721SOL     OW16798   0.191   3.290   6.854 -0.4759 -0.1580  0.3615
 1721SOL    HW116799   0.157   3.359   6.910 -1.5858 -0.2054 -0.2654
 1721SOL    HW216800   0.272   3.329   6.820 -1.3727 -1.2317 -2.9782
 1722SOL     OW16801   3.617   2.705  16.114 -0.4755 -0.1590  0.3374
 1722SOL    HW116802   3.658   2.782  16.152  1.6947 -1.3736  0.4327
 1722SOL    HW216803   3.528   2.732  16.092  0.2250 -0.3017 -2.6135
 1723SOL     OW16804   0.186   4.391   7.884  0.1067  0.0146 -0.8327
 1723SOL    HW116805   0.138   4.457   7.834 -0.1149 -0.5981 -1.4192
 1723SOL    HW216806   0.191   4.330   7.811  0.7785 -0.8785 -0.0410
 1724SOL     OW16807   2.793   1.154  15.635 -0.7029  0.2635 -0.3542
 1724SOL    HW116808   2.790   1.167  15.540 -0.1067 -0.1058 -0.4245
 1724SOL    HW216809   2.882   1.120  15.645 -1.4415 -0.9174  2.2966
 1725SOL     OW16810   2.001   3.859   0.716 -0.1366  0.2565  0.2145
 1725SOL    HW116811   2.059   3.913   0.662 -0.0716 -0.8922 -0.8609
 1725SOL    HW216812   2.037   3.854   0.805  0.7306 -1.4537 -0.2409
 1726SOL     OW16813   3.729   0.463  10.046  0.3205 -0.5539  0.6803
 1726SOL    HW116814   3.798   0.527  10.064 -1.2106  1.4922 -0.8874
 1726SOL    HW216815   3.763   0.410   9.974  0.2113  2.0387 -1.2369
 1727SOL     OW16816   2.242   1.596   2.893  0.3923  0.4200  0.2149
 1727SOL    HW116817   2.158   1.565   2.861  0.0616 -1.0373  2.4852
 1727SOL    HW216818   2.230   1.579   2.986  0.9769  0.7066  0.3442
 1728SOL     OW16819   2.758   1.365   0.477  0.1391 -0.6002 -0.7428
 1728SOL    HW116820   2.834   1.404   0.520 -1.7832  1.1567  1.0244
 1728SOL    HW216821   2.755   1.428   0.405 -0.3239 -0.5398 -0.6731
 1729SOL     OW16822   2.031   3.518   8.167 -0.5150 -0.5162  0.3080
 1729SOL    HW116823   2.076   3.438   8.193  0.5579 -0.2203 -0.6012
 1729SOL    HW216824   1.964   3.488   8.106  1.5771 -2.4715 -0.9935
 1730SOL     OW16825   0.966   1.436   4.547  0.4377  0.1034  0.0804
 1730SOL    HW116826   0.994   1.432   4.638  1.2157  0.6071 -0.1344
 1730SOL    HW216827   0.886   1.489   4.555  0.4695  0.1361  0.1861
 1731SOL     OW16828   2.886   4.036  14.550 -0.8174 -0.1330 -0.0470
 1731SOL    HW116829   2.819   4.101  14.531  2.1108  3.0802  0.4847
 1731SOL    HW216830   2.865   4.006  14.639 -0.2134 -0.3746  0.0166
 1732SOL     OW16831   1.025   1.639  14.696  0.7969 -0.5259 -0.2222
 1732SOL    HW116832   1.088   1.690  14.747 -0.4049 -0.6621  1.3850
 1732SOL    HW216833   0.954   1.702  14.706 -0.9341 -2.3896 -0.7828
 1733SOL     OW16834   0.407   2.561   8.885  0.0290  0.0672  0.7763
 1733SOL    HW116835   0.424   2.476   8.844  0.7839 -1.0713  3.4706
 1733SOL    HW216836   0.345   2.537   8.953 -0.4650  0.2543  0.3917
 1734SOL     OW16837   3.596   3.147   7.885  0.2080 -0.2074  0.2529
 1734SOL    HW116838   3.641   3.148   7.969  0.8787 -1.1053 -0.0949
 1734SOL    HW216839   3.507   3.165   7.918  0.9432  0.4873  1.8539
 1735SOL     OW16840   1.594   4.706   5.687 -0.1623  0.4271 -0.3645
 1735SOL    HW116841   1.613   0.047   5.737 -1.9652  0.8056 -0.2811
 1735SOL    HW216842   1.499   4.709   5.676 -0.0973  0.9149 -0.7845
 1736SOL     OW16843   1.509   2.088  16.582 -0.0295 -0.0413  0.3652
 1736SOL    HW116844   1.443   2.035  16.539 -1.0959 -1.5855  3.9475
 1736SOL    HW216845   1.569   2.093  16.507 -1.1036  1.8042 -0.3765
 1737SOL     OW16846   2.161   3.783   0.313  0.1547  0.0456 -0.1726
 1737SOL    HW116847   2.236   3.835   0.344  0.1664 -0.4795  0.6767
 1737SOL    HW216848   2.177   3.788   0.219  0.2817  0.4959 -0.1308
 1738SOL     OW16849   3.511   4.223   6.832 -0.1689  0.1416  0.0020
 1738SOL    HW116850   3.538   4.176   6.910 -0.2492  0.7546  0.4045
 1738SOL    HW216851   3.542   4.311   6.857  0.0023 -1.1443  4.2495
 1739SOL     OW16852   3.380   0.624   1.741 -0.1422  0.0428 -0.5027
 1739SOL    HW116853   3.378   0.554   1.675  1.5532 -0.2378 -0.2605
 1739SOL    HW216854   3.382   0.560   1.812 -0.2069  1.2148  0.5470
 1740SOL     OW16855   1.698   2.365   0.306 -0.0367 -0.6484 -0.4442
 1740SOL    HW116856   1.720   2.278   0.272  0.2918 -0.7132 -0.0744
 1740SOL    HW216857   1.726   2.355   0.397  1.5810 -0.5629 -0.9385
 1741SOL     OW16858   2.797   0.930   8.985 -0.2511  0.0822  0.3353
 1741SOL    HW116859   2.854   0.937   9.062 -2.7625 -1.3576  2.3519
 1741SOL    HW216860   2.709   0.945   9.020 -0.4074  0.8834 -0.4127
 1742SOL     OW16861   2.803   2.488   4.809  0.0944  0.1440 -0.0193
 1742SOL    HW116862   2.794   2.412   4.867 -0.9225  0.3272  0.0643
 1742SOL    HW216863   2.721   2.483   4.760  0.9437 -0.4203 -1.3697
 1743SOL     OW16864   4.248   2.274   4.760 -0.2116  0.1227  0.2405
 1743SOL    HW116865   4.308   2.305   4.692  1.9709  0.8191  2.4534
 1743SOL    HW216866   4.164   2.289   4.717  1.5973  1.5509 -2.8244
 1744SOL     OW16867   4.023   0.918  16.661  0.1277  0.4051  0.2089
 1744SOL    HW116868   4.031   0.994  16.718  0.3812 -0.3951  1.2387
 1744SOL    HW216869   4.112   0.922  16.628  0.1842 -1.5705  0.1051
 1745SOL     OW16870   0.857   0.190   4.851 -0.6020  0.3203 -0.0558
 1745SOL    HW116871   0.911   0.269   4.856  0.5888 -0.5270  0.6467
 1745SOL    HW216872   0.923   0.124   4.871 -0.3595  1.0396  1.5345
 1746SOL     OW16873   1.091   1.336   9.102  0.1734  0.5449  0.5356
 1746SOL    HW116874   1.107   1.362   9.011 -1.5828 -0.7011 -0.1371
 1746SOL    HW216875   1.051   1.410   9.148 -0.8995  1.2983 -1.6366
 1747SOL     OW16876   3.333   1.225   6.174  0.2365  0.2437 -0.0674
 1747SOL    HW116877   3.370   1.141   6.203 -0.2504 -0.7076 -2.2129
 1747SOL    HW216878   3.396   1.244   6.103  0.0938  2.3557  0.3804
 1748SOL     OW16879   0.848   0.245  16.810  0.4075  0.1251 -0.0181
 1748SOL    HW116880   0.765   0.252  16.858  1.5826 -2.3702  2.3368
 1748SOL    HW216881   0.815   0.252  16.720  0.4005  1.2005  0.0689
 1749SOL     OW16882   2.535   2.702   0.076 -0.0690  0.3796  0.1694
 1749SOL    HW116883   2.621   2.739   0.054  0.5151 -0.3845  1.1603
 1749SOL    HW216884   2.546   2.631   0.013  3.3496  1.0145  0.0420
 1750SOL     OW16885   1.360   0.343   6.380  0.4331 -0.1538 -0.1712
 1750SOL    HW116886   1.266   0.346   6.363  0.3799  2.1927  0.5682
 1750SOL    HW216887   1.403   0.368   6.298  0.2649 -2.6950 -1.0629
 1751SOL     OW16888   3.797   2.661   9.138  0.5723 -0.2716  0.4667
 1751SOL    HW116889   3.837   2.590   9.187  0.6563 -0.2654  0.4068
 1751SOL    HW216890   3.736   2.700   9.201  1.1496 -0.2957  1.0481
 1752SOL     OW16891   2.786   0.894  16.512  0.0302  0.0634  0.1325
 1752SOL    HW116892   2.812   0.984  16.493  1.1688 -0.2211  0.3747
 1752SOL    HW216893   2.742   0.895  16.597  0.2824 -1.8202  0.2852
 1753SOL     OW16894   2.526   1.521   9.777 -0.2110  0.0567  0.4783
 1753SOL    HW116895   2.613   1.523   9.818 -0.0023  0.0293  0.0295
 1753SOL    HW216896   2.548   1.578   9.704  1.0912  0.5808  1.2945
 1754SOL     OW16897   1.619   2.908   9.972 -0.2130  0.0747  0.2770
 1754SOL    HW116898   1.555   2.847  10.010 -1.1437  0.4660 -0.6632
 1754SOL    HW216899   1.564   2.963   9.916 -1.1136  0.4035  1.5027
 1755SOL     OW16900   0.982   3.021   0.472  0.2317  0.6622 -0.7123
 1755SOL    HW116901   1.046   3.016   0.401  1.3411  1.0579  0.2706
 1755SOL    HW216902   1.023   3.059   0.550  0.3955  0.6097 -0.7727
 1756SOL     OW16903   0.090   1.499   3.678  0.1188 -0.1093 -0.4852
 1756SOL    HW116904   0.076   1.429   3.742  2.0329 -0.0195  0.0180
 1756SOL    HW216905   0.018   1.558   3.701  1.5316  0.8234  1.4915
 1757SOL     OW16906   1.425   1.013   5.553  0.0174 -0.4873  0.0235
 1757SOL    HW116907   1.442   1.011   5.647  0.9726  0.8391 -0.1240
 1757SOL    HW216908   1.513   1.018   5.516 -0.7207  2.2065 -1.3848
 1758SOL     OW16909   4.296   0.056  12.636 -0.4554 -0.4187 -0.3769
 1758SOL    HW116910   4.309   4.706  12.605  2.2727  0.0151 -0.4582
 1758SOL    HW216911   4.386   0.087  12.648 -0.0470 -0.8517 -2.3348
 1759SOL     OW16912   2.957   4.718   7.623 -0.0011 -0.5547  0.5926
 1759SOL    HW116913   2.941   4.625   7.606 -1.7555 -0.0210 -0.7981
 1759SOL    HW216914   2.906   4.729   7.703 -0.4966 -0.6220  0.2882
 1760SOL     OW16915   3.189   0.764   5.672 -0.1001 -0.1704  0.3049
 1760SOL    HW116916   3.271   0.728   5.705  0.9708 -0.3828 -2.5323
 1760SOL    HW216917   3.155   0.823   5.740  2.8015  2.0146 -0.1364
 1761SOL     OW16918   3.107   1.469   3.014  0.5001  0.0069 -0.5619
 1761SOL    HW116919   3.172   1.400   3.002 -2.1478 -3.0003  2.5277
 1761SOL    HW216920   3.091   1.455   3.107  2.1276  0.8923 -0.1500
 1762SOL     OW16921   2.630   2.931   3.078  0.3721 -0.5886 -0.1997
 1762SOL    HW116922   2.597   2.997   3.017  0.4152 -1.4556 -1.1762
 1762SOL    HW216923   2.670   2.984   3.146 -1.6521  0.9896 -0.2417
 1763SOL     OW16924   1.996   3.903  10.111  0.1396  0.2596 -0.9029
 1763SOL    HW116925   2.067   3.956  10.148  0.5828 -0.0540 -1.2906
 1763SOL    HW216926   1.924   3.922  10.170  0.9552 -0.2583  0.2697
 1764SOL     OW16927   2.405   1.745   6.796  0.7815 -0.3720  0.9895
 1764SOL    HW116928   2.483   1.796   6.776  0.0771 -0.3345 -1.7001
 1764SOL    HW216929   2.443   1.658   6.807  1.3500 -0.1158  1.0392
 1765SOL     OW16930   2.506   2.522   3.310 -0.0956 -0.1500  0.7436
 1765SOL    HW116931   2.560   2.457   3.354 -1.2805 -1.5013  0.1729
 1765SOL    HW216932   2.559   2.601   3.322  0.1776 -0.0488 -1.0545
 1766SOL     OW16933   2.657   4.063   3.524  1.2916  0.0236 -1.2693
 1766SOL    HW116934   2.732   4.003   3.515  2.1876  0.9597 -0.0736
 1766SOL    HW216935   2.619   4.045   3.438  0.9790  0.3129 -1.1876
 1767SOL     OW16936   1.863   2.768   4.916  0.0624 -0.2309  0.6155
 1767SOL    HW116937   1.785   2.724   4.880  0.5643 -2.9810  2.8977
 1767SOL    HW216938   1.907   2.690   4.949 -0.8198 -1.3098 -0.7197
 1768SOL     OW16939   3.707   4.210  17.314  0.0697  0.2337 -0.4146
 1768SOL    HW116940   3.714   4.178  17.404  0.5214  0.9904 -0.1809
 1768SOL    HW216941   3.729   4.131  17.265 -0.3619 -0.9023  1.2104
 1769SOL     OW16942   3.334   0.436   8.066 -0.1688 -0.3321 -0.3832
 1769SOL    HW116943   3.398   0.449   8.136  0.6963 -1.5440 -0.9621
 1769SOL    HW216944   3.276   0.370   8.105  2.1317 -2.4017 -0.4579
 1770SOL     OW16945   2.086   0.628   8.131  0.9323 -0.1397 -0.3901
 1770SOL    HW116946   2.148   0.623   8.059  2.9255 -1.3536  1.3758
 1770SOL    HW216947   2.010   0.591   8.086  1.0362  0.9987 -1.4854
 1771SOL     OW16948   4.635   0.591   8.269  0.0273  0.0123  0.5513
 1771SOL    HW116949   4.623   0.497   8.286  2.2476 -0.4080 -0.2285
 1771SOL    HW216950   4.581   0.587   8.190 -0.2020 -2.2665  0.8178
 1772SOL     OW16951   0.582   4.710  16.828  0.4061  0.4445  0.2653
 1772SOL    HW116952   0.662   4.684  16.782 -1.5324 -0.9521 -2.2818
 1772SOL    HW216953   0.541   4.626  16.807 -0.0984  0.1173  2.4620
 1773SOL     OW16954   1.722   4.030   4.697  0.1245 -0.1935 -0.0763
 1773SOL    HW116955   1.655   3.980   4.742 -0.4979  1.4434  0.8236
 1773SOL    HW216956   1.713   3.986   4.612  1.6556 -1.1417  0.2664
 1774SOL     OW16957   2.590   4.704   8.415  0.1644  0.2360  0.4202
 1774SOL    HW116958   2.654   4.696   8.485 -0.1213  1.0381  0.7745
 1774SOL    HW216959   2.631   4.657   8.342 -0.9479 -0.0636 -0.0159
 1775SOL     OW16960   4.636   2.561   0.289  0.4836 -0.1341  0.2292
 1775SOL    HW116961   4.589   2.484   0.258 -1.2925  1.3354 -0.7660
 1775SOL    HW216962   4.567   2.592   0.347  0.9072  0.5871  0.3451
 1776SOL     OW16963   2.622   2.487   9.031  0.6999  0.0455 -0.1117
 1776SOL    HW116964   2.658   2.567   8.995  0.1356 -0.1063 -1.0177
 1776SOL    HW216965   2.700   2.445   9.068  2.0467  3.5762  1.0626
 1777SOL     OW16966   0.156   2.655   4.476 -0.3754  0.8158 -0.1857
 1777SOL    HW116967   0.181   2.664   4.568  1.3991  1.2592 -0.7094
 1777SOL    HW216968   0.220   2.705   4.426  0.1964  0.2794  0.0181
 1778SOL     OW16969   4.575   2.649   9.512 -0.0592  0.2373  0.1169
 1778SOL    HW116970   4.506   2.711   9.539  2.2609  1.9353  2.1338
 1778SOL    HW216971   4.529   2.618   9.434  0.8728 -2.5927  0.7228
 1779SOL     OW16972   0.373   1.832   4.734  0.1708  0.1338  0.8422
 1779SOL    HW116973   0.363   1.768   4.664 -1.1233 -0.4028  1.5308
 1779SOL    HW216974   0.360   1.794   4.820  0.8252  0.6946  1.1918
 1780SOL     OW16975   1.162   0.179   0.662  0.3683  0.0923 -0.4312
 1780SOL    HW116976   1.073   0.146   0.677 -1.0207  4.1787  0.3283
 1780SOL    HW216977   1.197   0.114   0.601 -2.5727 -2.7546  0.9294
 1781SOL     OW16978   4.127   4.558   5.663 -0.1407  0.4977 -0.0603
 1781SOL    HW116979   4.092   4.550   5.752  0.0165  0.1976 -0.0250
 1781SOL    HW216980   4.088   4.477   5.629 -1.2995  1.2673 -0.5509
 1782SOL     OW16981   4.387   1.627   3.937  0.0102 -0.0518 -0.3359
 1782SOL    HW116982   4.336   1.694   3.891  1.0530  0.8537 -0.1714
 1782SOL    HW216983   4.385   1.650   4.030 -0.3640 -0.0737 -0.3398
 1783SOL     OW16984   4.640   2.957   4.320  0.4871 -0.2179  0.6207
 1783SOL    HW116985   4.586   2.960   4.242  1.2478 -1.6968  0.0503
 1783SOL    HW216986   4.654   2.863   4.313  0.7997 -0.1286  0.0137
 1784SOL     OW16987   0.672   1.437   3.406  0.0423  0.2786  0.7038
 1784SOL    HW116988   0.750   1.442   3.461  0.8083 -0.2937 -0.3099
 1784SOL    HW216989   0.622   1.375   3.459 -0.7049 -0.0161 -0.3305
 1785SOL     OW16990   4.195   0.547   7.747  0.1370  0.0672 -0.0738
 1785SOL    HW116991   4.197   0.639   7.722  0.5360  0.1169  0.1501
 1785SOL    HW216992   4.128   0.545   7.816 -0.2670  1.2075 -0.4334
 1786SOL     OW16993   1.503   0.517   6.227 -0.2720  0.6982  0.5791
 1786SOL    HW116994   1.435   0.498   6.163  1.0327 -2.0124  0.0285
 1786SOL    HW216995   1.554   0.580   6.176 -1.6483  1.5413  0.2486
 1787SOL     OW16996   2.594   0.706   9.188 -0.2699  0.0007 -0.0594
 1787SOL    HW116997   2.511   0.751   9.176  0.6710  1.5018 -1.0143
 1787SOL    HW216998   2.602   0.660   9.104  0.0928 -2.0797  1.1254
 1788SOL     OW16999   3.773   1.496   6.705  0.0435 -0.1866 -0.3283
 1788SOL    HW117000   3.711   1.525   6.773 -1.4616 -3.3483 -0.3612
 1788SOL    HW217001   3.725   1.422   6.668 -3.8270  1.6913  0.8282
 1789SOL     OW17002   0.276   4.707  10.638 -0.4431  0.3928  0.8519
 1789SOL    HW117003   0.217   4.678  10.568 -0.5300 -1.0005  1.5028
 1789SOL    HW217004   0.255   4.634  10.696 -0.0392 -0.5354 -0.1715
 1790SOL     OW17005   0.824   4.691   9.262 -0.2555  0.0715 -0.0811
 1790SOL    HW117006   0.804   4.666   9.352 -1.8726 -0.8388 -0.6867
 1790SOL    HW217007   0.739   4.687   9.218 -0.8577  0.7896  1.0139
 1791SOL     OW17008   4.508   3.123  12.001 -0.3179 -0.3765 -0.5563
 1791SOL    HW117009   4.526   3.208  11.961  4.0764 -1.4455 -0.8792
 1791SOL    HW217010   4.413   3.132  11.992 -0.5412 -1.0837  1.0723
 1792SOL     OW17011   3.438   3.285   6.141  0.0610 -0.1563 -0.0376
 1792SOL    HW117012   3.374   3.214   6.151  1.2075 -0.6172  4.0687
 1792SOL    HW217013   3.413   3.330   6.222  1.6666  1.8962 -0.6901
 1793SOL     OW17014   1.813   4.569   5.607 -0.0988 -0.0399  0.3998
 1793SOL    HW117015   1.731   4.608   5.637  0.9402 -1.1808  4.6767
 1793SOL    HW217016   1.858   4.550   5.690 -0.2617 -0.4161  0.4003
 1794SOL     OW17017   1.119   0.299   7.767  0.2523 -0.2093  0.0444
 1794SOL    HW117018   1.128   0.311   7.673 -1.8967 -1.7014 -0.3559
 1794SOL    HW217019   1.150   0.208   7.773  0.2333 -0.1850  0.5908
 1795SOL     OW17020   3.086   0.611   6.677  0.3113 -0.0932  0.4174
 1795SOL    HW117021   3.172   0.591   6.715  0.0565  1.6803  1.9526
 1795SOL    HW217022   3.076   0.530   6.627 -0.9128  0.0005  0.5295
 1796SOL     OW17023   2.415   1.753   8.755  0.6955  0.3311 -0.4377
 1796SOL    HW117024   2.497   1.794   8.729  0.2354  1.4529 -0.1024
 1796SOL    HW217025   2.363   1.821   8.797  0.5004 -0.7868  1.1742
 1797SOL     OW17026   3.164   0.974   8.253  0.0075 -0.0368 -0.2297
 1797SOL    HW117027   3.257   0.996   8.245  0.3842 -1.1570  1.1846
 1797SOL    HW217028   3.162   0.879   8.252 -2.4482  0.0003  0.5690
 1798SOL     OW17029   0.070   4.083   4.087  0.1287 -0.6843 -0.3588
 1798SOL    HW117030   0.062   4.173   4.055 -0.2084 -1.9687 -3.8639
 1798SOL    HW217031   4.728   4.044   4.054  0.8701 -1.3935 -1.3412
 1799SOL     OW17032   4.234   3.416   0.096  0.4132 -0.9706  0.9493
 1799SOL    HW117033   4.229   3.321   0.086  2.3530 -0.9934  0.1860
 1799SOL    HW217034   4.176   3.443   0.024  0.8441 -1.0009  0.5932
 1800SOL     OW17035   3.622   2.003   5.561  0.1425  0.5218  0.4632
 1800SOL    HW117036   3.676   2.069   5.606  0.0110  1.1736 -0.3338
 1800SOL    HW217037   3.537   2.047   5.569 -0.2155 -0.0853 -0.0932
 1801SOL     OW17038   0.060   3.232   3.602  0.0061  0.5751  0.5773
 1801SOL    HW117039   0.151   3.258   3.619  1.5104 -1.7021 -3.9890
 1801SOL    HW217040   0.081   3.161   3.542 -0.5871  1.9315 -1.2363
 1802SOL     OW17041   1.613   2.243   7.681 -0.1875  0.0648 -0.1977
 1802SOL    HW117042   1.662   2.222   7.761 -1.7826  1.9460  1.2830
 1802SOL    HW217043   1.535   2.267   7.732 -0.0469  1.9003 -0.8589
 1803SOL     OW17044   4.383   3.212   9.274  0.2367 -0.4402  0.8811
 1803SOL    HW117045   4.304   3.194   9.224 -0.1201  0.7608  1.0150
 1803SOL    HW217046   4.337   3.240   9.354  0.9831  0.4016  1.0175
 1804SOL     OW17047   3.021   1.508   4.293  0.1657 -0.2627  0.2748
 1804SOL    HW117048   3.063   1.553   4.367  0.0497  0.5527 -0.1614
 1804SOL    HW217049   3.052   1.418   4.301  0.8485 -0.0599 -0.1350
 1805SOL     OW17050   0.650   0.268  12.824  0.1800 -0.3165  0.6897
 1805SOL    HW117051   0.641   0.202  12.755  1.7865 -0.4588  0.6177
 1805SOL    HW217052   0.744   0.287  12.823  0.1999 -0.4829 -0.2701
 1806SOL     OW17053   1.690   3.630   5.754 -0.2167 -0.5939 -0.0109
 1806SOL    HW117054   1.656   3.718   5.767 -0.3922 -0.4765 -1.2734
 1806SOL    HW217055   1.609   3.590   5.720 -0.1669 -1.1387  0.5073
 1807SOL     OW17056   2.878   1.295   5.983  0.7055 -0.0949 -0.7105
 1807SOL    HW117057   2.868   1.265   6.074  0.0288 -1.4612 -1.2311
 1807SOL    HW217058   2.936   1.234   5.937  0.5815 -2.1690  1.8927
 1808SOL     OW17059   4.219   1.768   7.993 -0.1989  0.4408 -0.3408
 1808SOL    HW117060   4.247   1.700   8.054 -2.0577 -0.2586 -0.2575
 1808SOL    HW217061   4.124   1.767   8.008  0.0407 -0.0087  1.1477
 1809SOL     OW17062   2.490   0.003   8.027  0.5706 -0.1185  0.2683
 1809SOL    HW117063   2.515   4.652   8.047  1.8263 -0.1803 -1.5495
 1809SOL    HW217064   2.396   4.731   8.036  0.2603 -0.0856 -2.9032
 1810SOL     OW17065   1.884   0.236   8.373  0.3461 -0.5720  0.9195
 1810SOL    HW117066   1.884   0.173   8.444  0.0015 -1.2334  0.3374
 1810SOL    HW217067   1.831   0.301   8.419  1.8353 -0.2222  2.1429
 1811SOL     OW17068   1.001   2.493  10.944 -1.1724 -0.4760  0.2143
 1811SOL    HW117069   1.003   2.525  11.034 -0.5509  1.0511 -0.3491
 1811SOL    HW217070   0.921   2.539  10.918 -1.3829 -1.0469 -0.1487
 1812SOL     OW17071   1.335   2.118   6.827  0.0295  0.8636 -0.5181
 1812SOL    HW117072   1.420   2.118   6.870  1.1688  1.7146 -2.7695
 1812SOL    HW217073   1.351   2.107   6.733 -0.8429  2.3791 -0.8377
 1813SOL     OW17074   1.700   1.467   7.846  0.0819 -0.2974 -0.0921
 1813SOL    HW117075   1.657   1.502   7.924 -0.2039  1.0114 -0.8344
 1813SOL    HW217076   1.673   1.525   7.775  1.2753 -0.6474 -0.8471
 1814SOL     OW17077   2.152   2.629   3.599 -0.2009 -0.4842  0.0185
 1814SOL    HW117078   2.136   2.710   3.648  1.4987 -1.2708  1.8688
 1814SOL    HW217079   2.116   2.575   3.670  0.8159 -2.2677 -0.8184
 1815SOL     OW17080   3.665   2.877   2.937 -0.4039  0.2675 -0.7521
 1815SOL    HW117081   3.674   2.813   2.867  1.9407 -1.4909  1.1415
 1815SOL    HW217082   3.759   2.890   2.954 -0.9557 -0.2617  2.8068
 1816SOL     OW17083   1.862   4.245   3.688 -0.0260 -0.1940  0.4965
 1816SOL    HW117084   1.784   4.206   3.648  0.5008 -2.1493  1.3250
 1816SOL    HW217085   1.908   4.166   3.717 -2.2205 -1.5430  0.3454
 1817SOL     OW17086   0.057   2.564   8.705  0.2735 -0.5127 -0.6362
 1817SOL    HW117087   0.009   2.557   8.622  2.1672  0.6188 -1.8170
 1817SOL    HW217088   4.735   2.623   8.749  0.0490 -1.2230  0.0007
 1818SOL     OW17089   0.089   1.002   4.147 -0.8355  0.2760 -0.0536
 1818SOL    HW117090   4.733   1.001   4.139 -0.8639 -1.1138  0.4559
 1818SOL    HW217091   0.093   0.914   4.185  1.1189  0.1226 -0.6355
 1819SOL     OW17092   2.395   3.531   7.609  0.2345 -0.4584  0.1880
 1819SOL    HW117093   2.375   3.443   7.578 -0.1615 -1.1302  2.4013
 1819SOL    HW217094   2.388   3.583   7.528  0.6416 -1.1432 -0.2865
 1820SOL     OW17095   4.615   2.316  12.432  0.8983 -0.2005 -0.5681
 1820SOL    HW117096   4.581   2.399  12.399  0.4420  0.5862  1.8971
 1820SOL    HW217097   4.562   2.302  12.510  3.3211 -1.5916  0.8326
 1821SOL     OW17098   3.733   1.544   8.937  0.5838 -0.2171  0.2039
 1821SOL    HW117099   3.667   1.482   8.970  0.3255 -0.5268 -0.9103
 1821SOL    HW217100   3.762   1.493   8.861  1.9241  2.0241 -0.7768
 1822SOL     OW17101   3.737   3.398   7.840 -0.1319  0.6721 -0.4153
 1822SOL    HW117102   3.811   3.405   7.778  0.2029 -0.3012 -0.1304
 1822SOL    HW217103   3.681   3.331   7.802 -1.5218  0.7690  1.4847
 1823SOL     OW17104   4.615   3.429   5.643 -0.6644  0.0699 -0.2583
 1823SOL    HW117105   4.561   3.507   5.654  2.0080  1.4658  2.8567
 1823SOL    HW217106   4.575   3.369   5.706  1.6784 -0.6730  0.5058
 1824SOL     OW17107   3.749   2.627  15.690 -0.1345 -0.7435  0.3315
 1824SOL    HW117108   3.658   2.650  15.710 -1.0960 -3.6483 -0.5920
 1824SOL    HW217109   3.729   2.533  15.680  0.1491 -0.6781 -0.8303
 1825SOL     OW17110   1.613   2.130   4.652 -0.3136  0.4002 -0.2526
 1825SOL    HW117111   1.518   2.133   4.662 -0.1367  2.9427  0.7129
 1825SOL    HW217112   1.639   2.039   4.664  0.9585  0.5641 -1.8644
 1826SOL     OW17113   1.882   1.968   1.026  0.0915 -0.3621 -0.2682
 1826SOL    HW117114   1.809   1.967   0.965  0.3696 -2.0457 -0.5669
 1826SOL    HW217115   1.905   1.875   1.024 -2.8274 -1.1037  0.8365
 1827SOL     OW17116   1.849   0.851   7.346  0.2021 -0.2125  0.3109
 1827SOL    HW117117   1.907   0.907   7.294 -1.2158  2.1758  1.3247
 1827SOL    HW217118   1.914   0.829   7.413 -0.3236 -0.3969  0.7587
 1828SOL     OW17119   1.002   0.747   1.538  0.0503  0.0382 -0.1931
 1828SOL    HW117120   1.073   0.730   1.477  0.0075 -1.2176  0.1125
 1828SOL    HW217121   0.992   0.842   1.540  1.5823  0.1911 -0.3724
 1829SOL     OW17122   0.378   4.095   3.406  0.0063 -0.3075  0.0009
 1829SOL    HW117123   0.364   4.157   3.477 -3.0519 -0.3295 -0.6025
 1829SOL    HW217124   0.341   4.017   3.447 -0.0445 -1.1039 -1.5314
 1830SOL     OW17125   3.558   3.252   3.756  0.1226  0.2685 -0.0571
 1830SOL    HW117126   3.604   3.315   3.812  2.3002  0.6391 -2.2141
 1830SOL    HW217127   3.465   3.271   3.751 -0.1819 -1.7701 -2.0407
 1831SOL     OW17128   1.004   4.567   4.059 -0.0718  0.0302 -0.2604
 1831SOL    HW117129   1.077   4.505   4.048  0.4803  0.3576  1.5822
 1831SOL    HW217130   0.941   4.536   3.995 -2.0918 -1.1315  2.3210
 1832SOL     OW17131   1.887   1.195  13.225  0.1146  0.0370  0.1241
 1832SOL    HW117132   1.962   1.253  13.241 -1.3542  1.7693  0.8331
 1832SOL    HW217133   1.809   1.249  13.237  1.0106  0.8804  2.2116
 1833SOL     OW17134   4.419   2.605  17.004 -0.1091 -0.1462  0.1397
 1833SOL    HW117135   4.401   2.544  16.932  0.7754  2.7348 -2.5122
 1833SOL    HW217136   4.515   2.612  17.001  0.0777 -1.8378  2.4395
 1834SOL     OW17137   4.677   2.349  16.158 -0.1666  0.0085  0.4462
 1834SOL    HW117138   4.651   2.283  16.223 -1.0243  0.1944  0.2964
 1834SOL    HW217139   4.704   2.284  16.093 -2.7367 -0.0333 -0.6255
 1835SOL     OW17140   2.072   1.994   8.062 -0.4285 -0.7626 -0.4790
 1835SOL    HW117141   2.150   2.040   8.092 -1.0828  0.2883 -0.3595
 1835SOL    HW217142   2.065   1.935   8.137 -0.9021 -1.0217 -0.7260
 1836SOL     OW17143   2.649   2.419   5.970 -0.7992 -0.2210 -0.2397
 1836SOL    HW117144   2.597   2.500   5.972  1.6846  1.3556  0.0996
 1836SOL    HW217145   2.731   2.452   5.934 -0.0278 -0.8735  0.9105
 1837SOL     OW17146   0.318   3.275   3.676  1.0357  0.0523  0.6514
 1837SOL    HW117147   0.385   3.287   3.743 -1.3974 -1.3426  3.2771
 1837SOL    HW217148   0.370   3.245   3.601  1.2202  0.1762  0.7275
 1838SOL     OW17149   4.539   0.045   9.602 -0.0332  0.5545  0.2863
 1838SOL    HW117150   4.499   0.026   9.687  0.3340 -0.3391  0.2569
 1838SOL    HW217151   4.620   0.073   9.645  0.4830  0.3134 -0.5297
 1839SOL     OW17152   4.626   2.465   8.466 -0.3378 -0.2667  0.0606
 1839SOL    HW117153   4.572   2.517   8.407 -0.5747  0.2082  0.6977
 1839SOL    HW217154   4.564   2.395   8.487  1.6802 -2.3321 -0.8496
 1840SOL     OW17155   0.871   0.612  11.099 -0.5781  0.4159 -0.1293
 1840SOL    HW117156   0.954   0.603  11.146 -0.8986  1.7312  0.6990
 1840SOL    HW217157   0.812   0.642  11.168 -1.5285  0.7194 -1.0714
 1841SOL     OW17158   2.022   1.330   7.342  0.1188  0.4254 -0.0825
 1841SOL    HW117159   2.079   1.266   7.384 -0.9075 -0.3682  0.1178
 1841SOL    HW217160   2.087   1.382   7.296 -0.2345  0.3087 -0.7185
 1842SOL     OW17161   2.599   0.494   6.703  0.4338 -0.0901  0.4590
 1842SOL    HW117162   2.550   0.575   6.688  0.4333 -0.0539  0.6568
 1842SOL    HW217163   2.664   0.510   6.771  2.0648 -1.4562 -0.7721
 1843SOL     OW17164   3.224   1.624   3.607  0.0732 -0.0915  0.0530
 1843SOL    HW117165   3.139   1.655   3.576 -1.4407 -4.3531 -0.0992
 1843SOL    HW217166   3.288   1.656   3.543  0.3956 -0.3773  0.2269
 1844SOL     OW17167   2.627   1.131   3.903 -0.3896  0.2290  0.1206
 1844SOL    HW117168   2.617   1.037   3.918  1.1792  0.0458  0.0296
 1844SOL    HW217169   2.635   1.169   3.990 -0.5646 -1.5618  0.9103
 1845SOL     OW17170   0.888   1.518   4.816 -0.6973  0.5908 -0.1233
 1845SOL    HW117171   0.868   1.612   4.814 -2.2573  0.3321  3.0701
 1845SOL    HW217172   0.798   1.490   4.802 -0.5066  0.5215 -1.1644
 1846SOL     OW17173   1.587   0.761  15.228  0.0016  0.4137  0.1660
 1846SOL    HW117174   1.620   0.831  15.172  0.4170 -0.4121 -0.6345
 1846SOL    HW217175   1.614   0.792  15.314  1.3091  2.1446 -0.8686
 1847SOL     OW17176   1.305   3.270   3.867 -0.0781  0.3433 -0.1261
 1847SOL    HW117177   1.272   3.184   3.892  0.8593  0.2665  0.8338
 1847SOL    HW217178   1.238   3.332   3.895 -1.6284 -0.9097 -1.1043
 1848SOL     OW17179   3.843   3.480   8.095  0.0923  0.5023 -0.6007
 1848SOL    HW117180   3.831   3.401   8.147  1.7414  0.1851 -0.7194
 1848SOL    HW217181   3.804   3.459   8.011 -1.6570 -0.3925  0.4334
 1849SOL     OW17182   2.656   2.095   8.957  0.3427  0.0149  0.3732
 1849SOL    HW117183   2.640   2.020   9.014 -1.0854 -1.1422 -1.5022
 1849SOL    HW217184   2.573   2.142   8.970 -0.8633 -2.5541  1.9623
 1850SOL     OW17185   2.979   2.389   1.832 -0.2243 -0.3820  0.3618
 1850SOL    HW117186   3.029   2.471   1.829  0.4508 -0.7936  0.5076
 1850SOL    HW217187   2.905   2.417   1.778 -0.1969  2.1746  1.6341
 1851SOL     OW17188   2.697   2.189   3.650  0.2426  0.0397 -0.0133
 1851SOL    HW117189   2.725   2.158   3.564  2.6895 -0.1084  0.8368
 1851SOL    HW217190   2.617   2.137   3.646 -0.0094  0.2427  2.5020
 1852SOL     OW17191   1.693   2.227  15.895 -0.3596  0.2655  0.5877
 1852SOL    HW117192   1.743   2.302  15.866 -0.9245  0.2896 -0.3221
 1852SOL    HW217193   1.762   2.161  15.897  0.0216  0.7013  2.3600
 1853SOL     OW17194   4.062   2.944  15.264 -0.2483  0.7235 -0.2083
 1853SOL    HW117195   4.101   2.902  15.340  0.8656  1.1994 -0.5148
 1853SOL    HW217196   4.041   3.030  15.301  1.3184  1.5668 -1.2616
 1854SOL     OW17197   0.346   4.169   4.436  0.2578 -0.2903  0.1153
 1854SOL    HW117198   0.348   4.229   4.361  0.7975  0.4205  0.6963
 1854SOL    HW217199   0.395   4.221   4.500 -2.2834 -0.2479  2.0308
 1855SOL     OW17200   3.627   1.906   6.784  0.5495 -0.1502 -0.4179
 1855SOL    HW117201   3.541   1.933   6.815  0.2490 -3.0172  1.2519
 1855SOL    HW217202   3.660   1.839   6.845 -1.8047 -0.8809  0.0310
 1856SOL     OW17203   1.606   4.701  16.059  0.0088 -0.8452  0.1754
 1856SOL    HW117204   1.677   4.640  16.078  0.0167 -1.1269 -0.7702
 1856SOL    HW217205   1.582   4.712  16.151  4.1895  1.8652  0.9099
 1857SOL     OW17206   2.589   0.981  16.249  0.4912 -0.3100 -0.4849
 1857SOL    HW117207   2.653   0.984  16.178  1.2273  0.2388  0.1970
 1857SOL    HW217208   2.635   0.947  16.327 -2.1214  0.2705  1.3138
 1858SOL     OW17209   3.263   3.582   4.524  0.4110 -0.2428  0.0355
 1858SOL    HW117210   3.357   3.573   4.539  0.2958 -1.2147  0.1903
 1858SOL    HW217211   3.268   3.646   4.453 -2.8474 -0.1739 -0.1299
 1859SOL     OW17212   3.220   2.988   7.446 -0.4225  0.3474 -0.4772
 1859SOL    HW117213   3.298   3.016   7.496  1.8514 -1.5594 -2.9677
 1859SOL    HW217214   3.177   3.072   7.429  2.1491  2.3042  2.5188
 1860SOL     OW17215   0.196   4.511   5.958 -0.1101  0.1829 -0.1287
 1860SOL    HW117216   0.222   4.592   6.003  4.8597 -0.2641 -2.1360
 1860SOL    HW217217   0.233   4.450   6.022  1.8814 -0.5945 -2.0058
 1861SOL     OW17218   4.425   2.673   8.954  0.3919 -0.0615  0.0854
 1861SOL    HW117219   4.446   2.583   8.982  0.4548 -0.5556 -1.5445
 1861SOL    HW217220   4.452   2.724   9.030  1.5794 -0.4312 -0.0781
 1862SOL     OW17221   3.345   3.674   5.199  0.2493  0.2558 -0.7244
 1862SOL    HW117222   3.422   3.619   5.215  0.1873  0.3974  0.0605
 1862SOL    HW217223   3.357   3.734   5.272 -1.3747  2.1738 -2.0316
 1863SOL     OW17224   3.082   1.948   0.899 -0.1370  0.2624  0.3720
 1863SOL    HW117225   3.163   1.899   0.890 -1.0747 -1.1248 -0.6716
 1863SOL    HW217226   3.104   2.037   0.873 -1.6987  0.5637  0.0759
 1864SOL     OW17227   3.835   1.318   3.606  0.2083  0.0044  0.5549
 1864SOL    HW117228   3.761   1.312   3.666  0.7218  0.2580  1.2166
 1864SOL    HW217229   3.901   1.341   3.672  1.7059  0.7491 -1.2067
 1865SOL     OW17230   4.588   2.842  13.441 -0.3742 -0.0195 -0.0227
 1865SOL    HW117231   4.591   2.864  13.534 -1.8185  1.8505 -0.4139
 1865SOL    HW217232   4.577   2.932  13.409 -0.9814 -0.8159 -2.0203
 1866SOL     OW17233   0.006   4.385   9.397 -0.3936 -1.0884 -0.0472
 1866SOL    HW117234   4.736   4.480   9.407 -0.4363 -0.7231 -3.4798
 1866SOL    HW217235   4.737   4.359   9.489  0.4984  1.9580  0.8924
 1867SOL     OW17236   1.327   1.622  12.414  0.0920 -0.7234  0.0850
 1867SOL    HW117237   1.288   1.684  12.475  0.7323 -1.1662  0.9676
 1867SOL    HW217238   1.417   1.656  12.414 -0.1886  0.0006 -0.2980
 1868SOL     OW17239   3.499   2.392   0.206  0.6291 -0.0787 -0.3044
 1868SOL    HW117240   3.473   2.484   0.205 -5.0359 -1.6376 -0.0781
 1868SOL    HW217241   3.543   2.395   0.291 -2.3132 -0.6922  1.2678
 1869SOL     OW17242   0.071   0.761   6.826 -0.3104 -0.1234  0.3146
 1869SOL    HW117243   0.077   0.666   6.814 -1.8065 -0.3088  0.9851
 1869SOL    HW217244   0.161   0.791   6.821  0.1970 -1.9398 -1.5265
 1870SOL     OW17245   2.767   0.895   3.638 -0.6229  0.0282 -0.4871
 1870SOL    HW117246   2.840   0.833   3.641  0.9745  1.9497 -0.1263
 1870SOL    HW217247   2.706   0.867   3.706  1.6989 -0.4676  1.3934
 1871SOL     OW17248   1.541   1.339   0.838 -0.2178 -0.2442 -0.0641
 1871SOL    HW117249   1.566   1.380   0.921  0.1462  3.8121 -2.1734
 1871SOL    HW217250   1.518   1.247   0.854 -1.5927  0.2848  0.9239
 1872SOL     OW17251   4.650   4.135   1.745 -0.6233 -0.3400 -0.3448
 1872SOL    HW117252   4.576   4.079   1.771 -1.9156  0.9325 -1.2689
 1872SOL    HW217253   4.730   4.084   1.756 -1.1143 -0.7783  1.1620
 1873SOL     OW17254   4.293   0.339   6.193 -0.1876  0.3346  0.0527
 1873SOL    HW117255   4.299   0.321   6.287  3.3182  1.9475  0.1267
 1873SOL    HW217256   4.363   0.285   6.156 -1.6304 -1.3050 -0.2823
 1874SOL     OW17257   0.081   1.608   6.225  0.9060 -0.4561 -0.8506
 1874SOL    HW117258   0.041   1.538   6.277  1.2272 -0.4275 -0.5680
 1874SOL    HW217259   0.034   1.615   6.142 -0.7311 -1.2858  0.0081
 1875SOL     OW17260   1.650   3.404  16.560 -0.4527  0.0017  0.6363
 1875SOL    HW117261   1.599   3.421  16.480 -1.2462 -1.0005  0.9386
 1875SOL    HW217262   1.639   3.477  16.622  0.3194  1.4713 -0.9571
 1876SOL     OW17263   1.514   4.176   2.965 -0.0641 -0.8618  0.6372
 1876SOL    HW117264   1.447   4.114   2.936  0.3507 -0.2334 -1.6482
 1876SOL    HW217265   1.594   4.128   2.942 -0.7468 -2.4146  1.5080
 1877SOL     OW17266   0.725   2.390   8.987 -0.1124 -0.1360  0.1180
 1877SOL    HW117267   0.745   2.483   8.996  1.6932 -0.3135 -2.0032
 1877SOL    HW217268   0.732   2.386   8.891 -3.0124  2.5812 -0.2145
 1878SOL     OW17269   2.502   0.350   3.711  0.5545  0.7230  0.0859
 1878SOL    HW117270   2.457   0.281   3.662  1.3657  0.0915  0.2394
 1878SOL    HW217271   2.436   0.368   3.779  0.3427 -2.7888  0.8153
 1879SOL     OW17272   3.209   3.993   5.317  0.0791  0.1981  0.1050
 1879SOL    HW117273   3.280   3.956   5.369  0.9088  1.4344 -0.1352
 1879SOL    HW217274   3.163   3.911   5.299 -0.8532  1.4183 -2.9562
 1880SOL     OW17275   2.146   4.533   5.265 -0.5968  0.3699  0.0816
 1880SOL    HW117276   2.097   4.460   5.227 -1.1723  0.4537  0.6769
 1880SOL    HW217277   2.076   4.574   5.315 -0.0529  0.2872  0.9157
 1881SOL     OW17278   2.242   3.422   1.737 -0.1471  0.1627  0.3284
 1881SOL    HW117279   2.221   3.342   1.689 -1.3004  0.6147  0.0741
 1881SOL    HW217280   2.180   3.484   1.699  0.5993  1.1796  0.7645
 1882SOL     OW17281   3.121   0.222  17.392 -0.2778 -0.0681 -0.1666
 1882SOL    HW117282   3.151   0.302  17.437 -1.3730  0.2579 -0.0124
 1882SOL    HW217283   3.105   0.256  17.304  2.3555 -1.2422 -1.0908
 1883SOL     OW17284   4.310   0.566   8.086  0.5215 -0.0252 -0.1624
 1883SOL    HW117285   4.286   0.474   8.084 -0.4365  0.2156  0.5806
 1883SOL    HW217286   4.234   0.598   8.134  0.3563 -0.2888 -0.2528
 1884SOL     OW17287   4.103   2.077   3.074  0.7355  0.1374  0.2969
 1884SOL    HW117288   4.136   2.152   3.025 -1.9469 -0.3288 -2.2288
 1884SOL    HW217289   4.009   2.074   3.053  0.3927 -0.6123  1.8936
 1885SOL     OW17290   0.312   0.585   7.095  0.5149 -0.2306  0.5042
 1885SOL    HW117291   0.347   0.643   7.162  0.8610  0.4781 -0.3006
 1885SOL    HW217292   0.217   0.596   7.100  0.5829  0.1102  1.0099
 1886SOL     OW17293   3.493   2.582   4.592 -0.1096  0.0628 -0.3014
 1886SOL    HW117294   3.501   2.653   4.656 -1.5293 -0.5994  0.6058
 1886SOL    HW217295   3.537   2.509   4.635  0.1032  0.1501 -0.3688
 1887SOL     OW17296   3.108   1.416   3.313  0.2107 -0.2424 -0.0540
 1887SOL    HW117297   3.024   1.370   3.314  0.7075 -1.1811 -0.7244
 1887SOL    HW217298   3.156   1.363   3.377 -0.6852  0.0723  0.8812
 1888SOL     OW17299   4.073   4.255  17.269  0.1807 -1.4299  0.0624
 1888SOL    HW117300   4.093   4.340  17.231 -3.5853 -0.6353 -0.1000
 1888SOL    HW217301   4.045   4.217  17.186 -0.2498  0.2199 -0.5408
 1889SOL     OW17302   0.205   1.428   5.151  0.2036 -0.2781 -0.1926
 1889SOL    HW117303   0.258   1.374   5.093 -1.0907 -0.9928 -0.7079
 1889SOL    HW217304   0.183   1.356   5.210 -1.1750 -0.0719 -0.4596
 1890SOL     OW17305   0.717   3.367  16.644 -0.2922 -0.3936 -0.4298
 1890SOL    HW117306   0.629   3.337  16.619  0.0168  0.0144 -1.9916
 1890SOL    HW217307   0.693   3.426  16.715 -0.0438  1.3869 -1.8276
 1891SOL     OW17308   1.880   0.517  11.609 -0.0167  0.1920 -0.6440
 1891SOL    HW117309   1.963   0.486  11.573  1.1030 -1.1364  3.1028
 1891SOL    HW217310   1.833   0.539  11.529 -3.4283  1.5820  1.7324
 1892SOL     OW17311   0.288   2.866   3.859  0.2277 -0.1579 -0.0942
 1892SOL    HW117312   0.300   2.862   3.954  0.0783  0.0965 -0.0635
 1892SOL    HW217313   0.214   2.809   3.839  0.3977 -0.2122 -0.5602
 1893SOL     OW17314   4.548   1.726   7.074 -0.1549 -0.6519  0.4927
 1893SOL    HW117315   4.489   1.672   7.021 -0.2982  0.8749 -0.8837
 1893SOL    HW217316   4.571   1.669   7.148 -1.6688  0.9008  2.1452
 1894SOL     OW17317   3.439   2.794  12.146 -0.2765 -0.3710  0.0278
 1894SOL    HW117318   3.415   2.728  12.211  0.4100  0.7732  1.4469
 1894SOL    HW217319   3.481   2.854  12.208 -1.3471  1.3128 -0.8749
 1895SOL     OW17320   3.475   0.774   7.151  0.5836 -0.6267  0.0478
 1895SOL    HW117321   3.462   0.707   7.218  1.4240 -0.0450  0.7929
 1895SOL    HW217322   3.490   0.853   7.202 -0.2003 -0.1209 -0.5028
 1896SOL     OW17323   0.700   3.879   1.779  0.1797  0.9553 -0.0959
 1896SOL    HW117324   0.656   3.794   1.783 -1.3630  1.9154  2.9798
 1896SOL    HW217325   0.789   3.865   1.810  0.0013 -1.9435 -0.8608
 1897SOL     OW17326   3.568   3.478  13.070 -0.1105 -0.1562 -0.0734
 1897SOL    HW117327   3.595   3.401  13.021 -0.8048 -0.1549 -0.4567
 1897SOL    HW217328   3.598   3.459  13.159 -0.8736  0.8453  0.3930
 1898SOL     OW17329   1.159   2.547   3.483  0.7237  0.1053 -0.0179
 1898SOL    HW117330   1.115   2.617   3.530  0.5297 -0.4563  0.6494
 1898SOL    HW217331   1.183   2.491   3.557 -1.0046 -1.1841 -0.4266
 1899SOL     OW17332   4.000   2.323   4.676 -0.3593 -0.4036 -0.3388
 1899SOL    HW117333   3.954   2.241   4.698 -0.4321 -0.5000 -0.8431
 1899SOL    HW217334   3.938   2.372   4.622 -1.6572 -0.3064  1.2237
 1900SOL     OW17335   0.693   2.943  15.212  0.1511 -0.3202  0.0814
 1900SOL    HW117336   0.622   2.981  15.263  0.3301 -0.6191  0.5454
 1900SOL    HW217337   0.670   2.851  15.223  0.5916 -0.2287  1.7440
 1901SOL     OW17338   2.582   3.186   3.972 -0.5489 -0.1027  0.1676
 1901SOL    HW117339   2.556   3.123   4.039 -1.3335  0.5280  0.4696
 1901SOL    HW217340   2.678   3.185   3.975 -0.5164  0.1448 -0.9155
 1902SOL     OW17341   4.650   0.206  13.596  0.5496  0.2183  0.6483
 1902SOL    HW117342   4.650   0.166  13.682  0.8328 -2.2209 -0.4878
 1902SOL    HW217343   4.559   0.182  13.582  1.0281 -1.4193  0.3697
 1903SOL     OW17344   0.746   1.332   3.906  0.2368 -0.0974  0.0935
 1903SOL    HW117345   0.765   1.304   3.817 -2.3345 -0.9329 -0.1755
 1903SOL    HW217346   0.723   1.248   3.947  0.4858 -0.0760  0.2795
 1904SOL     OW17347   2.000   4.724   4.069  0.2130 -0.3126  0.2225
 1904SOL    HW117348   1.926   4.671   4.040  0.4765 -0.8042  0.4543
 1904SOL    HW217349   2.043   4.736   3.984 -4.2875  0.8318 -1.9091
 1905SOL     OW17350   3.742   3.300   2.933  0.0125 -0.3197 -0.4457
 1905SOL    HW117351   3.813   3.246   2.970 -0.4369 -0.9165 -0.4496
 1905SOL    HW217352   3.708   3.250   2.858 -1.2111  1.4549 -1.0514
 1906SOL     OW17353   3.768   1.258   5.039 -0.4570  0.0709 -0.5272
 1906SOL    HW117354   3.770   1.353   5.029  1.0129 -0.0367 -1.3354
 1906SOL    HW217355   3.694   1.240   5.096  0.6610 -1.9076  0.3359
 1907SOL     OW17356   1.293   3.273   1.935  0.3522  0.0567 -0.1943
 1907SOL    HW117357   1.377   3.255   1.976 -1.4548 -0.9991  3.1001
 1907SOL    HW217358   1.254   3.323   2.007 -1.6462 -0.0165 -1.2082
 1908SOL     OW17359   0.533   4.574  15.662 -0.7228 -0.0552  0.0022
 1908SOL    HW117360   0.543   4.512  15.590  0.1845  1.0945 -0.8521
 1908SOL    HW217361   0.536   4.656  15.611  2.8558 -0.3712 -0.3236
 1909SOL     OW17362   3.979   4.152  15.848  0.1181  0.3615 -0.4206
 1909SOL    HW117363   3.883   4.161  15.846  0.1096  0.6115  0.8676
 1909SOL    HW217364   3.998   4.151  15.754 -0.1056  2.7700 -0.4891
 1910SOL     OW17365   4.103   1.138   7.670  0.6567  0.2563  0.1690
 1910SOL    HW117366   4.116   1.089   7.751 -1.3902  0.7507  0.7948
 1910SOL    HW217367   4.106   1.229   7.699 -2.9728  0.2897  0.3645
 1911SOL     OW17368   1.126   1.687  15.946  0.2358  0.0835 -0.6392
 1911SOL    HW117369   1.170   1.645  15.872  1.4372  1.4908 -0.7245
 1911SOL    HW217370   1.119   1.780  15.923 -2.0209  0.1869  0.4858
 1912SOL     OW17371   2.723   1.746   7.126  0.1096 -0.2467  0.6118
 1912SOL    HW117372   2.764   1.791   7.200  1.7070  1.8689 -1.5496
 1912SOL    HW217373   2.643   1.797   7.115  1.3295  1.4411 -0.4879
 1913SOL     OW17374   2.137   2.340   4.482 -0.4577  0.0441  0.8852
 1913SOL    HW117375   2.070   2.355   4.415  0.0994 -2.1021 -0.1462
 1913SOL    HW217376   2.202   2.293   4.430 -1.7403 -0.2305 -0.4780
 1914SOL     OW17377   4.387   0.556   4.255 -0.3142  0.0974 -0.4021
 1914SOL    HW117378   4.408   0.564   4.162  0.3948  1.4071 -0.1237
 1914SOL    HW217379   4.291   0.550   4.257 -0.2350 -0.4409  1.8417
 1915SOL     OW17380   0.764   2.665   9.081 -0.0723 -0.2600  0.1731
 1915SOL    HW117381   0.747   2.699   8.993 -2.0287  1.5612  1.2400
 1915SOL    HW217382   0.790   2.738   9.137 -1.8930 -0.5158  1.3174
 1916SOL     OW17383   1.023   3.595  13.241 -0.2848 -0.3429  0.2881
 1916SOL    HW117384   1.103   3.626  13.283  0.3870  1.1028 -2.0408
 1916SOL    HW217385   0.969   3.591  13.320 -1.7542  2.8283 -0.5351
 1917SOL     OW17386   3.296   3.684  17.622 -0.3192 -0.0796 -0.2387
 1917SOL    HW117387   3.390   3.678  17.606 -0.2340 -1.0075  0.5729
 1917SOL    HW217388   3.269   3.607  17.571 -1.2520 -0.3311  0.6308
 1918SOL     OW17389   3.766   4.396  16.648  0.1817 -0.1564  0.4118
 1918SOL    HW117390   3.840   4.350  16.608  1.3894  1.7532  0.4782
 1918SOL    HW217391   3.787   4.489  16.640 -2.2955 -0.0987 -4.7500
 1919SOL     OW17392   1.908   1.206   6.482 -0.4549 -0.0244  0.4635
 1919SOL    HW117393   2.000   1.232   6.476 -0.3913 -0.2993  0.2367
 1919SOL    HW217394   1.881   1.231   6.571 -2.4365  1.4398 -0.5384
 1920SOL     OW17395   3.909   2.771   9.581  0.6682  0.0055 -0.3306
 1920SOL    HW117396   3.871   2.850   9.545  2.2905  1.0857  0.3114
 1920SOL    HW217397   3.992   2.780   9.534  0.3294  0.7645 -0.7845
 1921SOL     OW17398   4.659   1.030   3.528 -0.1338  0.3783 -0.5315
 1921SOL    HW117399   0.007   1.053   3.495 -0.2284  1.3309 -0.1299
 1921SOL    HW217400   4.637   0.962   3.465 -1.2473 -1.9278  2.3698
 1922SOL     OW17401   1.037   0.210   8.353 -0.3529  0.1797  0.2406
 1922SOL    HW117402   0.975   0.283   8.359 -0.7239 -0.2880  2.0837
 1922SOL    HW217403   1.017   0.156   8.429 -2.3825  2.2994  1.1962
 1923SOL     OW17404   2.921   1.024  14.605 -0.0986 -0.1340  0.0440
 1923SOL    HW117405   2.939   0.938  14.643  1.4637 -0.4966 -1.5087
 1923SOL    HW217406   2.856   0.995  14.541  1.3749  0.3168 -1.6473
 1924SOL     OW17407   4.619   2.575   1.076 -0.3485  0.4964  0.3147
 1924SOL    HW117408   4.702   2.618   1.098  1.0719 -0.1472 -3.6434
 1924SOL    HW217409   4.629   2.492   1.121  1.5322  0.4920 -0.0811
 1925SOL     OW17410   3.538   3.517   8.595  0.4215 -0.2799 -0.4069
 1925SOL    HW117411   3.603   3.493   8.528  1.9828  2.6607  0.0122
 1925SOL    HW217412   3.588   3.529   8.676 -1.2095 -2.5539  0.9136
 1926SOL     OW17413   4.325   4.531   9.598 -0.8174 -0.4065 -0.2984
 1926SOL    HW117414   4.283   4.559   9.679 -0.0414  1.4412 -0.5492
 1926SOL    HW217415   4.295   4.599   9.538 -0.8182 -0.6587 -0.5846
 1927SOL     OW17416   2.023   2.562   1.284  0.0844  0.1898  0.8119
 1927SOL    HW117417   2.041   2.468   1.289  1.8006  0.3314 -2.2595
 1927SOL    HW217418   2.061   2.585   1.368 -0.3937  0.2162  1.0191
 1928SOL     OW17419   3.108   0.129   6.516  0.3255  0.1366  0.0437
 1928SOL    HW117420   3.193   0.084   6.511  0.2503  0.1872 -1.6672
 1928SOL    HW217421   3.049   0.087   6.454  0.1168 -0.6239  0.7576
 1929SOL     OW17422   1.244   1.986   6.035 -0.6967  0.5721  0.1748
 1929SOL    HW117423   1.283   1.972   6.122 -1.8063 -4.7207 -0.2294
 1929SOL    HW217424   1.247   1.894   6.009  1.4774  1.0595 -1.3149
 1930SOL     OW17425   4.212   3.393  15.672  0.6565 -0.6976 -0.3563
 1930SOL    HW117426   4.122   3.382  15.642  0.0172 -3.5869  2.5302
 1930SOL    HW217427   4.197   3.399  15.767  0.3292  1.1819 -0.5323
 1931SOL     OW17428   3.135   4.534   5.289 -0.1181  0.3188  0.2272
 1931SOL    HW117429   3.213   4.515   5.236 -0.1055 -0.3038  0.4596
 1931SOL    HW217430   3.122   4.628   5.284 -1.8774  0.0742  0.2598
 1932SOL     OW17431   0.163   1.166   0.327  0.1043 -0.5952  0.2567
 1932SOL    HW117432   0.209   1.169   0.411  0.8968  2.2837 -0.2786
 1932SOL    HW217433   0.128   1.254   0.311  3.6442  0.9154  0.7467
 1933SOL     OW17434   4.015   2.252  15.852 -0.1793  0.1433  0.2075
 1933SOL    HW117435   4.046   2.341  15.832  0.8833 -0.6056 -1.4113
 1933SOL    HW217436   3.959   2.275  15.926  0.7593  2.2931  0.2719
 1934SOL     OW17437   0.195   4.061   4.934 -0.0793 -0.2871  0.0198
 1934SOL    HW117438   0.238   4.133   4.888  0.0353  0.5098  1.3740
 1934SOL    HW217439   0.242   4.044   5.015  1.8091  1.0767 -0.7809
 1935SOL     OW17440   1.401   4.680   6.476 -0.2587  0.0179 -0.1157
 1935SOL    HW117441   1.442   4.602   6.438  0.4857  1.5004 -2.3784
 1935SOL    HW217442   1.420   0.011   6.413  2.2801  0.6963  1.4007
 1936SOL     OW17443   3.338   1.336   1.990 -0.0937 -0.0493 -0.2310
 1936SOL    HW117444   3.348   1.327   2.085  0.4155 -0.1743 -0.2997
 1936SOL    HW217445   3.425   1.309   1.963  0.1123  2.5235 -2.1749
 1937SOL     OW17446   0.437   0.027   9.002 -0.3702  0.4846  0.0493
 1937SOL    HW117447   0.488   4.688   9.022 -0.6184  1.0349  2.9598
 1937SOL    HW217448   0.439   0.074   9.086 -1.7284  0.0703  0.3080
 1938SOL     OW17449   3.997   1.873   6.839 -0.1435 -0.0127  0.2922
 1938SOL    HW117450   4.030   1.876   6.749  0.1235 -0.0130  0.3905
 1938SOL    HW217451   3.938   1.949   6.848  1.3920  1.1671  0.4049
 1939SOL     OW17452   1.814   2.620   3.089  0.3221  0.0321 -0.2107
 1939SOL    HW117453   1.734   2.602   3.139 -0.3638  1.2275 -0.8655
 1939SOL    HW217454   1.888   2.592   3.142  0.4012  0.5005 -0.0765
 1940SOL     OW17455   1.993   1.849   2.918 -0.0016  0.2789 -0.3586
 1940SOL    HW117456   1.968   1.786   2.851  2.4248  0.2010 -1.1919
 1940SOL    HW217457   2.088   1.836   2.927 -0.0807  0.2165  0.3718
 1941SOL     OW17458   0.519   1.156   9.493  0.0915  0.4445 -0.7081
 1941SOL    HW117459   0.517   1.065   9.462  1.3568 -0.0151  0.5682
 1941SOL    HW217460   0.429   1.184   9.476 -0.9013 -2.5343 -0.4491
 1942SOL     OW17461   2.854   2.090  16.584  0.2222 -0.3349 -1.0201
 1942SOL    HW117462   2.920   2.080  16.516  1.9545 -0.8828  0.7387
 1942SOL    HW217463   2.858   2.002  16.622 -2.3896 -0.7120 -1.6173
 1943SOL     OW17464   4.092   0.080   8.847  0.2688  0.1939  0.0254
 1943SOL    HW117465   4.100   0.078   8.942  0.1268  0.2429  0.0385
 1943SOL    HW217466   4.034   0.156   8.841 -0.9469 -0.6863  0.5423
 1944SOL     OW17467   0.240   3.245   4.715  0.2908  0.2549  0.6060
 1944SOL    HW117468   0.204   3.334   4.716  0.5995  0.4064 -2.8728
 1944SOL    HW217469   0.334   3.255   4.725  0.1587  2.1726  0.0161
 1945SOL     OW17470   1.200   2.430   2.126  0.0742  0.2268 -0.5414
 1945SOL    HW117471   1.159   2.394   2.205  1.1656  0.0192 -0.0761
 1945SOL    HW217472   1.141   2.502   2.105  0.4366  1.0716  1.3184
 1946SOL     OW17473   2.249   2.327  17.305 -0.2795  0.0707 -0.0067
 1946SOL    HW117474   2.261   2.383  17.228  2.1169 -0.5701 -0.0909
 1946SOL    HW217475   2.335   2.337  17.345 -2.5011  2.6357  4.1267
 1947SOL     OW17476   1.543   0.067   7.145  0.3577 -0.0082  0.5175
 1947SOL    HW117477   1.532   0.131   7.074  1.4078 -1.0849 -0.6139
 1947SOL    HW217478   1.456   0.073   7.186 -0.6677  0.7738 -1.7270
 1948SOL     OW17479   4.087   1.920  15.513 -0.5861 -0.2747 -0.3734
 1948SOL    HW117480   4.036   1.993  15.549  1.0615  0.6611  0.1051
 1948SOL    HW217481   4.086   1.942  15.420 -1.7664 -0.4275 -0.3971
 1949SOL     OW17482   3.572   3.247   1.394 -0.1204 -0.7155 -0.0747
 1949SOL    HW117483   3.570   3.189   1.470  2.6020 -0.8094 -0.0863
 1949SOL    HW217484   3.520   3.321   1.427  0.6241 -0.4485  0.4989
 1950SOL     OW17485   3.059   4.475   6.472  0.6942 -0.4042 -0.0445
 1950SOL    HW117486   3.015   4.423   6.540 -1.3430  1.5222  0.1120
 1950SOL    HW217487   3.020   4.448   6.389 -2.0927 -0.5145  1.2982
 1951SOL     OW17488   0.034   2.568   1.675  0.2558 -0.2590 -0.0940
 1951SOL    HW117489   0.038   2.579   1.580  2.3324 -0.1052  0.0104
 1951SOL    HW217490   4.719   2.489   1.665 -0.3741  0.0469  0.8927
 1952SOL     OW17491   2.544   4.403   8.632 -0.0159 -0.1622 -0.0039
 1952SOL    HW117492   2.499   4.426   8.551  0.0561  2.6701  0.7625
 1952SOL    HW217493   2.478   4.437   8.692 -0.6762 -0.0099 -0.8316
 1953SOL     OW17494   3.094   3.452   0.332 -0.0109  0.1638  0.2642
 1953SOL    HW117495   3.058   3.519   0.275  0.8043 -1.4523 -2.1618
 1953SOL    HW217496   3.073   3.476   0.422  2.3957 -0.4820  1.0160
 1954SOL     OW17497   4.027   0.552  10.734  0.2042 -0.1073  0.2043
 1954SOL    HW117498   4.016   0.460  10.707  3.0378 -0.0771 -1.1733
 1954SOL    HW217499   4.105   0.580  10.686 -0.8056 -0.4925 -1.6824
 1955SOL     OW17500   4.385   2.379  15.052 -0.0886  0.5838  0.6927
 1955SOL    HW117501   4.299   2.342  15.074 -0.4717  0.5744 -0.8272
 1955SOL    HW217502   4.387   2.369  14.957  1.1190 -0.1105  0.7915
 1956SOL     OW17503   3.201   3.818   9.189 -0.0805 -0.1467  0.2511
 1956SOL    HW117504   3.263   3.848   9.255 -0.8014  0.5297  0.6246
 1956SOL    HW217505   3.161   3.749   9.242 -0.8003  0.2952  0.2815
 1957SOL     OW17506   1.845   1.636   7.004  0.9303  0.5007 -0.5221
 1957SOL    HW117507   1.879   1.712   7.051  0.3940  0.1746  0.3824
 1957SOL    HW217508   1.774   1.607   7.061  0.8065 -0.5215 -1.1992
 1958SOL     OW17509   3.786   4.487   7.097  0.1876  0.3447  0.0503
 1958SOL    HW117510   3.797   4.434   7.176 -3.0158 -0.9161 -0.3891
 1958SOL    HW217511   3.809   4.425   7.028 -1.1112  0.9722 -0.9397
 1959SOL     OW17512   3.046   1.616   9.586 -0.1402  0.4130 -0.6828
 1959SOL    HW117513   3.093   1.533   9.593  1.1804  1.2773  0.8056
 1959SOL    HW217514   3.110   1.681   9.615 -0.0291 -0.4088  0.9425
 1960SOL     OW17515   0.124   4.466  13.733 -0.4737  0.5851  0.5246
 1960SOL    HW117516   0.173   4.525  13.675 -0.4527  0.0394 -0.0127
 1960SOL    HW217517   0.197   4.422  13.777 -0.5498 -0.5756 -0.4988
 1961SOL     OW17518   0.049   0.516   7.630 -0.2708 -0.0278  0.2034
 1961SOL    HW117519   0.141   0.544   7.625 -0.5059  0.4499 -1.2687
 1961SOL    HW217520   0.040   0.447   7.695 -2.8591 -1.3570 -1.5875
 1962SOL     OW17521   1.327   2.539  10.956 -0.6961  0.0736  0.1491
 1962SOL    HW117522   1.290   2.516  10.871  1.0652 -2.7478  0.1615
 1962SOL    HW217523   1.297   2.458  10.998 -2.2514  0.8795  0.6164
 1963SOL     OW17524   3.972   1.711   8.072  0.1158  0.1616  0.3920
 1963SOL    HW117525   3.973   1.616   8.058  0.2187 -0.0359  1.7173
 1963SOL    HW217526   3.877   1.726   8.065  0.1331 -0.9407 -2.2861
 1964SOL     OW17527   3.384   1.991   6.910 -0.5008 -0.6997  0.3568
 1964SOL    HW117528   3.340   2.047   6.974 -1.4725 -0.8036 -0.2177
 1964SOL    HW217529   3.315   1.976   6.846 -2.3019  0.7306  1.9771
 1965SOL     OW17530   3.949   3.354  13.010  0.2335  0.1856 -0.1997
 1965SOL    HW117531   3.998   3.279  12.976  1.3779  0.0005  1.8271
 1965SOL    HW217532   4.007   3.392  13.076 -0.8060 -0.2275  0.9531
 1966SOL     OW17533   3.568   2.404   8.423 -0.0699  0.3345 -0.0837
 1966SOL    HW117534   3.501   2.367   8.480  0.4432 -1.9555 -0.9620
 1966SOL    HW217535   3.640   2.411   8.486 -0.1338 -1.2920  0.1732
 1967SOL     OW17536   0.899   4.344   3.087  0.0188  0.1495  0.9919
 1967SOL    HW117537   0.819   4.369   3.133 -0.6567 -1.0505  0.4818
 1967SOL    HW217538   0.866   4.335   2.997  1.6389 -1.8711  0.5893
 1968SOL     OW17539   1.327   1.442  12.660  0.0793 -0.0106  0.4389
 1968SOL    HW117540   1.385   1.423  12.734  0.2400 -1.5347 -0.0785
 1968SOL    HW217541   1.250   1.473  12.708  1.2982  1.6883  1.3238
 1969SOL     OW17542   2.305   0.465   2.981  0.3808 -0.7060  0.0244
 1969SOL    HW117543   2.374   0.469   2.915  2.1117  0.7543  1.9502
 1969SOL    HW217544   2.349   0.509   3.054  1.0035 -1.0261 -0.1609
 1970SOL     OW17545   4.255   2.060  10.753  0.1316  0.4400 -0.5292
 1970SOL    HW117546   4.344   2.045  10.722 -0.6482 -1.2164 -1.9995
 1970SOL    HW217547   4.235   2.138  10.701  2.4970  2.9515  2.3607
 1971SOL     OW17548   3.010   1.447  16.619 -0.0530 -0.1003  0.0924
 1971SOL    HW117549   3.090   1.496  16.638 -1.4269  2.4391 -0.8147
 1971SOL    HW217550   2.978   1.432  16.708  0.2754  0.1753  0.2590
 1972SOL     OW17551   2.927   3.604  16.548 -0.3377  0.1635  0.1817
 1972SOL    HW117552   2.991   3.537  16.526  0.6254  0.9659  0.5260
 1972SOL    HW217553   2.842   3.563  16.535 -0.9417  1.2370  0.7145
 1973SOL     OW17554   2.851   4.515   7.864 -0.3502  0.1938 -0.2501
 1973SOL    HW117555   2.797   4.453   7.913  3.0921 -2.4087  0.2533
 1973SOL    HW217556   2.939   4.508   7.901  0.1254  1.1497 -1.1847
 1974SOL     OW17557   2.487   2.602   8.431 -0.5645 -0.3202 -0.0930
 1974SOL    HW117558   2.398   2.580   8.459 -0.8443 -1.9816 -2.2596
 1974SOL    HW217559   2.475   2.687   8.388 -0.6307 -1.4440 -2.3116
 1975SOL     OW17560   0.215   3.371   6.406 -0.0872  0.0290 -0.5838
 1975SOL    HW117561   0.179   3.311   6.341 -2.2984 -0.3808  0.9866
 1975SOL    HW217562   0.301   3.386   6.368 -0.0411 -1.4566 -1.0744
 1976SOL     OW17563   2.865   1.808   3.212 -0.2086 -0.4898  0.2396
 1976SOL    HW117564   2.957   1.814   3.236 -0.1575 -0.8243  0.1163
 1976SOL    HW217565   2.869   1.728   3.160 -1.3301 -0.7470  0.5383
 1977SOL     OW17566   2.676   0.670  15.725 -0.0758 -0.3863 -0.4193
 1977SOL    HW117567   2.684   0.675  15.629  3.1288  0.3413 -0.1237
 1977SOL    HW217568   2.660   0.759  15.756 -0.5498  0.1036 -2.0572
 1978SOL     OW17569   1.779   3.210   6.690  0.0521 -0.4109  0.0437
 1978SOL    HW117570   1.811   3.139   6.634  2.0006  0.4467  0.0747
 1978SOL    HW217571   1.834   3.280   6.656 -0.0493 -0.7868 -0.8876
 1979SOL     OW17572   3.396   3.931   9.392  0.4575  0.2016 -0.3126
 1979SOL    HW117573   3.355   4.015   9.372  1.7918  0.9009 -0.0439
 1979SOL    HW217574   3.443   3.909   9.312  0.3838 -2.3615  0.3412
 1980SOL     OW17575   2.399   0.079   7.392 -0.4734 -0.0318  0.2250
 1980SOL    HW117576   2.444   0.094   7.309  0.6483  0.2984  0.8948
 1980SOL    HW217577   2.429   4.731   7.419  0.7898 -0.6630 -3.2370
 1981SOL     OW17578   4.570   1.474  13.849 -0.0089 -0.2890  0.2617
 1981SOL    HW117579   4.525   1.391  13.834 -0.4751  0.2986 -1.5921
 1981SOL    HW217580   4.654   1.445  13.885  0.6137 -0.2117 -1.1469
 1982SOL     OW17581   2.829   3.125  11.693 -0.0723 -0.7285  0.4710
 1982SOL    HW117582   2.781   3.080  11.762  0.6626 -0.9789  0.8178
 1982SOL    HW217583   2.916   3.130  11.733  1.6631  1.0932 -3.4219
 1983SOL     OW17584   4.652   3.033   1.988  0.0606 -0.2798 -0.1541
 1983SOL    HW117585   4.614   3.011   2.073 -0.5957  0.4571 -0.2566
 1983SOL    HW217586   4.691   2.949   1.966 -0.0181 -1.0128  2.5293
 1984SOL     OW17587   3.599   2.564   9.532 -0.5873 -0.2076 -0.3502
 1984SOL    HW117588   3.653   2.567   9.610 -1.0962 -0.6918  0.0252
 1984SOL    HW217589   3.523   2.514   9.562 -0.5974  0.7800  1.2397
 1985SOL     OW17590   3.946   0.331   4.343  0.1937 -0.4406 -0.1215
 1985SOL    HW117591   3.993   0.407   4.378 -2.4320  0.9416  0.4109
 1985SOL    HW217592   3.985   0.316   4.257 -0.7707  0.1634 -0.6609
 1986SOL     OW17593   2.373   2.892   3.325  1.1279  0.2836 -0.5420
 1986SOL    HW117594   2.329   2.921   3.404 -1.9650 -1.1221 -1.7653
 1986SOL    HW217595   2.323   2.817   3.293 -2.4163  1.7766  1.5004
 1987SOL     OW17596   4.027   0.203   1.705  0.0309 -0.0733  0.0102
 1987SOL    HW117597   3.945   0.163   1.675 -1.3178  2.0625  0.7595
 1987SOL    HW217598   4.070   0.144   1.766 -1.0157 -0.5996  0.2392
 1988SOL     OW17599   3.749   0.914   5.662 -0.6191  0.2211 -0.6916
 1988SOL    HW117600   3.724   0.826   5.689  0.7997  0.2169  0.5786
 1988SOL    HW217601   3.685   0.963   5.714 -0.9096 -0.4695 -0.4107
 1989SOL     OW17602   4.193   2.269   3.586  0.2812 -0.0542 -0.2794
 1989SOL    HW117603   4.255   2.319   3.533  0.7579  1.4167  1.6618
 1989SOL    HW217604   4.235   2.266   3.672 -0.1108 -0.8708 -0.1147
 1990SOL     OW17605   0.154   1.445  13.142 -0.2600 -0.0568 -0.4414
 1990SOL    HW117606   0.180   1.414  13.055  2.2746  0.4654  0.1211
 1990SOL    HW217607   0.058   1.444  13.139 -0.2626  1.2847 -0.7698
 1991SOL     OW17608   3.590   0.497  11.993 -0.4858 -0.2409 -0.6637
 1991SOL    HW117609   3.501   0.492  12.028 -0.7550 -4.5474 -1.9800
 1991SOL    HW217610   3.627   0.575  12.036 -2.8165  1.3176 -1.5113
 1992SOL     OW17611   1.333   2.117   5.800  0.4358 -0.5622  0.4423
 1992SOL    HW117612   1.316   2.032   5.758  0.3129  0.2571 -1.1798
 1992SOL    HW217613   1.294   2.086   5.882 -0.7478 -0.6939 -0.1742
 1993SOL     OW17614   3.109   2.882   4.452  0.6424  0.3242 -0.4499
 1993SOL    HW117615   3.092   2.836   4.370  4.4110  0.6782 -1.4552
 1993SOL    HW217616   3.078   2.820   4.517  2.2642  0.6683  0.6749
 1994SOL     OW17617   2.256   1.494  16.386 -0.5746 -0.1549 -0.6063
 1994SOL    HW117618   2.281   1.401  16.383  1.5775  0.4372 -0.6712
 1994SOL    HW217619   2.287   1.530  16.303 -1.4965  1.1068 -0.4032
 1995SOL     OW17620   0.423   0.813   4.270  0.1761 -0.1279 -0.3023
 1995SOL    HW117621   0.477   0.744   4.233 -0.3911 -0.4464 -0.5356
 1995SOL    HW217622   0.338   0.807   4.225  0.6562  1.3256 -1.3843
 1996SOL     OW17623   4.561   2.851   3.768  0.9522  0.7027  0.3155
 1996SOL    HW117624   4.624   2.798   3.720  1.9566  2.2493 -0.0782
 1996SOL    HW217625   4.575   2.939   3.732  0.2319  0.7868  0.2458
 1997SOL     OW17626   2.892   4.471   7.512  0.3891 -0.2919  0.0473
 1997SOL    HW117627   2.842   4.416   7.571  2.6620 -2.8404 -0.4182
 1997SOL    HW217628   2.936   4.406   7.458  3.4855  2.9359 -1.3340
 1998SOL     OW17629   1.662   0.741   3.960 -0.2434  0.6154  0.3728
 1998SOL    HW117630   1.657   0.836   3.959  1.5886  0.7718  5.3489
 1998SOL    HW217631   1.570   0.718   3.973 -0.4856  1.4283  0.0530
 1999SOL     OW17632   3.063   2.859   1.753 -0.1376 -0.1545  0.4648
 1999SOL    HW117633   3.151   2.894   1.767 -0.2977  0.3293  0.2700
 1999SOL    HW217634   3.022   2.912   1.684 -2.6142 -1.9260  0.5711
 2000SOL     OW17635   1.536   3.948   1.242  0.0604 -0.1026  0.0287
 2000SOL    HW117636   1.553   3.866   1.196  0.0762 -1.2804  2.1255
 2000SOL    HW217637   1.472   3.918   1.306  1.2548  1.1196  1.7904
 2001SOL     OW17638   2.384   4.469   3.018 -0.4525  0.0441 -0.3412
 2001SOL    HW117639   2.352   4.379   3.015 -2.7761  0.8480  0.4194
 2001SOL    HW217640   2.343   4.499   3.100 -0.6957 -1.1373 -0.0314
 2002SOL     OW17641   1.264   3.273   6.485 -0.0089 -0.1320  0.0962
 2002SOL    HW117642   1.285   3.294   6.394 -0.4909  0.3170  0.0930
 2002SOL    HW217643   1.287   3.357   6.524  1.4098 -0.4560 -0.0154
 2003SOL     OW17644   2.104   1.946   1.904 -0.3438  0.4885  0.8140
 2003SOL    HW117645   2.142   1.963   1.818  0.1356 -0.0446  0.9193
 2003SOL    HW217646   2.119   1.853   1.922 -1.6797 -0.0025 -0.6283
 2004SOL     OW17647   1.701   0.590   6.965  0.9855  0.3571 -0.3042
 2004SOL    HW117648   1.776   0.537   6.990  0.6064 -0.2845 -0.5193
 2004SOL    HW217649   1.689   0.631   7.050  1.4471 -0.5736  0.2080
 2005SOL     OW17650   3.922   1.822  13.833  0.2019  0.3719  0.8064
 2005SOL    HW117651   4.005   1.827  13.785  1.1007 -1.5371  2.1290
 2005SOL    HW217652   3.963   1.760  13.893  0.5661 -0.5259 -0.3744
 2006SOL     OW17653   2.131   3.074   6.648 -0.4234 -0.1640 -0.7037
 2006SOL    HW117654   2.157   3.000   6.703  1.5358  1.1170  0.0913
 2006SOL    HW217655   2.116   3.025   6.567  1.7068 -0.0705 -1.1583
 2007SOL     OW17656   3.063   4.294  16.964 -0.1808  0.2409 -0.0163
 2007SOL    HW117657   3.074   4.210  16.920  2.6489  1.5180 -1.7450
 2007SOL    HW217658   3.141   4.303  17.019 -0.4439 -1.5433  0.6388
 2008SOL     OW17659   2.348   3.569   9.236 -0.7666  0.2920 -0.1821
 2008SOL    HW117660   2.365   3.479   9.209 -0.4938  0.9625 -2.2020
 2008SOL    HW217661   2.386   3.581   9.323  1.2252 -1.6833 -0.7816
 2009SOL     OW17662   1.785   1.311  10.938 -0.0576 -0.2331 -0.3199
 2009SOL    HW117663   1.829   1.349  11.014 -0.7815  0.9788 -0.5035
 2009SOL    HW217664   1.818   1.222  10.954 -0.4939 -0.5076 -0.9581
 2010SOL     OW17665   4.421   2.998  16.171  0.0556 -0.1838  0.4378
 2010SOL    HW117666   4.480   2.923  16.166 -2.4861 -2.1765  0.1707
 2010SOL    HW217667   4.442   3.037  16.087 -0.3500 -2.2717 -0.6401
 2011SOL     OW17668   3.498   1.085   2.069 -0.0238 -0.2797 -0.1007
 2011SOL    HW117669   3.433   1.096   1.999 -1.8987 -1.4173  1.4738
 2011SOL    HW217670   3.474   1.148   2.136 -0.5809 -1.0923  0.4643
 2012SOL     OW17671   4.043   4.674   7.338 -0.1684  0.3121 -0.2375
 2012SOL    HW117672   4.055   0.020   7.382 -1.0396  0.4131 -0.1923
 2012SOL    HW217673   4.086   4.613   7.397  1.1675  2.0154  0.5710
 2013SOL     OW17674   1.028   3.984   3.717  0.0868  0.8101  0.3322
 2013SOL    HW117675   0.945   3.939   3.732 -0.3823  0.7710 -2.3432
 2013SOL    HW217676   1.071   3.923   3.657  1.0507  2.1284 -0.3230
 2014SOL     OW17677   1.575   2.768   3.584  0.2734 -0.1629  0.2213
 2014SOL    HW117678   1.602   2.678   3.603 -0.1300 -0.6224 -1.4550
 2014SOL    HW217679   1.481   2.761   3.601  0.9420 -0.4199  3.9533
 2015SOL     OW17680   1.734   0.169   0.957 -0.3072 -0.0851 -0.3941
 2015SOL    HW117681   1.774   0.212   0.882 -1.6386 -0.8323 -1.5242
 2015SOL    HW217682   1.666   0.110   0.925 -0.0790  0.6423 -2.2073
 2016SOL     OW17683   3.008   2.005  16.350  0.1706 -0.3210  0.0771
 2016SOL    HW117684   3.051   1.925  16.321  1.2864  0.2018  0.2712
 2016SOL    HW217685   2.979   2.035  16.264  0.6770 -0.7535 -0.2426
 2017SOL     OW17686   1.746   3.951   0.792 -0.2577 -0.0595  1.0923
 2017SOL    HW117687   1.793   3.993   0.864 -0.7568 -1.1966  2.0825
 2017SOL    HW217688   1.822   3.914   0.746 -1.2538 -0.0490 -0.5641
 2018SOL     OW17689   0.683   3.766  15.039  0.7898 -0.1130  0.0650
 2018SOL    HW117690   0.752   3.797  14.980 -1.0522  0.4980 -1.7812
 2018SOL    HW217691   0.724   3.782  15.124 -0.9338  0.3594  0.8099
 2019SOL     OW17692   4.127   4.217   2.796 -0.1152 -0.5134 -0.0677
 2019SOL    HW117693   4.222   4.219   2.786 -0.3322  1.9089 -1.4504
 2019SOL    HW217694   4.121   4.193   2.889 -1.7065 -0.3332 -0.1343
 2020SOL     OW17695   4.182   4.488   7.189  0.4819  0.1346  0.0723
 2020SOL    HW117696   4.235   4.566   7.206 -1.2547  1.5872 -1.1419
 2020SOL    HW217697   4.097   4.531   7.188  0.2445 -0.3305  0.3155
 2021SOL     OW17698   4.697   4.177   6.350 -0.2183  0.0947  0.8974
 2021SOL    HW117699   4.701   4.122   6.272  0.3393  1.8414 -0.3085
 2021SOL    HW217700   4.606   4.167   6.378 -1.5542  1.5192 -2.9171
 2022SOL     OW17701   0.393   3.254   0.847  0.6771  0.6894  0.0922
 2022SOL    HW117702   0.312   3.270   0.798  0.6475  0.3979  0.0478
 2022SOL    HW217703   0.445   3.239   0.768  1.1099  0.5635  0.4034
 2023SOL     OW17704   1.623   2.435  10.816 -0.6418  0.4976  0.1776
 2023SOL    HW117705   1.701   2.441  10.761 -3.0261  1.6081 -3.0877
 2023SOL    HW217706   1.563   2.495  10.772 -1.6118 -0.4239  0.2327
 2024SOL     OW17707   3.784   0.632   3.556  0.5762  0.0045 -0.0161
 2024SOL    HW117708   3.771   0.714   3.604  0.2497 -0.3785  0.5537
 2024SOL    HW217709   3.863   0.598   3.597  0.3474  0.1578  0.5540
 2025SOL     OW17710   4.477   2.734   7.486  0.4511 -0.0847  0.2880
 2025SOL    HW117711   4.410   2.705   7.424  0.1249 -0.8374  0.9950
 2025SOL    HW217712   4.476   2.826   7.461  0.9204  0.2321  1.4211
 2026SOL     OW17713   4.585   1.577   4.257  0.0444  0.1792  0.1121
 2026SOL    HW117714   4.643   1.560   4.182 -0.0268 -1.6799  0.4873
 2026SOL    HW217715   4.638   1.641   4.305 -0.1075  0.2240  0.2185
 2027SOL     OW17716   3.653   0.167   3.301  0.1038  0.4876  0.1757
 2027SOL    HW117717   3.711   0.240   3.280 -0.7761  1.0235 -0.3837
 2027SOL    HW217718   3.671   0.150   3.394 -1.1815 -0.1651  0.2977
 2028SOL     OW17719   1.105   0.002   8.561  0.1902  0.0915  0.3538
 2028SOL    HW117720   1.088   4.675   8.628  0.1579  1.0424  1.2783
 2028SOL    HW217721   1.142   0.080   8.603  0.0328  0.9194 -1.0622
 2029SOL     OW17722   0.262   2.271  13.379 -1.0567  0.5090  0.4951
 2029SOL    HW117723   0.304   2.336  13.436 -1.2679 -0.5021  1.8276
 2029SOL    HW217724   0.277   2.307  13.292 -0.8499  1.1195  0.7803
 2030SOL     OW17725   1.125   0.661   0.682  0.1413  0.0370  0.1710
 2030SOL    HW117726   1.217   0.638   0.670 -0.0657 -1.1633  0.9654
 2030SOL    HW217727   1.082   0.615   0.610 -0.7865 -2.5094  2.3716
 2031SOL     OW17728   2.119   0.318   9.959 -0.1153  0.0269  0.7866
 2031SOL    HW117729   2.160   0.309  10.045  0.3038  1.2194  0.7120
 2031SOL    HW217730   2.129   0.227   9.932  0.4064 -0.4664  2.6564
 2032SOL     OW17731   3.296   0.791  16.303 -0.2884 -0.3816 -0.2054
 2032SOL    HW117732   3.373   0.831  16.344 -0.1016 -1.0938  0.1345
 2032SOL    HW217733   3.229   0.844  16.347  0.4946  1.1144 -0.7936
 2033SOL     OW17734   4.074   1.701  10.375  0.3084  0.2156  0.1593
 2033SOL    HW117735   4.104   1.621  10.333  1.3730  2.6419 -3.7290
 2033SOL    HW217736   4.122   1.701  10.458  0.0318  1.4162  0.3294
 2034SOL     OW17737   4.115   1.033   7.931  0.3967 -0.8905  0.5040
 2034SOL    HW117738   4.157   1.075   8.006  0.6989 -3.9097  2.0171
 2034SOL    HW217739   4.051   0.979   7.977 -0.8681  0.1435 -0.0232
 2035SOL     OW17740   3.692   1.892   2.292 -0.1176 -0.4782  0.5807
 2035SOL    HW117741   3.764   1.895   2.355  0.7704 -1.7713 -0.3708
 2035SOL    HW217742   3.734   1.824   2.239 -0.6195 -0.1286 -0.2657
 2036SOL     OW17743   3.167   0.206   6.096 -0.4033 -0.5891 -0.1020
 2036SOL    HW117744   3.119   0.288   6.107  0.8412  0.3328 -1.5425
 2036SOL    HW217745   3.248   0.222   6.145 -0.0530 -1.4729 -0.3819
 2037SOL     OW17746   1.925   4.707  10.388 -0.0809  0.0955 -0.8533
 2037SOL    HW117747   1.919   4.612  10.404  1.1288 -0.3350 -3.0036
 2037SOL    HW217748   1.990   4.726  10.455  0.5950  0.9033 -1.7402
 2038SOL     OW17749   0.342   2.733   1.615 -0.6071  0.9360  0.3172
 2038SOL    HW117750   0.299   2.711   1.697  1.4114 -0.1298  1.0903
 2038SOL    HW217751   0.321   2.825   1.604  2.1096  1.5065 -0.1847
 2039SOL     OW17752   4.420   0.517   4.658  0.2714  0.4134  0.3475
 2039SOL    HW117753   4.397   0.593   4.712 -0.3205 -0.6059  1.5342
 2039SOL    HW217754   4.464   0.572   4.594 -0.8242 -0.5214 -1.2051
 2040SOL     OW17755   1.656   0.759  11.865  0.2603 -0.0051  0.1338
 2040SOL    HW117756   1.613   0.707  11.934  1.6382  0.1447  1.0999
 2040SOL    HW217757   1.586   0.756  11.800 -0.0954 -0.9219  0.5587
 2041SOL     OW17758   0.378   1.479   8.653 -0.3437 -0.6055 -0.1818
 2041SOL    HW117759   0.288   1.454   8.633  0.6430 -2.9875 -1.7087
 2041SOL    HW217760   0.417   1.474   8.565 -2.8529 -0.1607 -1.3343
 2042SOL     OW17761   1.069   0.631   3.646  0.3731 -0.1655  0.3855
 2042SOL    HW117762   1.035   0.719   3.631 -0.8773 -0.6686  0.3121
 2042SOL    HW217763   1.066   0.594   3.558  1.2507  0.4353  0.0989
 2043SOL     OW17764   0.710   3.795   7.684 -0.3967 -0.2900 -0.3399
 2043SOL    HW117765   0.633   3.840   7.720 -0.4502 -0.6664  0.0202
 2043SOL    HW217766   0.724   3.718   7.740 -1.2709 -1.7020 -2.0307
 2044SOL     OW17767   3.906   1.695   3.193  0.1607 -0.4367  0.0044
 2044SOL    HW117768   3.981   1.754   3.197  0.6364 -1.1144  1.1167
 2044SOL    HW217769   3.932   1.637   3.264  1.6570  0.6602  0.3656
 2045SOL     OW17770   1.337   3.599   8.181 -0.7722  0.5298  0.2436
 2045SOL    HW117771   1.294   3.680   8.155 -0.5592 -0.2934 -2.6292
 2045SOL    HW217772   1.336   3.596   8.277  2.4594 -0.9374  0.2387
 2046SOL     OW17773   3.010   2.603   9.212  0.2169  0.0207  0.4995
 2046SOL    HW117774   2.948   2.532   9.228 -0.1023  0.4508  1.1887
 2046SOL    HW217775   3.005   2.607   9.117  1.3886  0.6234  0.4632
 2047SOL     OW17776   0.152   1.881   5.192  0.4962  0.0633  0.0571
 2047SOL    HW117777   0.192   1.938   5.258  1.3101 -0.3168 -0.1145
 2047SOL    HW217778   0.159   1.795   5.235 -1.0868 -0.1087 -0.0243
 2048SOL     OW17779   1.444   1.705  17.338  0.9303  0.1427  0.0678
 2048SOL    HW117780   1.435   1.800  17.336 -1.6614 -0.0956  0.4711
 2048SOL    HW217781   1.355   1.687  17.308  1.0306  1.4540 -1.0195
 2049SOL     OW17782   4.453   0.100   6.963 -0.0724  0.1079  0.2745
 2049SOL    HW117783   4.529   0.156   6.978 -1.4761  2.5125 -1.4754
 2049SOL    HW217784   4.479   0.038   6.895  1.0553  0.6781  0.1895
 2050SOL     OW17785   3.601   4.323   4.323  0.5815  0.0939 -0.0454
 2050SOL    HW117786   3.618   4.410   4.359 -0.6505  0.0430  0.6558
 2050SOL    HW217787   3.597   4.270   4.402 -0.0819  0.2682  0.0396
 2051SOL     OW17788   0.683   4.266  10.407  0.7440 -0.0935  0.7798
 2051SOL    HW117789   0.761   4.211  10.405  1.2761  0.7198 -0.6281
 2051SOL    HW217790   0.683   4.312  10.323 -0.4487  0.4268  1.0644
 2052SOL     OW17791   1.518   4.575   8.993  0.3439 -0.2678  0.2698
 2052SOL    HW117792   1.542   4.668   9.003 -0.8243  0.2161 -1.3457
 2052SOL    HW217793   1.435   4.577   9.040  0.9084 -0.9525  1.2884
 2053SOL     OW17794   2.961   0.027  13.631  0.2615  0.2483  0.2948
 2053SOL    HW117795   2.944   0.066  13.545  1.7159  1.6680  0.6694
 2053SOL    HW217796   2.991   0.110  13.668  1.5399  0.1168 -0.4400
 2054SOL     OW17797   1.315   0.825   1.419 -0.3508 -0.2032 -0.0551
 2054SOL    HW117798   1.288   0.916   1.436  1.0740  0.1843  0.0896
 2054SOL    HW217799   1.248   0.814   1.351  0.6019  1.3901 -1.2627
 2055SOL     OW17800   4.695   3.593   6.644  0.3038 -0.4052 -0.0978
 2055SOL    HW117801   4.691   3.593   6.740  0.9093  0.9154 -0.0736
 2055SOL    HW217802   0.049   3.608   6.629  0.4152 -3.3009 -2.3585
 2056SOL     OW17803   2.093   4.414   1.893  0.1155  0.1042 -0.1511
 2056SOL    HW117804   2.003   4.401   1.923 -0.2089  1.4185 -0.5586
 2056SOL    HW217805   2.073   4.443   1.804  2.9482 -1.8878 -1.4359
 2057SOL     OW17806   4.661   2.548   2.891  0.0271  0.1494  0.7384
 2057SOL    HW117807   4.607   2.618   2.929 -1.1674 -1.1180  1.3809
 2057SOL    HW217808   4.618   2.538   2.805 -0.8936 -1.9523  1.4612
 2058SOL     OW17809   2.330   4.675   4.601 -0.3895 -0.2240 -1.1229
 2058SOL    HW117810   2.312   4.713   4.687 -0.9120 -3.7972  0.3452
 2058SOL    HW217811   2.291   4.737   4.539 -2.6865 -0.1846  0.3808
 2059SOL     OW17812   3.098   4.346  17.359 -0.5066  0.1351  0.4314
 2059SOL    HW117813   3.034   4.347  17.430 -0.6592 -0.2894  0.3028
 2059SOL    HW217814   3.108   4.252  17.345 -1.5844  0.3146 -1.4361
 2060SOL     OW17815   2.525   0.192   1.707 -0.1300 -0.0215 -0.4665
 2060SOL    HW117816   2.474   0.263   1.746  2.7706  0.6195  2.1388
 2060SOL    HW217817   2.466   0.123   1.677  0.9003 -0.5830 -1.1960
 2061SOL     OW17818   1.796   4.542  17.016 -0.8169  0.4957 -0.1876
 2061SOL    HW117819   1.828   4.625  17.052 -1.1487 -0.3624  2.1027
 2061SOL    HW217820   1.824   4.484  17.087  0.3952  2.5901  1.0256
 2062SOL     OW17821   3.092   0.212   2.296 -0.8891  0.4554 -0.3720
 2062SOL    HW117822   3.140   0.224   2.378 -2.1588  1.7786  0.1736
 2062SOL    HW217823   3.161   0.188   2.234 -0.8907 -0.5346  0.0096
 2063SOL     OW17824   2.601   1.238   6.538  0.4832  0.3474  0.1962
 2063SOL    HW117825   2.518   1.265   6.577  1.2812  1.5035  1.0932
 2063SOL    HW217826   2.620   1.291   6.461 -0.4056  0.3413 -0.0306
 2064SOL     OW17827   1.706   4.705  12.563  0.1534 -0.2001 -0.3276
 2064SOL    HW117828   1.726   4.612  12.568 -0.8186 -0.4089 -0.2837
 2064SOL    HW217829   1.776   0.012  12.609 -0.4146  1.2228 -0.8600
 2065SOL     OW17830   2.431   2.256   3.047  0.2157  0.1590  0.7207
 2065SOL    HW117831   2.515   2.212   3.037 -0.2727 -0.8649  1.1866
 2065SOL    HW217832   2.462   2.341   3.015  0.5854 -0.1461  0.2643
 2066SOL     OW17833   1.856   4.590  16.483 -0.5325  0.3160 -0.2036
 2066SOL    HW117834   1.800   4.513  16.476  0.4750 -0.4568  0.2045
 2066SOL    HW217835   1.835   4.619  16.572  1.7175 -1.9926  1.1066
 2067SOL     OW17836   4.094   2.891   7.974  0.5189 -0.1218 -0.0464
 2067SOL    HW117837   4.063   2.889   8.065 -1.9562  1.1117 -0.8732
 2067SOL    HW217838   4.044   2.968   7.948 -1.2579 -1.0468  0.6451
 2068SOL     OW17839   0.330   2.161   6.837  0.2655  0.2070 -0.0669
 2068SOL    HW117840   0.280   2.095   6.886 -0.3970 -0.5103 -1.7056
 2068SOL    HW217841   0.263   2.181   6.772  0.4725 -0.3562 -0.4558
 2069SOL     OW17842   0.846   0.509   2.304 -0.2475 -0.1199 -0.2652
 2069SOL    HW117843   0.827   0.587   2.251  0.7748  0.5460  0.3565
 2069SOL    HW217844   0.863   0.445   2.234  0.0438  0.9238 -1.1492
 2070SOL     OW17845   0.325   1.220   6.241  0.4266 -0.7908  0.2664
 2070SOL    HW117846   0.366   1.306   6.240 -0.4557 -0.3710  0.8562
 2070SOL    HW217847   0.234   1.237   6.266  0.5542 -0.0470  0.2122
 2071SOL     OW17848   1.772   3.250   9.795 -0.1260 -0.1094  0.0832
 2071SOL    HW117849   1.739   3.255   9.884  0.3234 -2.6147  0.3900
 2071SOL    HW217850   1.863   3.223   9.809  0.6158  1.8721 -0.8130
 2072SOL     OW17851   2.724   0.823   2.083 -0.3562  0.1781 -0.5962
 2072SOL    HW117852   2.807   0.784   2.057 -0.2915 -0.0200 -0.0829
 2072SOL    HW217853   2.749   0.860   2.167  0.3039  0.6832 -1.0200
 2073SOL     OW17854   2.419   2.927   4.376  0.0910  0.1590 -0.3186
 2073SOL    HW117855   2.488   2.956   4.317 -0.4091  1.7212 -0.1294
 2073SOL    HW217856   2.348   2.941   4.313  0.7954 -3.3026 -1.9051
 2074SOL     OW17857   4.542   3.644   8.217  0.1888  0.1901 -1.0043
 2074SOL    HW117858   4.606   3.612   8.280 -0.2400  0.8118 -0.2466
 2074SOL    HW217859   4.460   3.614   8.255 -0.5170  1.0257 -1.8588
 2075SOL     OW17860   3.942   4.573  14.071  0.8125 -0.0167 -0.0109
 2075SOL    HW117861   3.910   4.660  14.050 -1.8398 -0.6511  1.4186
 2075SOL    HW217862   3.896   4.532  13.998 -0.7663  2.4501 -0.3726
 2076SOL     OW17863   3.184   1.906   9.508  0.4426  0.0423 -0.1203
 2076SOL    HW117864   3.233   1.985   9.532 -0.6067 -0.2943  3.0624
 2076SOL    HW217865   3.173   1.870   9.596 -2.9268 -1.0461 -1.0014
 2077SOL     OW17866   3.556   1.245   7.074  0.2009 -0.5422  0.0445
 2077SOL    HW117867   3.592   1.202   6.997 -0.5874 -0.7877 -0.1818
 2077SOL    HW217868   3.606   1.326   7.079 -1.8892  0.7984 -0.5274
 2078SOL     OW17869   0.581   3.295   8.783  0.3014 -0.2985  0.4727
 2078SOL    HW117870   0.528   3.216   8.770  0.3407  0.0156 -1.6121
 2078SOL    HW217871   0.525   3.345   8.842 -1.1300  1.0653 -2.0134
 2079SOL     OW17872   4.089   1.857  11.075  0.2695 -0.2993  0.3270
 2079SOL    HW117873   4.136   1.802  11.012  0.7029  1.0382 -0.5022
 2079SOL    HW217874   4.011   1.870  11.021  0.9229 -0.7877 -0.7412
 2080SOL     OW17875   1.854   1.255  14.196  0.3170  0.2693  0.1345
 2080SOL    HW117876   1.938   1.225  14.229  1.0831  0.5198 -1.6027
 2080SOL    HW217877   1.827   1.170  14.162 -1.3194  1.1758 -0.8401
 2081SOL     OW17878   4.710   0.886   5.869 -0.3314  0.0290  0.4675
 2081SOL    HW117879   4.694   0.817   5.934  0.2652 -0.3700  0.1918
 2081SOL    HW217880   0.005   0.941   5.939  0.2990 -1.2919  1.2124
 2082SOL     OW17881   2.006   1.236   2.462 -0.2529 -0.1458  0.3116
 2082SOL    HW117882   1.923   1.188   2.464 -0.8535  0.8791 -0.0154
 2082SOL    HW217883   1.975   1.320   2.428 -2.5503 -1.2245 -0.2227
 2083SOL     OW17884   1.391   0.621  15.959 -0.4942 -0.5563 -0.5798
 2083SOL    HW117885   1.447   0.553  15.996  0.4399  0.4730 -0.0603
 2083SOL    HW217886   1.311   0.602  16.008 -1.8720  0.3162 -2.4681
 2084SOL     OW17887   4.019   3.836  16.331 -0.7137  0.2059  0.0412
 2084SOL    HW117888   3.946   3.804  16.385 -0.6707  1.5874  0.9102
 2084SOL    HW217889   4.007   3.929  16.315 -0.8714  0.3897  1.2001
 2085SOL     OW17890   2.023   1.169   4.222  0.4640  0.0382  0.5993
 2085SOL    HW117891   1.981   1.112   4.158  1.0065 -0.3746  0.6077
 2085SOL    HW217892   2.098   1.204   4.173  0.1065 -2.2866 -1.6340
 2086SOL     OW17893   0.082   4.566   4.202 -0.3171  0.2020  0.4616
 2086SOL    HW117894   0.133   4.614   4.138 -1.4315  1.8326  0.7992
 2086SOL    HW217895   0.114   4.594   4.288 -1.3007  0.2339  0.8249
 2087SOL     OW17896   3.425   2.478   3.118 -0.0848 -0.1698 -0.1973
 2087SOL    HW117897   3.333   2.453   3.119 -0.3136  0.6136 -1.5928
 2087SOL    HW217898   3.425   2.563   3.074  2.6532  0.8116  1.6832
 2088SOL     OW17899   2.046   0.832   1.906  0.0669  0.1244 -0.4741
 2088SOL    HW117900   2.000   0.916   1.909  0.4639  0.3471 -0.7390
 2088SOL    HW217901   1.996   0.782   1.842 -0.8316 -0.6827  0.8438
 2089SOL     OW17902   3.699   1.307  15.665  0.2823  0.1618 -0.4113
 2089SOL    HW117903   3.646   1.373  15.621 -0.4747 -0.9887 -1.2508
 2089SOL    HW217904   3.785   1.347  15.671  2.1921 -3.5898 -2.6956
 2090SOL     OW17905   1.737   3.980  12.391  0.3439 -0.5034  0.0638
 2090SOL    HW117906   1.768   3.958  12.303 -1.8479  0.4068 -0.9396
 2090SOL    HW217907   1.704   4.069  12.385 -0.6117 -0.9827 -1.6447
 2091SOL     OW17908   4.478   0.763   8.706 -0.1196  0.0560 -0.5020
 2091SOL    HW117909   4.426   0.840   8.729  0.3960  0.0803  0.6192
 2091SOL    HW217910   4.538   0.798   8.640  1.2400  0.0990  0.7372
 2092SOL     OW17911   1.761   1.287  17.155 -0.3797  0.4494 -0.1323
 2092SOL    HW117912   1.728   1.239  17.079  2.9362 -0.9835 -0.6498
 2092SOL    HW217913   1.703   1.363  17.156 -0.1884  0.6137 -1.4923
 2093SOL     OW17914   3.027   2.061   2.767 -0.4821 -0.4699 -0.4907
 2093SOL    HW117915   3.012   1.979   2.814  0.7669  0.0549  0.8447
 2093SOL    HW217916   2.951   2.070   2.710  0.2777 -0.1996 -1.4781
 2094SOL     OW17917   0.240   2.905   5.708 -0.1403  0.2038  0.0423
 2094SOL    HW117918   0.279   2.818   5.717  0.3620  0.5548  1.2168
 2094SOL    HW217919   0.155   2.881   5.745  0.9339 -0.1973  2.2282
 2095SOL     OW17920   2.051   4.596   6.383 -0.4215  0.0965  0.4752
 2095SOL    HW117921   2.106   4.667   6.418 -0.4634  0.6703 -0.6186
 2095SOL    HW217922   2.091   4.584   6.297 -0.8784 -1.0894  0.4322
 2096SOL     OW17923   0.651   2.891   2.864 -0.0138  0.3919 -0.1093
 2096SOL    HW117924   0.642   2.884   2.959  0.4317  0.3448 -0.0733
 2096SOL    HW217925   0.706   2.816   2.843 -0.1104 -0.2638  2.0029
 2097SOL     OW17926   4.541   0.939   4.992 -0.1703  0.4357 -0.3617
 2097SOL    HW117927   4.514   0.854   5.027  0.1550  0.1152 -0.8905
 2097SOL    HW217928   4.607   0.913   4.928  1.7598  0.9420  1.4339
 2098SOL     OW17929   3.268   0.557  11.520 -0.6365 -0.4556 -0.1670
 2098SOL    HW117930   3.303   0.469  11.505  0.1420 -0.0736 -0.6259
 2098SOL    HW217931   3.313   0.595  11.444  0.1191  0.8564  0.9484
 2099SOL     OW17932   3.075   0.477   6.979  0.0463 -0.2323 -0.3325
 2099SOL    HW117933   3.152   0.423   6.960 -1.4996 -2.6271  0.2197
 2099SOL    HW217934   3.114   0.564   6.991 -0.7492  0.1016 -0.2209
 2100SOL     OW17935   1.758   2.118   8.749 -0.1045  0.3341 -0.2003
 2100SOL    HW117936   1.803   2.155   8.825  2.1728  1.9918 -2.3580
 2100SOL    HW217937   1.670   2.150   8.770  0.8500  2.0976  1.1377
 2101SOL     OW17938   1.025   4.230   0.520 -0.4049  0.0036 -0.1066
 2101SOL    HW117939   1.017   4.156   0.459 -0.8046  1.1204 -1.4274
 2101SOL    HW217940   0.979   4.206   0.600  0.4750 -0.5242  0.2394
 2102SOL     OW17941   2.676   1.466   4.118  0.2335 -0.1003 -0.0341
 2102SOL    HW117942   2.608   1.484   4.053 -0.7687 -1.2522  0.7022
 2102SOL    HW217943   2.743   1.415   4.073 -2.5929 -2.0910 -1.9923
 2103SOL     OW17944   2.114   2.682   8.885 -0.1027  0.8224 -0.2561
 2103SOL    HW117945   2.048   2.726   8.939 -1.5987 -1.3087 -0.3563
 2103SOL    HW217946   2.179   2.649   8.946 -0.3286  0.2207 -0.3369
 2104SOL     OW17947   4.706   2.343   0.513  0.5222 -0.9447 -0.0656
 2104SOL    HW117948   4.614   2.363   0.497  0.7260  0.5699  0.6022
 2104SOL    HW217949   0.002   2.430   0.535 -1.5590 -0.3779  1.0956
 2105SOL     OW17950   3.159   2.135  14.686 -0.0959  0.5264 -0.0056
 2105SOL    HW117951   3.101   2.191  14.737  0.5788  1.4422 -0.2545
 2105SOL    HW217952   3.131   2.044  14.700 -0.9524  1.0156  1.3589
 2106SOL     OW17953   1.764   4.154  15.536  0.3527  0.6677  0.1610
 2106SOL    HW117954   1.743   4.219  15.603 -2.5801 -1.9761  1.8260
 2106SOL    HW217955   1.766   4.076  15.591 -1.1741 -0.1032 -0.8879
 2107SOL     OW17956   3.112   3.077   0.720  0.6893 -0.1150 -0.0844
 2107SOL    HW117957   3.065   3.013   0.667  0.6048  0.9186 -1.2774
 2107SOL    HW217958   3.201   3.072   0.684  0.0476 -0.0180 -1.6796
 2108SOL     OW17959   1.416   0.139  11.143 -0.5250  0.2649  0.3596
 2108SOL    HW117960   1.470   0.116  11.067 -2.2363 -2.0742 -0.1431
 2108SOL    HW217961   1.343   0.180  11.097 -0.9820 -1.5628 -0.5504
 2109SOL     OW17962   3.906   3.846   7.428 -0.0340 -0.0287 -0.3022
 2109SOL    HW117963   3.981   3.792   7.451 -0.2202 -0.1361  0.0588
 2109SOL    HW217964   3.852   3.804   7.495  0.8895 -0.1587  0.3610
 2110SOL     OW17965   4.679   2.095   7.268  0.0574 -0.2549  0.9004
 2110SOL    HW117966   4.642   2.066   7.185 -0.2064  0.3691  0.7951
 2110SOL    HW217967   4.620   2.047   7.326 -1.2278 -0.5839 -0.6617
 2111SOL     OW17968   1.922   2.100  15.997  0.3191  0.3620  0.1336
 2111SOL    HW117969   1.935   2.028  16.059 -0.9099  0.0028 -0.0331
 2111SOL    HW217970   1.996   2.082  15.939 -0.5892 -0.0955 -0.8768
 2112SOL     OW17971   2.448   2.368   2.181 -0.4585  0.7747  0.0532
 2112SOL    HW117972   2.508   2.299   2.151 -1.0028  0.3579 -0.0743
 2112SOL    HW217973   2.364   2.323   2.176  0.6671 -1.1109 -2.0262
 2113SOL     OW17974   3.934   3.207   8.552 -0.1630 -0.4762 -0.6327
 2113SOL    HW117975   4.005   3.144   8.562  0.7410  0.4664 -1.0682
 2113SOL    HW217976   3.987   3.284   8.530 -0.0004 -0.3900  0.0879
 2114SOL     OW17977   3.037   4.211   5.287  0.1414 -0.3923 -0.2355
 2114SOL    HW117978   2.978   4.190   5.359 -1.9920  1.7654 -1.3494
 2114SOL    HW217979   3.101   4.141   5.298  0.3456 -0.5847 -2.4849
 2115SOL     OW17980   2.803   1.570   6.009  0.1924 -0.8292 -0.0906
 2115SOL    HW117981   2.712   1.568   6.038 -0.6971  1.1222 -2.6835
 2115SOL    HW217982   2.833   1.479   6.011  0.5244 -0.7354 -0.7909
 2116SOL     OW17983   0.447   2.386   1.832  0.2377  0.5465  0.3012
 2116SOL    HW117984   0.360   2.399   1.870 -0.7161 -0.4329 -1.5776
 2116SOL    HW217985   0.461   2.292   1.845  0.3171  0.5290  0.0753
 2117SOL     OW17986   1.118   0.642   3.170  0.8146  0.0648 -0.2330
 2117SOL    HW117987   1.201   0.604   3.201  0.9799 -0.9556 -1.9296
 2117SOL    HW217988   1.087   0.581   3.103 -0.8226  1.3248 -0.6222
 2118SOL     OW17989   1.287   2.437   7.432 -0.0419  0.0601 -0.4594
 2118SOL    HW117990   1.340   2.465   7.507  1.0285 -0.3997 -1.0457
 2118SOL    HW217991   1.241   2.365   7.476  0.3515  0.3248  0.3872
 2119SOL     OW17992   3.495   2.118   0.563  0.4115  0.1357  0.0322
 2119SOL    HW117993   3.521   2.174   0.491  1.1156  0.8103  0.8104
 2119SOL    HW217994   3.482   2.185   0.630 -1.9439 -0.5901  0.3038
 2120SOL     OW17995   4.444   2.581   1.428  0.2686  0.2929 -0.1791
 2120SOL    HW117996   4.537   2.570   1.410  0.3585 -2.4929  1.8654
 2120SOL    HW217997   4.460   2.611   1.517  0.3475  0.6577 -0.3179
 2121SOL     OW17998   0.039   2.712   6.968 -0.5350  0.3359  0.7831
 2121SOL    HW117999   4.729   2.790   6.942  0.2022 -0.1063 -1.8883
 2121SOL    HW218000   0.120   2.750   7.003 -0.3932  0.3239  0.4636
 2122SOL     OW18001   1.667   4.363   1.527 -0.2388 -0.1966 -0.2940
 2122SOL    HW118002   1.702   4.302   1.462  1.0442  0.2428 -0.0031
 2122SOL    HW218003   1.658   4.445   1.479  0.5989  0.5218  0.7592
 2123SOL     OW18004   1.127   2.917   4.788  0.0423  0.5415 -0.2888
 2123SOL    HW118005   1.144   2.984   4.721 -0.9351 -0.8831 -1.9450
 2123SOL    HW218006   1.214   2.919   4.828  0.1682  3.5436 -0.6835
 2124SOL     OW18007   0.931   2.244   9.208 -0.3010  0.2700  0.1047
 2124SOL    HW118008   0.905   2.334   9.228  1.0474  0.9617 -1.2061
 2124SOL    HW218009   1.017   2.260   9.169  0.1072  0.0911  0.9271
 2125SOL     OW18010   0.153   3.592  11.182  0.9370 -0.5576  0.3843
 2125SOL    HW118011   0.140   3.513  11.236  3.3057 -0.9641  0.3652
 2125SOL    HW218012   0.070   3.602  11.137  0.5174 -0.7099  1.1293
 2126SOL     OW18013   3.596   4.628   3.163  0.4202 -0.0058 -0.3897
 2126SOL    HW118014   3.545   4.679   3.226  1.2951  1.2948 -0.7600
 2126SOL    HW218015   3.573   4.539   3.192  0.3903  0.0098 -0.3655
 2127SOL     OW18016   2.699   3.572   4.425  0.1553  0.2061  0.2806
 2127SOL    HW118017   2.678   3.615   4.508 -2.4075 -2.0349  0.8191
 2127SOL    HW218018   2.620   3.585   4.372  1.5461 -1.8684 -2.2784
 2128SOL     OW18019   4.501   0.470  13.546  0.2960 -0.4440 -0.7319
 2128SOL    HW118020   4.434   0.407  13.572 -0.8670  0.6353 -1.0721
 2128SOL    HW218021   4.576   0.431  13.589  0.9465 -1.0210 -2.3661
 2129SOL     OW18022   2.349   0.249  11.411 -0.6573  0.4905 -0.1328
 2129SOL    HW118023   2.340   0.216  11.501  0.3058 -2.1102 -0.9870
 2129SOL    HW218024   2.432   0.205  11.392  0.4870  2.1697  1.0094
 2130SOL     OW18025   1.150   0.293   7.140  0.3727 -0.0480 -0.2610
 2130SOL    HW118026   1.193   0.232   7.199 -0.9412 -2.1690 -1.5049
 2130SOL    HW218027   1.196   0.373   7.166  1.2023 -1.0965  1.5088
 2131SOL     OW18028   3.179   2.712   5.920  0.2528  0.2645 -0.0479
 2131SOL    HW118029   3.125   2.762   5.858  0.5774 -0.4281 -0.9036
 2131SOL    HW218030   3.140   2.625   5.922 -0.1551  0.4281 -0.8054
 2132SOL     OW18031   4.668   0.992  13.051 -0.1599 -0.2227  0.4029
 2132SOL    HW118032   4.697   0.998  12.960  1.0306 -0.7691  0.7456
 2132SOL    HW218033   4.599   0.925  13.052  0.0232 -0.4351 -1.3871
 2133SOL     OW18034   0.649   1.450  13.995  0.0069  0.1127 -0.2541
 2133SOL    HW118035   0.616   1.389  13.930  1.3953 -2.2993  1.3148
 2133SOL    HW218036   0.566   1.475  14.037 -0.1858 -0.1449 -0.4744
 2134SOL     OW18037   2.093   2.936  10.529 -0.3289  0.1931 -0.1302
 2134SOL    HW118038   2.044   3.017  10.539 -0.4056  0.1975 -0.5145
 2134SOL    HW218039   2.129   2.927  10.617  0.3488 -1.7371 -0.6111
 2135SOL     OW18040   4.260   2.017   7.506 -0.4208 -0.1839 -0.0788
 2135SOL    HW118041   4.187   2.007   7.444 -0.2579  0.2887 -0.3457
 2135SOL    HW218042   4.212   2.065   7.574 -0.7300 -0.0027 -0.4249
 2136SOL     OW18043   3.118   1.216   6.307  0.0510 -0.1858  0.0897
 2136SOL    HW118044   3.076   1.296   6.275  0.1243 -0.2349 -0.1284
 2136SOL    HW218045   3.187   1.212   6.241  0.2842 -0.8664  0.3769
 2137SOL     OW18046   1.872   3.695   4.038 -0.4698 -0.2703  0.2013
 2137SOL    HW118047   1.907   3.784   4.040 -0.6664 -0.1687 -1.4113
 2137SOL    HW218048   1.904   3.664   3.953 -0.9263 -1.6032  0.5092
 2138SOL     OW18049   0.399   1.666  10.701  0.1350 -0.4276 -0.1597
 2138SOL    HW118050   0.490   1.674  10.673  0.2871 -2.1929 -0.1346
 2138SOL    HW218051   0.391   1.751  10.744  0.4663 -0.0530 -0.8451
 2139SOL     OW18052   2.378   3.517   2.151  0.2414 -0.1736  0.3865
 2139SOL    HW118053   2.344   3.429   2.139  2.2097 -0.9067  0.1356
 2139SOL    HW218054   2.462   3.499   2.192 -0.0852  0.7923  1.4832
 2140SOL     OW18055   3.401   0.012   9.960 -0.5752  0.0445  0.5503
 2140SOL    HW118056   3.411   0.103   9.988 -1.8465 -0.1764  1.7032
 2140SOL    HW218057   3.479   0.003   9.906 -0.5254 -0.0134  0.6328
 2141SOL     OW18058   3.803   3.594   6.735  0.4292  0.2945 -0.7847
 2141SOL    HW118059   3.829   3.520   6.680  1.0116  1.7343 -2.4426
 2141SOL    HW218060   3.892   3.628   6.742  1.2531 -2.0643  0.4431
 2142SOL     OW18061   2.705   0.567   8.457 -0.0217 -0.4042 -0.5710
 2142SOL    HW118062   2.778   0.553   8.517 -0.0234  1.4752 -0.1396
 2142SOL    HW218063   2.665   0.480   8.448  2.8231 -1.6186 -1.3867
 2143SOL     OW18064   2.838   4.052   8.514  0.2300 -0.4833  0.2322
 2143SOL    HW118065   2.835   4.093   8.427  0.1616 -0.9898 -0.0034
 2143SOL    HW218066   2.799   4.115   8.574 -0.7951 -0.8221 -0.0878
 2144SOL     OW18067   1.583   3.204   3.472 -0.2524  0.1202 -0.0309
 2144SOL    HW118068   1.570   3.181   3.564  0.5156  1.3374  0.3731
 2144SOL    HW218069   1.585   3.118   3.430  0.6227  0.5484 -0.8472
 2145SOL     OW18070   0.656   0.817   0.933  0.1154  0.1790  0.2108
 2145SOL    HW118071   0.565   0.824   0.904  0.2483 -1.8143 -0.6523
 2145SOL    HW218072   0.668   0.903   0.974 -1.9104 -0.0793  1.3177
 2146SOL     OW18073   0.609   4.582   4.865  0.4965 -0.1409  0.0978
 2146SOL    HW118074   0.600   4.506   4.922  1.3161 -2.1313 -2.4204
 2146SOL    HW218075   0.637   4.653   4.922 -0.1363  0.1841  0.0048
 2147SOL     OW18076   2.826   1.557   3.134 -0.1944  0.3601  0.1305
 2147SOL    HW118077   2.750   1.516   3.092 -1.7429  0.7061  2.5658
 2147SOL    HW218078   2.892   1.490   3.120  0.3295  1.2208 -1.4821
 2148SOL     OW18079   1.514   4.596  15.790  0.3857  0.5009 -0.3375
 2148SOL    HW118080   1.515   4.670  15.851  0.1351  0.0959  0.1534
 2148SOL    HW218081   1.609   4.587  15.789  0.3912  0.3487  0.9744
 2149SOL     OW18082   0.471   0.106   9.273  0.5744 -0.3605 -0.6231
 2149SOL    HW118083   0.510   0.158   9.344 -2.1944 -1.2560  1.5625
 2149SOL    HW218084   0.464   0.026   9.324 -0.3246 -0.6027 -1.1271
 2150SOL     OW18085   3.818   3.552  17.671 -0.4806  0.6718  0.3796
 2150SOL    HW118086   3.908   3.520  17.666 -0.6464  0.0369  1.5581
 2150SOL    HW218087   3.777   3.489  17.613  0.8995 -1.1180  1.3649
 2151SOL     OW18088   3.933   1.141   7.041 -0.2086  0.0792 -0.2040
 2151SOL    HW118089   3.916   1.052   7.071 -2.0555  0.8956  1.2044
 2151SOL    HW218090   3.912   1.140   6.948  1.7311 -0.6497 -0.6375
 2152SOL     OW18091   2.399   1.308   2.307 -0.1906  0.4422 -0.0106
 2152SOL    HW118092   2.369   1.377   2.366 -0.2410 -0.1645  0.6712
 2152SOL    HW218093   2.342   1.317   2.231  1.3651 -2.7579 -1.5489
 2153SOL     OW18094   4.483   3.931   7.062  0.5812 -0.1400  0.0159
 2153SOL    HW118095   4.449   3.849   7.096 -0.2311  0.0104 -0.4552
 2153SOL    HW218096   4.539   3.951   7.138  3.5233 -0.2894 -2.0953
 2154SOL     OW18097   0.564   0.879   6.856 -0.1497 -0.0943 -0.5728
 2154SOL    HW118098   0.647   0.879   6.809 -0.3314  2.4976 -0.9285
 2154SOL    HW218099   0.554   0.974   6.869 -0.9622 -0.0241 -1.6900
 2155SOL     OW18100   1.024   2.035   3.802 -0.3210  0.5825 -0.0546
 2155SOL    HW118101   1.078   2.039   3.724  0.7555  1.0285  0.7119
 2155SOL    HW218102   0.955   1.974   3.776  1.0796 -0.8872 -0.2828
 2156SOL     OW18103   3.716   0.068   8.337 -0.8925 -0.4883 -0.3585
 2156SOL    HW118104   3.637   0.101   8.295 -0.3266  1.0957 -0.2036
 2156SOL    HW218105   3.767   0.144   8.365 -0.8812 -0.2406 -1.0621
 2157SOL     OW18106   2.156   2.992   4.815  0.2399  0.2642 -0.2234
 2157SOL    HW118107   2.166   2.937   4.737 -1.8663 -1.0377  0.4495
 2157SOL    HW218108   2.088   3.054   4.789  0.7633  0.5624 -0.9020
 2158SOL     OW18109   2.081   1.362  13.294 -0.0985  0.3577 -0.2074
 2158SOL    HW118110   2.122   1.407  13.220  0.3050  1.1774  0.5124
 2158SOL    HW218111   2.127   1.389  13.374 -2.2273 -0.7704  1.4202
 2159SOL     OW18112   2.967   0.068   5.428  0.4073  0.4630 -0.5559
 2159SOL    HW118113   3.055   0.057   5.464 -1.1597 -1.7228  2.5643
 2159SOL    HW218114   2.915   0.021   5.493 -0.2628  4.2107  1.6119
 2160SOL     OW18115   4.109   1.922  14.336 -0.3340  0.5178 -0.1902
 2160SOL    HW118116   4.050   1.886  14.270  0.7583 -1.6522  0.0258
 2160SOL    HW218117   4.179   1.861  14.311 -1.7979 -0.8353 -0.9938
 2161SOL     OW18118   1.585   4.400  16.154 -0.3897 -0.4351  0.0104
 2161SOL    HW118119   1.674   4.421  16.184 -0.5634  1.1309 -0.5979
 2161SOL    HW218120   1.527   4.455  16.206 -1.3114 -1.1855 -0.2276
 2162SOL     OW18121   2.706   4.139   2.305  0.6082 -0.4584  0.8335
 2162SOL    HW118122   2.727   4.153   2.213 -0.4087 -0.5245  0.5899
 2162SOL    HW218123   2.782   4.090   2.337  1.7168 -0.4718 -1.8009
 2163SOL     OW18124   1.932   1.418   4.280 -0.1360 -0.7271 -0.0920
 2163SOL    HW118125   1.987   1.424   4.202 -1.6425 -0.3737 -1.1109
 2163SOL    HW218126   1.937   1.325   4.303  0.5807 -0.6035  0.2676
 2164SOL     OW18127   4.095   2.153  10.306 -0.3888 -0.2004  0.5531
 2164SOL    HW118128   4.010   2.155  10.349 -1.0640 -0.2797 -0.7541
 2164SOL    HW218129   4.093   2.237  10.260 -2.0325 -2.0158 -2.7045
 2165SOL     OW18130   0.140   0.229   6.115  0.6604 -0.5509 -0.5663
 2165SOL    HW118131   0.074   0.178   6.163 -0.0803 -0.3617 -1.3981
 2165SOL    HW218132   0.146   0.187   6.029  0.6787 -1.2541 -0.2253
 2166SOL     OW18133   0.969   4.227   2.743 -0.2446  0.5574  0.1198
 2166SOL    HW118134   1.009   4.160   2.687 -0.2623 -1.4741  2.5191
 2166SOL    HW218135   1.044   4.281   2.765 -0.1827 -0.3263  2.0430
 2167SOL     OW18136   2.094   3.704   5.129  0.1853 -0.1240  0.5508
 2167SOL    HW118137   2.004   3.695   5.097  0.1939  0.5679  0.3377
 2167SOL    HW218138   2.118   3.611   5.134 -0.7739 -0.4241 -0.5101
 2168SOL     OW18139   2.385   0.628  10.919 -0.0272  0.6887 -0.1940
 2168SOL    HW118140   2.385   0.621  11.015  1.6399 -1.3821 -0.3196
 2168SOL    HW218141   2.444   0.703  10.914  2.5711 -1.3349  0.2541
 2169SOL     OW18142   1.569   3.197   4.067  0.5462  0.0282 -0.0247
 2169SOL    HW118143   1.572   3.223   4.159 -1.1608 -0.5789  0.2035
 2169SOL    HW218144   1.493   3.246   4.035 -0.4984 -1.5162  0.0516
 2170SOL     OW18145   4.552   3.458  10.126 -0.2165 -0.1394 -0.4325
 2170SOL    HW118146   4.631   3.404  10.123  0.8548  1.3130  1.8252
 2170SOL    HW218147   4.578   3.540  10.083  0.2115 -0.2630 -0.4019
 2171SOL     OW18148   3.684   2.515   6.661  0.7296  0.1956 -0.2705
 2171SOL    HW118149   3.771   2.479   6.642  0.3665  0.1174 -1.7613
 2171SOL    HW218150   3.652   2.447   6.720 -2.0580  0.3308 -1.6404
 2172SOL     OW18151   0.840   2.696   5.148 -0.2082  0.3358  0.4624
 2172SOL    HW118152   0.858   2.761   5.079  0.0295 -1.7032 -1.4065
 2172SOL    HW218153   0.826   2.615   5.098  1.2731  1.8309 -2.4159
 2173SOL     OW18154   2.536   2.027   9.370 -0.2379  0.2852  0.3068
 2173SOL    HW118155   2.441   2.029   9.379 -0.3323 -0.4372 -0.4598
 2173SOL    HW218156   2.572   2.008   9.457  1.2365 -1.3782 -0.6630
 2174SOL     OW18157   1.394   0.420  10.381 -0.1879 -0.3160  0.2537
 2174SOL    HW118158   1.469   0.468  10.416  1.1531 -1.0588 -1.6063
 2174SOL    HW218159   1.343   0.486  10.333 -0.7130 -0.6670  0.3356
 2175SOL     OW18160   3.059   0.793   4.116  0.4348 -0.0264  0.7410
 2175SOL    HW118161   3.004   0.714   4.108  1.5978 -0.8298  0.6225
 2175SOL    HW218162   3.098   0.804   4.029 -0.4196 -2.5361  0.0220
 2176SOL     OW18163   2.214   0.361  14.251  0.4226  0.0758  0.1743
 2176SOL    HW118164   2.172   0.281  14.220  3.6739 -1.6489  0.2995
 2176SOL    HW218165   2.198   0.410  14.170 -0.5276  1.6700  1.3314
 2177SOL     OW18166   1.552   0.357  16.365  0.1075 -0.3135 -0.0053
 2177SOL    HW118167   1.525   0.321  16.280 -3.0700 -0.2587  1.0067
 2177SOL    HW218168   1.544   0.451  16.347  0.2280 -0.3851 -0.4518
 2178SOL     OW18169   1.929   2.288   2.763  0.5056  0.3393  0.1141
 2178SOL    HW118170   1.840   2.306   2.733  0.7076  0.7551 -0.2439
 2178SOL    HW218171   1.910   2.202   2.800 -0.2461  0.1365 -0.7396
 2179SOL     OW18172   1.850   3.082   4.255 -0.6203 -0.2567  0.1006
 2179SOL    HW118173   1.798   3.093   4.335 -0.5936 -1.8705  0.3235
 2179SOL    HW218174   1.853   3.167   4.211  4.6714  0.4178  1.7404
 2180SOL     OW18175   3.237   1.904   5.925 -0.1149 -0.9056 -0.0953
 2180SOL    HW118176   3.287   1.981   5.899 -1.2172 -0.3502 -0.5624
 2180SOL    HW218177   3.302   1.838   5.948  2.3299  2.0893  1.6471
 2181SOL     OW18178   2.462   1.218  16.075 -0.1160 -0.3839 -0.1276
 2181SOL    HW118179   2.494   1.300  16.113  0.4718 -0.0473 -1.3568
 2181SOL    HW218180   2.443   1.157  16.146  1.5174  0.0570  0.6865
 2182SOL     OW18181   3.705   1.945   4.060 -0.3100  0.7566 -0.4671
 2182SOL    HW118182   3.726   2.026   4.106  0.2350  1.3051 -1.6931
 2182SOL    HW218183   3.706   1.971   3.968  1.8937 -1.2128 -1.0113
 2183SOL     OW18184   4.063   4.415  17.050 -0.1374  0.2475  0.4988
 2183SOL    HW118185   4.036   4.485  16.991 -3.4172  1.0805  2.9887
 2183SOL    HW218186   4.039   4.343  16.992  0.1109  0.0394  0.6567
 2184SOL     OW18187   2.555   0.258   8.123 -0.1489 -0.9567 -0.1235
 2184SOL    HW118188   2.521   0.326   8.065  1.5599 -0.9162 -1.0520
 2184SOL    HW218189   2.536   0.170   8.090  3.3607 -2.1578  1.0803
 2185SOL     OW18190   1.954   2.672  10.590  0.3049 -0.1767 -0.4357
 2185SOL    HW118191   2.047   2.661  10.569  0.7499 -1.2535  1.9955
 2185SOL    HW218192   1.923   2.582  10.594  2.0766 -0.8127 -0.9431
 2186SOL     OW18193   2.495   0.747   6.592 -0.4064  0.1586  0.4237
 2186SOL    HW118194   2.425   0.802   6.628 -0.9833  0.1751 -0.7166
 2186SOL    HW218195   2.566   0.811   6.586  0.0439 -0.2847  1.0365
 2187SOL     OW18196   0.500   4.473   5.534 -0.4265  0.0583  0.1032
 2187SOL    HW118197   0.561   4.430   5.595 -0.1469  1.3868  0.7668
 2187SOL    HW218198   0.506   4.563   5.568 -0.9660 -0.1532  0.7560
 2188SOL     OW18199   3.027   0.127   9.049 -0.1218  0.2503  0.3441
 2188SOL    HW118200   3.031   0.056   8.985 -2.6005  0.3329  0.1197
 2188SOL    HW218201   2.933   0.141   9.045  0.2988  1.5061 -4.0381
 2189SOL     OW18202   4.725   0.386   4.050  0.3511  0.9771 -0.4559
 2189SOL    HW118203   4.651   0.430   4.007  1.0647 -1.1367 -3.8109
 2189SOL    HW218204   4.714   0.294   4.028 -2.4909  0.5179  2.8708
 2190SOL     OW18205   0.519   2.050  17.565  0.2644  0.4176 -0.2124
 2190SOL    HW118206   0.557   1.967  17.593 -1.6862 -0.0718  1.0283
 2190SOL    HW218207   0.571   2.072  17.488 -0.3450  1.6055 -0.2822
 2191SOL     OW18208   3.930   2.673  12.942  0.5752 -0.3826  0.2241
 2191SOL    HW118209   3.868   2.635  12.879  2.3298  0.0091 -1.7490
 2191SOL    HW218210   4.006   2.657  12.885  1.0828 -0.1048  0.8194
 2192SOL     OW18211   2.970   1.306   2.465  0.5334  0.2319  0.3242
 2192SOL    HW118212   3.059   1.319   2.431 -0.9607  0.2560 -3.5629
 2192SOL    HW218213   2.976   1.263   2.550  0.2273 -2.6694 -1.1267
 2193SOL     OW18214   4.325   1.116   2.447  0.0544 -0.0294 -0.6337
 2193SOL    HW118215   4.294   1.199   2.482 -0.7031 -1.3718  1.8608
 2193SOL    HW218216   4.416   1.134   2.424 -0.0062 -0.0199 -0.8654
 2194SOL     OW18217   3.348   0.123  17.514 -0.2278  0.1731  0.8493
 2194SOL    HW118218   3.302   0.106  17.596 -1.0666 -0.5594  0.2210
 2194SOL    HW218219   3.273   0.149  17.460  0.1208  0.9427  0.7399
 2195SOL     OW18220   1.066   0.897   4.694  0.1799  0.3865  0.2217
 2195SOL    HW118221   1.116   0.827   4.736 -2.1754  1.1642  4.3670
 2195SOL    HW218222   1.051   0.960   4.764 -1.8636  0.5957 -0.3972
 2196SOL     OW18223   4.235   3.565   7.645  0.1146 -0.2067 -0.1371
 2196SOL    HW118224   4.251   3.608   7.729 -0.0942 -1.3808  0.5060
 2196SOL    HW218225   4.277   3.481   7.661 -1.2262 -0.9396 -0.4672
 2197SOL     OW18226   2.558   2.443   4.713 -0.1198 -0.0591 -0.2729
 2197SOL    HW118227   2.545   2.349   4.724 -0.8793  0.2009  0.9888
 2197SOL    HW218228   2.521   2.449   4.625  1.1743 -0.1164 -0.8221
 2198SOL     OW18229   3.047   4.496  13.694 -0.0840 -0.0768 -0.1048
 2198SOL    HW118230   3.019   4.576  13.739  1.0196  0.6583 -0.7161
 2198SOL    HW218231   2.968   4.444  13.686  0.3638 -0.8072  0.1593
 2199SOL     OW18232   2.182   1.201   3.413 -0.2809 -0.4694 -0.0371
 2199SOL    HW118233   2.118   1.145   3.456  1.8367 -2.2393  0.8194
 2199SOL    HW218234   2.261   1.148   3.424 -0.3689 -0.4818  0.5125
 2200SOL     OW18235   2.669   3.462   6.840 -0.1377 -0.5273 -0.2210
 2200SOL    HW118236   2.612   3.445   6.765 -0.2895 -2.2350  0.2740
 2200SOL    HW218237   2.707   3.534   6.790 -1.2566 -0.9546 -1.6969
 2201SOL     OW18238   3.509   0.192   8.163 -0.9900 -0.4600  0.0234
 2201SOL    HW118239   3.419   0.159   8.171 -2.0279  2.6894  1.4146
 2201SOL    HW218240   3.536   0.133   8.093  1.6442 -1.5143  1.9597
 2202SOL     OW18241   3.225   1.031  12.093 -0.1403  0.0670  0.0993
 2202SOL    HW118242   3.248   1.052  12.184 -2.4282 -0.5992  0.8385
 2202SOL    HW218243   3.311   1.012  12.055 -0.4852  0.6544 -0.9739
 2203SOL     OW18244   0.414   2.220   5.977 -0.2342 -0.1311  0.1297
 2203SOL    HW118245   0.406   2.173   5.894  0.8044 -1.4289  0.7663
 2203SOL    HW218246   0.393   2.309   5.947  0.0599 -0.1767 -0.2086
 2204SOL     OW18247   2.850   3.361   3.488  0.4332 -0.1192  0.3407
 2204SOL    HW118248   2.877   3.287   3.541  1.2540  0.0312  0.1297
 2204SOL    HW218249   2.755   3.349   3.483  0.2373  1.9602 -1.0726
 2205SOL     OW18250   2.022   4.454   4.645 -0.4934 -0.0982  0.1092
 2205SOL    HW118251   1.974   4.392   4.700 -0.7039  0.9762  1.1326
 2205SOL    HW218252   2.098   4.404   4.615 -1.0467 -1.2120  0.5788
 2206SOL     OW18253   0.673   3.052   8.464  0.1422  0.2878  0.0881
 2206SOL    HW118254   0.760   3.079   8.435 -0.2884  0.9318 -0.5872
 2206SOL    HW218255   0.625   3.070   8.384 -2.3461 -0.8973  1.3077
 2207SOL     OW18256   2.601   0.017   5.333 -0.2287  0.8028 -0.0292
 2207SOL    HW118257   2.693   4.729   5.332  0.0282  1.6709  1.0079
 2207SOL    HW218258   2.560   4.674   5.307  0.5777  0.8819 -1.6020
 2208SOL     OW18259   2.904   2.655   1.479 -0.4264 -0.6419  0.2268
 2208SOL    HW118260   2.956   2.716   1.426 -0.4597 -1.1856 -0.4300
 2208SOL    HW218261   2.967   2.585   1.489 -0.2255 -0.8145 -2.1446
 2209SOL     OW18262   0.299   0.163   1.802  0.6071  0.2454  0.5482
 2209SOL    HW118263   0.303   0.110   1.723 -0.5395 -1.3821  1.5858
 2209SOL    HW218264   0.390   0.194   1.807  0.3097  1.0139  1.2016
 2210SOL     OW18265   1.150   2.301   7.838  0.1330 -0.3239 -0.1375
 2210SOL    HW118266   1.243   2.294   7.859 -0.6322 -3.6626  2.0879
 2210SOL    HW218267   1.147   2.224   7.781 -0.5786 -0.6156  0.2908
 2211SOL     OW18268   3.741   0.611   5.514 -0.5642  0.1673  0.1752
 2211SOL    HW118269   3.753   0.524   5.476 -2.8777  0.7809 -1.9334
 2211SOL    HW218270   3.767   0.661   5.436 -1.3569 -0.4594 -0.4955
 2212SOL     OW18271   3.856   1.155   4.811 -0.1356  0.2535  0.3836
 2212SOL    HW118272   3.792   1.207   4.762  1.9665  2.8910  0.3665
 2212SOL    HW218273   3.835   1.172   4.903 -3.3404 -0.0256 -0.2901
 2213SOL     OW18274   3.779   3.536   8.758  0.0403 -0.3933  0.3528
 2213SOL    HW118275   3.874   3.549   8.758  0.2398 -1.7974 -3.0158
 2213SOL    HW218276   3.758   3.464   8.818 -3.6726 -0.1032 -0.5949
 2214SOL     OW18277   1.138   0.146   4.600 -0.4823 -0.6928  0.4350
 2214SOL    HW118278   1.057   0.163   4.552  0.3482 -0.5909 -0.9360
 2214SOL    HW218279   1.127   0.051   4.613 -2.6437 -0.4209  0.6318
 2215SOL     OW18280   3.281   2.789  11.932  0.0745  0.1151  0.6362
 2215SOL    HW118281   3.191   2.815  11.951 -0.1444 -0.7179  0.7456
 2215SOL    HW218282   3.318   2.809  12.018 -1.0847 -0.8277  1.3528
 2216SOL     OW18283   4.159   4.071   5.907 -0.5851 -0.5515  0.2267
 2216SOL    HW118284   4.114   4.072   5.991  0.4195  0.0925  0.7448
 2216SOL    HW218285   4.161   3.976   5.904 -0.3288 -0.5581  0.6891
 2217SOL     OW18286   3.053   2.109   3.914 -0.4246 -0.3593 -0.2427
 2217SOL    HW118287   3.106   2.188   3.920  1.0633 -1.2443 -1.4715
 2217SOL    HW218288   3.089   2.058   3.987  1.2288  0.7422 -0.2894
 2218SOL     OW18289   0.116   0.876   3.702  0.2915  0.7216  0.1015
 2218SOL    HW118290   0.086   0.925   3.625  0.3473  1.3174  0.4583
 2218SOL    HW218291   0.162   0.806   3.656 -0.2314  1.7240 -1.9328
 2219SOL     OW18292   0.278   2.322   5.142 -0.5154  0.2979 -0.1810
 2219SOL    HW118293   0.201   2.297   5.090 -1.8179  2.3455  0.7458
 2219SOL    HW218294   0.266   2.417   5.143  1.6106  0.5608  1.0056
 2220SOL     OW18295   3.904   0.400   9.492  0.7406  0.2016 -0.4094
 2220SOL    HW118296   3.989   0.362   9.471  0.3203 -1.8417  1.4605
 2220SOL    HW218297   3.871   0.341   9.561 -1.2925  1.6895 -0.1023
 2221SOL     OW18298   2.618   3.137   4.887  0.3596 -0.4500 -0.1716
 2221SOL    HW118299   2.533   3.117   4.926  0.2124 -2.7563 -1.7098
 2221SOL    HW218300   2.666   3.143   4.970  0.9508 -2.4113 -0.3784
 2222SOL     OW18301   4.445   1.276  15.889 -0.3497 -0.2707  0.0260
 2222SOL    HW118302   4.353   1.304  15.898  0.4435  2.4128 -0.2814
 2222SOL    HW218303   4.456   1.294  15.796  2.7597  1.2620  0.6875
 2223SOL     OW18304   1.144   3.087   5.510  0.2869 -0.0500 -0.3076
 2223SOL    HW118305   1.096   3.035   5.445  0.6523 -1.5718  0.6269
 2223SOL    HW218306   1.143   3.032   5.588 -0.0858  0.4377  0.0344
 2224SOL     OW18307   2.257   4.229   2.976 -0.0986  0.6653 -0.2034
 2224SOL    HW118308   2.280   4.162   3.041 -0.4547 -0.0196 -0.7826
 2224SOL    HW218309   2.194   4.181   2.923  0.5789  1.9514 -2.1623
 2225SOL     OW18310   4.449   1.131   9.325 -0.0825  0.2726  0.1651
 2225SOL    HW118311   4.524   1.080   9.357 -0.1246 -0.5157 -0.9930
 2225SOL    HW218312   4.369   1.087   9.354 -0.4547  0.9483  0.1588
 2226SOL     OW18313   0.892   3.143  11.085  0.6186  0.0220  0.1936
 2226SOL    HW118314   0.930   3.078  11.144  1.3578  0.5241  0.2749
 2226SOL    HW218315   0.945   3.221  11.098  0.5627  0.0210  0.4319
 2227SOL     OW18316   0.965   0.387  17.687  0.1555 -0.4219  0.3538
 2227SOL    HW118317   0.979   0.293  17.673 -0.7303 -0.5491  0.3245
 2227SOL    HW218318   0.996   0.420  17.603 -1.8292 -1.3101 -0.7151
 2228SOL     OW18319   1.097   4.318   0.983 -0.4353  0.5112 -0.4095
 2228SOL    HW118320   1.003   4.301   0.986 -0.4719  0.9597  1.4176
 2228SOL    HW218321   1.134   4.230   0.973  2.4573  1.5014  1.5128
 2229SOL     OW18322   1.589   2.390  12.044  0.8493  0.1321 -0.3671
 2229SOL    HW118323   1.630   2.398  12.130 -1.4326 -1.1987  0.8613
 2229SOL    HW218324   1.655   2.418  11.981  1.5860  1.7295  1.0952
 2230SOL     OW18325   2.353   3.797  17.254  0.0559  0.5606  0.1795
 2230SOL    HW118326   2.364   3.705  17.230  0.3277  1.4131 -2.9360
 2230SOL    HW218327   2.270   3.818  17.211  0.1101 -0.3365 -0.3699
 2231SOL     OW18328   4.039   4.097   4.853 -0.5733  0.2106 -0.5560
 2231SOL    HW118329   3.985   4.143   4.917 -0.3047  0.9167 -0.8391
 2231SOL    HW218330   4.113   4.158   4.851 -0.3085 -0.0939 -0.0939
 2232SOL     OW18331   2.605   1.691   9.520  0.0180  0.1291 -0.3642
 2232SOL    HW118332   2.557   1.702   9.438 -2.1335 -0.5657  0.7961
 2232SOL    HW218333   2.690   1.723   9.489  0.5013 -2.5078 -1.7423
 2233SOL     OW18334   0.955   4.445   6.527 -0.1375 -0.3524  0.0611
 2233SOL    HW118335   1.039   4.400   6.535 -0.9100 -1.5757  1.0898
 2233SOL    HW218336   0.897   4.377   6.495 -0.8904 -1.3303  3.5080
 2234SOL     OW18337   0.883   4.698   1.494  0.6716  0.2022  0.3347
 2234SOL    HW118338   0.888   4.635   1.422  0.7734 -0.1318  0.6379
 2234SOL    HW218339   0.917   0.037   1.450 -1.2683  0.5789 -0.5130
 2235SOL     OW18340   0.564   4.023   4.144 -0.3924 -0.6559  0.0532
 2235SOL    HW118341   0.500   4.078   4.099  0.1026  0.0136  0.1696
 2235SOL    HW218342   0.510   3.943   4.149 -0.4155 -0.5851  0.8607
 2236SOL     OW18343   1.771   4.448  12.568  0.1190 -0.0575 -0.1226
 2236SOL    HW118344   1.763   4.397  12.488  1.1318  1.4929 -1.2089
 2236SOL    HW218345   1.806   4.387  12.633 -0.6428 -0.0861  0.2619
 2237SOL     OW18346   2.371   0.901   7.140  0.1482  0.3072 -0.3639
 2237SOL    HW118347   2.464   0.926   7.146  0.3642 -0.9907  1.6689
 2237SOL    HW218348   2.374   0.846   7.062  0.3096  1.6362 -1.2985
 2238SOL     OW18349   3.886   1.995   2.501 -0.0650 -0.2432 -0.1441
 2238SOL    HW118350   3.929   2.040   2.573  1.5780  0.2278 -1.4369
 2238SOL    HW218351   3.899   1.900   2.502  0.9352 -0.0797  1.6061
 2239SOL     OW18352   1.607   2.621  17.421 -0.3705  0.4981  0.2672
 2239SOL    HW118353   1.642   2.534  17.403  1.3638  1.5384 -1.3142
 2239SOL    HW218354   1.654   2.642  17.502  0.7823 -1.0967  0.0193
 2240SOL     OW18355   4.618   4.472   3.282 -0.3457  0.0573  0.1339
 2240SOL    HW118356   4.569   4.548   3.314  1.2656  0.7815  0.9114
 2240SOL    HW218357   4.582   4.403   3.338  0.8125 -0.9337 -0.3436
 2241SOL     OW18358   0.885   3.928   8.821  0.5211 -0.1765 -0.4074
 2241SOL    HW118359   0.921   4.014   8.798 -0.2780  0.4966  0.8513
 2241SOL    HW218360   0.954   3.902   8.881  0.9769  0.4289 -0.6623
 2242SOL     OW18361   3.435   3.861   7.572  0.0613  0.2553  0.5058
 2242SOL    HW118362   3.519   3.859   7.618 -0.0761  0.4316  0.7651
 2242SOL    HW218363   3.443   3.929   7.505  2.0754  1.7337  2.2563
 2243SOL     OW18364   1.987   0.062   1.882 -0.1244  0.2597 -0.0533
 2243SOL    HW118365   1.899   0.056   1.844 -0.4334  2.2243  0.3274
 2243SOL    HW218366   1.976   0.032   1.972 -0.5962 -1.4950 -0.7015
 2244SOL     OW18367   3.169   0.207  15.983 -0.5832 -0.2628 -0.2568
 2244SOL    HW118368   3.118   0.275  15.939 -1.9325 -0.6898  0.6623
 2244SOL    HW218369   3.104   0.169  16.042 -2.4500  0.8052 -1.6319
 2245SOL     OW18370   1.510   3.565  11.055  0.1142 -0.1431  0.1447
 2245SOL    HW118371   1.548   3.486  11.092 -0.4155 -0.7173 -0.5523
 2245SOL    HW218372   1.475   3.530  10.973  0.0911  0.3128 -0.0420
 2246SOL     OW18373   0.808   1.439   8.646  0.0089  0.1581  0.3107
 2246SOL    HW118374   0.875   1.492   8.602 -0.0854 -0.9994 -1.2271
 2246SOL    HW218375   0.856   1.375   8.699  2.8670  1.3566 -0.8239
 2247SOL     OW18376   3.595   0.004   7.994 -0.5211 -0.2053 -0.0235
 2247SOL    HW118377   3.678   0.002   7.945 -1.4284 -2.2377 -1.4521
 2247SOL    HW218378   3.539   4.680   7.949 -2.3891  1.1653  0.3906
 2248SOL     OW18379   4.201   3.985  10.696  0.5533  0.0055 -0.4214
 2248SOL    HW118380   4.235   3.896  10.697 -0.4625 -0.3684  0.1946
 2248SOL    HW218381   4.116   3.988  10.738  0.9310 -0.1682  0.3420
 2249SOL     OW18382   2.167   0.925   5.409  0.3960  0.2191  0.0083
 2249SOL    HW118383   2.240   0.899   5.352 -0.2315 -1.2615 -0.1293
 2249SOL    HW218384   2.187   0.871   5.486  3.6503  0.3415 -0.7627
 2250SOL     OW18385   0.593   3.452   3.397 -0.3554 -0.3152 -0.4660
 2250SOL    HW118386   0.625   3.537   3.366  1.7025 -1.4856 -1.5353
 2250SOL    HW218387   0.637   3.390   3.340 -0.7012 -0.5262 -0.5014
 2251SOL     OW18388   3.462   2.584   8.223 -0.2671  0.3252  0.3871
 2251SOL    HW118389   3.520   2.537   8.282  1.4400  2.6255  0.5505
 2251SOL    HW218390   3.516   2.585   8.145  0.9855  0.0669  1.2549
 2252SOL     OW18391   1.881   3.150   9.029  0.6832  0.8078  0.2612
 2252SOL    HW118392   1.823   3.210   8.983  0.4506  0.2975 -0.1083
 2252SOL    HW218393   1.962   3.197   9.050 -0.4760  1.0541  4.2353
 2253SOL     OW18394   4.721   4.706   6.000  0.3278 -0.6899  0.4270
 2253SOL    HW118395   0.007   4.642   6.067  1.5180  0.0682  0.6957
 2253SOL    HW218396   4.636   4.668   5.977  0.3074 -0.8564  0.7766
 2254SOL     OW18397   4.385   1.240   8.460  0.3529  0.5583 -0.0154
 2254SOL    HW118398   4.410   1.331   8.477  2.3490 -0.0488  0.2334
 2254SOL    HW218399   4.290   1.245   8.454  0.3366 -0.4055 -0.6130
 2255SOL     OW18400   0.270   3.277   9.059  0.5540  0.3368  0.2900
 2255SOL    HW118401   0.281   3.217   9.133 -0.5621  1.8739  1.7019
 2255SOL    HW218402   0.208   3.344   9.089  0.8274  0.5575  0.3599
 2256SOL     OW18403   0.742   2.050  14.758  0.1365  0.6226  0.1169
 2256SOL    HW118404   0.780   1.963  14.748  0.8156  0.7722  1.4262
 2256SOL    HW218405   0.767   2.080  14.671 -0.5423 -0.1996 -0.3631
 2257SOL     OW18406   4.456   0.656   2.578  0.8440  0.6308  0.2314
 2257SOL    HW118407   4.462   0.575   2.528  2.8385 -0.0308  1.5758
 2257SOL    HW218408   4.372   0.645   2.623 -0.0757 -0.8070 -1.8370
 2258SOL     OW18409   2.047   3.974  16.313  0.0480 -0.0303  0.6052
 2258SOL    HW118410   1.952   3.983  16.314  0.0702  0.4389 -3.1025
 2258SOL    HW218411   2.054   3.882  16.291 -0.1022  0.4890 -1.5991
 2259SOL     OW18412   3.363   3.868   3.704 -0.2869  0.2964 -0.0134
 2259SOL    HW118413   3.281   3.840   3.662  1.2381 -0.4673 -2.4675
 2259SOL    HW218414   3.338   3.892   3.794 -2.8742 -1.2810 -0.2980
 2260SOL     OW18415   0.254   2.137   7.275 -0.4534 -0.0931 -0.4132
 2260SOL    HW118416   0.184   2.121   7.338 -1.4203  2.1209 -0.9241
 2260SOL    HW218417   0.235   2.080   7.200  2.0096  0.7217 -1.6649
 2261SOL     OW18418   2.322   0.807   1.568 -0.4080  0.4584  0.2587
 2261SOL    HW118419   2.336   0.897   1.538 -0.3512  0.5605  0.5923
 2261SOL    HW218420   2.363   0.761   1.494 -2.6685  0.7073 -1.1507
 2262SOL     OW18421   4.648   4.639   7.124  0.0362 -0.4100  0.2456
 2262SOL    HW118422   4.568   4.677   7.160 -0.3859  0.2919 -1.4412
 2262SOL    HW218423   4.646   4.554   7.169  2.6049 -0.2871  0.5934
 2263SOL     OW18424   3.447   0.999   6.264 -0.1857  0.2850 -0.2357
 2263SOL    HW118425   3.412   0.974   6.349  0.2880  1.7170  0.3776
 2263SOL    HW218426   3.534   1.029   6.289  0.6202 -0.4785 -2.0893
 2264SOL     OW18427   3.390   1.163   5.115 -0.8722 -0.0179  0.1146
 2264SOL    HW118428   3.378   1.072   5.142 -3.4384 -0.1337 -1.4117
 2264SOL    HW218429   3.434   1.156   5.030 -0.7619 -1.2378  0.2708
 2265SOL     OW18430   0.059   1.418   9.536  0.2412 -0.2683  0.0925
 2265SOL    HW118431   0.144   1.460   9.550 -0.0521  0.8603 -1.4784
 2265SOL    HW218432   0.014   1.445   9.616  0.2633 -0.5836  0.2099
 2266SOL     OW18433   2.100   4.268   3.540  0.4016  0.0430 -0.1705
 2266SOL    HW118434   2.012   4.297   3.563 -0.3436 -1.1910 -1.5338
 2266SOL    HW218435   2.088   4.204   3.470  2.6361 -1.4276  0.7906
 2267SOL     OW18436   3.212   1.996   6.689  0.0833 -0.0268  0.8178
 2267SOL    HW118437   3.241   2.024   6.602 -1.5607 -0.7476  0.0325
 2267SOL    HW218438   3.158   2.074   6.704  1.2478  0.4697  2.4659
 2268SOL     OW18439   1.475   0.889   7.107 -0.1876 -0.3111  0.5483
 2268SOL    HW118440   1.434   0.803   7.117  0.1531 -0.4108  1.1193
 2268SOL    HW218441   1.539   0.873   7.176  0.9490  0.5385 -0.3073
 2269SOL     OW18442   1.846   4.526   0.887  0.0900  0.4487  0.4466
 2269SOL    HW118443   1.822   4.436   0.908 -1.8206  0.2307 -2.6510
 2269SOL    HW218444   1.915   4.552   0.949  0.1374 -2.3508  1.5921
 2270SOL     OW18445   2.492   2.521  10.893 -0.3358 -0.6539 -0.2978
 2270SOL    HW118446   2.526   2.552  10.809  0.2127  1.0685  0.5699
 2270SOL    HW218447   2.501   2.598  10.948  1.7432 -1.9977  1.2448
 2271SOL     OW18448   1.899   4.114   7.279  0.2538  0.7453  0.5424
 2271SOL    HW118449   1.950   4.188   7.311  1.8363  0.7027 -1.8687
 2271SOL    HW218450   1.865   4.160   7.203  1.3762  2.3619  1.0167
 2272SOL     OW18451   1.411   3.739  14.593 -0.0489 -0.1374  0.0818
 2272SOL    HW118452   1.357   3.675  14.547  1.7653 -1.7755  0.2696
 2272SOL    HW218453   1.432   3.808  14.529  1.2923 -1.6881 -1.1525
 2273SOL     OW18454   3.217   0.320  15.041 -0.4168 -0.2609 -0.2538
 2273SOL    HW118455   3.236   0.408  15.009  0.6529  0.0263  1.1847
 2273SOL    HW218456   3.298   0.285  15.004  0.2593  0.2855  0.7205
 2274SOL     OW18457   3.710   3.326   0.145 -0.2272  0.1383  0.0679
 2274SOL    HW118458   3.674   3.409   0.112 -0.0649  0.7319  1.3733
 2274SOL    HW218459   3.745   3.286   0.066 -0.5907  2.2965 -1.1922
 2275SOL     OW18460   0.189   2.567   9.333 -0.2232 -0.1287 -0.3610
 2275SOL    HW118461   0.110   2.561   9.386  0.5829  1.1217  0.9978
 2275SOL    HW218462   0.257   2.509   9.368  0.6493  0.8716 -0.4049
 2276SOL     OW18463   4.565   1.234   5.912  0.3017 -0.0371  0.4358
 2276SOL    HW118464   4.519   1.151   5.902  0.9191 -0.5853  2.1182
 2276SOL    HW218465   4.505   1.269   5.978 -0.3113 -3.2016  1.5595
 2277SOL     OW18466   3.310   2.718   7.388  0.5647  0.2846 -0.2090
 2277SOL    HW118467   3.276   2.804   7.364  1.1249  0.5140 -0.1679
 2277SOL    HW218468   3.390   2.742   7.434  0.6707 -1.8406  0.7079
 2278SOL     OW18469   4.409   2.684   0.427 -0.3398 -0.0223 -0.2663
 2278SOL    HW118470   4.465   2.760   0.447 -1.9429  1.3446 -0.9546
 2278SOL    HW218471   4.352   2.688   0.503  0.1602  0.0635  0.1091
 2279SOL     OW18472   4.553   2.414   2.672 -0.6749 -0.8505  0.5726
 2279SOL    HW118473   4.633   2.380   2.632 -1.1808 -0.3758 -0.8473
 2279SOL    HW218474   4.488   2.375   2.613  0.8296  0.2748 -1.8171
 2280SOL     OW18475   2.903   3.035   0.293  0.1664 -0.8142  0.9590
 2280SOL    HW118476   2.850   2.958   0.317 -0.0361 -1.0538 -0.2522
 2280SOL    HW218477   2.929   3.008   0.205 -0.1932 -2.7212  1.4230
 2281SOL     OW18478   4.282   3.623   7.945  0.6177  0.0756 -0.2596
 2281SOL    HW118479   4.268   3.656   8.034 -0.2485  0.2433 -0.4579
 2281SOL    HW218480   4.194   3.586   7.943  0.6621  0.2220 -3.7427
 2282SOL     OW18481   0.114   3.083   0.683 -0.3047  0.4269 -0.3903
 2282SOL    HW118482   0.170   3.032   0.624  0.9666  2.0653 -0.6060
 2282SOL    HW218483   0.130   3.171   0.650 -0.5739  1.6648  2.7579
 2283SOL     OW18484   3.613   1.461  11.959  0.3168  0.3064  0.0877
 2283SOL    HW118485   3.536   1.468  11.904  0.9910 -2.9450 -1.2779
 2283SOL    HW218486   3.644   1.374  11.932 -0.9136  0.3347 -1.3789
 2284SOL     OW18487   3.421   0.077  16.653  0.1900 -0.8625  0.1558
 2284SOL    HW118488   3.472   0.032  16.721 -0.3207 -1.5667  0.0701
 2284SOL    HW218489   3.422   0.025  16.573 -0.4783 -0.9098  0.1825
 2285SOL     OW18490   1.374   4.161   4.843 -0.3357  0.4822 -0.4570
 2285SOL    HW118491   1.414   4.078   4.817 -1.9746 -0.1585 -0.9610
 2285SOL    HW218492   1.294   4.175   4.792  0.0350  0.8761 -0.9226
 2286SOL     OW18493   4.199   3.101   8.433  0.3900 -0.1423  0.8653
 2286SOL    HW118494   4.277   3.084   8.380 -0.3614  1.2620 -0.6802
 2286SOL    HW218495   4.210   3.049   8.513  3.3935 -1.6176 -0.5038
 2287SOL     OW18496   1.031   1.079   3.320  0.4317  0.0784 -0.2802
 2287SOL    HW118497   1.012   0.985   3.321 -0.3730  0.2641  1.5963
 2287SOL    HW218498   0.945   1.117   3.302 -0.2212  0.0481  2.8157
 2288SOL     OW18499   0.747   0.406   7.771  0.1566  0.0603 -0.1201
 2288SOL    HW118500   0.665   0.449   7.796  1.1626  2.0869 -0.2708
 2288SOL    HW218501   0.755   0.449   7.685  0.7645  2.6525  1.2318
 2289SOL     OW18502   4.575   3.585   7.378  0.2737 -0.1534 -0.0298
 2289SOL    HW118503   4.533   3.638   7.446  0.1547 -1.4317  0.8860
 2289SOL    HW218504   4.564   3.493   7.398  0.0513  0.0004  0.5503
 2290SOL     OW18505   2.688   3.739   7.302 -0.0560 -0.5478 -1.0137
 2290SOL    HW118506   2.675   3.692   7.219  0.0790  0.1210 -1.4072
 2290SOL    HW218507   2.773   3.696   7.316 -0.5018 -1.5619 -1.3814
 2291SOL     OW18508   0.667   1.709   7.780 -0.1674  0.6070  0.2085
 2291SOL    HW118509   0.680   1.797   7.816  0.4214  0.9209 -0.7864
 2291SOL    HW218510   0.759   1.702   7.753  0.0094 -1.2008  1.2577
 2292SOL     OW18511   2.808   1.320   9.113 -0.4753 -0.2840 -0.4754
 2292SOL    HW118512   2.723   1.275   9.120 -0.7514  0.9580  3.8225
 2292SOL    HW218513   2.806   1.370   9.031  1.6399  1.4093  0.5246
 2293SOL     OW18514   1.526   0.935   2.249 -0.0632 -0.3048 -0.4493
 2293SOL    HW118515   1.544   0.844   2.227  1.7079  0.2172 -1.1644
 2293SOL    HW218516   1.536   0.912   2.341 -1.8490 -1.9612 -0.6596
 2294SOL     OW18517   3.694   4.651   9.462 -0.6175 -0.2137  0.5522
 2294SOL    HW118518   3.711   4.714   9.392  1.1077  0.1896  1.3423
 2294SOL    HW218519   3.748   4.575   9.439 -0.2525 -1.1527  4.4211
 2295SOL     OW18520   1.994   4.284  12.978 -0.1319  0.1711 -0.3924
 2295SOL    HW118521   1.923   4.347  12.969 -1.7133 -1.0917  3.0784
 2295SOL    HW218522   2.056   4.336  13.030  0.7444 -3.1961  1.9029
 2296SOL     OW18523   2.382   0.784   1.256 -0.2841  0.2754  0.0477
 2296SOL    HW118524   2.427   0.713   1.302  1.0604  1.0619 -0.0259
 2296SOL    HW218525   2.373   0.735   1.174 -1.2805  0.7353 -0.1128
 2297SOL     OW18526   0.901   0.346  17.214  0.0345 -0.0829  0.6004
 2297SOL    HW118527   0.970   0.303  17.164  1.2208  0.3577  1.8513
 2297SOL    HW218528   0.831   0.351  17.149  1.5288  0.8530 -0.9211
 2298SOL     OW18529   2.852   3.307   2.223 -0.2702  0.2010 -0.0078
 2298SOL    HW118530   2.848   3.213   2.205  0.1292  0.2701 -0.4471
 2298SOL    HW218531   2.931   3.319   2.171 -1.4901  2.5922 -1.2802
 2299SOL     OW18532   0.063   3.789  15.441 -0.7544 -0.2884  0.1627
 2299SOL    HW118533   0.134   3.779  15.504  0.3195 -1.6699 -1.2426
 2299SOL    HW218534   0.105   3.789  15.354 -0.1244 -2.4389  0.4498
 2300SOL     OW18535   1.233   3.300  11.036 -0.2736  0.1415  0.4390
 2300SOL    HW118536   1.255   3.349  10.957 -2.6010  1.5019  0.6396
 2300SOL    HW218537   1.237   3.207  11.013  1.5640  0.0677  1.0385
 2301SOL     OW18538   4.606   0.048   8.947 -0.1799 -0.6126 -0.0009
 2301SOL    HW118539   4.545   4.726   8.987 -0.7400  0.0695  0.1760
 2301SOL    HW218540   4.662   0.083   9.016  1.2479  1.2983 -2.1204
 2302SOL     OW18541   2.047   0.187   4.786  0.2277 -0.7993 -0.5968
 2302SOL    HW118542   2.017   0.104   4.821 -0.0757 -1.5553 -2.6361
 2302SOL    HW218543   2.142   0.177   4.794  0.4710  2.3601  0.3976
 2303SOL     OW18544   3.614   0.556  17.371  0.0439  0.6248 -0.0316
 2303SOL    HW118545   3.572   0.513  17.445 -0.5211  0.3223 -0.5336
 2303SOL    HW218546   3.532   0.570  17.324 -0.4164 -3.0939 -0.3808
 2304SOL     OW18547   3.405   1.377   2.841  0.0323  0.3024  0.5131
 2304SOL    HW118548   3.367   1.350   2.925 -1.0566  0.4771  0.0675
 2304SOL    HW218549   3.483   1.423   2.871 -0.1775  2.3686 -2.1136
 2305SOL     OW18550   4.162   2.500   7.988  0.2508 -0.1588  0.2673
 2305SOL    HW118551   4.233   2.561   7.967  1.3170 -1.4284  0.2125
 2305SOL    HW218552   4.109   2.504   7.908  2.3876 -0.3022 -1.1752
 2306SOL     OW18553   3.872   0.401   2.189  0.5572  0.2266 -0.6000
 2306SOL    HW118554   3.953   0.368   2.149  0.2982  0.6196 -1.4385
 2306SOL    HW218555   3.832   0.321   2.223 -2.6103  2.2139  0.2950
 2307SOL     OW18556   2.332   3.915   5.753 -0.5816 -0.1591 -0.2842
 2307SOL    HW118557   2.257   3.856   5.754  0.8651 -1.9827 -0.1549
 2307SOL    HW218558   2.371   3.875   5.830  0.5816  1.1118 -0.2108
 2308SOL     OW18559   1.691   0.544   7.811 -0.1055  0.2335  0.4326
 2308SOL    HW118560   1.595   0.545   7.812 -0.1298  0.4644 -1.7461
 2308SOL    HW218561   1.703   0.607   7.881  0.4710  0.4961  0.0953
 2309SOL     OW18562   3.712   4.104   4.542 -0.2346  0.2422 -0.4884
 2309SOL    HW118563   3.765   4.184   4.544 -2.5750  1.7122  2.4919
 2309SOL    HW218564   3.788   4.055   4.511 -1.1423 -0.5346 -1.4405
 2310SOL     OW18565   2.597   0.807   6.316 -0.9237  0.0535 -0.2674
 2310SOL    HW118566   2.548   0.888   6.326 -0.7151  0.1615 -0.1226
 2310SOL    HW218567   2.546   0.760   6.382 -3.0199  0.9892 -1.2603
 2311SOL     OW18568   2.564   4.269   1.411 -0.1384 -0.2588  0.0566
 2311SOL    HW118569   2.619   4.258   1.488  1.6092 -0.1174 -1.1686
 2311SOL    HW218570   2.611   4.346   1.379  1.2212 -2.5393 -3.4128
 2312SOL     OW18571   0.062   2.522   9.662 -0.1684 -0.3337 -0.0335
 2312SOL    HW118572   4.719   2.541   9.615 -0.7682 -0.7518  0.8347
 2312SOL    HW218573   0.037   2.562   9.745  0.1341  0.0897 -0.1480
 2313SOL     OW18574   2.216   3.147   4.502  0.0552 -0.2714  0.1965
 2313SOL    HW118575   2.170   3.065   4.487 -0.1203 -0.4704  1.8804
 2313SOL    HW218576   2.302   3.115   4.528  0.7217  1.2061 -0.1917
 2314SOL     OW18577   4.027   3.279  15.175 -0.4224 -0.2475 -0.1608
 2314SOL    HW118578   3.938   3.266  15.142  0.5409  0.7512 -3.1521
 2314SOL    HW218579   4.079   3.226  15.116  0.3695  1.2619 -0.8243
 2315SOL     OW18580   1.323   0.755   2.039  0.4872 -0.2032  0.1530
 2315SOL    HW118581   1.260   0.746   2.111  1.6208  0.0967  1.1790
 2315SOL    HW218582   1.262   0.736   1.967 -0.1990  2.8744 -0.0727
 2316SOL     OW18583   2.954   2.196   4.587  0.2041  0.2586 -0.1055
 2316SOL    HW118584   3.036   2.236   4.615  0.2852 -0.2193  0.3379
 2316SOL    HW218585   2.901   2.258   4.536 -1.5779 -2.5977 -1.7327
 2317SOL     OW18586   1.636   4.238   8.746  0.1482  0.0237 -0.1752
 2317SOL    HW118587   1.641   4.331   8.724 -0.5888 -0.1361 -1.0319
 2317SOL    HW218588   1.685   4.238   8.828  1.5953 -1.0002 -1.0314
 2318SOL     OW18589   3.878   1.293   4.351  0.0600  0.0058  0.4079
 2318SOL    HW118590   3.914   1.381   4.340 -0.4398  0.2704  0.9128
 2318SOL    HW218591   3.795   1.295   4.304 -0.1478 -2.1132  0.6741
 2319SOL     OW18592   1.763   3.223  12.269 -0.1952  0.4308  0.2746
 2319SOL    HW118593   1.793   3.154  12.211 -1.3352  1.0240 -1.0135
 2319SOL    HW218594   1.846   3.265  12.292  1.5947 -1.3611 -2.9626
 2320SOL     OW18595   0.455   3.434   2.180  0.0643 -0.6052  0.4686
 2320SOL    HW118596   0.380   3.446   2.238  0.0707  0.0824  0.3350
 2320SOL    HW218597   0.509   3.407   2.255 -1.6862 -1.0059  1.5887
 2321SOL     OW18598   0.622   0.662   7.038  0.7277 -0.0383 -0.2183
 2321SOL    HW118599   0.536   0.661   6.995  0.7126  0.6450 -0.2072
 2321SOL    HW218600   0.680   0.712   6.980 -0.5587  0.0644 -1.4193
 2322SOL     OW18601   0.430   0.495   1.334 -0.2338  0.3931 -0.4253
 2322SOL    HW118602   0.417   0.573   1.387 -6.5402  0.1807 -1.6599
 2322SOL    HW218603   0.459   0.434   1.402 -0.4645  1.7951  0.9434
 2323SOL     OW18604   1.953   1.914   8.682  0.3752  0.2538  0.0202
 2323SOL    HW118605   2.025   1.968   8.649  2.1452 -0.6455  2.3951
 2323SOL    HW218606   1.887   1.982   8.694 -0.1718 -0.0320 -1.3724
 2324SOL     OW18607   3.900   2.992   5.697  0.2622  0.4590 -0.7332
 2324SOL    HW118608   3.868   2.993   5.788 -1.0284  0.8724 -1.1894
 2324SOL    HW218609   3.881   2.904   5.664  0.9107 -0.3328  0.9764
 2325SOL     OW18610   0.469   4.081   5.397 -0.1249 -0.3874 -0.5183
 2325SOL    HW118611   0.515   4.165   5.392  0.9326 -0.9488 -0.1867
 2325SOL    HW218612   0.433   4.076   5.309  4.1014 -2.0862 -2.1599
 2326SOL     OW18613   1.522   1.555   3.308  0.0624  0.1894  0.2511
 2326SOL    HW118614   1.616   1.547   3.323  0.2651 -0.0353 -1.1848
 2326SOL    HW218615   1.512   1.558   3.213  0.9831 -1.5079  0.1224
 2327SOL     OW18616   1.222   2.187   1.948  0.0796 -0.1310  0.6309
 2327SOL    HW118617   1.312   2.177   1.978 -0.0444 -0.3036  0.9463
 2327SOL    HW218618   1.204   2.278   1.974 -0.5994  0.2541 -1.2050
 2328SOL     OW18619   1.252   3.775   9.256 -0.7896  0.2378  0.1776
 2328SOL    HW118620   1.224   3.684   9.243  2.1099 -0.7886  1.2853
 2328SOL    HW218621   1.297   3.803   9.177 -1.6619  2.2593  0.3981
 2329SOL     OW18622   4.634   2.781  12.269  0.8742  0.3151  0.0222
 2329SOL    HW118623   4.726   2.786  12.244  1.0867  0.2423  0.7696
 2329SOL    HW218624   4.629   2.766  12.364 -3.7829  1.8746  0.0494
 2330SOL     OW18625   2.559   0.326   3.239  0.3871 -0.9952 -0.2054
 2330SOL    HW118626   2.534   0.266   3.170 -0.5861 -1.8846  0.9129
 2330SOL    HW218627   2.637   0.282   3.273  2.5927  1.3733 -2.2952
 2331SOL     OW18628   3.439   3.080   9.550  0.4958  0.2617  0.2577
 2331SOL    HW118629   3.415   3.118   9.635  2.8997  0.2032  0.9452
 2331SOL    HW218630   3.448   3.161   9.499  0.6298 -2.0273 -3.3127
 2332SOL     OW18631   3.783   0.815  12.864  0.2031  0.2406 -0.1806
 2332SOL    HW118632   3.688   0.798  12.865  0.1990  0.3124  0.3707
 2332SOL    HW218633   3.818   0.733  12.897  0.3996  1.8912  3.6500
 2333SOL     OW18634   3.332   2.430   6.324  0.0830 -0.4282  0.3634
 2333SOL    HW118635   3.289   2.495   6.379 -0.5386 -0.3002 -0.2762
 2333SOL    HW218636   3.419   2.466   6.341  0.1111 -1.0955  1.6508
 2334SOL     OW18637   3.407   0.232   9.613 -0.3173  0.0173 -0.1838
 2334SOL    HW118638   3.467   0.296   9.576 -0.7118  1.0390  0.9502
 2334SOL    HW218639   3.423   0.234   9.708  0.6567 -0.0220 -0.3421
 2335SOL     OW18640   3.596   1.914  17.364 -0.2594  0.3399 -0.1539
 2335SOL    HW118641   3.629   1.888  17.450  2.3883 -0.8506 -1.5038
 2335SOL    HW218642   3.524   1.852  17.354 -0.6010  0.3308  2.2809
 2336SOL     OW18643   0.827   0.565   2.567  0.3209 -0.3715  0.0888
 2336SOL    HW118644   0.810   0.517   2.486  0.6084  0.2286 -0.3260
 2336SOL    HW218645   0.802   0.500   2.633 -2.4088 -0.1801 -0.7815
 2337SOL     OW18646   0.128   1.900   4.171 -0.2242 -0.1001  0.5547
 2337SOL    HW118647   0.158   1.811   4.188 -0.4906 -0.0916  1.0781
 2337SOL    HW218648   0.169   1.944   4.245  1.2400 -2.1408  0.9397
 2338SOL     OW18649   3.860   3.423   3.310  0.0271  0.1820 -0.0315
 2338SOL    HW118650   3.827   3.475   3.384  2.1577  0.0175  1.0441
 2338SOL    HW218651   3.790   3.361   3.289 -0.0390  0.5760 -0.9743
 2339SOL     OW18652   1.974   4.536   8.841  0.8157  0.5943  0.1926
 2339SOL    HW118653   2.036   4.467   8.817  0.2280  1.2289 -3.0992
 2339SOL    HW218654   1.890   4.500   8.812  0.1247  0.7088  2.0235
 2340SOL     OW18655   4.456   2.701  17.312 -0.5069  0.0992  0.8892
 2340SOL    HW118656   4.373   2.674  17.272  0.8051 -0.2994 -1.6013
 2340SOL    HW218657   4.432   2.719  17.403 -0.7294  0.0503  0.8412
 2341SOL     OW18658   3.893   1.435  11.706 -0.0754 -0.7997  0.4245
 2341SOL    HW118659   3.898   1.340  11.717 -0.4815 -1.0004 -1.0918
 2341SOL    HW218660   3.914   1.451  11.614 -2.9709 -1.4524 -0.3495
 2342SOL     OW18661   2.985   1.419  15.630  0.8254 -0.3026  0.0964
 2342SOL    HW118662   2.929   1.346  15.605 -0.3196  0.4267  0.5472
 2342SOL    HW218663   2.910   1.468  15.663  0.3700 -1.0303  0.1433
 2343SOL     OW18664   0.594   0.967  11.574 -0.4862  0.2589 -0.0908
 2343SOL    HW118665   0.659   1.014  11.520  0.3134 -1.0100 -0.2406
 2343SOL    HW218666   0.529   1.036  11.560  0.0615  0.5866 -1.0565
 2344SOL     OW18667   0.149   2.857   2.611 -0.0206 -0.4649 -0.0323
 2344SOL    HW118668   0.137   2.947   2.578  1.6593 -0.7528 -1.4489
 2344SOL    HW218669   0.113   2.804   2.540 -0.1388 -0.1309 -0.2240
 2345SOL     OW18670   1.112   4.587   5.796 -1.1172  0.1944 -0.2771
 2345SOL    HW118671   1.050   4.563   5.866 -0.5937  1.8150  0.7449
 2345SOL    HW218672   1.102   4.508   5.743 -2.7550  0.5256 -0.4683
 2346SOL     OW18673   1.423   0.495   7.768  0.0946  0.0386  0.3448
 2346SOL    HW118674   1.366   0.421   7.745 -3.4971  2.9647 -0.3379
 2346SOL    HW218675   1.423   0.480   7.862 -1.5868 -1.2361  0.1440
 2347SOL     OW18676   3.765   4.682  17.085 -0.3870  0.1214 -0.4208
 2347SOL    HW118677   3.814   0.023  17.103  0.5262 -0.7905  1.1959
 2347SOL    HW218678   3.767   4.626  17.163 -0.0836  2.0430  0.9522
 2348SOL     OW18679   0.406   0.292   4.400  0.9848 -0.7052  0.6874
 2348SOL    HW118680   0.349   0.324   4.470  1.5964 -0.2556  0.9795
 2348SOL    HW218681   0.426   0.204   4.431 -1.4037 -1.5221 -0.0796
 2349SOL     OW18682   0.518   4.637   3.528  0.0257 -0.0349 -0.3366
 2349SOL    HW118683   0.534   4.627   3.622 -0.0943 -0.0172 -0.3149
 2349SOL    HW218684   0.602   4.672   3.497 -0.6895  0.1029 -2.1337
 2350SOL     OW18685   1.688   3.741  13.574 -0.7588 -0.4268 -0.2174
 2350SOL    HW118686   1.749   3.752  13.501  0.4419 -2.0099  0.5538
 2350SOL    HW218687   1.744   3.777  13.643 -2.1370  0.5849  0.3754
 2351SOL     OW18688   3.985   0.817   6.779  0.0005  0.5634  0.1325
 2351SOL    HW118689   3.920   0.883   6.805 -0.8564  0.4926 -1.8405
 2351SOL    HW218690   4.038   0.866   6.716  0.5673 -2.7008 -1.8944
 2352SOL     OW18691   3.462   4.513   3.750 -0.4356 -0.4503  0.3002
 2352SOL    HW118692   3.461   4.417   3.750 -0.9114 -0.4268 -3.3086
 2352SOL    HW218693   3.548   4.535   3.787 -1.6675  1.6767  1.8824
 2353SOL     OW18694   4.043   1.597  14.917 -0.2227  0.0327  0.0224
 2353SOL    HW118695   3.966   1.572  14.969  1.2075  0.8373  2.5379
 2353SOL    HW218696   4.014   1.582  14.827 -1.3695 -1.2799  0.6223
 2354SOL     OW18697   4.102   2.502  17.744  0.4507 -0.1411 -0.0367
 2354SOL    HW118698   4.155   2.488  17.666  2.6994  1.5310  1.1819
 2354SOL    HW218699   4.163   2.553   0.042  0.0895  2.0980 -1.8107
 2355SOL     OW18700   4.226   1.930  10.315 -0.1116  0.0590  0.1539
 2355SOL    HW118701   4.155   1.867  10.317  2.0617 -2.4969 -3.3081
 2355SOL    HW218702   4.187   2.018  10.320 -3.6034 -1.4302 -1.1759
 2356SOL     OW18703   2.882   1.174   3.760 -0.0513  0.1304 -0.0703
 2356SOL    HW118704   2.912   1.203   3.674 -0.0714  2.0248  0.5458
 2356SOL    HW218705   2.828   1.100   3.732 -0.8689  0.7970 -0.2385
 2357SOL     OW18706   2.574   1.576   5.072 -0.1119  0.4804 -0.4683
 2357SOL    HW118707   2.577   1.504   5.009  0.5538 -1.0895  1.3575
 2357SOL    HW218708   2.668   1.586   5.092  0.0531 -0.2441 -0.8952
 2358SOL     OW18709   2.795   3.494   8.401  0.6650 -0.3217 -0.4963
 2358SOL    HW118710   2.871   3.436   8.410 -1.1391 -2.5409  0.3722
 2358SOL    HW218711   2.752   3.459   8.323  0.1619 -1.5681  0.3318
 2359SOL     OW18712   0.279   1.976   5.733 -0.3038  0.6318 -0.6077
 2359SOL    HW118713   0.290   1.884   5.756 -2.8638  0.1049 -1.4475
 2359SOL    HW218714   0.185   1.973   5.718 -0.0383 -1.4132 -1.8818
 2360SOL     OW18715   3.268   2.976  14.555 -1.1694 -0.5562  0.0607
 2360SOL    HW118716   3.301   3.065  14.547 -0.0652 -0.8593  1.3481
 2360SOL    HW218717   3.309   2.946  14.636 -0.5676  1.1641  0.3979
 2361SOL     OW18718   2.165   3.392   0.455  0.1411  0.4276  0.1310
 2361SOL    HW118719   2.180   3.309   0.500  0.4308  1.0528  1.1928
 2361SOL    HW218720   2.253   3.410   0.424  0.6172 -1.5910  0.2977
 2362SOL     OW18721   2.447   3.101  12.870  0.3036 -0.4138  0.0946
 2362SOL    HW118722   2.403   3.037  12.814 -0.2437 -0.1592  0.2346
 2362SOL    HW218723   2.496   3.036  12.921 -2.7553 -1.3115  1.8408
 2363SOL     OW18724   0.716   0.499   4.593  0.0845  0.5905  0.3072
 2363SOL    HW118725   0.733   0.510   4.499 -0.9417 -0.9931 -0.0865
 2363SOL    HW218726   0.637   0.553   4.603 -0.3700 -0.4751  2.3130
 2364SOL     OW18727   1.115   3.327   3.112  0.0623  0.3180 -0.1209
 2364SOL    HW118728   1.030   3.287   3.094  1.6800 -2.4385 -1.6472
 2364SOL    HW218729   1.088   3.419   3.105  2.4342  1.0231 -0.1919
 2365SOL     OW18730   3.478   4.726   2.349 -0.4026  0.0967 -0.2176
 2365SOL    HW118731   3.565   4.688   2.339 -0.3012 -0.0985  1.3357
 2365SOL    HW218732   3.481   4.694   2.440  0.6972 -0.0252 -0.3011
 2366SOL     OW18733   3.962   2.146  15.599  0.0761 -0.1904 -0.6192
 2366SOL    HW118734   3.982   2.222  15.545  0.4783  0.6291  0.6642
 2366SOL    HW218735   3.971   2.180  15.689 -2.1075  0.8376 -0.7819
 2367SOL     OW18736   2.292   0.548   2.306  0.6614 -0.0904 -0.2303
 2367SOL    HW118737   2.239   0.469   2.300 -0.1577  0.3483  1.1849
 2367SOL    HW218738   2.252   0.599   2.235 -0.7603 -0.8629  0.0216
 2368SOL     OW18739   3.135   0.694   2.529 -0.3660  0.4272  0.0406
 2368SOL    HW118740   3.100   0.735   2.450 -1.3222 -0.4380  0.0213
 2368SOL    HW218741   3.131   0.770   2.588 -0.2266  1.1345 -0.8547
 2369SOL     OW18742   0.420   3.928  13.246 -0.3303 -0.0531 -0.1299
 2369SOL    HW118743   0.326   3.916  13.258 -0.0988 -3.3662 -1.4279
 2369SOL    HW218744   0.435   4.022  13.251 -1.0421 -0.0196  1.0898
 2370SOL     OW18745   4.187   2.611   6.693 -0.4722  0.6393 -0.0218
 2370SOL    HW118746   4.269   2.583   6.734 -1.1402 -0.9209  0.2574
 2370SOL    HW218747   4.227   2.654   6.617 -0.2472 -0.0337 -0.2848
 2371SOL     OW18748   1.378   0.602   0.535 -0.0530  0.2993 -0.2296
 2371SOL    HW118749   1.470   0.587   0.514  0.8578  3.9503  1.0863
 2371SOL    HW218750   1.355   0.669   0.470 -0.8453  0.1202 -0.1391
 2372SOL     OW18751   1.036   4.413  13.593 -0.3392 -0.2361 -0.1067
 2372SOL    HW118752   0.983   4.370  13.526  1.2088 -0.4825 -1.1580
 2372SOL    HW218753   1.104   4.455  13.541 -0.4593  1.1973  0.8846
 2373SOL     OW18754   0.208   4.478   6.577  0.0385 -0.0616 -0.5073
 2373SOL    HW118755   0.178   4.568   6.572  0.6031  0.2083  0.9418
 2373SOL    HW218756   0.190   4.450   6.667 -1.1366 -1.6086 -1.2204
 2374SOL     OW18757   1.230   1.022   9.683  0.6186 -0.7099  0.0653
 2374SOL    HW118758   1.198   0.945   9.730  0.7997  0.3317  1.9367
 2374SOL    HW218759   1.313   1.024   9.731 -0.3838  0.3162  1.7501
 2375SOL     OW18760   3.542   2.288  17.724  0.0884 -0.7724 -0.0937
 2375SOL    HW118761   3.517   2.325   0.055  0.2484  2.6185 -1.5272
 2375SOL    HW218762   3.478   2.218  17.709  0.2401 -0.7472 -0.8597
 2376SOL     OW18763   0.601   0.741  13.915 -0.1870 -0.2595  0.7241
 2376SOL    HW118764   0.646   0.675  13.967 -1.1251  0.8493  2.9425
 2376SOL    HW218765   0.514   0.702  13.925 -0.7857  0.2668 -2.5267
 2377SOL     OW18766   2.575   1.432   8.100  0.2683 -0.0360 -0.4124
 2377SOL    HW118767   2.629   1.417   8.178  0.3819  1.1329 -0.2767
 2377SOL    HW218768   2.608   1.516   8.070  3.1053 -1.0516 -0.1431
 2378SOL     OW18769   1.394   1.387   7.181 -0.1587  0.5362  0.0922
 2378SOL    HW118770   1.362   1.339   7.105 -1.2052  1.5889 -0.1281
 2378SOL    HW218771   1.320   1.445   7.196 -0.8974 -1.0420  2.5897
 2379SOL     OW18772   0.272   3.578  17.647 -0.0369  0.0664 -0.1542
 2379SOL    HW118773   0.311   3.552  17.730  0.3686  1.3800  0.0515
 2379SOL    HW218774   0.228   3.496  17.621  0.8096 -0.8059  1.2038
 2380SOL     OW18775   2.122   3.947   2.055  0.0383  0.0058 -0.1034
 2380SOL    HW118776   2.051   4.002   2.088  1.1554  0.8189  0.9844
 2380SOL    HW218777   2.194   4.005   2.081 -0.4018  0.0367  1.0601
 2381SOL     OW18778   1.528   1.645   7.646  0.5753 -0.6138  0.1382
 2381SOL    HW118779   1.450   1.632   7.701  1.2882 -1.9892  0.8225
 2381SOL    HW218780   1.549   1.737   7.662  2.0477 -0.8408 -0.4980
 2382SOL     OW18781   3.084   3.380   2.086 -0.1568 -0.7301 -0.4924
 2382SOL    HW118782   3.136   3.324   2.028  1.1231  1.1967 -1.2227
 2382SOL    HW218783   3.151   3.434   2.129 -0.8365 -0.2114 -0.0901
 2383SOL     OW18784   2.294   1.540   8.059  0.0408  0.0201  0.3361
 2383SOL    HW118785   2.382   1.541   8.098  0.3897  0.8856 -0.4512
 2383SOL    HW218786   2.261   1.452   8.078 -1.0314  0.2054 -0.6764
 2384SOL     OW18787   3.736   1.773   2.828 -0.1712  0.0533 -0.0106
 2384SOL    HW118788   3.652   1.811   2.856 -0.1190  2.1309 -2.7574
 2384SOL    HW218789   3.740   1.688   2.872 -1.4720  0.8287  1.6093
 2385SOL     OW18790   4.008   0.790   4.228 -0.6846 -0.2244 -0.2880
 2385SOL    HW118791   3.985   0.880   4.246  0.3426  0.1022 -0.5734
 2385SOL    HW218792   3.923   0.757   4.198 -0.7317  0.2443 -0.6594
 2386SOL     OW18793   0.693   3.057   3.657 -0.7421 -0.3847  0.0551
 2386SOL    HW118794   0.624   3.108   3.616  1.6853  1.3359 -1.8356
 2386SOL    HW218795   0.751   3.122   3.697 -0.5459 -0.1862 -0.5505
 2387SOL     OW18796   4.232   0.674   8.581 -0.1150 -0.2583  0.2654
 2387SOL    HW118797   4.274   0.654   8.497  1.0085 -0.8116  0.9568
 2387SOL    HW218798   4.313   0.705   8.621 -0.3485  2.5663 -1.4725
 2388SOL     OW18799   2.933   3.646   4.974 -0.8112 -0.5796  0.1838
 2388SOL    HW118800   2.937   3.630   4.880 -0.1782 -0.6987  0.2326
 2388SOL    HW218801   2.955   3.555   4.997 -2.9260 -1.0746  0.2221
 2389SOL     OW18802   3.779   1.087  13.628  0.3699 -0.2838 -0.0067
 2389SOL    HW118803   3.867   1.100  13.592  0.5791 -2.9568 -0.4509
 2389SOL    HW218804   3.792   1.046  13.713  0.5237  0.5121  0.3542
 2390SOL     OW18805   2.452   0.966   0.798 -0.0760 -0.4291  0.7623
 2390SOL    HW118806   2.415   0.887   0.759  2.7685 -0.3398 -2.1689
 2390SOL    HW218807   2.411   0.956   0.884  0.4991  0.4393  1.1369
 2391SOL     OW18808   3.434   1.509   4.568 -0.4644 -0.2051  0.1096
 2391SOL    HW118809   3.474   1.521   4.654 -0.6048  1.9822 -0.1305
 2391SOL    HW218810   3.478   1.574   4.513  0.0671  1.5482  2.6173
 2392SOL     OW18811   2.319   3.199   0.033  0.5110 -0.1385  0.0281
 2392SOL    HW118812   2.247   3.140   0.008  0.9283  0.0006 -1.4775
 2392SOL    HW218813   2.374   3.136   0.079  0.6126 -1.8183 -2.4038
 2393SOL     OW18814   1.811   2.986   5.435  0.0624  0.1879  0.4080
 2393SOL    HW118815   1.768   2.913   5.481  0.0018  0.1775  0.3337
 2393SOL    HW218816   1.784   2.961   5.347 -1.8487 -0.9338  1.2949
 2394SOL     OW18817   3.042   4.019   4.331 -0.0374 -0.2500 -0.1624
 2394SOL    HW118818   2.976   4.013   4.400 -0.9150 -0.2587 -1.0076
 2394SOL    HW218819   3.116   4.047   4.384  0.2877  1.1318 -1.3328
 2395SOL     OW18820   4.263   2.620   0.170  0.8057 -0.0117  0.9724
 2395SOL    HW118821   4.236   2.698   0.218 -1.0173  0.7834 -1.3200
 2395SOL    HW218822   4.316   2.570   0.232 -0.0577 -1.0966  0.8546
 2396SOL     OW18823   0.784   1.368  14.211  0.3501  0.4110  0.2314
 2396SOL    HW118824   0.710   1.370  14.272  0.0419  4.7505 -0.2785
 2396SOL    HW218825   0.755   1.404  14.128 -0.1418 -0.9678 -0.1803
 2397SOL     OW18826   4.176   3.749   7.450  0.5441 -0.7738 -0.1749
 2397SOL    HW118827   4.187   3.675   7.509  0.9653 -0.7855 -0.2664
 2397SOL    HW218828   4.171   3.706   7.364  1.4956 -1.2965  0.0293
 2398SOL     OW18829   1.346   1.070   2.712 -0.0015  0.2571  0.1944
 2398SOL    HW118830   1.301   1.154   2.701  0.5791  0.4497 -0.7785
 2398SOL    HW218831   1.365   1.072   2.806 -2.1096 -0.2368  0.6199
 2399SOL     OW18832   0.639   4.480   2.035  0.1908  0.6277  0.2848
 2399SOL    HW118833   0.617   4.571   2.018  1.0386  0.5516 -1.2428
 2399SOL    HW218834   0.586   4.463   2.113 -1.9934  2.5737 -0.8124
 2400SOL     OW18835   2.613   2.112   2.301 -0.0603 -0.0275  0.0960
 2400SOL    HW118836   2.548   2.094   2.368 -1.8720  0.4548 -1.5527
 2400SOL    HW218837   2.620   2.024   2.264 -0.8230 -0.5427  1.1925
 2401SOL     OW18838   0.049   2.980   8.358 -0.1302 -0.2545  0.3972
 2401SOL    HW118839   0.019   2.926   8.430  1.7127  0.0457  1.4051
 2401SOL    HW218840   0.048   2.914   8.289  1.0417  1.4654 -1.3044
 2402SOL     OW18841   2.009   4.444   2.477  0.6410  0.3233 -0.6771
 2402SOL    HW118842   2.035   4.404   2.393  0.9834 -0.1415 -0.3536
 2402SOL    HW218843   2.089   4.488   2.505  1.1830 -1.9122  1.3035
 2403SOL     OW18844   0.371   1.783  11.228  0.4373  0.2326 -0.4621
 2403SOL    HW118845   0.343   1.874  11.220  0.5562  0.2786 -0.3447
 2403SOL    HW218846   0.287   1.745  11.254  0.5553 -0.7951 -1.5468
 2404SOL     OW18847   2.185   4.444   3.821  0.1600 -0.1532  0.0545
 2404SOL    HW118848   2.203   4.395   3.741 -1.3456 -2.0538  0.9003
 2404SOL    HW218849   2.181   4.375   3.887 -2.5966 -0.5010 -0.4791
 2405SOL     OW18850   1.499   2.692   1.933  0.4208  0.1420  0.4468
 2405SOL    HW118851   1.584   2.697   1.889 -0.0566 -2.0492 -0.6967
 2405SOL    HW218852   1.476   2.784   1.916  0.5464  0.1523  0.3294
 2406SOL     OW18853   2.793   4.663   5.570  0.4134 -0.0971 -0.3357
 2406SOL    HW118854   2.779   4.591   5.631  0.4726 -0.8110 -1.1650
 2406SOL    HW218855   2.732   4.625   5.507 -0.9027  0.7499  0.4208
 2407SOL     OW18856   2.545   2.500   3.992  0.2689  0.2152  0.1850
 2407SOL    HW118857   2.465   2.494   3.939 -0.8397  2.7357  1.5608
 2407SOL    HW218858   2.513   2.557   4.062  1.8154  0.8210  0.3914
 2408SOL     OW18859   3.811   0.473  14.700 -0.0853  0.1782 -0.3360
 2408SOL    HW118860   3.795   0.452  14.608  1.4672  0.4383 -0.6721
 2408SOL    HW218861   3.894   0.427  14.714 -0.4310 -0.3414 -0.0047
 2409SOL     OW18862   2.540   0.243   6.872  0.7101 -0.4816 -0.2285
 2409SOL    HW118863   2.562   0.318   6.816 -0.9120 -0.3498 -0.6821
 2409SOL    HW218864   2.457   0.213   6.837 -0.9233  0.4360  2.8728
 2410SOL     OW18865   0.601   0.714   1.411 -0.4617  0.4919 -0.2558
 2410SOL    HW118866   0.671   0.739   1.351 -0.8463  0.3020 -0.7832
 2410SOL    HW218867   0.649   0.652   1.465 -0.5592  0.3512 -0.3305
 2411SOL     OW18868   0.370   1.546  15.949 -0.0829  0.2616  0.0315
 2411SOL    HW118869   0.325   1.462  15.941  0.4264 -0.0758  0.7111
 2411SOL    HW218870   0.427   1.535  15.872 -0.3561 -2.1339  0.1746
 2412SOL     OW18871   2.521   1.560   5.833  0.1840 -0.0324  0.0081
 2412SOL    HW118872   2.478   1.529   5.754  0.5091  1.0858 -0.5935
 2412SOL    HW218873   2.522   1.652   5.807 -0.1890  0.9808  3.5395
 2413SOL     OW18874   1.661   3.215   8.487 -0.4942  0.1794  0.6910
 2413SOL    HW118875   1.740   3.169   8.518 -0.1890  0.2744  0.0552
 2413SOL    HW218876   1.595   3.146   8.498  0.3911 -0.5604  1.3590
 2414SOL     OW18877   3.942   4.497   4.779  0.0625  0.5793  0.1234
 2414SOL    HW118878   3.986   4.492   4.864  2.0412  3.1325 -0.7464
 2414SOL    HW218879   3.993   4.564   4.734 -1.0759 -0.1058 -2.1783
 2415SOL     OW18880   4.425   2.019  15.485  0.2083  0.4061 -0.6240
 2415SOL    HW118881   4.448   2.054  15.399  1.5249 -2.2293 -1.3421
 2415SOL    HW218882   4.445   1.925  15.476  0.8642  0.5645 -0.8153
 2416SOL     OW18883   1.921   0.143  13.186 -0.5347  0.3736  0.1011
 2416SOL    HW118884   1.909   0.237  13.204 -0.1086  0.2915  0.8065
 2416SOL    HW218885   1.878   0.124  13.103  1.1978  1.3341 -1.0117
 2417SOL     OW18886   4.547   0.163   5.533 -0.6102 -0.0666  0.0887
 2417SOL    HW118887   4.642   0.172   5.535 -0.6613  0.6915 -1.3838
 2417SOL    HW218888   4.547   0.068   5.548 -0.1129 -0.2184 -0.8718
 2418SOL     OW18889   2.981   0.941   3.384 -0.7283  0.4744  0.1545
 2418SOL    HW118890   2.930   1.015   3.415  1.2817  2.1069 -0.4304
 2418SOL    HW218891   2.925   0.863   3.386 -0.1388  0.0428 -0.0671
 2419SOL     OW18892   0.978   4.044  12.999 -0.3063 -0.1149 -0.0308
 2419SOL    HW118893   1.073   4.055  13.002 -0.3802  0.3484  0.8462
 2419SOL    HW218894   0.959   4.138  13.011  2.3314  0.3070  0.9110
 2420SOL     OW18895   1.383   1.218   3.538 -0.3457 -0.5344 -0.2771
 2420SOL    HW118896   1.360   1.290   3.478 -0.5040  0.0453  0.4856
 2420SOL    HW218897   1.478   1.233   3.543 -0.5915  0.4188  1.3903
 2421SOL     OW18898   0.407   3.826   6.252 -0.6656 -0.1954  0.1590
 2421SOL    HW118899   0.502   3.839   6.260 -0.7326  0.0734  0.5432
 2421SOL    HW218900   0.369   3.868   6.329  0.3908  2.4603 -0.7468
 2422SOL     OW18901   0.612   0.924   1.560  0.0558  0.1017  0.0492
 2422SOL    HW118902   0.610   0.834   1.527  1.9429  0.9018 -2.1879
 2422SOL    HW218903   0.532   0.968   1.530  0.3325  0.3166 -0.3663
 2423SOL     OW18904   4.290   4.616   7.461  0.3437 -0.4214  0.9326
 2423SOL    HW118905   4.344   4.666   7.522  0.2913  1.2334 -0.3747
 2423SOL    HW218906   4.329   4.637   7.377  1.6500  1.6100  2.0631
 2424SOL     OW18907   1.604   2.372   4.500  0.5218 -0.0175  0.0884
 2424SOL    HW118908   1.635   2.318   4.573 -2.4869 -2.6928 -0.6521
 2424SOL    HW218909   1.510   2.361   4.492  0.3645  2.4336 -1.4209
 2425SOL     OW18910   2.317   3.455   5.012  0.0175 -0.1726  0.3610
 2425SOL    HW118911   2.271   3.441   5.095  2.0770 -1.7572  1.2076
 2425SOL    HW218912   2.399   3.488   5.047 -0.3387  1.4136 -0.2709
 2426SOL     OW18913   3.524   3.543   0.104  0.0766  0.3044  0.3590
 2426SOL    HW118914   3.499   3.624   0.148 -0.2884  0.5207 -0.2448
 2426SOL    HW218915   3.457   3.482   0.134 -0.1463  0.8060  0.8788
 2427SOL     OW18916   1.372   2.687  13.349  0.3858 -0.0839 -0.0458
 2427SOL    HW118917   1.385   2.610  13.294 -2.6058 -1.8375  1.6905
 2427SOL    HW218918   1.289   2.715  13.309  0.6520  2.6107  1.2831
 2428SOL     OW18919   2.392   2.486   3.662  0.2382  0.4123  0.3763
 2428SOL    HW118920   2.332   2.541   3.610  1.8270 -0.7205 -2.6844
 2428SOL    HW218921   2.335   2.472   3.737  0.2729 -0.8571  0.1660
 2429SOL     OW18922   3.250   3.072   0.102  0.1130  0.1705 -0.5972
 2429SOL    HW118923   3.165   3.087   0.061 -0.8620  0.2952  1.4688
 2429SOL    HW218924   3.219   3.059   0.192  0.3310 -2.1645 -0.8742
 2430SOL     OW18925   2.259   3.241   3.926 -0.3390  0.0602  0.3375
 2430SOL    HW118926   2.300   3.221   4.010 -0.6707  0.2610  0.5451
 2430SOL    HW218927   2.204   3.311   3.959 -0.1790  0.8351 -1.0476
 2431SOL     OW18928   0.382   1.423   3.850  0.7222 -0.0781  0.3083
 2431SOL    HW118929   0.458   1.426   3.792  0.8685  0.7460  0.5433
 2431SOL    HW218930   0.376   1.519   3.859  0.9879  0.3456 -3.6241
 2432SOL     OW18931   2.338   2.345   9.363 -0.8119  0.2456 -0.3968
 2432SOL    HW118932   2.256   2.369   9.321  0.5747  0.5385 -2.9435
 2432SOL    HW218933   2.315   2.299   9.444 -1.7356 -1.6050 -1.7088
 2433SOL     OW18934   2.949   2.911   9.151  0.6788  0.1780  0.5778
 2433SOL    HW118935   2.989   2.824   9.149 -0.4790 -0.3268 -0.6271
 2433SOL    HW218936   3.011   2.966   9.103 -0.0275  0.0494 -0.4879
 2434SOL     OW18937   1.108   4.419   0.324 -0.0901 -0.0806  0.5227
 2434SOL    HW118938   1.180   4.370   0.283 -1.2484  0.1000 -1.7153
 2434SOL    HW218939   1.088   4.363   0.400 -0.2068  0.5301  0.9422
 2435SOL     OW18940   0.243   3.965  10.526  0.4003  0.3949 -0.2900
 2435SOL    HW118941   0.230   3.982  10.620  0.1343 -0.4817 -0.1691
 2435SOL    HW218942   0.158   3.988  10.488 -0.6954 -0.8863  1.3314
 2436SOL     OW18943   2.727   1.533  12.897  0.0130 -0.3967 -0.2987
 2436SOL    HW118944   2.814   1.526  12.935  0.0087  1.2522  0.0316
 2436SOL    HW218945   2.731   1.480  12.817 -0.3891  0.7171 -1.0587
 2437SOL     OW18946   4.382   2.757   7.009  0.0259  0.2804  1.0369
 2437SOL    HW118947   4.379   2.696   6.935 -0.9177  1.5817  0.0015
 2437SOL    HW218948   4.389   2.691   7.078 -0.1847 -0.0119  0.7817
 2438SOL     OW18949   3.466   1.420  10.734 -0.3907  0.6305 -0.0286
 2438SOL    HW118950   3.494   1.337  10.694  1.6787  0.6622  1.3651
 2438SOL    HW218951   3.371   1.410  10.730 -0.3200  0.1281 -0.5694
 2439SOL     OW18952   4.486   2.669   3.543  0.2038 -1.1601 -0.3069
 2439SOL    HW118953   4.456   2.649   3.632  0.7484  1.8675  0.5310
 2439SOL    HW218954   4.441   2.594   3.504 -0.7460 -1.6061  1.6178
 2440SOL     OW18955   3.160   4.457   2.704  0.4681 -0.6762  0.0044
 2440SOL    HW118956   3.139   4.487   2.616 -2.4738  1.0247  1.2815
 2440SOL    HW218957   3.142   4.531   2.762  2.1409 -0.8293  0.7107
 2441SOL     OW18958   2.650   4.731   7.771  0.3428 -0.3178  0.2482
 2441SOL    HW118959   2.608   0.005   7.856 -0.9070 -2.2876 -0.0643
 2441SOL    HW218960   2.669   4.638   7.783  0.2664 -0.2964  0.5210
 2442SOL     OW18961   0.012   2.927   1.427 -0.0753 -0.0272 -0.1127
 2442SOL    HW118962   0.019   2.908   1.334  0.9999 -1.5400  0.2629
 2442SOL    HW218963   0.036   3.019   1.435 -0.3800  0.0736 -0.3835
 2443SOL     OW18964   0.074   1.493  11.384  0.0267 -0.2450 -0.0663
 2443SOL    HW118965   0.002   1.473  11.324 -1.8664  0.1799  2.0919
 2443SOL    HW218966   0.035   1.450  11.460  2.3257 -0.7806  0.7981
 2444SOL     OW18967   4.650   1.869   3.464  0.3334 -0.1208  0.4376
 2444SOL    HW118968   4.610   1.904   3.544  0.4048  0.3165  0.2820
 2444SOL    HW218969   4.738   1.907   3.470  0.0924  0.7168 -1.4823
 2445SOL     OW18970   0.468   1.753   2.890 -0.2171 -0.3132  0.5101
 2445SOL    HW118971   0.502   1.663   2.899 -0.0284 -0.3320 -0.3703
 2445SOL    HW218972   0.468   1.778   2.982 -4.1940 -0.9743  0.6751
 2446SOL     OW18973   3.804   2.926  12.720  0.3864 -0.3318  0.1273
 2446SOL    HW118974   3.757   3.009  12.719 -0.2241 -0.6686  0.7798
 2446SOL    HW218975   3.867   2.944  12.790  0.4707 -1.7167  0.4088
 2447SOL     OW18976   0.719   4.481  10.192 -0.3287 -0.7011 -0.4948
 2447SOL    HW118977   0.723   4.552  10.256  2.5810  0.2075 -1.7201
 2447SOL    HW218978   0.782   4.501  10.123  0.8991  0.4287  0.9728
 2448SOL     OW18979   2.615   0.303   7.490  0.3283  0.0008  0.5812
 2448SOL    HW118980   2.687   0.308   7.427  0.8366  0.3830  1.1795
 2448SOL    HW218981   2.572   0.221   7.467  0.1096  0.2250  0.1978
 2449SOL     OW18982   0.025   1.697  16.990  0.1996  0.3978  0.5710
 2449SOL    HW118983   0.050   1.788  17.005  0.7539  0.6363 -1.6913
 2449SOL    HW218984   4.719   1.689  17.074 -0.4795  0.4939  0.2172
 2450SOL     OW18985   1.122   3.588  15.950  0.5682  0.0073  0.5786
 2450SOL    HW118986   1.057   3.554  15.887  0.7115  1.4203 -0.3272
 2450SOL    HW218987   1.062   3.638  16.004 -0.7869  1.4769 -2.2552
 2451SOL     OW18988   1.792   0.832  13.849 -0.3918  0.5727  0.2958
 2451SOL    HW118989   1.767   0.922  13.828  0.6026  1.0303  1.0617
 2451SOL    HW218990   1.728   0.771  13.811  0.0517 -0.6024  1.4410
 2452SOL     OW18991   1.349   2.867   6.959  0.2095 -0.3597  0.6097
 2452SOL    HW118992   1.430   2.881   6.909 -0.4433  1.0268 -0.0451
 2452SOL    HW218993   1.360   2.927   7.033 -1.0193  1.1438 -0.4305
 2453SOL     OW18994   4.629   1.452   0.932 -0.1728  0.2955  0.1733
 2453SOL    HW118995   4.567   1.436   1.003 -1.3793  0.2693 -0.8838
 2453SOL    HW218996   4.629   1.547   0.925 -2.3673  0.1425 -1.9151
 2454SOL     OW18997   2.518   4.515   4.945 -0.0296 -0.0347  0.2520
 2454SOL    HW118998   2.497   4.523   5.038  2.4332  0.2222  0.7894
 2454SOL    HW218999   2.608   4.547   4.951 -0.5694  1.3262  1.0982
 2455SOL     OW19000   1.278   3.434   1.690  0.2919  0.2194 -0.2499
 2455SOL    HW119001   1.317   3.506   1.740  0.2135 -0.2880  0.5417
 2455SOL    HW219002   1.244   3.379   1.761  0.7702 -0.8735 -0.8757
 2456SOL     OW19003   3.055   0.104   8.353 -0.1608 -0.6200 -0.0043
 2456SOL    HW119004   3.116   0.039   8.388 -0.8900 -0.3738  1.7031
 2456SOL    HW219005   2.997   0.134   8.422  4.6065  0.6928  3.4068
 2457SOL     OW19006   0.139   0.537  11.180  0.1323 -0.4413  0.6435
 2457SOL    HW119007   0.206   0.509  11.118  0.6507  3.7849 -0.7317
 2457SOL    HW219008   0.190   0.604  11.225  2.3342 -2.3260  0.9408
 2458SOL     OW19009   3.399   0.493   7.630  0.8321  0.4736 -0.2914
 2458SOL    HW119010   3.429   0.439   7.703 -0.1914 -0.1233 -0.3092
 2458SOL    HW219011   3.414   0.580   7.668  0.4198  1.1746 -1.7154
 2459SOL     OW19012   4.281   0.911  13.503 -0.7318  0.2495 -0.6331
 2459SOL    HW119013   4.286   0.818  13.482 -1.5147 -0.0590  0.5559
 2459SOL    HW219014   4.297   0.939  13.413  2.8240 -0.8471 -0.3236
 2460SOL     OW19015   1.587   0.056   2.361  0.1524  0.6990  0.0041
 2460SOL    HW119016   1.599   0.024   2.450 -2.0677  0.6168  0.2815
 2460SOL    HW219017   1.551   4.718   2.316  1.5833  1.0030 -1.6935
 2461SOL     OW19018   4.567   2.254   8.631  0.1757 -0.2314 -0.1413
 2461SOL    HW119019   4.613   2.189   8.578  0.2702  0.7625 -1.2855
 2461SOL    HW219020   4.643   2.283   8.681 -1.8503 -1.8833  3.8673
 2462SOL     OW19021   2.836   3.623  12.347 -0.0877  0.5451  0.2172
 2462SOL    HW119022   2.853   3.699  12.403  0.1445  0.0295  0.8555
 2462SOL    HW219023   2.766   3.578  12.394  0.4263  1.2203  1.6548
 2463SOL     OW19024   4.094   4.583   9.782  0.1412  0.3006  0.3291
 2463SOL    HW119025   4.045   4.586   9.864  1.2456  0.5267  0.9716
 2463SOL    HW219026   4.037   4.515   9.745  0.0960 -0.5776  1.9976
 2464SOL     OW19027   3.481   1.468  15.849  0.0269 -0.9934  0.2000
 2464SOL    HW119028   3.399   1.441  15.807 -2.0674 -1.3813  4.6276
 2464SOL    HW219029   3.512   1.523  15.777  1.6463 -0.8115  1.0552
 2465SOL     OW19030   3.958   3.409   5.853 -0.0717  0.2801 -0.1078
 2465SOL    HW119031   3.941   3.353   5.777 -1.5756  0.2486  0.2593
 2465SOL    HW219032   4.044   3.442   5.829  1.5612 -3.1135  1.0692
 2466SOL     OW19033   2.519   1.111   1.639  0.3687  0.1880  0.3964
 2466SOL    HW119034   2.473   1.072   1.565 -0.3623 -1.0750  1.5119
 2466SOL    HW219035   2.569   1.177   1.592 -0.1218 -0.5035 -1.0954
 2467SOL     OW19036   0.328   0.274   8.049  0.7493 -0.0164 -0.0049
 2467SOL    HW119037   0.295   0.211   7.985 -3.7523  2.5806 -0.2752
 2467SOL    HW219038   0.335   0.223   8.130 -0.5412  2.3251  1.5653
 2468SOL     OW19039   3.105   2.842   6.162  0.1408 -0.0726 -0.6451
 2468SOL    HW119040   3.134   2.777   6.226  0.1305  0.0485 -0.5200
 2468SOL    HW219041   3.158   2.808   6.090 -3.6289  0.5994 -3.7727
 2469SOL     OW19042   4.440   1.088   6.520 -0.2872 -0.0573  0.1965
 2469SOL    HW119043   4.502   1.023   6.554 -0.2481  0.6195  1.4178
 2469SOL    HW219044   4.505   1.154   6.494  0.1891 -0.8654 -0.6876
 2470SOL     OW19045   2.074   2.726   1.771 -0.3509 -0.3449  0.1540
 2470SOL    HW119046   2.120   2.803   1.739  0.4594 -0.6871  0.4834
 2470SOL    HW219047   1.985   2.750   1.746 -0.8110 -1.8076  0.3458
 2471SOL     OW19048   4.059   1.561  11.970  0.2354 -0.6824  0.1485
 2471SOL    HW119049   4.062   1.484  11.913 -1.1528  0.1184 -0.9933
 2471SOL    HW219050   3.974   1.554  12.014  0.7474  1.2971  1.4487
 2472SOL     OW19051   0.050   4.068   3.104 -0.0131  0.7523  0.1539
 2472SOL    HW119052   0.129   4.121   3.115 -0.6149  1.7159 -0.1588
 2472SOL    HW219053   0.054   4.013   3.183  1.8462  1.9215  0.8862
 2473SOL     OW19054   1.675   2.038  16.328  0.2619  0.8214  0.8824
 2473SOL    HW119055   1.648   1.984  16.254 -0.4892  1.4409  0.7027
 2473SOL    HW219056   1.694   2.119  16.280 -0.1084 -0.2634 -1.0491
 2474SOL     OW19057   2.268   0.157   3.708  0.0738  0.3874  0.0614
 2474SOL    HW119058   2.204   0.088   3.723 -0.0887  0.8804  1.6461
 2474SOL    HW219059   2.338   0.112   3.756 -1.0172 -0.9896  0.3452
 2475SOL     OW19060   1.420   0.811  12.295  0.2579 -0.0702 -0.0003
 2475SOL    HW119061   1.514   0.818  12.311 -0.2558  0.7106  2.6858
 2475SOL    HW219062   1.379   0.857  12.368 -1.0941  0.2428 -0.9491
 2476SOL     OW19063   4.413   0.511  12.840  0.2619  0.2579 -0.0223
 2476SOL    HW119064   4.333   0.562  12.850  1.9095  2.5643  1.3356
 2476SOL    HW219065   4.373   0.423  12.843 -1.8751  1.3101  2.6036
 2477SOL     OW19066   1.051   2.161   8.090  0.0512 -0.3993  0.3058
 2477SOL    HW119067   1.068   2.111   8.010  2.8377 -1.5890  1.6808
 2477SOL    HW219068   1.138   2.181   8.124 -0.2806 -0.5034  1.2037
 2478SOL     OW19069   2.405   0.859   2.475  0.5305 -0.8868 -0.0534
 2478SOL    HW119070   2.446   0.843   2.389  1.0277  0.4926 -0.0798
 2478SOL    HW219071   2.333   0.921   2.464  1.0410 -0.5826 -1.6645
 2479SOL     OW19072   3.102   1.106   0.459 -0.4237 -0.0204 -0.2002
 2479SOL    HW119073   3.032   1.169   0.441  0.9935  1.2324 -1.3074
 2479SOL    HW219074   3.163   1.155   0.515  0.2599  0.2627 -1.1876
 2480SOL     OW19075   1.422   4.394   5.515  0.2368 -0.1225 -0.4643
 2480SOL    HW119076   1.460   4.474   5.479 -0.3437  1.0683  1.5206
 2480SOL    HW219077   1.468   4.323   5.470 -0.2765 -1.2620  0.7910
 2481SOL     OW19078   4.340   1.736  15.655 -0.7355 -0.0605  0.1643
 2481SOL    HW119079   4.414   1.743  15.716 -0.5858 -2.4943  0.2621
 2481SOL    HW219080   4.265   1.750  15.713 -1.6588  0.5668 -1.2055
 2482SOL     OW19081   4.641   1.137  12.530  0.3718 -0.4744  0.0428
 2482SOL    HW119082   4.629   1.116  12.437 -1.0900 -1.8330  0.5376
 2482SOL    HW219083   4.680   1.224  12.538  2.7380 -1.4110 -1.2922
 2483SOL     OW19084   4.655   4.401  13.565  0.2447  0.0054  0.4119
 2483SOL    HW119085   4.730   4.412  13.623  0.0294 -2.0274  1.0844
 2483SOL    HW219086   4.649   4.305  13.558  2.9964 -0.0335 -1.3803
 2484SOL     OW19087   2.529   4.519   5.840  0.1912  0.3218  0.7139
 2484SOL    HW119088   2.617   4.518   5.804  0.5923  1.7885  1.6432
 2484SOL    HW219089   2.476   4.486   5.768 -2.9152  0.7517  2.7612
 2485SOL     OW19090   4.544   2.018   7.051 -0.2578  0.1413 -0.0705
 2485SOL    HW119091   4.544   1.922   7.059 -1.9075  0.0771 -0.9303
 2485SOL    HW219092   4.541   2.025   6.955 -3.0570  0.1285  0.0213
 2486SOL     OW19093   3.872   3.793   4.653  0.1343 -0.8254 -0.0115
 2486SOL    HW119094   3.894   3.881   4.624  0.4587 -1.6835 -2.4407
 2486SOL    HW219095   3.949   3.775   4.706  0.5204  0.5385 -0.1110
 2487SOL     OW19096   1.101   2.980   5.974 -0.4017  0.5677  0.1048
 2487SOL    HW119097   1.012   2.988   5.939 -1.1207  0.0607  1.8184
 2487SOL    HW219098   1.113   2.885   5.969  1.7527  0.8482  0.0972
 2488SOL     OW19099   4.219   1.468  16.180 -0.3740  0.4270 -0.7168
 2488SOL    HW119100   4.232   1.525  16.256  1.9894 -1.8768  0.6171
 2488SOL    HW219101   4.130   1.495  16.159 -0.5204  1.0169  0.6486
 2489SOL     OW19102   4.136   4.387  15.733  0.0623  0.0730 -0.1224
 2489SOL    HW119103   4.102   4.392  15.823 -0.7424  4.0082 -0.6322
 2489SOL    HW219104   4.229   4.396  15.753  0.1391 -0.2531 -0.3391
 2490SOL     OW19105   3.086   3.738  16.766 -0.5384 -0.7303  0.1498
 2490SOL    HW119106   3.022   3.802  16.795  0.1061  0.1181 -0.3033
 2490SOL    HW219107   3.046   3.716  16.682 -0.1066 -0.9387 -0.0031
 2491SOL     OW19108   0.451   2.903   6.959  0.3033  0.1537 -0.2235
 2491SOL    HW119109   0.456   2.826   7.016  0.2497  1.4413  1.5062
 2491SOL    HW219110   0.356   2.905   6.954  0.2927  0.1422  0.0038
 2492SOL     OW19111   1.310   2.785   6.680  0.4069  0.1796 -0.9636
 2492SOL    HW119112   1.230   2.733   6.676  0.4151 -0.2162  4.2277
 2492SOL    HW219113   1.273   2.873   6.676 -0.4540 -0.2094 -1.4048
 2493SOL     OW19114   4.563   0.997   4.127  0.1468  0.2565 -0.1850
 2493SOL    HW119115   4.573   1.006   4.033  0.2365 -0.0167 -0.1997
 2493SOL    HW219116   4.470   0.976   4.129  0.1258  0.1705 -2.4643
 2494SOL     OW19117   0.555   3.700   9.817  0.2438  0.2752  0.2708
 2494SOL    HW119118   0.618   3.701   9.745 -2.7730 -0.0033 -2.4094
 2494SOL    HW219119   0.475   3.717   9.767 -0.5356 -1.4576  0.9278
 2495SOL     OW19120   0.677   2.388   6.798 -0.0249 -0.2716 -0.0453
 2495SOL    HW119121   0.770   2.390   6.820 -0.4377  0.1323  1.6510
 2495SOL    HW219122   0.674   2.459   6.735  1.7913  0.8386  1.1511
 2496SOL     OW19123   2.925   2.377   8.380 -0.3621 -0.0109  0.2043
 2496SOL    HW119124   2.873   2.456   8.371  2.7219  2.0006  0.0514
 2496SOL    HW219125   2.907   2.339   8.466 -0.4409 -0.9377 -0.2141
 2497SOL     OW19126   4.459   2.911  12.946  0.4719  0.4550  0.2742
 2497SOL    HW119127   4.386   2.947  12.996  0.3312 -1.2370  1.2999
 2497SOL    HW219128   4.476   2.833  13.000 -0.4657  0.2513  0.2708
 2498SOL     OW19129   0.507   1.372   9.017 -0.3138 -0.0492 -0.7705
 2498SOL    HW119130   0.542   1.460   9.025 -1.7211  0.4819 -0.4890
 2498SOL    HW219131   0.526   1.338   9.104 -0.2960  1.7065 -0.0878
 2499SOL     OW19132   2.596   1.316   5.456 -0.2873  0.0195 -0.3993
 2499SOL    HW119133   2.615   1.384   5.521  1.7273 -0.5691 -0.3766
 2499SOL    HW219134   2.518   1.352   5.414 -1.1948  0.1464  1.3535
 2500SOL     OW19135   2.523   1.520   3.244 -0.1401 -0.2004  0.3985
 2500SOL    HW119136   2.567   1.472   3.173 -2.7925 -2.3436  0.1913
 2500SOL    HW219137   2.438   1.475   3.248 -1.1195  1.4591 -1.6529
 2501SOL     OW19138   4.113   3.109   8.746 -1.0454  0.4696  0.3860
 2501SOL    HW119139   4.114   3.022   8.707  2.2696  1.0146 -0.7883
 2501SOL    HW219140   4.126   3.076   8.835  1.2746 -2.6582 -1.1092
 2502SOL     OW19141   2.779   0.626  16.918 -0.3699  0.1913 -0.2521
 2502SOL    HW119142   2.698   0.611  16.967 -0.4325  0.2864 -0.3257
 2502SOL    HW219143   2.769   0.550  16.860 -1.1400  0.5749 -0.6250
 2503SOL     OW19144   2.794   0.439   6.937  0.4176  0.2775 -0.6234
 2503SOL    HW119145   2.885   0.425   6.964 -0.6092 -2.0904  1.6570
 2503SOL    HW219146   2.744   0.420   7.016  0.7467 -0.0349 -0.4912
 2504SOL     OW19147   2.417   3.640   7.355  0.0247  0.2279  0.0302
 2504SOL    HW119148   2.474   3.716   7.342 -2.3004  1.9477 -0.0413
 2504SOL    HW219149   2.418   3.598   7.269 -2.0846  0.6076 -0.1705
 2505SOL     OW19150   1.501   0.158  11.820  0.1051  0.5346 -0.7018
 2505SOL    HW119151   1.452   0.231  11.858  1.6077  1.2950 -0.2331
 2505SOL    HW219152   1.585   0.171  11.863  0.0120 -0.2919 -0.2808
 2506SOL     OW19153   3.786   1.058   3.184 -0.2822 -0.2829 -0.2655
 2506SOL    HW119154   3.710   1.024   3.231 -0.5454 -0.2946 -0.6986
 2506SOL    HW219155   3.808   0.989   3.120 -0.6798  1.1947 -1.9871
 2507SOL     OW19156   4.541   2.673   5.503 -0.0213  0.3036 -0.1789
 2507SOL    HW119157   4.626   2.632   5.488  0.4305  1.0818  0.2333
 2507SOL    HW219158   4.493   2.658   5.422  1.0257  1.8302 -1.0875
 2508SOL     OW19159   3.209   0.239  12.113 -0.3780 -0.1324 -0.6233
 2508SOL    HW119160   3.175   0.302  12.177  1.3890 -0.1289  0.3111
 2508SOL    HW219161   3.299   0.264  12.095 -0.6249  2.1043  1.1347
 2509SOL     OW19162   3.558   1.004   4.111 -0.2686  0.4167  0.4734
 2509SOL    HW119163   3.505   1.058   4.051 -0.4810 -0.4110 -0.0760
 2509SOL    HW219164   3.567   0.918   4.070  2.6793  0.4386  1.1003
 2510SOL     OW19165   0.977   0.217  10.067 -0.0594  0.0168  0.5706
 2510SOL    HW119166   0.920   0.198   9.993 -0.4924 -2.5852  1.5734
 2510SOL    HW219167   1.037   0.142  10.066  0.7068  0.6264  0.1199
 2511SOL     OW19168   3.356   1.107  11.131 -0.2401 -0.1634  0.1219
 2511SOL    HW119169   3.318   1.173  11.072  0.4359  0.3303  0.2320
 2511SOL    HW219170   3.399   1.046  11.071  0.8871  2.0671 -1.3666
 2512SOL     OW19171   0.875   4.407   4.478  0.0553 -0.5666  0.8387
 2512SOL    HW119172   0.885   4.384   4.386 -0.0615  1.5698  0.2748
 2512SOL    HW219173   0.957   4.455   4.492 -0.8943  0.6089  2.3602
 2513SOL     OW19174   1.428   0.107   4.983 -0.2658  0.3273  0.2867
 2513SOL    HW119175   1.372   0.162   4.929  0.7565  1.2155  0.1317
 2513SOL    HW219176   1.452   0.041   4.918 -0.3873 -0.5161  1.1026
 2514SOL     OW19177   0.683   3.261  11.396  0.2925 -0.0586 -0.1189
 2514SOL    HW119178   0.758   3.252  11.456  2.4083 -2.0395 -3.0357
 2514SOL    HW219179   0.640   3.176  11.395  0.0078  0.0419  2.4644
 2515SOL     OW19180   3.696   2.937   8.253 -0.3551 -0.2508 -0.0625
 2515SOL    HW119181   3.712   2.851   8.215  1.2515 -0.8332  1.9459
 2515SOL    HW219182   3.696   2.918   8.347 -0.7401  0.0082 -0.0077
 2516SOL     OW19183   1.590   3.889   5.721  0.5969  0.5501  0.0118
 2516SOL    HW119184   1.556   3.959   5.666 -1.7259  0.1559  0.9466
 2516SOL    HW219185   1.656   3.932   5.775  0.8907 -0.2561  0.2993
 2517SOL     OW19186   1.744   2.929   6.164 -0.0030  0.1869  0.6560
 2517SOL    HW119187   1.665   2.875   6.172 -0.7767  1.2409  0.1308
 2517SOL    HW219188   1.805   2.866   6.201  0.7386  0.6148  0.1646
 2518SOL     OW19189   3.561   4.388  13.491 -0.2734  0.0305  0.2316
 2518SOL    HW119190   3.617   4.332  13.438 -0.1957 -2.1788  2.6470
 2518SOL    HW219191   3.587   4.363  13.580 -0.1934  0.1165  0.2328
 2519SOL     OW19192   1.543   0.967  10.816  0.3074 -0.1959  0.6643
 2519SOL    HW119193   1.460   1.001  10.849  0.1738  0.1992 -0.0748
 2519SOL    HW219194   1.572   0.936  10.902 -0.7087  0.4905  1.2508
 2520SOL     OW19195   1.193   1.675   8.776 -0.0403 -0.0958  0.3451
 2520SOL    HW119196   1.194   1.686   8.681  0.5437 -2.1862  0.1026
 2520SOL    HW219197   1.098   1.665   8.789 -0.4600  0.9480 -2.0679
 2521SOL     OW19198   4.128   1.510  16.690 -0.1418  0.1955  0.3202
 2521SOL    HW119199   4.070   1.453  16.640 -2.3573  2.2462  0.5472
 2521SOL    HW219200   4.200   1.450  16.708 -2.2560 -2.3233  0.5136
 2522SOL     OW19201   2.197   1.800   5.237 -0.3518 -0.5947 -0.3959
 2522SOL    HW119202   2.284   1.814   5.200 -1.1395  0.8939 -1.7064
 2522SOL    HW219203   2.140   1.774   5.164 -0.4053  0.6189 -0.7817
 2523SOL     OW19204   1.556   3.509  15.844  0.0602 -0.1453  0.0281
 2523SOL    HW119205   1.488   3.449  15.873 -0.0008 -0.0225  0.1368
 2523SOL    HW219206   1.566   3.493  15.750  0.7020 -1.8747  0.3988
 2524SOL     OW19207   2.906   3.336   5.434  0.5384 -0.1960 -0.4211
 2524SOL    HW119208   2.968   3.409   5.425 -0.2850  0.7065  1.2243
 2524SOL    HW219209   2.822   3.374   5.406  0.7923  1.2485  0.7342
 2525SOL     OW19210   3.873   1.305  12.947 -0.3320  0.1278  0.6584
 2525SOL    HW119211   3.962   1.338  12.958 -0.9004  0.9931  2.5607
 2525SOL    HW219212   3.821   1.385  12.946  0.7884  0.8547  0.3040
 2526SOL     OW19213   3.439   1.734   1.935  0.0155 -0.0225 -0.3995
 2526SOL    HW119214   3.419   1.673   1.864  0.4347 -0.1907 -0.3731
 2526SOL    HW219215   3.532   1.717   1.949 -0.2381 -0.6924  0.5015
 2527SOL     OW19216   2.664   0.454  16.006 -0.0071 -0.0005  0.0995
 2527SOL    HW119217   2.678   0.508  15.928  0.1731  0.9773  0.8117
 2527SOL    HW219218   2.683   0.369  15.966  0.4389  0.7845 -1.3772
 2528SOL     OW19219   4.233   0.094   5.740 -0.7785  0.6439  0.1942
 2528SOL    HW119220   4.328   0.104   5.748  0.0175 -3.5493 -3.9728
 2528SOL    HW219221   4.218   0.000   5.751 -0.7788  0.2529 -3.2029
 2529SOL     OW19222   1.949   4.504   6.922  0.3035  0.2406 -0.6642
 2529SOL    HW119223   1.926   4.507   7.015 -2.3830  0.5810 -1.3688
 2529SOL    HW219224   1.918   4.589   6.890  1.2426  1.5130  1.8388
 2530SOL     OW19225   1.468   3.344   8.152  0.2793 -0.5305 -0.1769
 2530SOL    HW119226   1.384   3.382   8.175  0.3397  0.5953 -1.7816
 2530SOL    HW219227   1.534   3.398   8.195 -3.2996  1.8369  2.3291
 2531SOL     OW19228   3.780   1.617   1.058  0.0250  0.6705 -0.4226
 2531SOL    HW119229   3.753   1.526   1.057  1.0920  0.3561 -0.2147
 2531SOL    HW219230   3.864   1.604   1.012  0.8580  0.2430  1.2191
 2532SOL     OW19231   4.458   0.494   7.720  0.6396  0.2035 -0.0045
 2532SOL    HW119232   4.365   0.507   7.739  0.4956 -0.7024 -0.0688
 2532SOL    HW219233   4.479   0.581   7.685 -1.0568  0.1969 -1.0248
 2533SOL     OW19234   3.819   2.765   6.583  0.0987  0.0640  0.9694
 2533SOL    HW119235   3.787   2.842   6.535  0.8319  0.1968  0.6947
 2533SOL    HW219236   3.761   2.698   6.546  0.3081  0.1086  0.5559
 2534SOL     OW19237   2.359   0.192   4.113 -0.0222  0.0527  0.8335
 2534SOL    HW119238   2.451   0.170   4.096 -0.1147 -0.2645  0.7373
 2534SOL    HW219239   2.333   0.102   4.131  0.8364 -0.2219  0.6788
 2535SOL     OW19240   4.256   3.080   3.898  0.0364  0.0845  0.4070
 2535SOL    HW119241   4.216   3.037   3.973 -2.2760 -0.4151 -1.1176
 2535SOL    HW219242   4.212   3.033   3.827  1.3144 -0.0179 -0.3192
 2536SOL     OW19243   3.068   4.122   6.903  0.2293 -0.1142  0.1729
 2536SOL    HW119244   3.129   4.049   6.916  0.5790  0.4187  1.5835
 2536SOL    HW219245   3.126   4.187   6.863 -0.0976  0.7633  1.1347
 2537SOL     OW19246   2.801   3.733  16.899  0.2932 -0.0645  0.1501
 2537SOL    HW119247   2.861   3.780  16.956 -1.0829  1.8484  0.0156
 2537SOL    HW219248   2.767   3.808  16.850  1.7207  0.5606  0.1154
 2538SOL     OW19249   4.685   4.492   8.371 -0.7238  0.2199 -0.0347
 2538SOL    HW119250   0.030   4.539   8.364  0.4640 -2.0375 -0.9736
 2538SOL    HW219251   4.626   4.556   8.331 -0.4028  1.4674  1.4700
 2539SOL     OW19252   1.944   0.380  10.275 -0.1640  0.3632  0.2237
 2539SOL    HW119253   1.992   0.463  10.265 -0.6142  0.5524 -0.3294
 2539SOL    HW219254   2.022   0.327  10.257 -0.8202 -0.7537  0.6971
 2540SOL     OW19255   0.098   1.261  11.606 -0.2165 -0.1816  0.1407
 2540SOL    HW119256   0.162   1.206  11.561  2.0705  1.4239  1.4368
 2540SOL    HW219257   0.023   1.242  11.548 -0.8783  0.2079  0.8729
 2541SOL     OW19258   4.191   0.312   8.477  0.8334  0.4836 -0.7971
 2541SOL    HW119259   4.216   0.287   8.566  0.9202 -2.5896 -1.6801
 2541SOL    HW219260   4.106   0.355   8.483  0.5725 -0.2979  0.8800
 2542SOL     OW19261   3.488   3.349   7.620 -0.3501  0.0083 -0.5775
 2542SOL    HW119262   3.558   3.383   7.565 -0.3767  1.2715  0.1802
 2542SOL    HW219263   3.444   3.430   7.645  0.7619  0.5631 -0.4136
 2543SOL     OW19264   3.840   0.621   4.828  0.1489 -0.0666  0.0531
 2543SOL    HW119265   3.864   0.584   4.912 -1.2606 -0.0756  0.4481
 2543SOL    HW219266   3.806   0.541   4.786 -2.4558  1.4387 -0.7153
 2544SOL     OW19267   1.394   4.212   9.657  0.5845 -0.0753  0.2958
 2544SOL    HW119268   1.452   4.157   9.711  0.3048 -1.4776 -0.8460
 2544SOL    HW219269   1.442   4.227   9.575 -1.3496  0.7766 -0.6690
 2545SOL     OW19270   2.901   0.196  16.084  0.5250  0.0350 -0.1417
 2545SOL    HW119271   2.933   0.281  16.113  0.3748  0.0364  0.0194
 2545SOL    HW219272   2.830   0.219  16.023  0.0770  0.4043  0.5196
 2546SOL     OW19273   3.995   0.186   5.703 -0.3130 -0.1867  0.3307
 2546SOL    HW119274   4.084   0.154   5.688  0.2837  1.4518  0.4694
 2546SOL    HW219275   4.010   0.219   5.792  0.7245 -0.4924  0.2710
 2547SOL     OW19276   0.595   2.598   2.614  0.1144 -0.6170 -0.3787
 2547SOL    HW119277   0.525   2.662   2.627  0.4704  0.0074 -1.5290
 2547SOL    HW219278   0.665   2.641   2.663 -0.1977  1.5800 -1.8552
 2548SOL     OW19279   1.181   1.620   5.190  0.8996  0.1171  0.1055
 2548SOL    HW119280   1.191   1.710   5.161  2.3897 -0.0881  0.0016
 2548SOL    HW219281   1.192   1.632   5.284 -2.8655  0.3464  0.5022
 2549SOL     OW19282   1.512   4.688   4.798 -0.3623 -0.4622  0.0029
 2549SOL    HW119283   1.560   4.605   4.800 -1.2213 -0.9754 -0.7943
 2549SOL    HW219284   1.585   0.004   4.770 -1.5716  0.9037 -0.4336
 2550SOL     OW19285   1.902   0.893   2.841  0.1735  0.4298  0.0716
 2550SOL    HW119286   1.966   0.946   2.794  1.6800 -2.4922 -1.1377
 2550SOL    HW219287   1.909   0.936   2.927  1.3599 -0.8784  0.6369
 2551SOL     OW19288   1.202   4.620   6.243 -0.6260 -0.4055 -0.1887
 2551SOL    HW119289   1.210   4.663   6.158  0.7787  0.6316  0.4613
 2551SOL    HW219290   1.292   4.589   6.257 -0.5884 -0.0463  0.3838
 2552SOL     OW19291   4.141   3.714  17.660 -0.3616  0.4381 -0.0372
 2552SOL    HW119292   4.067   3.693  17.604 -0.6156  0.6044  0.2396
 2552SOL    HW219293   4.217   3.687  17.608 -1.0664 -0.1337 -0.7636
 2553SOL     OW19294   2.069   3.812   8.229  0.7383 -0.1561  0.6187
 2553SOL    HW119295   2.008   3.810   8.155  2.3728 -0.7763 -0.6954
 2553SOL    HW219296   2.060   3.718   8.249 -0.0597 -0.2436 -0.1599
 2554SOL     OW19297   1.708   4.448   6.082 -0.3513 -0.1307 -0.1689
 2554SOL    HW119298   1.746   4.414   6.162 -1.4453  0.8950  0.7846
 2554SOL    HW219299   1.778   4.439   6.016 -0.1846 -0.4334  0.0522
 2555SOL     OW19300   1.768   2.811   2.711  0.3642 -0.3245  0.1053
 2555SOL    HW119301   1.732   2.900   2.708 -0.5371 -0.6215  2.5798
 2555SOL    HW219302   1.714   2.776   2.782  1.6190 -1.0365  0.7017
 2556SOL     OW19303   2.887   3.036   4.581  0.6339 -0.1332 -0.3449
 2556SOL    HW119304   2.927   3.110   4.536 -0.2523 -0.4337 -1.6306
 2556SOL    HW219305   2.948   2.972   4.544  0.1917 -1.0900  0.5660
 2557SOL     OW19306   2.789   0.980   6.946  0.2887 -0.0705  0.4192
 2557SOL    HW119307   2.847   0.912   6.912  0.7411  1.4115 -1.8218
 2557SOL    HW219308   2.819   1.050   6.887  0.2044 -0.1196  0.3178
 2558SOL     OW19309   1.815   3.964  14.296  0.8676 -0.0191 -0.4566
 2558SOL    HW119310   1.857   4.049  14.291  0.6810  0.1910  1.7040
 2558SOL    HW219311   1.734   3.977  14.346  4.4567  0.1213  5.2806
 2559SOL     OW19312   2.867   1.128  12.178  0.5089  0.7381  0.2489
 2559SOL    HW119313   2.780   1.146  12.142  0.7116  1.3163  0.0419
 2559SOL    HW219314   2.895   1.044  12.141  1.8567  1.4828 -0.4111
 2560SOL     OW19315   3.661   3.751   5.340 -0.0589  0.2049  0.3339
 2560SOL    HW119316   3.667   3.733   5.246 -1.7117  1.7619 -0.0600
 2560SOL    HW219317   3.715   3.677   5.367 -0.6565  0.0587  1.1102
 2561SOL     OW19318   1.732   0.379   9.243  0.2989 -0.1323 -0.0137
 2561SOL    HW119319   1.746   0.419   9.156  0.2736 -1.6432 -0.7092
 2561SOL    HW219320   1.650   0.419   9.271 -0.3378 -2.1418  0.9348
 2562SOL     OW19321   1.326   1.961  16.237 -0.8447 -0.0080  0.3070
 2562SOL    HW119322   1.405   1.915  16.207 -0.5819  0.9545 -0.4796
 2562SOL    HW219323   1.331   1.926  16.326  2.4023 -0.4123 -0.0232
 2563SOL     OW19324   0.639   0.982   8.655 -0.3849  0.1984 -0.3194
 2563SOL    HW119325   0.635   1.058   8.713 -1.9903  0.7774 -1.2129
 2563SOL    HW219326   0.625   0.908   8.714 -1.2161  0.5925 -0.0256
 2564SOL     OW19327   2.967   2.529   0.421 -0.1911 -0.3380  0.3747
 2564SOL    HW119328   2.881   2.538   0.381  0.4648  3.0680 -0.3163
 2564SOL    HW219329   2.950   2.518   0.515  1.2628  1.4837  0.8705
 2565SOL     OW19330   2.939   0.177  13.400  0.2236  0.3744  0.4881
 2565SOL    HW119331   3.015   0.216  13.357  0.2468 -0.4113 -0.1789
 2565SOL    HW219332   2.885   0.166  13.322  0.9726 -1.0866  0.1809
 2566SOL     OW19333   0.975   0.118  17.059 -0.3517  0.5542  0.2427
 2566SOL    HW119334   0.936   0.115  16.972  0.0277 -0.8075  0.1197
 2566SOL    HW219335   1.011   0.029  17.065 -1.3609  0.1038 -0.4459
 2567SOL     OW19336   4.298   1.726   7.560  0.4143  0.8526 -0.1072
 2567SOL    HW119337   4.289   1.819   7.580  0.4504  0.7942  0.1791
 2567SOL    HW219338   4.292   1.731   7.465 -2.2218  0.2466  0.0228
 2568SOL     OW19339   3.025   1.393   4.908 -0.0730 -0.1010  0.2051
 2568SOL    HW119340   3.073   1.337   4.969  0.7088 -0.3903 -0.6852
 2568SOL    HW219341   2.947   1.337   4.907  0.3141 -0.6495  0.3993
 2569SOL     OW19342   4.058   2.112   2.705  0.5483 -0.3892  0.0186
 2569SOL    HW119343   4.122   2.056   2.747 -1.5725 -1.0172  2.4536
 2569SOL    HW219344   3.981   2.092   2.760  0.6133  1.3925  0.7810
 2570SOL     OW19345   2.177   1.491  15.331 -0.1599  0.6436 -0.6824
 2570SOL    HW119346   2.110   1.521  15.392 -1.0296 -0.4990 -1.0698
 2570SOL    HW219347   2.251   1.542  15.364 -0.7024  0.6537  0.5308
 2571SOL     OW19348   1.255   0.186   2.690 -0.5536  0.2069  0.0452
 2571SOL    HW119349   1.253   0.263   2.747  2.1265  0.9475 -0.8683
 2571SOL    HW219350   1.309   0.124   2.740 -0.8587  0.8081  1.1321
 2572SOL     OW19351   0.817   1.560  12.963  1.0826 -0.2048  0.3199
 2572SOL    HW119352   0.754   1.583  12.895  1.0499  2.4769  1.2379
 2572SOL    HW219353   0.752   1.539  13.030  1.5069 -1.5703  0.3098
 2573SOL     OW19354   4.088   3.676   8.349 -0.2895  0.3389 -0.2053
 2573SOL    HW119355   4.118   3.757   8.390 -0.2751 -0.5088  1.4522
 2573SOL    HW219356   4.004   3.701   8.310  0.1599 -1.9882 -2.7326
 2574SOL     OW19357   0.023   0.551   5.857  0.5485 -0.5270 -0.0233
 2574SOL    HW119358   0.082   0.603   5.801  1.3806 -0.8420  0.5667
 2574SOL    HW219359   4.716   0.496   5.794 -0.0801  1.9690 -1.7640
 2575SOL     OW19360   4.471   1.039   9.055 -0.2184  0.0495 -0.6536
 2575SOL    HW119361   4.387   1.032   9.010 -0.4846 -0.3562 -0.0966
 2575SOL    HW219362   4.444   1.055   9.146 -3.5023  2.2556 -2.0079
 2576SOL     OW19363   2.049   2.458  17.476  0.6247  0.9745  0.5872
 2576SOL    HW119364   1.976   2.475  17.416  1.9554  0.2411 -1.2528
 2576SOL    HW219365   2.110   2.407  17.422  0.8764  2.4893 -0.5529
 2577SOL     OW19366   2.505   2.478   2.915 -0.0907  0.0551  0.1294
 2577SOL    HW119367   2.474   2.559   2.954  3.0041  0.5212  1.6490
 2577SOL    HW219368   2.600   2.480   2.922 -0.0752 -2.1307  0.6214
 2578SOL     OW19369   0.898   1.808   1.913 -0.4057  0.3565 -0.4972
 2578SOL    HW119370   0.823   1.816   1.971  1.3383  1.1886  1.6365
 2578SOL    HW219371   0.941   1.892   1.926 -0.1970 -0.4137  3.8295
 2579SOL     OW19372   0.160   4.403   7.077 -0.2487  0.2930 -0.6895
 2579SOL    HW119373   0.137   4.397   6.985  0.5482 -1.4753 -0.7691
 2579SOL    HW219374   0.235   4.463   7.071 -0.7548  0.8392 -1.4979
 2580SOL     OW19375   2.555   1.886   6.411  0.1828  0.0629 -0.0215
 2580SOL    HW119376   2.548   1.901   6.505 -1.0323  2.4067 -0.4904
 2580SOL    HW219377   2.642   1.921   6.394  0.5875 -0.6857  0.4899
 2581SOL     OW19378   2.061   3.607  16.890  0.0001 -0.1719 -0.4296
 2581SOL    HW119379   2.117   3.672  16.932  2.0188 -1.2773 -1.4575
 2581SOL    HW219380   2.092   3.603  16.800  0.1495 -0.3624 -0.3691
 2582SOL     OW19381   0.929   0.122   1.894 -0.3476 -0.3083  0.9610
 2582SOL    HW119382   0.895   0.207   1.923  0.6854  0.0079  1.2566
 2582SOL    HW219383   0.972   0.087   1.973  0.6419 -0.3349  0.4068
 2583SOL     OW19384   4.321   0.205   2.648 -0.3942 -0.0615 -0.1677
 2583SOL    HW119385   4.318   0.162   2.733  1.0117 -0.0078 -0.0959
 2583SOL    HW219386   4.303   0.134   2.585 -1.1226 -1.8858  2.0920
 2584SOL     OW19387   2.509   3.130   4.620  0.0577  0.1999 -0.1581
 2584SOL    HW119388   2.544   3.046   4.592  1.3215  0.4041  0.7903
 2584SOL    HW219389   2.549   3.136   4.707 -0.6625  1.6463  0.0656
 2585SOL     OW19390   0.422   1.652  12.819  0.1567  0.0481 -0.2556
 2585SOL    HW119391   0.406   1.561  12.794  1.0887  0.2837 -1.7527
 2585SOL    HW219392   0.514   1.652  12.795  0.8296  1.6757  2.3471
 2586SOL     OW19393   3.371   2.576  10.190  0.0511 -0.1015  0.6798
 2586SOL    HW119394   3.450   2.574  10.245  0.0136 -1.0327  0.7086
 2586SOL    HW219395   3.341   2.488  10.213 -1.2714  0.4815  1.1813
 2587SOL     OW19396   2.409   0.141   1.375 -0.0742  0.1228  0.4935
 2587SOL    HW119397   2.444   0.075   1.434  0.3826  1.9474  2.2442
 2587SOL    HW219398   2.346   0.187   1.430  0.4889  0.1919  1.0825
 2588SOL     OW19399   1.890   4.197   7.028  0.0396  0.4265  0.2773
 2588SOL    HW119400   1.824   4.244   6.977  0.4758 -0.1826 -0.8289
 2588SOL    HW219401   1.967   4.221   6.977  0.1616  1.5393  0.9817
 2589SOL     OW19402   2.393   0.154   5.728  0.0880 -0.2284  0.4533
 2589SOL    HW119403   2.462   0.179   5.667  1.7559  0.3711  2.5624
 2589SOL    HW219404   2.369   0.233   5.776  1.5811  0.5941 -0.1853
 2590SOL     OW19405   4.614   1.465   8.513  0.0698 -0.1783  0.1054
 2590SOL    HW119406   4.521   1.480   8.527  0.2096 -1.1161  1.9754
 2590SOL    HW219407   4.644   1.543   8.559 -0.2951 -0.6757  1.1725
 2591SOL     OW19408   0.169   4.551   3.860  0.8158 -0.3756 -0.3497
 2591SOL    HW119409   0.206   4.580   3.777 -1.4198 -1.7299 -1.8355
 2591SOL    HW219410   0.211   4.608   3.925  1.2150 -0.2320 -0.7304
 2592SOL     OW19411   2.993   1.077  15.926 -0.3190  0.2692 -0.0751
 2592SOL    HW119412   2.992   1.076  15.830  0.3350 -0.5968 -0.0789
 2592SOL    HW219413   3.035   0.993  15.948 -1.0724 -0.5869 -1.8551
 2593SOL     OW19414   2.093   3.738   5.757  0.3022 -0.3034 -0.0056
 2593SOL    HW119415   2.053   3.733   5.843 -0.9634 -1.3721 -0.6709
 2593SOL    HW219416   2.041   3.812   5.724 -0.6712 -0.9749  0.0411
 2594SOL     OW19417   2.598   3.264   3.454  0.6500 -0.2402  0.3861
 2594SOL    HW119418   2.545   3.299   3.525 -0.2146  0.3328 -0.5423
 2594SOL    HW219419   2.538   3.225   3.390  0.7999  0.0791  0.0501
 2595SOL     OW19420   2.293   4.436   0.163  0.2143  0.1262 -0.5382
 2595SOL    HW119421   2.313   4.342   0.164  3.1336  0.7356 -1.8123
 2595SOL    HW219422   2.362   4.478   0.112  1.6467 -2.3359 -0.6242
 2596SOL     OW19423   3.818   2.525   5.777 -0.3684  0.5951 -0.3815
 2596SOL    HW119424   3.882   2.464   5.814 -1.1489 -0.4690 -0.8075
 2596SOL    HW219425   3.746   2.522   5.841 -0.1393 -2.3003 -0.2898
 2597SOL     OW19426   4.706   3.466   5.960  0.3926 -0.2424 -0.0402
 2597SOL    HW119427   4.621   3.494   5.994 -0.0292 -1.5005 -0.0536
 2597SOL    HW219428   0.031   3.510   6.016  1.3867  1.1881 -2.3207
 2598SOL     OW19429   1.412   3.019   3.247  0.1592  0.2568  0.2586
 2598SOL    HW119430   1.318   2.998   3.250  0.2135 -0.1031 -0.7108
 2598SOL    HW219431   1.412   3.101   3.199  0.8823  1.4613  2.3140
 2599SOL     OW19432   4.296   2.805   9.258 -0.0537 -0.2388 -0.4374
 2599SOL    HW119433   4.249   2.788   9.177  1.3937  0.6439 -1.4581
 2599SOL    HW219434   4.385   2.818   9.225  0.0028 -0.8189 -0.5052
 2600SOL     OW19435   3.495   1.620   7.923  0.0381 -0.0956  0.0419
 2600SOL    HW119436   3.416   1.571   7.945 -0.5130  0.4228 -0.7466
 2600SOL    HW219437   3.460   1.695   7.875 -0.0309 -2.5748 -3.8188
 2601SOL     OW19438   2.893   0.727   4.439 -0.1890 -0.4441 -0.2885
 2601SOL    HW119439   2.965   0.760   4.493 -0.1190 -0.3370 -0.4481
 2601SOL    HW219440   2.854   0.803   4.396 -1.7658  0.0183  1.9880
 2602SOL     OW19441   4.395   0.435   4.937  0.2645 -0.1426  0.4166
 2602SOL    HW119442   4.440   0.393   5.010 -0.8831  0.4720  1.4792
 2602SOL    HW219443   4.446   0.397   4.865 -0.5215  0.1428 -0.2959
 2603SOL     OW19444   2.144   1.552   4.433  0.4582  0.4513 -0.0044
 2603SOL    HW119445   2.198   1.492   4.381  1.2999  0.4537  0.8665
 2603SOL    HW219446   2.117   1.488   4.498 -0.0809  0.4313 -0.2464
 2604SOL     OW19447   3.433   2.852   4.372 -0.4468  0.2631  0.7788
 2604SOL    HW119448   3.520   2.841   4.411  0.0920 -1.5148 -0.9537
 2604SOL    HW219449   3.393   2.925   4.420 -1.7128 -0.3999  0.7305
 2605SOL     OW19450   0.344   4.378   4.231  0.0404  0.1614 -0.5196
 2605SOL    HW119451   0.338   4.435   4.155  0.7579  1.3116  0.2902
 2605SOL    HW219452   0.427   4.331   4.222 -0.4323 -0.8235  0.2097
 2606SOL     OW19453   1.078   2.462   5.234  0.0973 -0.4204  0.6657
 2606SOL    HW119454   1.169   2.436   5.218  0.1720  0.9988 -1.1968
 2606SOL    HW219455   1.086   2.538   5.175 -1.6379 -0.4989  0.3236
 2607SOL     OW19456   2.070   2.909   7.183  0.4587 -0.2001  0.1545
 2607SOL    HW119457   2.024   2.987   7.215 -1.0053 -0.9502 -0.0898
 2607SOL    HW219458   2.151   2.908   7.235 -0.7636  0.1257  2.0854
 2608SOL     OW19459   0.416   1.503  14.841 -0.1614 -0.0900  0.6511
 2608SOL    HW119460   0.422   1.470  14.931  0.4825 -0.3834  0.4970
 2608SOL    HW219461   0.407   1.598  14.855 -3.0863 -0.0739 -1.3316
 2609SOL     OW19462   1.437   1.192  11.468  0.2959  0.0017  0.2462
 2609SOL    HW119463   1.428   1.205  11.562 -2.6887 -1.7990  0.2060
 2609SOL    HW219464   1.530   1.171  11.464 -0.3407 -2.7879  0.5077
 2610SOL     OW19465   3.299   2.233   6.115  0.0427  0.1109 -0.6008
 2610SOL    HW119466   3.343   2.302   6.165 -2.1040  1.8213 -1.0798
 2610SOL    HW219467   3.365   2.164   6.109 -0.7519 -0.6437 -0.6431
 2611SOL     OW19468   3.777   4.645   1.889 -0.1201  0.1026 -0.0142
 2611SOL    HW119469   3.870   4.628   1.872  0.1011  0.4707  0.8376
 2611SOL    HW219470   3.749   4.590   1.963 -0.7768  0.8144  0.2676
 2612SOL     OW19471   3.825   3.673  15.914 -0.6143  0.3850 -0.5345
 2612SOL    HW119472   3.829   3.752  15.968 -1.1435  0.4960 -0.6596
 2612SOL    HW219473   3.817   3.602  15.978 -1.7027  1.3093  0.3343
 2613SOL     OW19474   4.038   0.015   6.269  0.3124 -0.4005  0.2100
 2613SOL    HW119475   4.124   4.732   6.305 -0.0041 -2.5227 -0.3670
 2613SOL    HW219476   4.033   0.104   6.303  0.9779 -0.9208  1.6471
 2614SOL     OW19477   4.212   3.413  12.584 -0.2829  0.2307 -0.2244
 2614SOL    HW119478   4.290   3.372  12.622  0.3650  0.8315 -0.9087
 2614SOL    HW219479   4.178   3.474  12.649 -2.0610 -1.0752  0.0791
 2615SOL     OW19480   2.171   2.361   2.109 -0.2626  0.2457 -0.3040
 2615SOL    HW119481   2.150   2.448   2.076 -3.8033 -0.4354  0.1778
 2615SOL    HW219482   2.202   2.390   2.195 -0.1600 -1.0288  0.0924
 2616SOL     OW19483   0.174   2.799   9.160 -0.0030  0.2613  0.1787
 2616SOL    HW119484   0.141   2.823   9.247  1.1523 -0.2923  0.7550
 2616SOL    HW219485   0.223   2.723   9.189  2.3337  2.2518  1.4936
 2617SOL     OW19486   1.106   4.322   7.465 -0.1688 -0.3452  0.8450
 2617SOL    HW119487   1.042   4.339   7.534 -0.7853 -0.8268  0.3939
 2617SOL    HW219488   1.132   4.409   7.435  0.3206 -0.9976 -0.6121
 2618SOL     OW19489   1.398   0.964  13.770 -0.5117 -0.5094  0.2768
 2618SOL    HW119490   1.396   0.928  13.681  2.2193 -0.4189  0.1929
 2618SOL    HW219491   1.436   0.895  13.825 -1.5337 -2.3600 -1.3099
 2619SOL     OW19492   2.809   4.485   5.768  0.1161 -0.3731  0.1792
 2619SOL    HW119493   2.831   4.454   5.855  1.1125 -2.0971 -0.6894
 2619SOL    HW219494   2.886   4.542   5.771  0.3564 -0.5925 -1.8220
 2620SOL     OW19495   0.877   3.802   4.462 -0.3143  0.0623  0.4235
 2620SOL    HW119496   0.806   3.786   4.524 -2.8944  0.0373 -2.5258
 2620SOL    HW219497   0.841   3.882   4.424  0.5645  1.5566  2.7687
 2621SOL     OW19498   3.123   3.505  16.908  0.4663 -0.1047 -0.7205
 2621SOL    HW119499   3.181   3.554  16.966  0.1805  0.1249 -0.6304
 2621SOL    HW219500   3.104   3.575  16.846  1.6566  0.9106  0.0781
 2622SOL     OW19501   4.609   2.537   4.762 -0.8034  0.3055  0.0764
 2622SOL    HW119502   4.535   2.581   4.803 -1.4960 -0.7623 -0.0343
 2622SOL    HW219503   4.679   2.540   4.828 -0.3602 -1.4054 -0.3294
 2623SOL     OW19504   3.849   3.500   3.734 -0.4989  0.0750  0.1555
 2623SOL    HW119505   3.903   3.422   3.746 -1.3259 -0.7393 -1.4500
 2623SOL    HW219506   3.896   3.544   3.663  2.0307  0.5780  2.1195
 2624SOL     OW19507   3.494   2.345  17.160 -0.0081  0.0626  0.6384
 2624SOL    HW119508   3.411   2.325  17.204 -0.7551  2.4266  0.2840
 2624SOL    HW219509   3.546   2.275  17.200 -1.0733 -1.0934  0.0088
 2625SOL     OW19510   1.912   3.320  14.007  0.1945  0.1569 -0.5873
 2625SOL    HW119511   1.887   3.268  13.931  4.0969 -2.0387 -0.3494
 2625SOL    HW219512   1.925   3.250  14.071  0.7654  0.4843 -0.3460
 2626SOL     OW19513   1.010   0.404   4.924 -0.5158  0.0988 -0.0433
 2626SOL    HW119514   0.977   0.407   5.014  2.4530 -0.0912  1.0661
 2626SOL    HW219515   0.982   0.488   4.888 -2.7194 -0.6076 -0.0130
 2627SOL     OW19516   1.822   0.165  11.081 -0.1849 -0.0481 -0.0391
 2627SOL    HW119517   1.844   0.151  11.173  1.3248  2.1254 -0.0843
 2627SOL    HW219518   1.905   0.153  11.036  0.0611  4.3600 -0.6996
 2628SOL     OW19519   2.131   0.858   4.565  0.2062  0.4008  0.2950
 2628SOL    HW119520   2.062   0.854   4.499  1.1695 -2.7477 -0.5137
 2628SOL    HW219521   2.083   0.867   4.648  1.2354 -0.3579  0.9705
 2629SOL     OW19522   4.645   2.780  12.553  0.0266 -0.1677  0.1956
 2629SOL    HW119523   4.728   2.764  12.598 -0.0693 -0.1857  0.3677
 2629SOL    HW219524   4.609   2.852  12.605  0.8692 -0.1564  0.7711
 2630SOL     OW19525   1.807   3.748   7.527 -0.6141  0.8402 -0.3691
 2630SOL    HW119526   1.789   3.717   7.616  0.7941  1.9309  0.3000
 2630SOL    HW219527   1.865   3.822   7.546  0.9311 -0.5380  0.2761
 2631SOL     OW19528   0.945   1.100   5.486 -0.0062 -0.0279 -0.0953
 2631SOL    HW119529   0.963   1.071   5.397 -0.5237  2.0268 -0.8546
 2631SOL    HW219530   0.915   1.187   5.461  0.2593  0.0292 -0.2089
 2632SOL     OW19531   4.352   0.007  16.813 -0.5851 -0.1969 -0.1297
 2632SOL    HW119532   4.446   0.022  16.830 -0.2920 -0.8826 -1.1288
 2632SOL    HW219533   4.351   4.650  16.811  1.9561 -0.2252 -0.4236
 2633SOL     OW19534   0.873   0.525   9.394  0.2111 -0.2633 -0.5940
 2633SOL    HW119535   0.888   0.440   9.353  2.1856 -0.6002  0.8369
 2633SOL    HW219536   0.957   0.557   9.426  0.6093 -0.0425 -1.8621
 2634SOL     OW19537   3.083   0.029   3.589  0.2619 -0.3855 -0.2821
 2634SOL    HW119538   3.077   4.733   3.500 -1.3780 -2.7567  0.7655
 2634SOL    HW219539   3.026   4.711   3.641  1.4044  1.3061  2.8379
 2635SOL     OW19540   3.088   0.300  11.107  0.6361 -0.2738  0.1900
 2635SOL    HW119541   3.132   0.257  11.180 -1.2011  1.0971  2.0961
 2635SOL    HW219542   3.014   0.242  11.088  0.2417 -0.2924  1.8282
 2636SOL     OW19543   0.427   3.483  13.544  0.2240  0.2284 -0.7719
 2636SOL    HW119544   0.516   3.455  13.568 -0.5755  1.2044  3.2283
 2636SOL    HW219545   0.415   3.562  13.596  0.0768 -0.3302  0.0422
 2637SOL     OW19546   4.030   1.334   6.268  0.1961  0.4811  0.2740
 2637SOL    HW119547   4.122   1.351   6.289  0.3095 -1.0689  1.0978
 2637SOL    HW219548   4.027   1.238   6.263  0.0038  0.4311  1.3042
 2638SOL     OW19549   4.485   1.191  13.012  0.1594 -0.1501 -0.1370
 2638SOL    HW119550   4.537   1.113  13.031 -1.2117 -0.9148  0.5046
 2638SOL    HW219551   4.495   1.208  12.919  0.7965  1.3243  0.1900
 2639SOL     OW19552   3.125   1.847   5.220  0.0638 -0.2745  0.5134
 2639SOL    HW119553   3.180   1.886   5.289 -0.8436  1.0671  0.4700
 2639SOL    HW219554   3.161   1.758   5.220  0.6449 -0.0502 -1.4670
 2640SOL     OW19555   4.296   3.868  14.167  0.1644  0.6598 -0.2166
 2640SOL    HW119556   4.215   3.912  14.141 -1.7336 -3.2161 -0.9655
 2640SOL    HW219557   4.334   3.942  14.213  0.8311  0.4336 -0.4009
 2641SOL     OW19558   2.752   4.042   5.736 -0.2617 -0.2113 -0.0579
 2641SOL    HW119559   2.770   4.057   5.829  1.4611 -1.4880 -0.1880
 2641SOL    HW219560   2.709   3.956   5.732 -1.0941  0.2007  0.0826
 2642SOL     OW19561   0.612   0.483  16.604  0.2848 -0.3084 -0.0733
 2642SOL    HW119562   0.622   0.515  16.514 -0.5685 -0.6443 -0.2869
 2642SOL    HW219563   0.691   0.430  16.601  0.4532  0.0434 -2.5027
 2643SOL     OW19564   0.488   1.281  17.062  0.3006  0.1419 -0.2615
 2643SOL    HW119565   0.396   1.278  17.088  0.7101  1.4361  1.3692
 2643SOL    HW219566   0.525   1.296  17.149 -1.6685  0.2711  0.5527
 2644SOL     OW19567   1.483   0.298   4.449 -0.1132  0.0844  0.1096
 2644SOL    HW119568   1.474   0.207   4.419  0.0491  0.5382 -1.2813
 2644SOL    HW219569   1.398   0.332   4.423  0.1224 -0.3997 -1.3034
 2645SOL     OW19570   2.750   0.185   0.748 -0.0769 -0.0010  0.2407
 2645SOL    HW119571   2.760   0.277   0.723  1.8954 -0.7763 -1.7803
 2645SOL    HW219572   2.779   0.158   0.661 -0.5397 -2.5392  0.8679
 2646SOL     OW19573   1.486   3.226   7.804 -0.2038  0.0901 -0.6659
 2646SOL    HW119574   1.434   3.305   7.790  0.7371  0.5724 -1.4598
 2646SOL    HW219575   1.415   3.169   7.830 -1.1260  0.4696 -2.3473
 2647SOL     OW19576   4.355   4.473   5.527  0.5259  0.2372 -0.0814
 2647SOL    HW119577   4.428   4.530   5.550  1.3679 -0.3674 -1.3171
 2647SOL    HW219578   4.292   4.483   5.599  1.6778 -1.5070  1.1839
 2648SOL     OW19579   2.154   0.722   4.055  0.0207 -0.3971  0.3923
 2648SOL    HW119580   2.061   0.739   4.062  0.0740  0.3381 -0.5731
 2648SOL    HW219581   2.172   0.681   4.139  1.2346 -1.1401 -0.2226
 2649SOL     OW19582   0.815   0.373   2.811 -0.4629 -0.3005 -0.2729
 2649SOL    HW119583   0.720   0.362   2.812 -0.5318  0.2809  0.3884
 2649SOL    HW219584   0.841   0.289   2.776  1.2846 -0.3119  1.0303
 2650SOL     OW19585   2.418   4.150   2.363 -0.3029 -0.2825  0.3161
 2650SOL    HW119586   2.512   4.160   2.352 -0.4550  0.4625 -0.3009
 2650SOL    HW219587   2.405   4.177   2.454  0.5822 -1.3588  0.7477
 2651SOL     OW19588   1.762   2.640   1.831 -0.0199 -0.3337 -0.0773
 2651SOL    HW119589   1.796   2.714   1.781  2.5220 -0.9704  0.7235
 2651SOL    HW219590   1.815   2.652   1.910 -1.7540  0.8555  0.9067
 2652SOL     OW19591   1.703   0.285   3.348 -0.1580  0.2335 -0.3850
 2652SOL    HW119592   1.669   0.246   3.428  1.1387 -0.1623 -0.0134
 2652SOL    HW219593   1.772   0.218   3.344  1.6746  2.1406 -0.9321
 2653SOL     OW19594   3.867   3.872   2.995  0.4545 -0.0717  0.3379
 2653SOL    HW119595   3.851   3.797   3.052 -3.2808  0.2712 -0.2594
 2653SOL    HW219596   3.956   3.903   3.008  0.6005 -0.0902 -0.5703
 2654SOL     OW19597   0.977   2.858   6.690  0.5108  0.5416 -0.0973
 2654SOL    HW119598   0.922   2.838   6.615 -1.3684  0.0085  1.4014
 2654SOL    HW219599   1.041   2.922   6.659 -0.5681  2.9601  2.5586
 2655SOL     OW19600   1.031   1.930   5.038 -0.1734  0.1911  0.1571
 2655SOL    HW119601   1.040   2.026   5.042  3.1357 -0.1558  1.0422
 2655SOL    HW219602   0.969   1.919   5.111 -1.7869 -1.5984 -1.5084
 2656SOL     OW19603   2.873   3.708   2.300 -0.5417 -0.0722  0.0579
 2656SOL    HW119604   2.854   3.793   2.338  0.7933  0.2415  0.0244
 2656SOL    HW219605   2.794   3.684   2.251 -0.9102 -2.8528  1.9997
 2657SOL     OW19606   4.180   1.750   5.324 -0.3922  0.4453  0.2023
 2657SOL    HW119607   4.268   1.733   5.291 -0.1287  1.9038  0.1275
 2657SOL    HW219608   4.161   1.661   5.353 -1.5638  0.3774 -0.7393
 2658SOL     OW19609   0.359   2.800   8.780  0.1803 -0.2585  0.3165
 2658SOL    HW119610   0.336   2.776   8.690  0.2630  1.0990 -0.0717
 2658SOL    HW219611   0.378   2.716   8.820  3.2849  1.2646  1.9864
 2659SOL     OW19612   0.349   0.268  17.524  0.1976  0.7669  0.4723
 2659SOL    HW119613   0.408   0.247  17.597  0.2103 -1.7324 -0.2637
 2659SOL    HW219614   0.357   0.363  17.515  0.6811  0.7713  0.9566
 2660SOL     OW19615   4.193   0.874   2.439 -0.3581  0.3943 -0.1845
 2660SOL    HW119616   4.192   0.847   2.347  0.0684 -0.7948  0.1737
 2660SOL    HW219617   4.236   0.958   2.425 -0.6917  0.9235  1.8795
 2661SOL     OW19618   4.312   2.309   8.668 -0.1115  0.2627  0.1538
 2661SOL    HW119619   4.322   2.299   8.573 -2.0690  1.1404 -0.1472
 2661SOL    HW219620   4.405   2.301   8.690  0.4303  1.1794 -1.7320
 2662SOL     OW19621   2.107   0.600   8.743 -0.3573  0.2314  0.1522
 2662SOL    HW119622   2.100   0.585   8.838  1.9208 -1.3906  0.0781
 2662SOL    HW219623   2.112   0.695   8.740  1.0693  0.1513 -0.1036
 2663SOL     OW19624   0.287   1.116  15.872 -0.1036 -0.5363  0.1360
 2663SOL    HW119625   0.235   1.195  15.854 -0.7584 -1.5429 -2.3703
 2663SOL    HW219626   0.273   1.053  15.802  0.9368 -0.2081 -0.3592
 2664SOL     OW19627   3.113   1.204  16.226  0.3432  0.2011  0.5849
 2664SOL    HW119628   3.088   1.194  16.318  1.8853  1.0027  1.0976
 2664SOL    HW219629   3.164   1.126  16.204  0.1436  0.0769  0.5666
 2665SOL     OW19630   3.862   1.677   5.608 -0.1265  0.6565  0.8494
 2665SOL    HW119631   3.935   1.739   5.609  2.2523 -2.1323 -2.9357
 2665SOL    HW219632   3.799   1.719   5.550  0.4387  1.3653  0.7471
 2666SOL     OW19633   4.722   3.346   0.562 -0.0466 -0.4212  0.4590
 2666SOL    HW119634   4.653   3.285   0.588 -1.1321  0.7475  0.2956
 2666SOL    HW219635   4.671   3.426   0.569 -2.7455 -2.1625  0.4707
 2667SOL     OW19636   2.364   1.431  11.001  0.4384  0.3461 -0.1895
 2667SOL    HW119637   2.350   1.370  10.929  3.0022  1.4085 -1.5539
 2667SOL    HW219638   2.363   1.519  10.963 -1.1563  0.0274 -0.9015
 2668SOL     OW19639   4.399   3.159   7.909 -0.2091 -0.5599  0.6089
 2668SOL    HW119640   4.387   3.066   7.889  0.2318 -0.3477 -0.6393
 2668SOL    HW219641   4.448   3.148   7.990 -1.4044 -0.1795  1.3913
 2669SOL     OW19642   2.249   1.022   9.401  0.4420  0.0346 -0.6148
 2669SOL    HW119643   2.196   1.096   9.431  1.6177  0.2301  0.9841
 2669SOL    HW219644   2.333   1.065   9.418  0.7179 -0.3245 -1.0639
 2670SOL     OW19645   2.793   4.367  13.718  0.0685 -0.1667  0.3228
 2670SOL    HW119646   2.735   4.320  13.777  0.8690 -1.3402  0.1640
 2670SOL    HW219647   2.771   4.334  13.631  0.5477  0.4074 -0.0177
 2671SOL     OW19648   1.654   4.529   8.739  0.3918  0.2941  0.1172
 2671SOL    HW119649   1.630   4.547   8.830  1.4057 -1.0533  0.6419
 2671SOL    HW219650   1.612   4.603   8.694 -1.5845 -1.3064 -0.6483
 2672SOL     OW19651   3.977   0.454   7.130 -0.1256 -0.1952  1.0338
 2672SOL    HW119652   3.938   0.501   7.056 -0.0418 -0.6098  0.7333
 2672SOL    HW219653   3.943   0.511   7.200  0.2658  2.2738 -0.7806
 2673SOL     OW19654   0.272   3.179   0.004 -1.0159  0.8698  0.4254
 2673SOL    HW119655   0.201   3.243  17.750 -2.7858 -0.9316  1.7712
 2673SOL    HW219656   0.235   3.114  17.698 -0.2258 -0.3867  1.3216
 2674SOL     OW19657   0.076   4.734   7.333 -0.0161 -0.2370  0.3332
 2674SOL    HW119658   0.035   4.713   7.249 -0.1118  1.8211 -0.1341
 2674SOL    HW219659   0.049   4.654   7.378  1.7845 -1.2566 -0.4100
 2675SOL     OW19660   2.858   3.700   6.346  0.8748 -0.4756 -0.4428
 2675SOL    HW119661   2.930   3.692   6.284  1.3452 -3.1781  0.4477
 2675SOL    HW219662   2.782   3.671   6.296  0.4574  0.7127 -0.5079
 2676SOL     OW19663   2.972   1.568   8.251 -0.2811  0.2501 -0.7059
 2676SOL    HW119664   3.037   1.579   8.181  3.4997 -0.1017  2.7838
 2676SOL    HW219665   3.002   1.486   8.290  2.6181  2.0876  0.9694
 2677SOL     OW19666   1.857   3.195   0.991 -0.3926  0.4825 -0.0677
 2677SOL    HW119667   1.820   3.141   1.061  0.3963  1.2833  0.9698
 2677SOL    HW219668   1.783   3.231   0.942 -0.3512  0.1599 -0.3728
 2678SOL     OW19669   4.090   2.875  17.136 -0.0330  0.0211  0.0457
 2678SOL    HW119670   4.106   2.797  17.084  2.1949  0.2427  0.3905
 2678SOL    HW219671   3.998   2.863  17.161  0.1516 -1.5664 -0.0683
 2679SOL     OW19672   3.244   1.366   3.893 -0.4487 -0.2290  0.3421
 2679SOL    HW119673   3.241   1.316   3.975  0.4890 -0.1227  0.4475
 2679SOL    HW219674   3.229   1.455   3.925 -1.2675  0.2875 -1.4962
 2680SOL     OW19675   0.203   2.815   0.122 -0.3253 -0.1111  0.4156
 2680SOL    HW119676   0.187   2.779   0.209  0.4287 -1.6972 -0.1201
 2680SOL    HW219677   0.197   2.910   0.138  1.6004 -0.0989  1.0099
 2681SOL     OW19678   1.968   2.222   7.551  0.6114 -0.4745 -0.8034
 2681SOL    HW119679   1.876   2.220   7.525  0.8222 -0.1910 -1.5467
 2681SOL    HW219680   2.004   2.150   7.500  0.8560 -2.1364  1.7311
 2682SOL     OW19681   1.980   1.687   1.994  0.3187 -0.2573  0.3952
 2682SOL    HW119682   1.957   1.597   2.015  1.6399  0.1957  3.8034
 2682SOL    HW219683   1.933   1.747   2.052  0.8303  1.2227 -0.7118
 2683SOL     OW19684   1.209   1.511   1.630  0.2968 -0.2748 -0.0655
 2683SOL    HW119685   1.176   1.542   1.714  1.9641  0.6761  0.2417
 2683SOL    HW219686   1.158   1.432   1.613 -1.7137  0.9921  0.1747
 2684SOL     OW19687   4.290   4.520   8.644  0.3250 -0.3560 -0.1018
 2684SOL    HW119688   4.289   4.549   8.736  0.8079  2.0052 -0.8340
 2684SOL    HW219689   4.340   4.591   8.604 -0.2257  0.0048 -0.1497
 2685SOL     OW19690   4.310   1.283   5.302  0.7596  0.2005 -0.0267
 2685SOL    HW119691   4.318   1.208   5.242 -0.1639  1.2204 -1.4387
 2685SOL    HW219692   4.239   1.339   5.272 -1.0383 -0.7161  2.5693
 2686SOL     OW19693   4.367   0.348   5.455 -0.5024  0.5611 -0.5592
 2686SOL    HW119694   4.420   0.284   5.502 -3.0180 -1.2326 -0.1848
 2686SOL    HW219695   4.322   0.390   5.528 -0.3692  1.2649 -0.8813
 2687SOL     OW19696   2.787   2.139  11.476  0.9309 -0.0669  0.2138
 2687SOL    HW119697   2.825   2.222  11.447 -1.1641  0.0848 -2.1451
 2687SOL    HW219698   2.793   2.150  11.571 -0.5909  0.8028  0.2143
 2688SOL     OW19699   0.737   2.695  13.235  0.0721 -0.0863 -0.1246
 2688SOL    HW119700   0.644   2.676  13.222  0.3551  1.2764 -4.2899
 2688SOL    HW219701   0.718   2.789  13.227 -0.8661 -0.1594  1.2178
 2689SOL     OW19702   3.342   1.685   8.193  0.2365 -0.1760  0.0992
 2689SOL    HW119703   3.347   1.645   8.280  1.4113  0.1230  0.1716
 2689SOL    HW219704   3.275   1.639   8.143 -0.0684  0.7542 -0.3478
 2690SOL     OW19705   4.725   0.698  10.143 -0.4707  0.7393 -0.3588
 2690SOL    HW119706   0.023   0.705  10.230 -2.2169 -0.4500  0.4773
 2690SOL    HW219707   4.685   0.613  10.160  0.1180  0.7456  1.0254
 2691SOL     OW19708   3.267   1.912   8.442 -0.3805  0.1757  0.3602
 2691SOL    HW119709   3.251   2.000   8.476  1.7733  0.6177  0.2065
 2691SOL    HW219710   3.292   1.933   8.352  0.0812  0.5432  0.5750
 2692SOL     OW19711   4.106   3.592   1.989  0.5021  0.3346 -0.3287
 2692SOL    HW119712   4.145   3.564   1.906 -2.3176 -0.5853 -1.3416
 2692SOL    HW219713   4.190   3.603   2.034  0.4998 -1.7021  0.1835
 2693SOL     OW19714   3.720   3.681  17.324  0.2491  0.2019  0.1925
 2693SOL    HW119715   3.708   3.725  17.408 -2.1027  0.1538 -0.0917
 2693SOL    HW219716   3.722   3.588  17.348 -1.6192  0.2859  0.6903
 2694SOL     OW19717   2.816   0.114  13.172  0.4335  1.0622  0.3192
 2694SOL    HW119718   2.786   0.177  13.107 -0.8808  2.2662  2.0915
 2694SOL    HW219719   2.866   0.055  13.115 -0.1775 -0.2159  1.1215
 2695SOL     OW19720   1.536   3.296   4.341  0.1584 -0.4979 -0.3379
 2695SOL    HW119721   1.613   3.255   4.379  0.0601 -0.5781 -0.2261
 2695SOL    HW219722   1.573   3.384   4.336 -0.8223 -0.0234  0.8931
 2696SOL     OW19723   2.738   2.866   2.217 -0.1228  0.2972  0.0391
 2696SOL    HW119724   2.773   2.777   2.216 -1.4406 -0.2098 -0.8574
 2696SOL    HW219725   2.741   2.879   2.123 -0.3233  1.1719  0.1557
 2697SOL     OW19726   0.000   2.064  10.543  0.2565 -0.2260 -0.0173
 2697SOL    HW119727   4.733   2.152  10.506  0.0211  0.7940  2.3813
 2697SOL    HW219728   0.064   2.020  10.488  0.4218 -2.3761  1.8753
 2698SOL     OW19729   1.961   2.718   6.682 -0.0042 -0.0727 -0.2586
 2698SOL    HW119730   1.919   2.637   6.712 -2.5242  0.1089 -3.3269
 2698SOL    HW219731   1.917   2.731   6.598 -3.0270  2.2966  1.7042
 2699SOL     OW19732   0.760   3.606   0.715 -0.1980 -0.0966  0.2835
 2699SOL    HW119733   0.828   3.663   0.679 -0.0087 -0.3148  0.2899
 2699SOL    HW219734   0.809   3.557   0.782 -0.0224 -0.2508  0.0457
 2700SOL     OW19735   0.596   4.315   4.102 -0.2325  0.3298 -0.4501
 2700SOL    HW119736   0.655   4.240   4.098 -0.8618 -0.0850 -2.0017
 2700SOL    HW219737   0.630   4.365   4.176 -0.6399 -1.5448  1.0258
 2701SOL     OW19738   4.614   0.111   4.182 -0.0262 -0.7139 -0.0368
 2701SOL    HW119739   4.531   0.150   4.209  1.1433  1.1478  0.8616
 2701SOL    HW219740   4.608   0.123   4.088 -1.1756 -0.1632  0.1070
 2702SOL     OW19741   1.006   1.870   1.279  0.1779 -0.3852 -0.0102
 2702SOL    HW119742   1.076   1.851   1.341  0.6544 -1.6939 -0.9439
 2702SOL    HW219743   0.976   1.953   1.314 -1.1824 -0.4420 -1.0363
 2703SOL     OW19744   2.012   0.832   8.336  0.0838 -0.2081 -0.0352
 2703SOL    HW119745   2.049   0.767   8.276  1.0915  2.1359 -1.9243
 2703SOL    HW219746   2.085   0.830   8.399 -0.9516  0.6232  1.1804
 2704SOL     OW19747   2.454   2.358   2.651 -0.7151  0.0928  0.6811
 2704SOL    HW119748   2.360   2.355   2.670 -1.3605  1.8972 -2.0722
 2704SOL    HW219749   2.487   2.394   2.733  1.3495  0.5679 -0.3679
 2705SOL     OW19750   4.360   4.194   4.483  0.1192 -0.3700  0.9717
 2705SOL    HW119751   4.342   4.287   4.472  0.9008 -0.1194  1.8103
 2705SOL    HW219752   4.340   4.180   4.576  1.8577 -2.1651  1.0868
 2706SOL     OW19753   1.178   1.779   9.167 -0.2404 -0.1286 -0.3480
 2706SOL    HW119754   1.251   1.787   9.228 -0.5414  1.1193 -0.1397
 2706SOL    HW219755   1.173   1.871   9.140  1.0895  0.0968  0.1413
 2707SOL     OW19756   2.467   4.141  13.348 -0.4095 -0.1325  0.4297
 2707SOL    HW119757   2.536   4.155  13.412  1.5812  0.8977 -1.9074
 2707SOL    HW219758   2.406   4.072  13.374 -1.7332  0.2253 -1.7096
 2708SOL     OW19759   3.604   1.610   6.878  0.5269 -0.0158 -0.3916
 2708SOL    HW119760   3.519   1.640   6.909  0.2446 -0.1840 -1.0079
 2708SOL    HW219761   3.637   1.583   6.964  1.7598 -0.3721 -0.9728
 2709SOL     OW19762   0.347   0.013   2.654  0.4149 -0.3608  0.1515
 2709SOL    HW119763   0.324   4.717   2.568  2.8122  1.8901 -1.4245
 2709SOL    HW219764   0.313   0.101   2.640  1.0829  0.3220  2.7085
 2710SOL     OW19765   3.811   2.342  11.061  0.0485 -0.1432  0.5452
 2710SOL    HW119766   3.833   2.343  10.968  0.3709 -2.3301  0.6089
 2710SOL    HW219767   3.878   2.407  11.079  1.0899 -1.0216 -0.1547
 2711SOL     OW19768   1.019   3.269   9.892  0.0726  0.0348  0.2794
 2711SOL    HW119769   0.929   3.287   9.863 -0.7973 -1.8302  1.7662
 2711SOL    HW219770   0.998   3.235   9.979  0.6425  1.6030  1.0324
 2712SOL     OW19771   0.483   4.576   8.597  0.1365 -0.3499  0.4342
 2712SOL    HW119772   0.389   4.556   8.595 -0.3113  1.6983  1.1117
 2712SOL    HW219773   0.522   4.506   8.650 -2.4266 -1.0538  1.4025
 2713SOL     OW19774   4.030   4.217   7.889  0.7697 -0.5035  0.4713
 2713SOL    HW119775   4.068   4.168   7.962  0.4581  1.2013  1.7872
 2713SOL    HW219776   4.082   4.297   7.896 -0.3330  0.2278  0.2999
 2714SOL     OW19777   2.885   1.863   2.417  0.1066  0.2210  0.0547
 2714SOL    HW119778   2.946   1.798   2.452  1.6613  2.7983  2.1958
 2714SOL    HW219779   2.918   1.881   2.329  0.5158 -2.6076 -0.3521
 2715SOL     OW19780   0.702   3.595   3.749 -0.0142 -0.2000  0.0205
 2715SOL    HW119781   0.608   3.579   3.759 -0.1691 -0.0643 -1.2183
 2715SOL    HW219782   0.745   3.574   3.832  1.7507  0.7726 -0.6597
 2716SOL     OW19783   4.330   0.566   0.204 -0.6578  0.2425  0.7524
 2716SOL    HW119784   4.398   0.546   0.140  0.3226 -0.3099  1.9657
 2716SOL    HW219785   4.253   0.587   0.151 -2.5271 -1.2153  2.8499
 2717SOL     OW19786   3.669   4.054   5.924 -0.0397  0.2491 -0.2111
 2717SOL    HW119787   3.735   3.988   5.948 -0.3239  0.8688  2.2572
 2717SOL    HW219788   3.617   4.047   6.003 -0.3228 -0.9097 -0.4973
 2718SOL     OW19789   0.803   4.536  13.350  0.3240 -0.2773 -0.2212
 2718SOL    HW119790   0.799   4.451  13.394 -1.2149 -0.4455 -0.6715
 2718SOL    HW219791   0.715   4.561  13.320  0.3381  2.2613  1.8755
 2719SOL     OW19792   1.001   0.671   7.095 -0.4900 -0.8712  0.3253
 2719SOL    HW119793   1.032   0.751   7.138  3.3657 -1.5040 -1.3410
 2719SOL    HW219794   1.061   0.670   7.021  1.9144  0.0713  2.2707
 2720SOL     OW19795   2.916   3.015   2.843 -0.0399 -0.9345  0.1126
 2720SOL    HW119796   2.961   3.070   2.907  1.3592 -2.1436  0.1729
 2720SOL    HW219797   2.904   2.940   2.901 -1.7351  0.3119  1.3793
 2721SOL     OW19798   4.532   1.337  11.890 -0.0477 -0.2516  0.0401
 2721SOL    HW119799   4.552   1.250  11.926  2.4077 -0.0252 -0.7493
 2721SOL    HW219800   4.437   1.326  11.886 -0.1446  0.2770  0.9797
 2722SOL     OW19801   4.434   0.676   3.955 -0.0047  0.0047 -0.4115
 2722SOL    HW119802   4.370   0.715   4.014  0.1168 -1.2236  0.5328
 2722SOL    HW219803   4.387   0.680   3.872 -0.3770  0.0553 -0.1993
 2723SOL     OW19804   2.132   2.869  14.054 -0.1541  0.1002 -0.1722
 2723SOL    HW119805   2.213   2.909  14.087 -0.0819 -2.1030  2.4180
 2723SOL    HW219806   2.132   2.890  13.961  1.7227  0.1332 -0.1676
 2724SOL     OW19807   0.465   2.345   2.565 -0.0371  0.0480  0.2924
 2724SOL    HW119808   0.434   2.415   2.623  1.2189  0.0006  1.0168
 2724SOL    HW219809   0.560   2.344   2.576  0.2048 -1.6119 -1.9193
 2725SOL     OW19810   2.185   1.503  13.506 -0.3728  0.4425 -0.3937
 2725SOL    HW119811   2.229   1.520  13.589  2.7856 -1.8621 -1.6009
 2725SOL    HW219812   2.133   1.583  13.502 -0.2638  0.5602  0.5618
 2726SOL     OW19813   2.025   4.240   8.400  0.3290  0.5374  0.0287
 2726SOL    HW119814   2.118   4.216   8.402  0.4103  0.8668  0.1151
 2726SOL    HW219815   1.983   4.156   8.382  0.9384  0.8221 -2.7395
 2727SOL     OW19816   0.014   2.267   1.861 -0.1976 -0.2202  0.0990
 2727SOL    HW119817   0.087   2.236   1.808  0.0216  3.0165 -1.5441
 2727SOL    HW219818   0.009   2.192   1.920  0.5829 -0.6753 -0.4132
 2728SOL     OW19819   3.906   4.421   8.402  0.1893  0.0642 -0.5337
 2728SOL    HW119820   3.940   4.347   8.451 -0.7011 -0.3517 -0.5332
 2728SOL    HW219821   3.953   4.411   8.319  1.2922 -1.1715  0.2541
 2729SOL     OW19822   0.110   0.480   4.807  0.6314 -0.1926  0.2430
 2729SOL    HW119823   0.117   0.545   4.737  0.1957 -1.6659 -1.1651
 2729SOL    HW219824   0.180   0.420   4.780  1.6206  0.8038  0.6043
 2730SOL     OW19825   4.263   0.384   7.085  0.7842  0.3787  0.3472
 2730SOL    HW119826   4.168   0.390   7.093  0.8984  0.1256  1.9189
 2730SOL    HW219827   4.295   0.345   7.166  1.7405  1.0706  0.3047
 2731SOL     OW19828   1.051   0.004   2.677  0.1670 -0.4981  0.0196
 2731SOL    HW119829   1.028   4.685   2.604 -0.3686 -0.8420  0.4591
 2731SOL    HW219830   1.138   0.039   2.658  0.4802 -0.6468  1.2334
 2732SOL     OW19831   4.290   0.002   6.439 -0.0748  0.1642 -0.0537
 2732SOL    HW119832   4.376   0.006   6.480 -0.0147 -1.0551 -0.0385
 2732SOL    HW219833   4.241   0.066   6.490 -0.8279  0.0273 -0.6004
 2733SOL     OW19834   0.012   0.244   8.755 -0.4636 -0.0680  0.6251
 2733SOL    HW119835   4.705   0.240   8.839 -1.2681  1.6654  0.2688
 2733SOL    HW219836   0.092   0.203   8.788 -0.1847  0.0475  0.0902
 2734SOL     OW19837   0.772   4.061   6.118 -0.2448 -0.1807 -0.5563
 2734SOL    HW119838   0.840   4.013   6.071  1.3854 -0.8250  2.4849
 2734SOL    HW219839   0.694   4.063   6.063 -1.7557 -0.5803  1.5595
 2735SOL     OW19840   0.915   3.927   7.830 -0.1916 -0.0978 -0.0734
 2735SOL    HW119841   0.981   3.858   7.823  0.0564  0.0211  1.1228
 2735SOL    HW219842   0.847   3.899   7.768 -1.2114  1.6466  0.2597
 2736SOL     OW19843   1.299   3.669   1.055 -0.1682 -0.0773  0.5860
 2736SOL    HW119844   1.299   3.671   1.150  3.0856  2.0850  0.5387
 2736SOL    HW219845   1.394   3.668   1.052 -0.2660 -2.9453 -0.8509
 2737SOL     OW19846   1.304   3.062  12.737  0.0806  0.0968  0.0263
 2737SOL    HW119847   1.285   3.104  12.653  1.2391 -1.7287 -1.1412
 2737SOL    HW219848   1.393   3.093  12.751  0.3311 -1.1004  1.0130
 2738SOL     OW19849   4.159   1.055  15.247  0.2102 -0.7604  0.2902
 2738SOL    HW119850   4.070   1.021  15.260  0.0937 -0.6858 -0.2904
 2738SOL    HW219851   4.144   1.137  15.200  1.4888  0.9809  2.9941
 2739SOL     OW19852   0.036   1.447   9.799 -0.0952 -0.6145  0.0526
 2739SOL    HW119853   0.106   1.513   9.796  1.6607 -2.5000  0.0202
 2739SOL    HW219854   0.063   1.397   9.876  3.1992 -0.1674 -0.7802
 2740SOL     OW19855   3.727   4.401   3.366  0.6534  0.1953  0.1865
 2740SOL    HW119856   3.676   4.334   3.320  0.5281  0.5399 -0.1791
 2740SOL    HW219857   3.667   4.451   3.422  1.4702 -0.1186  1.3369
 2741SOL     OW19858   2.779   4.548  13.420  0.0704  0.4724  0.1582
 2741SOL    HW119859   2.848   4.482  13.419  0.5157  0.9299  0.5552
 2741SOL    HW219860   2.832   4.627  13.429  1.1172  0.0758 -2.4786
 2742SOL     OW19861   3.774   0.818   2.962  0.1982  0.0434 -0.0742
 2742SOL    HW119862   3.718   0.780   3.029  0.0581  1.7144  0.7616
 2742SOL    HW219863   3.707   0.862   2.910 -0.0167 -2.9012 -2.2619
 2743SOL     OW19864   4.068   2.912   0.754  0.2810 -1.1554  0.4771
 2743SOL    HW119865   3.995   2.881   0.808 -0.2080 -0.9225 -0.0414
 2743SOL    HW219866   4.072   3.004   0.782 -1.2469 -1.1163  0.6076
 2744SOL     OW19867   1.902   1.218   7.098 -0.3792  0.0360  0.4083
 2744SOL    HW119868   1.943   1.254   7.177 -1.7671  4.9912 -1.1588
 2744SOL    HW219869   1.812   1.204   7.125 -0.3724 -1.4570 -0.3452
 2745SOL     OW19870   4.612   0.177  16.695  0.0711  0.2975 -0.1546
 2745SOL    HW119871   4.568   0.262  16.704  0.3920  0.5257 -0.7665
 2745SOL    HW219872   4.624   0.158  16.603  1.2634 -0.5134  0.1682
 2746SOL     OW19873   0.727   4.692  15.228 -0.2927 -0.2122  0.3756
 2746SOL    HW119874   0.704   4.702  15.135 -0.7490 -1.3834  0.3557
 2746SOL    HW219875   0.770   0.038  15.233 -0.4991 -0.0797 -0.0308
 2747SOL     OW19876   4.192   2.420   9.307  0.2709  0.0591  0.0325
 2747SOL    HW119877   4.283   2.448   9.297  0.3275 -0.4681 -0.9887
 2747SOL    HW219878   4.177   2.458   9.394 -0.8758  0.2289 -0.2354
 2748SOL     OW19879   4.131   2.666  16.963 -0.4123  0.0506  0.7038
 2748SOL    HW119880   4.106   2.574  16.953 -0.5754  0.1814 -0.0976
 2748SOL    HW219881   4.222   2.656  16.934 -1.1292  0.3709 -1.6201
 2749SOL     OW19882   2.623   2.015   7.605 -0.3880  0.2936 -0.1784
 2749SOL    HW119883   2.687   2.073   7.645 -1.7864  1.4783  0.3468
 2749SOL    HW219884   2.646   1.932   7.646  0.8504  2.4537  3.4549
 2750SOL     OW19885   0.196   4.114   6.899  0.1127  0.2155 -0.0082
 2750SOL    HW119886   0.291   4.124   6.907  0.1001  0.4437 -0.1388
 2750SOL    HW219887   0.173   4.094   6.990  0.1019  0.3313  0.0157
 2751SOL     OW19888   4.457   4.569   8.196  0.6668 -0.7403 -0.1710
 2751SOL    HW119889   4.369   4.552   8.228  1.1262  2.1529  2.6543
 2751SOL    HW219890   4.456   4.502   8.128  1.6006 -1.0629  0.1250
 2752SOL     OW19891   4.554   1.214   2.363 -0.2599  0.2249 -0.2310
 2752SOL    HW119892   4.621   1.277   2.391 -2.0133  2.4860 -1.1401
 2752SOL    HW219893   4.561   1.211   2.268  1.3651  2.2848 -0.1810
 2753SOL     OW19894   1.789   3.175   6.077  0.4829  0.3064 -0.0793
 2753SOL    HW119895   1.779   3.081   6.093  3.6709  0.1967  1.2731
 2753SOL    HW219896   1.722   3.200   6.141  0.5632  0.4638 -0.0582
 2754SOL     OW19897   1.490   3.144  10.411  0.0773 -0.0926 -0.1692
 2754SOL    HW119898   1.424   3.169  10.347 -0.5705 -1.0247  0.1452
 2754SOL    HW219899   1.574   3.154  10.367  0.2535  0.3481  0.2566
 2755SOL     OW19900   2.717   3.478  14.301 -0.0386 -0.5726 -0.3697
 2755SOL    HW119901   2.658   3.481  14.376  1.5232  2.1562  0.7358
 2755SOL    HW219902   2.801   3.491  14.345 -0.3981 -0.9130  0.4052
 2756SOL     OW19903   3.879   2.768  16.644  0.5197  0.0304  0.2721
 2756SOL    HW119904   3.859   2.685  16.688  2.5742 -0.0929  0.9819
 2756SOL    HW219905   3.867   2.740  16.553  2.9781 -2.0698  0.6016
 2757SOL     OW19906   3.738   0.112   5.406 -0.2489  0.4481  0.4730
 2757SOL    HW119907   3.787   0.182   5.449 -0.4128  0.1883  1.0755
 2757SOL    HW219908   3.782   0.042   5.454 -2.5228 -0.2665  1.4981
 2758SOL     OW19909   3.857   4.572  11.591  0.0398  0.2394  0.0858
 2758SOL    HW119910   3.775   4.558  11.638  0.4742 -0.1154  0.7367
 2758SOL    HW219911   3.902   4.634  11.649  0.2631  2.0322 -1.9946
 2759SOL     OW19912   2.359   2.525   9.853 -0.3370  0.5107 -0.6930
 2759SOL    HW119913   2.412   2.445   9.851  0.3655  1.0043 -2.1373
 2759SOL    HW219914   2.376   2.557   9.764 -0.0725 -1.2103 -1.2605
 2760SOL     OW19915   4.613   0.962   5.267  0.8537  0.0827  0.5100
 2760SOL    HW119916   4.643   0.906   5.195 -0.4502  0.6445 -0.4711
 2760SOL    HW219917   4.525   0.984   5.236  1.3420  1.5022  0.0849
 2761SOL     OW19918   3.637   0.858   5.313  0.3105  0.0866 -0.3482
 2761SOL    HW119919   3.658   0.951   5.318 -0.6497  0.2139  1.3635
 2761SOL    HW219920   3.725   0.822   5.318  0.5337  0.8499  0.9860
 2762SOL     OW19921   4.132   3.173   9.142  0.5264  0.1299  0.2279
 2762SOL    HW119922   4.053   3.156   9.193  1.1536  1.3105  1.6234
 2762SOL    HW219923   4.117   3.107   9.074 -1.5395  0.8864 -0.0609
 2763SOL     OW19924   0.764   1.790   7.047  0.2405  0.1879 -0.4044
 2763SOL    HW119925   0.778   1.843   6.969  0.4181  2.1249  0.9543
 2763SOL    HW219926   0.781   1.860   7.110  3.0613 -0.0462 -0.8965
 2764SOL     OW19927   3.663   2.269   7.986  0.2098 -0.4425  1.0620
 2764SOL    HW119928   3.609   2.300   8.060  0.3935  2.4431  0.0089
 2764SOL    HW219929   3.706   2.196   8.030 -1.5765 -0.6311  2.4937
 2765SOL     OW19930   1.598   3.882   3.511  0.1145  0.3054 -0.2738
 2765SOL    HW119931   1.606   3.902   3.604  1.5479  0.1412 -0.3646
 2765SOL    HW219932   1.666   3.815   3.496 -1.0013 -1.0808  0.8237
 2766SOL     OW19933   1.692   1.219  12.832  0.5611 -0.4189  0.1548
 2766SOL    HW119934   1.686   1.126  12.854  0.7898 -0.1433  1.4234
 2766SOL    HW219935   1.781   1.253  12.833 -0.2700  1.7800  0.7524
 2767SOL     OW19936   4.732   0.431   3.136  0.4563  0.6851 -0.4301
 2767SOL    HW119937   0.012   0.348   3.180 -2.0703 -0.8187 -2.1593
 2767SOL    HW219938   0.075   0.439   3.088 -0.3376 -2.0611 -2.2604
 2768SOL     OW19939   1.368   2.243   2.447  0.0345  0.3028  0.0459
 2768SOL    HW119940   1.414   2.265   2.528  1.2412  2.6627 -1.2609
 2768SOL    HW219941   1.392   2.321   2.396  1.8914  0.2844  0.8757
 2769SOL     OW19942   0.943   4.313   9.499 -0.2846 -0.7062 -0.5457
 2769SOL    HW119943   1.003   4.385   9.518  0.3039 -1.3885  0.1965
 2769SOL    HW219944   0.957   4.289   9.407  0.1703 -0.1991 -0.6139
 2770SOL     OW19945   0.182   3.951   7.145 -0.4666 -0.5730  0.1569
 2770SOL    HW119946   0.088   3.937   7.151 -0.5672 -0.4619 -1.2154
 2770SOL    HW219947   0.206   3.914   7.230 -0.2462  0.9446  0.7601
 2771SOL     OW19948   0.716   4.147   7.243  0.0596  0.1824  0.0236
 2771SOL    HW119949   0.695   4.060   7.209  1.2215 -0.0307 -0.1442
 2771SOL    HW219950   0.633   4.190   7.223 -1.0180 -2.3005 -0.8319
 2772SOL     OW19951   1.497   0.779  13.930 -0.1220 -0.1779 -0.3507
 2772SOL    HW119952   1.422   0.719  13.936  1.0560 -1.4440  1.7444
 2772SOL    HW219953   1.544   0.770  14.013 -1.8487 -0.8358  0.5688
 2773SOL     OW19954   2.916   0.069   7.885 -0.6204  0.1403  0.4395
 2773SOL    HW119955   2.864   4.728   7.891 -1.2230  0.4012 -1.3434
 2773SOL    HW219956   2.884   0.119   7.960  1.3759  1.0643  0.6769
 2774SOL     OW19957   1.032   4.416   7.849  0.7391 -0.1947  0.3383
 2774SOL    HW119958   0.973   4.482   7.886  0.1098 -1.0355  0.8364
 2774SOL    HW219959   1.118   4.451   7.874  1.2333 -1.3477  0.2349
 2775SOL     OW19960   3.090   1.775   3.018  0.2143 -0.5702 -0.2284
 2775SOL    HW119961   3.111   1.752   3.109 -0.2073 -0.5954 -0.1347
 2775SOL    HW219962   3.116   1.688   2.989 -0.9622 -0.7819 -0.6291
 2776SOL     OW19963   4.207   3.717  16.071 -0.0506  0.1511  0.5031
 2776SOL    HW119964   4.123   3.698  16.113 -0.5583 -0.7410 -0.9186
 2776SOL    HW219965   4.212   3.807  16.103 -0.2999 -0.1824  1.4620
 2777SOL     OW19966   1.142   0.800  16.054  0.1307 -0.1975 -0.5533
 2777SOL    HW119967   1.158   0.712  16.088 -4.2188  0.5743  3.5198
 2777SOL    HW219968   1.101   0.844  16.128  0.6200 -4.3958  2.1807
 2778SOL     OW19969   2.652   1.741   9.974  0.5307  0.0419  0.1327
 2778SOL    HW119970   2.703   1.741  10.055  1.6316 -0.2973 -0.5569
 2778SOL    HW219971   2.702   1.690   9.910  1.3072 -0.5945  1.2511
 2779SOL     OW19972   1.705   0.674   0.740  0.2727 -0.2156 -0.1350
 2779SOL    HW119973   1.726   0.687   0.833  2.8224 -0.8865 -0.6112
 2779SOL    HW219974   1.612   0.651   0.747  0.2370  0.3221  1.2126
 2780SOL     OW19975   2.898   1.049   7.182  0.1107  0.4588 -0.0926
 2780SOL    HW119976   2.936   1.117   7.127 -1.2116  0.2699 -1.2522
 2780SOL    HW219977   2.847   1.003   7.115 -0.4516 -1.4511  1.6268
 2781SOL     OW19978   2.154   2.925   1.620 -0.1053  0.1870 -0.0273
 2781SOL    HW119979   2.097   2.975   1.678 -1.6836  2.0543 -3.1770
 2781SOL    HW219980   2.200   2.989   1.565 -0.5803  2.3080  2.0713
 2782SOL     OW19981   3.018   2.275   4.952 -0.3968 -0.7188  0.1329
 2782SOL    HW119982   2.971   2.212   4.898  0.6157 -0.2308 -1.3348
 2782SOL    HW219983   3.071   2.220   5.010 -1.6984 -0.6574  1.3819
 2783SOL     OW19984   2.274   2.215   9.578 -0.2735 -0.1551  0.1305
 2783SOL    HW119985   2.338   2.144   9.584  0.7138  0.5558 -2.1388
 2783SOL    HW219986   2.199   2.163   9.609 -0.6165 -0.3648 -1.0451
 2784SOL     OW19987   2.588   2.851   8.684  0.5653  0.0786 -0.2470
 2784SOL    HW119988   2.515   2.790   8.672  1.5852 -1.2115  0.0407
 2784SOL    HW219989   2.657   2.812   8.630 -0.5218  0.3391 -1.8590
 2785SOL     OW19990   2.864   0.638   1.230  0.1352 -0.1265 -0.1372
 2785SOL    HW119991   2.886   0.558   1.278  0.2487  0.0705  0.1403
 2785SOL    HW219992   2.794   0.606   1.173 -1.8600  4.5753 -0.3341
 2786SOL     OW19993   1.547   1.382   9.380 -0.3184  0.3291  0.2914
 2786SOL    HW119994   1.608   1.400   9.309 -0.2208  0.1426  0.3257
 2786SOL    HW219995   1.472   1.342   9.337  1.2081 -2.1881 -0.0764
 2787SOL     OW19996   4.609   0.840  15.898  0.7348  0.3067 -0.0905
 2787SOL    HW119997   4.660   0.760  15.910  1.6549  0.8401 -0.3898
 2787SOL    HW219998   4.666   0.894  15.953 -1.0701  0.3468  1.7466
 2788SOL     OW19999   2.081   2.199   6.470  0.5450 -0.7810 -0.0974
 2788SOL    HW120000   2.141   2.131   6.439  1.6482 -0.3006  0.9744
 2788SOL    HW220001   2.017   2.162   6.531  1.3052  2.2185  2.4824
 2789SOL     OW20002   0.159   0.478   1.996 -0.0638  0.3480 -0.4393
 2789SOL    HW120003   0.147   0.415   2.067 -3.6819  1.0851 -0.3802
 2789SOL    HW220004   0.127   0.556   2.042  0.0860 -0.1936  0.5835
 2790SOL     OW20005   3.805   1.139   1.791  0.3251 -0.0203  0.0572
 2790SOL    HW120006   3.802   1.065   1.729  0.8359  0.4041 -0.4658
 2790SOL    HW220007   3.805   1.097   1.877 -0.2055  1.7700  0.9259
 2791SOL     OW20008   4.560   2.293  12.097 -0.4985  0.0618  0.1411
 2791SOL    HW120009   4.521   2.316  12.013  0.1599 -1.4327 -0.5799
 2791SOL    HW220010   4.532   2.368  12.149  0.4199  0.4463  0.0921
 2792SOL     OW20011   3.564   2.698   9.299  0.5104 -0.0135  0.1659
 2792SOL    HW120012   3.480   2.654   9.284  0.6865 -0.4412  0.4446
 2792SOL    HW220013   3.584   2.656   9.382 -3.4452 -1.3077  0.4783
 2793SOL     OW20014   1.712   4.292  13.178 -0.0360  0.4212  0.1518
 2793SOL    HW120015   1.657   4.299  13.100 -0.5789 -3.5671  0.1765
 2793SOL    HW220016   1.688   4.379  13.211 -0.5965  0.3866 -0.1642
 2794SOL     OW20017   3.861   3.964   9.267  0.2086 -0.4681  0.3475
 2794SOL    HW120018   3.926   3.955   9.197  2.6703  0.7428  2.4945
 2794SOL    HW220019   3.777   3.981   9.224  0.1935 -0.5638  0.3375
 2795SOL     OW20020   2.539   0.773   7.650  0.1105 -0.2876  0.4929
 2795SOL    HW120021   2.594   0.721   7.593 -1.4850 -1.0326 -0.3655
 2795SOL    HW220022   2.577   0.750   7.735 -1.0338  0.2290  1.1550
 2796SOL     OW20023   3.142   0.807   7.479 -0.1084 -0.2907  0.3506
 2796SOL    HW120024   3.142   0.855   7.396  2.6700 -0.0693  0.4581
 2796SOL    HW220025   3.052   0.810   7.508  0.4191  2.2364  1.7151
 2797SOL     OW20026   2.992   2.866   3.288  0.6023  0.2431 -0.0146
 2797SOL    HW120027   2.995   2.952   3.247  2.1381  0.2999  0.2118
 2797SOL    HW220028   3.036   2.868   3.373 -0.4022  0.5794  0.5054
 2798SOL     OW20029   3.703   1.126   5.341 -0.0047  0.0752 -0.8279
 2798SOL    HW120030   3.679   1.213   5.310  0.9057  0.0149 -1.7196
 2798SOL    HW220031   3.680   1.137   5.433 -1.8512  0.0972 -1.2869
 2799SOL     OW20032   0.402   0.361   5.467 -0.7299  0.3570  0.5360
 2799SOL    HW120033   0.394   0.456   5.464 -2.4419  0.3069  3.3962
 2799SOL    HW220034   0.367   0.342   5.380  0.1262 -0.6114  0.4089
 2800SOL     OW20035   1.930   4.283   2.669  0.0674 -0.0819  0.2606
 2800SOL    HW120036   1.969   4.337   2.600 -1.5270 -2.7992 -2.7649
 2800SOL    HW220037   1.846   4.325   2.691 -0.5121 -1.3755  0.5133
 2801SOL     OW20038   4.601   1.500  13.088 -0.9383  0.3747 -0.3994
 2801SOL    HW120039   4.635   1.577  13.042  0.1876  0.5697  0.7503
 2801SOL    HW220040   4.525   1.478  13.035 -1.1808 -1.9653  0.9521
 2802SOL     OW20041   4.115   0.298  13.434  0.2310  0.5841  0.5264
 2802SOL    HW120042   4.114   0.202  13.431 -0.7627  0.5152  2.8601
 2802SOL    HW220043   4.098   0.315  13.341  0.7037 -2.6553 -0.1587
 2803SOL     OW20044   3.996   3.022   7.565  0.7021 -0.2444 -0.0416
 2803SOL    HW120045   4.090   3.033   7.583  0.9832 -0.0902 -1.5837
 2803SOL    HW220046   3.992   2.932   7.596  1.1329 -1.0006 -2.1510
 2804SOL     OW20047   0.759   1.165   7.809 -0.2029  0.5025 -0.0834
 2804SOL    HW120048   0.684   1.107   7.813 -1.0348  1.5245 -0.7904
 2804SOL    HW220049   0.717   1.251   7.806  0.8287  1.0402  0.8972
 2805SOL     OW20050   0.768   4.189   4.631 -0.8601 -0.3389 -0.1218
 2805SOL    HW120051   0.803   4.268   4.591  3.3150 -1.0966  2.1028
 2805SOL    HW220052   0.754   4.128   4.558  1.8710  1.3659 -2.0432
 2806SOL     OW20053   0.315   0.230   4.137  0.1521  0.1545  0.2182
 2806SOL    HW120054   0.405   0.245   4.167 -0.0542  2.4278 -0.3015
 2806SOL    HW220055   0.266   0.249   4.218 -0.5889 -0.7373 -0.0221
 2807SOL     OW20056   3.705   1.874   8.322  0.1603  0.0802 -0.5343
 2807SOL    HW120057   3.735   1.955   8.281  2.5557 -0.6592 -0.1930
 2807SOL    HW220058   3.617   1.868   8.284  0.5382 -1.5295 -1.1434
 2808SOL     OW20059   1.824   4.580  16.147  0.3830 -0.0046  0.5763
 2808SOL    HW120060   1.835   4.575  16.242  0.2574  0.7836  0.6309
 2808SOL    HW220061   1.904   4.624  16.121  0.4262 -1.1252 -1.1896
 2809SOL     OW20062   2.607   2.772   7.873  0.0975 -0.0442  0.3877
 2809SOL    HW120063   2.518   2.806   7.861  0.0503  0.5689  2.3876
 2809SOL    HW220064   2.651   2.818   7.801 -3.1836  0.7724 -1.0978
 2810SOL     OW20065   3.938   4.424   2.732 -0.1369 -0.3619  0.3739
 2810SOL    HW120066   3.974   4.363   2.795  0.0988  0.7897  1.3499
 2810SOL    HW220067   3.903   4.365   2.665  1.4295 -0.4983 -0.3194
 2811SOL     OW20068   1.471   2.655   7.238  0.4129  0.4951 -0.1644
 2811SOL    HW120069   1.467   2.650   7.142 -3.4358  0.6800 -0.0354
 2811SOL    HW220070   1.558   2.621   7.258  0.1643  0.7540  1.3523
 2812SOL     OW20071   0.549   2.146  10.130  0.3207  0.1403 -0.3744
 2812SOL    HW120072   0.552   2.237  10.158  1.2271  0.9049 -2.9837
 2812SOL    HW220073   0.631   2.136  10.083  1.0625  0.7147  0.8201
 2813SOL     OW20074   4.530   1.794   9.457  0.1583 -0.6569 -0.5993
 2813SOL    HW120075   4.543   1.864   9.522  0.1221 -1.0973 -0.1160
 2813SOL    HW220076   4.467   1.823   9.391  1.0457  0.4915 -0.9498
 2814SOL     OW20077   4.705   2.082   8.465  0.2475  0.7267  0.2529
 2814SOL    HW120078   0.031   2.012   8.468  0.3503  0.8923  1.6520
 2814SOL    HW220079   4.675   2.069   8.375 -0.9614 -1.5670  0.9980
 2815SOL     OW20080   3.333   0.803   2.040 -0.4573  0.0750 -0.0745
 2815SOL    HW120081   3.426   0.796   2.019 -0.6750 -1.2473 -0.5982
 2815SOL    HW220082   3.313   0.720   2.083  1.3385 -1.3670 -2.0034
 2816SOL     OW20083   1.370   3.742  16.153  0.7145 -0.3175  0.7052
 2816SOL    HW120084   1.290   3.788  16.126 -0.4116 -2.5116  0.2743
 2816SOL    HW220085   1.359   3.748  16.248  0.0654 -0.1555  0.6236
 2817SOL     OW20086   2.392   3.526  12.542 -0.0049  0.2076 -0.2912
 2817SOL    HW120087   2.389   3.469  12.619 -0.0672  1.7325  0.8377
 2817SOL    HW220088   2.340   3.474  12.481 -1.5582  1.2174  0.1583
 2818SOL     OW20089   2.792   3.709  13.870  0.3738 -0.3977 -0.3134
 2818SOL    HW120090   2.825   3.623  13.845 -1.7556 -1.4301  0.4013
 2818SOL    HW220091   2.871   3.743  13.912 -1.0452  0.6945  1.4900
 2819SOL     OW20092   2.784   1.878   9.362  0.3058  0.3456 -0.0455
 2819SOL    HW120093   2.845   1.950   9.375 -0.5840  1.3695 -1.4691
 2819SOL    HW220094   2.731   1.913   9.290  0.2807  1.4690  0.5200
 2820SOL     OW20095   3.616   1.558   4.227  0.3819  0.5464  0.2951
 2820SOL    HW120096   3.608   1.464   4.240  1.8852  0.3472 -0.2694
 2820SOL    HW220097   3.537   1.567   4.173  0.4540  0.4628  0.1758
 2821SOL     OW20098   1.236   1.091   7.129 -0.3797 -1.0051 -0.1515
 2821SOL    HW120099   1.317   1.055   7.091  0.4680  1.7897 -0.9704
 2821SOL    HW220100   1.251   1.058   7.217  0.7751 -1.2789 -0.4447
 2822SOL     OW20101   0.004   0.800   4.841 -0.1439  0.1205  0.1320
 2822SOL    HW120102   0.033   0.775   4.753  0.3633 -2.1190  0.9297
 2822SOL    HW220103   0.056   0.748   4.902 -0.7863  1.3272  1.7069
 2823SOL     OW20104   3.341   2.709   3.241  0.1294 -0.3997  0.0701
 2823SOL    HW120105   3.282   2.761   3.185 -0.1772 -1.6496 -0.7654
 2823SOL    HW220106   3.427   2.731   3.206  0.6814 -0.8325  1.1539
 2824SOL     OW20107   3.630   2.816  17.026  0.1312 -0.0085 -0.0857
 2824SOL    HW120108   3.719   2.784  17.034 -0.3062 -0.7432  1.6331
 2824SOL    HW220109   3.588   2.758  17.089 -0.8474  0.4597 -0.2989
 2825SOL     OW20110   2.455   2.180   4.660 -0.3143 -0.1740  0.1581
 2825SOL    HW120111   2.389   2.140   4.603 -0.9626  1.2112 -0.0455
 2825SOL    HW220112   2.524   2.115   4.645 -0.0634  0.5474 -1.8675
 2826SOL     OW20113   0.358   2.375   9.357 -0.3689 -0.3225 -0.0835
 2826SOL    HW120114   0.450   2.350   9.360 -0.3318 -0.0771  0.9255
 2826SOL    HW220115   0.329   2.286   9.339 -0.3189 -0.5813  1.1493
 2827SOL     OW20116   3.285   1.327  13.571 -0.1179  0.3394 -0.0967
 2827SOL    HW120117   3.272   1.307  13.478  1.3228 -1.2933  0.0503
 2827SOL    HW220118   3.194   1.351  13.589 -0.4015 -0.9878  0.2733
 2828SOL     OW20119   0.832   2.469   9.653  0.4709 -0.5423  0.2771
 2828SOL    HW120120   0.858   2.446   9.742  1.9633 -1.4151 -0.3700
 2828SOL    HW220121   0.811   2.385   9.611  0.0231 -0.0755 -0.4250
 2829SOL     OW20122   3.360   3.964  15.743 -0.4868 -0.3873 -0.2812
 2829SOL    HW120123   3.374   3.895  15.678  0.9423 -0.6017  0.2454
 2829SOL    HW220124   3.297   4.024  15.703 -3.7564 -2.9848  0.9521
 2830SOL     OW20125   3.258   3.202  16.639 -0.2673 -0.3577  0.3466
 2830SOL    HW120126   3.225   3.135  16.698  0.9111 -0.4068  0.9542
 2830SOL    HW220127   3.281   3.157  16.558 -0.4649 -0.2473  0.2288
 2831SOL     OW20128   3.126   2.899  10.285 -0.6228 -0.0023  0.2106
 2831SOL    HW120129   3.039   2.862  10.296  0.1379 -1.7954  0.3019
 2831SOL    HW220130   3.159   2.865  10.202  0.3902 -0.4056  0.7659
 2832SOL     OW20131   3.623   3.586   3.505 -0.6581  0.3402 -0.0844
 2832SOL    HW120132   3.630   3.676   3.537 -1.7160 -0.0413  1.1751
 2832SOL    HW220133   3.662   3.535   3.576  0.7908 -0.5360 -1.4974
 2833SOL     OW20134   1.161   0.813   9.845  0.5801  0.1251  0.0896
 2833SOL    HW120135   1.198   0.755   9.913  2.3471  0.6386 -0.4463
 2833SOL    HW220136   1.211   0.785   9.768  0.1240 -1.9333  0.5318
 2834SOL     OW20137   2.215   4.601   7.221 -0.3275 -0.2216 -0.1790
 2834SOL    HW120138   2.246   4.688   7.199  0.9850 -0.9755 -1.3227
 2834SOL    HW220139   2.264   4.542   7.163  1.6258  1.5870 -0.3411
 2835SOL     OW20140   2.754   2.941   7.696 -0.1964  0.7977  0.1492
 2835SOL    HW120141   2.780   2.923   7.606 -0.2376  1.1416  0.0705
 2835SOL    HW220142   2.845   2.949   7.725  0.3454 -0.1210 -1.3062
 2836SOL     OW20143   2.916   3.793   8.576 -0.0981 -0.0987 -0.5948
 2836SOL    HW120144   2.866   3.873   8.586  3.9586  1.9388  3.3642
 2836SOL    HW220145   2.879   3.755   8.497 -0.8302  0.4092 -0.4927
 2837SOL     OW20146   0.094   0.316   5.590 -0.0676 -0.6982 -0.1025
 2837SOL    HW120147   0.042   0.392   5.616 -1.1458 -1.1488 -0.9628
 2837SOL    HW220148   0.114   0.330   5.497 -0.1267 -2.5292 -0.3788
 2838SOL     OW20149   2.593   2.332  15.324  0.3925  0.0112  0.2361
 2838SOL    HW120150   2.584   2.427  15.313  0.5073  0.2140  1.7999
 2838SOL    HW220151   2.554   2.300  15.242 -1.8818  1.1259  0.8686
 2839SOL     OW20152   0.831   1.842   4.262  0.0639  0.0130  0.1807
 2839SOL    HW120153   0.736   1.856   4.267  0.3566  2.6342 -1.7719
 2839SOL    HW220154   0.847   1.893   4.183 -2.2854 -0.8840 -0.8989
 2840SOL     OW20155   2.290   0.059   6.577 -1.0095  0.1656  0.6029
 2840SOL    HW120156   2.269   0.149   6.603  3.1864  1.1434  0.5192
 2840SOL    HW220157   2.381   0.059   6.548 -1.2238 -1.0910 -0.0818
 2841SOL     OW20158   4.640   2.682   4.367  0.2432  0.4031  0.2082
 2841SOL    HW120159   4.711   2.646   4.419  0.2452 -0.4916 -0.4290
 2841SOL    HW220160   4.656   2.641   4.282 -0.8559 -0.8025  0.5847
 2842SOL     OW20161   0.912   1.536   5.100 -0.3026 -0.4809  0.5856
 2842SOL    HW120162   0.992   1.576   5.136 -0.0251 -0.0019 -0.5441
 2842SOL    HW220163   0.924   1.525   5.005 -0.8488 -2.1910  0.7207
 2843SOL     OW20164   2.972   1.857   8.256  0.1588  0.2216 -0.7375
 2843SOL    HW120165   3.038   1.817   8.313 -2.0059 -0.2717  1.3903
 2843SOL    HW220166   2.916   1.783   8.234  1.4228 -0.6448 -1.0679
 2844SOL     OW20167   2.540   4.333  12.099 -0.4359 -0.1191 -0.0303
 2844SOL    HW120168   2.547   4.331  12.194 -1.4478  0.5067  0.0592
 2844SOL    HW220169   2.476   4.262  12.091  1.5567 -1.8002 -1.2505
 2845SOL     OW20170   2.381   1.479   5.596  0.1378  0.8858 -0.1895
 2845SOL    HW120171   2.406   1.395   5.557 -1.5662  0.7122 -0.8929
 2845SOL    HW220172   2.303   1.496   5.544 -0.4048  0.3202  0.4275
 2846SOL     OW20173   4.410   0.319   2.077 -0.1676 -0.2790 -0.4978
 2846SOL    HW120174   4.491   0.354   2.114  1.2527 -0.5777 -3.3400
 2846SOL    HW220175   4.410   0.242   2.135 -0.6464  0.3003  0.2711
 2847SOL     OW20176   2.579   0.906   4.869 -0.0728  0.6086  0.0049
 2847SOL    HW120177   2.648   0.956   4.825 -0.1863  0.1928 -0.6381
 2847SOL    HW220178   2.515   0.889   4.800  0.4523  2.2076 -0.8745
 2848SOL     OW20179   0.456   0.283   7.063  0.2717 -0.5402 -0.2073
 2848SOL    HW120180   0.477   0.303   6.972 -0.0991  0.4265 -0.0806
 2848SOL    HW220181   0.534   0.313   7.111 -0.7514  0.0774  1.0909
 2849SOL     OW20182   2.801   4.183   0.101 -0.3903 -0.1246 -0.7493
 2849SOL    HW120183   2.823   4.217   0.187 -1.1511  0.7048 -0.8846
 2849SOL    HW220184   2.845   4.242   0.041  0.7781 -1.8075 -1.5480
 2850SOL     OW20185   2.624   1.747   8.177  0.5284 -0.0084  0.4560
 2850SOL    HW120186   2.576   1.828   8.188 -0.7880 -0.9956  1.9540
 2850SOL    HW220187   2.697   1.794   8.135  1.1349 -0.4101  1.0540
 2851SOL     OW20188   2.260   2.042   6.104  0.3701  0.1974  0.1038
 2851SOL    HW120189   2.192   1.975   6.101  1.9504 -1.4416  1.2414
 2851SOL    HW220190   2.267   2.047   6.199  2.4467  0.7746 -0.0834
 2852SOL     OW20191   1.656   3.141  14.886 -0.9547  0.1027 -0.1849
 2852SOL    HW120192   1.650   3.237  14.879  0.7188  0.2943  0.9339
 2852SOL    HW220193   1.645   3.106  14.798  0.9441 -0.2175 -0.3013
 2853SOL     OW20194   4.676   3.329   4.560  0.1514  0.0273  0.1055
 2853SOL    HW120195   4.678   3.391   4.487  1.9611  0.2097  0.3133
 2853SOL    HW220196   0.006   3.361   4.618 -0.8463 -0.4297  1.5149
 2854SOL     OW20197   4.082   0.342  14.695 -0.5013  0.0626 -0.4759
 2854SOL    HW120198   4.135   0.267  14.668  1.1358  1.1830 -0.3677
 2854SOL    HW220199   4.151   0.407  14.708 -1.0816  0.4529  0.6452
 2855SOL     OW20200   3.088   1.711   8.506 -0.4895 -0.0443 -0.2249
 2855SOL    HW120201   3.147   1.643   8.474  0.7370  0.9771 -0.1408
 2855SOL    HW220202   3.146   1.785   8.489  0.2986 -0.5265  0.4152
 2856SOL     OW20203   0.580   1.349   8.479 -0.3484 -0.0897 -0.3902
 2856SOL    HW120204   0.598   1.259   8.450 -1.1143 -0.0277 -1.0569
 2856SOL    HW220205   0.671   1.376   8.494 -1.2114  2.6112 -0.0720
 2857SOL     OW20206   0.200   1.019   5.043 -0.0069  0.3692  0.4014
 2857SOL    HW120207   0.168   1.080   5.109 -0.7230  2.9571 -2.3119
 2857SOL    HW220208   0.122   1.033   4.989 -0.0630  0.8553  0.6090
 2858SOL     OW20209   2.950   1.770   5.900 -0.5772  0.2254 -0.1513
 2858SOL    HW120210   3.024   1.786   5.958 -0.6938  0.2412 -0.0059
 2858SOL    HW220211   2.916   1.692   5.943  0.0567 -0.0265 -0.1099
 2859SOL     OW20212   1.857   3.448   7.911 -0.2786  0.2488  0.5754
 2859SOL    HW120213   1.797   3.410   7.974 -1.3266 -1.5835 -1.5458
 2859SOL    HW220214   1.800   3.509   7.864 -0.3734 -0.4476 -0.2131
 2860SOL     OW20215   2.398   2.402  13.512  0.0881  0.0637 -0.1133
 2860SOL    HW120216   2.458   2.340  13.553 -1.6394 -0.8980  0.9997
 2860SOL    HW220217   2.419   2.381  13.421  0.4253  0.1263 -0.0489
 2861SOL     OW20218   3.096   3.905  12.806  0.0957 -0.5432  0.0229
 2861SOL    HW120219   3.094   3.890  12.712  0.2595 -1.0875  0.1048
 2861SOL    HW220220   3.187   3.936  12.811 -0.6018  1.4191  0.5130
 2862SOL     OW20221   0.646   2.055   3.823 -0.2893  0.1562 -0.5579
 2862SOL    HW120222   0.604   2.070   3.739  2.0732 -3.3718 -2.3722
 2862SOL    HW220223   0.571   2.016   3.868  0.8669 -1.6143 -0.1582
 2863SOL     OW20224   0.873   4.328   7.627 -0.4149  0.0061 -0.1489
 2863SOL    HW120225   0.779   4.329   7.646 -1.1783  0.9526 -4.1093
 2863SOL    HW220226   0.908   4.338   7.716 -0.6988 -1.2890  0.1075
 2864SOL     OW20227   2.840   2.388   9.232  0.2140 -0.9314 -0.0556
 2864SOL    HW120228   2.748   2.367   9.249 -0.3864  1.8365  0.0235
 2864SOL    HW220229   2.872   2.311   9.279  0.5887 -1.0675 -0.5231
 2865SOL     OW20230   4.519   1.101   8.278 -0.3275  0.0409  0.2553
 2865SOL    HW120231   4.610   1.107   8.307 -0.1681  0.2642 -0.2884
 2865SOL    HW220232   4.475   1.157   8.342 -1.4974  0.2674 -0.7516
 2866SOL     OW20233   2.257   0.355   0.974  0.2281 -0.1856 -0.2220
 2866SOL    HW120234   2.203   0.376   0.898  0.3742 -2.0722 -0.8459
 2866SOL    HW220235   2.199   0.354   1.050  1.2538  0.7410  0.5787
 2867SOL     OW20236   3.628   1.562   3.693  0.1008  0.2242  0.3858
 2867SOL    HW120237   3.536   1.585   3.700  0.3282  1.3887 -0.6075
 2867SOL    HW220238   3.635   1.553   3.598 -2.6169  4.3227 -0.1629
 2868SOL     OW20239   2.444   2.963   3.621  0.0675 -0.1770 -0.1651
 2868SOL    HW120240   2.421   3.055   3.630 -1.1964 -0.7067  2.1706
 2868SOL    HW220241   2.423   2.927   3.708 -0.0373  1.7086  0.5931
 2869SOL     OW20242   1.508   0.895   2.537 -0.0787  0.1028  0.0718
 2869SOL    HW120243   1.428   0.942   2.559  1.5611  0.7849  4.5933
 2869SOL    HW220244   1.546   0.904   2.625  2.4623  1.6969 -1.1868
 2870SOL     OW20245   1.429   4.473   0.599 -0.3284  0.3789  1.2519
 2870SOL    HW120246   1.389   4.411   0.661 -0.8109  3.4922  4.0294
 2870SOL    HW220247   1.506   4.505   0.645 -0.3507  0.4941  1.2075
 2871SOL     OW20248   1.866   0.689   2.141  0.2203 -0.1112 -0.0032
 2871SOL    HW120249   1.880   0.703   2.048 -0.7218  0.7099 -0.0193
 2871SOL    HW220250   1.876   0.780   2.169  0.8019 -0.6900  1.7035
 2872SOL     OW20251   3.990   1.842   5.102 -0.0638  0.5517 -0.1384
 2872SOL    HW120252   4.068   1.829   5.157  0.1104  0.4735 -0.4033
 2872SOL    HW220253   3.976   1.764   5.047  2.0170 -0.1512  0.3175
 2873SOL     OW20254   4.184   0.489   3.956  0.0284  0.8833 -0.1200
 2873SOL    HW120255   4.116   0.523   3.898 -0.8031 -2.1869 -0.9100
 2873SOL    HW220256   4.266   0.489   3.906  1.1420  1.3822  1.7289
 2874SOL     OW20257   2.192   3.679   7.861  0.3222 -0.4470  0.7095
 2874SOL    HW120258   2.106   3.661   7.898 -0.0220  0.8780  0.5493
 2874SOL    HW220259   2.240   3.603   7.894 -0.7278 -1.4570 -0.1179
 2875SOL     OW20260   1.925   4.623   7.930 -0.3736  0.3317 -0.0861
 2875SOL    HW120261   1.989   4.589   7.868 -0.3080 -0.1653  0.2490
 2875SOL    HW220262   1.875   4.541   7.928 -0.0836  0.2184 -2.2390
 2876SOL     OW20263   0.259   4.696   4.354 -0.6491 -0.0487 -0.0147
 2876SOL    HW120264   0.324   4.730   4.416 -0.7673  0.7501 -0.3254
 2876SOL    HW220265   0.204   0.034   4.342 -4.1282 -2.4392  0.8001
 2877SOL     OW20266   1.763   4.665   8.179 -0.1787  0.0940  0.6526
 2877SOL    HW120267   1.818   4.587   8.185  0.1576  0.0805 -2.2819
 2877SOL    HW220268   1.686   4.643   8.231 -1.5433 -2.7150 -2.5624
 2878SOL     OW20269   3.669   2.528  17.728  0.2990 -0.3333 -0.8264
 2878SOL    HW120270   3.641   2.437  17.721 -2.2610  0.4575 -0.7747
 2878SOL    HW220271   3.585   2.562  17.698 -0.6435 -1.5005  0.5186
 2879SOL     OW20272   0.587   1.069   7.535 -0.3033  0.6835 -0.5920
 2879SOL    HW120273   0.648   1.137   7.508  1.8954 -0.9057  0.4059
 2879SOL    HW220274   0.548   1.117   7.608  0.6504 -0.9747  1.0397
 2880SOL     OW20275   2.995   2.312   7.585 -0.4272 -0.1852 -0.4440
 2880SOL    HW120276   2.940   2.391   7.584 -0.2760 -0.0836 -0.5994
 2880SOL    HW220277   3.070   2.360   7.621 -1.1376  0.1711  0.5595
 2881SOL     OW20278   3.723   0.968   2.693 -0.2227 -0.8957 -0.4813
 2881SOL    HW120279   3.693   0.884   2.658 -1.7970 -0.0697 -1.1056
 2881SOL    HW220280   3.792   0.984   2.629  1.6053  2.0055  2.2385
 2882SOL     OW20281   2.503   2.281  11.492  0.0487  0.2441 -0.2705
 2882SOL    HW120282   2.466   2.193  11.498 -0.4454  0.4763  0.1606
 2882SOL    HW220283   2.597   2.267  11.504  0.0928  0.3664 -0.4746
 2883SOL     OW20284   2.070   0.317   1.995  0.1731  0.4244 -0.0653
 2883SOL    HW120285   2.135   0.354   2.054  1.7148 -2.5310  0.0728
 2883SOL    HW220286   2.119   0.246   1.953  1.1295  1.4590 -0.7126
 2884SOL     OW20287   0.342   0.778   4.523  0.1516 -0.1528 -0.3931
 2884SOL    HW120288   0.362   0.781   4.430 -0.7526  0.4434 -0.5642
 2884SOL    HW220289   0.313   0.869   4.531  1.0302  0.2322 -1.6775
 2885SOL     OW20290   1.717   0.856  12.285  0.1116 -0.5763 -0.5812
 2885SOL    HW120291   1.809   0.831  12.282  0.1728 -0.1530 -2.1757
 2885SOL    HW220292   1.731   0.948  12.305  0.6196 -1.1117  1.4419
 2886SOL     OW20293   3.067   2.542  12.633 -0.0394  0.5569  0.5508
 2886SOL    HW120294   2.986   2.539  12.682  1.4789  0.0086  3.0137
 2886SOL    HW220295   3.065   2.462  12.580 -0.2174  0.1100  1.2343
 2887SOL     OW20296   0.932   1.507   8.409 -0.5626  0.3310 -0.2607
 2887SOL    HW120297   0.888   1.435   8.363 -1.5855  1.5381 -1.1507
 2887SOL    HW220298   1.021   1.497   8.376 -0.9562 -3.5216 -0.1854
 2888SOL     OW20299   4.384   3.336   6.348  0.3387  1.1681  0.0582
 2888SOL    HW120300   4.424   3.377   6.272  0.2235 -3.0556 -2.2565
 2888SOL    HW220301   4.382   3.246   6.315  1.1646  1.4265 -0.6767
 2889SOL     OW20302   3.195   2.855  10.944 -0.0644  0.3712  0.3052
 2889SOL    HW120303   3.232   2.795  10.880 -3.2721 -0.2755 -0.9379
 2889SOL    HW220304   3.273   2.909  10.958 -1.5760  3.5127 -3.4601
 2890SOL     OW20305   1.718   4.489   2.977 -0.1485 -0.0075 -0.4229
 2890SOL    HW120306   1.739   4.404   3.016 -0.2034 -0.3803 -1.2073
 2890SOL    HW220307   1.740   4.544   3.052  2.3453 -0.6096 -0.7086
 2891SOL     OW20308   4.188   2.868   2.118 -0.3151 -0.0033 -0.2240
 2891SOL    HW120309   4.118   2.880   2.182 -1.3306  1.4114 -1.6128
 2891SOL    HW220310   4.223   2.779   2.125 -0.6020 -0.1890 -1.2051
 2892SOL     OW20311   3.063   2.599  10.882  0.0268  0.0288  0.3264
 2892SOL    HW120312   3.069   2.671  10.945  1.1764  0.0805  0.1399
 2892SOL    HW220313   3.145   2.562  10.915  1.0675  0.2854 -2.0154
 2893SOL     OW20314   3.641   3.753   6.071  0.3205 -0.6726 -0.2452
 2893SOL    HW120315   3.564   3.808   6.086 -0.0226 -1.8800  2.5106
 2893SOL    HW220316   3.635   3.702   6.152 -0.5704  1.5548  1.1008
 2894SOL     OW20317   4.339   2.540   7.188 -0.1691  1.0628 -0.6570
 2894SOL    HW120318   4.399   2.471   7.158 -0.3612  0.7104 -0.2353
 2894SOL    HW220319   4.254   2.505   7.163 -0.1496  1.1805 -0.8923
 2895SOL     OW20320   4.216   0.096   8.311 -0.4221 -0.0408  0.0168
 2895SOL    HW120321   4.134   0.080   8.265  1.2988 -1.8511 -2.4653
 2895SOL    HW220322   4.206   0.185   8.345 -2.1699 -0.6755  1.1224
 2896SOL     OW20323   3.050   4.674   5.793 -0.0770  0.0600  0.3456
 2896SOL    HW120324   3.082   4.711   5.711  0.0132 -0.8280 -0.0204
 2896SOL    HW220325   3.095   4.590   5.791  1.7554  1.0602 -0.1847
 2897SOL     OW20326   2.747   1.854   1.262 -0.0438 -0.3652  0.2028
 2897SOL    HW120327   2.711   1.775   1.222  1.0225 -1.2373  0.9735
 2897SOL    HW220328   2.790   1.896   1.188  0.4635 -0.8599  0.2237
 2898SOL     OW20329   3.268   3.213   1.946  0.1508  0.0655 -0.1090
 2898SOL    HW120330   3.264   3.118   1.936  0.1730  0.0683 -0.1436
 2898SOL    HW220331   3.274   3.245   1.856 -0.0559  0.5283  0.0411
 2899SOL     OW20332   2.835   1.674   6.343  0.6043 -0.0534 -0.0086
 2899SOL    HW120333   2.807   1.740   6.279  0.3458  0.1945  0.3592
 2899SOL    HW220334   2.910   1.719   6.382  0.5454 -0.0705  0.1246
 2900SOL     OW20335   3.807   4.430  15.388 -0.0062 -0.3275  0.4416
 2900SOL    HW120336   3.739   4.382  15.434 -1.6386  1.3373 -0.2166
 2900SOL    HW220337   3.787   4.401  15.299  0.7465  0.6956 -0.0628
 2901SOL     OW20338   2.016   0.972   6.171  0.4475  0.0149 -0.5224
 2901SOL    HW120339   2.093   1.025   6.194  0.9481 -0.6054 -0.7736
 2901SOL    HW220340   2.052   0.890   6.136 -0.7402 -1.0925  0.8795
 2902SOL     OW20341   2.007   2.767  10.150 -0.4811 -0.5211  0.1321
 2902SOL    HW120342   1.995   2.744  10.058 -0.1626  1.0650 -0.3074
 2902SOL    HW220343   2.016   2.675  10.175 -1.0983 -0.6740 -0.2173
 2903SOL     OW20344   0.245   0.800   9.255  0.2136  0.0452 -0.3631
 2903SOL    HW120345   0.198   0.882   9.241 -2.7824 -1.9759 -2.2053
 2903SOL    HW220346   0.187   0.727   9.231  0.6668  0.1446 -1.7754
 2904SOL     OW20347   4.487   4.340   7.445  0.3657 -0.3220 -0.2005
 2904SOL    HW120348   4.437   4.346   7.526  2.3685  0.1129  1.0250
 2904SOL    HW220349   4.468   4.248   7.425  1.0113 -0.2121 -1.3257
 2905SOL     OW20350   3.767   3.020  12.001 -0.4498  0.6748  0.1941
 2905SOL    HW120351   3.682   3.047  11.967 -0.4500  1.5774  0.8894
 2905SOL    HW220352   3.775   2.936  11.957 -0.5605  0.2014  1.0722
 2906SOL     OW20353   0.695   3.380   1.826 -0.3614  0.6002 -0.7412
 2906SOL    HW120354   0.652   3.462   1.804 -3.5568 -0.0630  3.0475
 2906SOL    HW220355   0.637   3.354   1.897  1.6455  0.5850  0.8913
 2907SOL     OW20356   1.502   2.135   3.170  0.0154 -0.3041 -0.1574
 2907SOL    HW120357   1.488   2.075   3.097 -0.7857  1.5100 -1.4982
 2907SOL    HW220358   1.596   2.153   3.171  0.0709 -0.5892 -0.2913
 2908SOL     OW20359   3.634   3.984  15.178  0.4056 -0.0407  0.2524
 2908SOL    HW120360   3.705   4.042  15.150  0.9891 -0.6903  0.3958
 2908SOL    HW220361   3.651   3.979  15.272 -0.3380 -1.8490  0.2889
 2909SOL     OW20362   1.586   1.616   6.325  0.3067  0.0926 -0.6142
 2909SOL    HW120363   1.568   1.661   6.408 -3.4405 -0.4558 -1.1663
 2909SOL    HW220364   1.569   1.523   6.341 -0.4544  0.5488  1.2389
 2910SOL     OW20365   0.426   1.595  11.006  0.4876  0.0969  0.1676
 2910SOL    HW120366   0.393   1.614  11.093  0.2127  1.7167 -0.2882
 2910SOL    HW220367   0.520   1.577  11.014  0.0455 -2.9986 -1.5000
 2911SOL     OW20368   2.777   0.656  11.047 -0.1642  0.2802  0.3235
 2911SOL    HW120369   2.689   0.676  11.079 -0.4231 -1.4197  0.6973
 2911SOL    HW220370   2.788   0.570  11.088  1.4435  0.4160  0.1768
 2912SOL     OW20371   3.922   0.233  11.211  0.1325 -0.1906  0.4194
 2912SOL    HW120372   3.906   0.163  11.275 -2.1309  1.1492  1.2946
 2912SOL    HW220373   4.014   0.256  11.226  0.2676 -0.4187 -0.0469
 2913SOL     OW20374   0.843   2.625   7.480  0.0198  0.2900  0.0165
 2913SOL    HW120375   0.877   2.595   7.564 -2.0193  0.3265  0.8526
 2913SOL    HW220376   0.922   2.622   7.427  0.7379  1.4464  1.0458
 2914SOL     OW20377   1.077   3.635   7.906 -0.1356  0.3046 -0.2229
 2914SOL    HW120378   1.110   3.681   7.829  1.8914 -0.8828 -0.0686
 2914SOL    HW220379   1.076   3.711   7.965  1.3618  0.6671 -0.6651
 2915SOL     OW20380   1.780   1.278   8.105 -0.1045  0.3840  0.2031
 2915SOL    HW120381   1.822   1.335   8.040  0.6467  2.8203  2.8255
 2915SOL    HW220382   1.759   1.342   8.172  0.3510  0.7264  0.0248
 2916SOL     OW20383   1.355   4.616   3.823  0.0445 -0.0499  0.4622
 2916SOL    HW120384   1.450   4.604   3.835  0.2027  0.8916  0.1314
 2916SOL    HW220385   1.329   4.526   3.844 -1.6732  0.3042 -0.2400
 2917SOL     OW20386   0.472   2.209   1.535  0.0355  0.2659  0.1235
 2917SOL    HW120387   0.414   2.284   1.552  0.7629  0.4520  1.7724
 2917SOL    HW220388   0.479   2.178   1.625  0.0626  2.0509  0.7451
 2918SOL     OW20389   3.384   0.900   5.189  0.0387 -0.6330  0.5933
 2918SOL    HW120390   3.477   0.881   5.203  0.1308 -1.7794 -1.6365
 2918SOL    HW220391   3.370   0.930   5.279  1.8158  1.6814  0.1153
 2919SOL     OW20392   4.166   0.819   3.301 -0.3605 -0.0631 -0.0313
 2919SOL    HW120393   4.106   0.799   3.229 -0.0430 -0.5844 -0.1460
 2919SOL    HW220394   4.103   0.870   3.352  0.9834 -1.5857  3.0787
 2920SOL     OW20395   4.157   2.675   5.126 -0.4168 -0.2025  0.6745
 2920SOL    HW120396   4.167   2.582   5.103 -3.1774 -0.1780 -0.6202
 2920SOL    HW220397   4.152   2.705   5.036  0.7109 -0.7888  0.4271
 2921SOL     OW20398   2.291   1.166   4.039 -0.6282 -0.0185 -0.3243
 2921SOL    HW120399   2.379   1.133   4.056 -0.8267 -1.3547 -1.9247
 2921SOL    HW220400   2.284   1.162   3.944 -3.0867 -3.7084 -0.0018
 2922SOL     OW20401   2.376   2.094   7.701  0.0242  0.2729 -0.6757
 2922SOL    HW120402   2.466   2.102   7.670 -0.2543  1.5333 -1.1197
 2922SOL    HW220403   2.363   2.174   7.751  1.9785 -0.9293  1.7750
 2923SOL     OW20404   0.068   3.180   4.319 -0.0075  0.2469 -0.4532
 2923SOL    HW120405   4.732   3.126   4.294  1.4739 -0.3733 -3.5956
 2923SOL    HW220406   0.045   3.225   4.401  1.1653  1.2831 -0.6876
 2924SOL     OW20407   2.622   3.481   3.097 -0.8887  0.3522  0.5741
 2924SOL    HW120408   2.676   3.423   3.151 -0.1118 -0.4362 -1.0628
 2924SOL    HW220409   2.646   3.461   3.007  0.8483 -3.1479  1.7649
 2925SOL     OW20410   4.279   2.104   4.092  0.1535  0.4709  0.2090
 2925SOL    HW120411   4.331   2.027   4.116  1.4702  1.9173  1.9868
 2925SOL    HW220412   4.194   2.076   4.125 -1.0650  2.9595 -0.8829
 2926SOL     OW20413   3.104   3.916   6.013  0.0756  0.0675  0.2129
 2926SOL    HW120414   3.051   3.890   6.088  0.8499 -0.1830  0.6698
 2926SOL    HW220415   3.052   3.874   5.944  1.6719  0.5917 -1.3018
 2927SOL     OW20416   1.855   2.477   4.967  0.0280 -0.2625  0.2468
 2927SOL    HW120417   1.880   2.459   4.877  1.1086  1.5611  0.1946
 2927SOL    HW220418   1.771   2.433   4.980 -1.4234  2.2355 -0.6133
 2928SOL     OW20419   3.661   3.657   5.088  0.5947  0.3466  0.5137
 2928SOL    HW120420   3.627   3.699   5.009  1.0204 -0.3105 -0.0220
 2928SOL    HW220421   3.751   3.636   5.062  0.0883 -0.3023 -0.6772
 2929SOL     OW20422   2.556   2.697   6.374  0.1207 -0.1063 -0.2161
 2929SOL    HW120423   2.507   2.615   6.382  0.2311 -0.0102  1.5429
 2929SOL    HW220424   2.631   2.676   6.319  2.0874  1.3938  1.9171
 2930SOL     OW20425   1.128   1.423   6.484  0.4289 -0.8289 -0.3886
 2930SOL    HW120426   1.180   1.413   6.404  0.4746 -3.0928 -0.0788
 2930SOL    HW220427   1.056   1.361   6.473  0.0355 -0.4331 -0.0325
 2931SOL     OW20428   3.126   2.337   9.380  0.1838  0.5413 -0.5646
 2931SOL    HW120429   3.165   2.318   9.294  0.4718  0.6517 -0.4581
 2931SOL    HW220430   3.116   2.428   9.355  1.9878  0.5470 -1.2872
 2932SOL     OW20431   1.189   4.212   6.530  0.3355  0.6918 -0.1824
 2932SOL    HW120432   1.261   4.268   6.558  1.4762  0.0811 -1.9404
 2932SOL    HW220433   1.165   4.259   6.450  1.2494 -0.3576 -1.0721
 2933SOL     OW20434   4.346   2.914  13.253 -0.0905 -0.4588 -0.2647
 2933SOL    HW120435   4.391   2.867  13.323  1.6807 -0.6207 -1.4912
 2933SOL    HW220436   4.272   2.859  13.228 -0.8559 -0.2887  1.6593
 2934SOL     OW20437   4.463   1.405   9.363  0.6393  0.9022  0.1991
 2934SOL    HW120438   4.488   1.432   9.452 -0.1583 -0.5109  0.8512
 2934SOL    HW220439   4.479   1.311   9.364 -3.1950  0.2624  1.5169
 2935SOL     OW20440   2.003   1.871   6.116  0.2841  0.2961 -0.0261
 2935SOL    HW120441   1.976   1.813   6.045 -0.4571  0.9263 -0.2617
 2935SOL    HW220442   1.955   1.831   6.189 -3.3560  1.9527 -1.5045
 2936SOL     OW20443   0.342   3.163   8.834  0.0778  0.2480  0.3505
 2936SOL    HW120444   0.317   3.224   8.904 -0.4296 -1.4685  1.6985
 2936SOL    HW220445   0.265   3.107   8.847  0.0171  0.4615  0.9211
 2937SOL     OW20446   2.679   0.255  14.558  0.4845  0.1616 -0.3180
 2937SOL    HW120447   2.658   0.179  14.612  0.1061 -0.1115 -0.8541
 2937SOL    HW220448   2.642   0.330  14.605  0.1050  0.0182 -0.3901
 2938SOL     OW20449   1.901   3.737  10.379 -0.4923 -0.7256  0.1655
 2938SOL    HW120450   1.924   3.822  10.415 -1.3353 -0.5273  0.2434
 2938SOL    HW220451   1.987   3.699  10.361 -0.4926 -0.1508 -1.0333
 2939SOL     OW20452   0.077   1.298   0.803  0.7566  0.4365 -0.7581
 2939SOL    HW120453   0.019   1.257   0.739  2.2776 -0.0335 -1.8402
 2939SOL    HW220454   0.006   1.345   0.845 -0.8722 -0.4997 -2.4876
 2940SOL     OW20455   4.596   0.590   9.339  0.8249 -0.2094 -0.3747
 2940SOL    HW120456   4.638   0.515   9.296 -0.9467 -0.7260 -1.1831
 2940SOL    HW220457   4.526   0.598   9.275  0.6732  0.0160 -0.1792
 2941SOL     OW20458   3.590   4.734   6.149 -0.2636 -0.7773  0.1136
 2941SOL    HW120459   3.608   0.046   6.228  0.0355  1.7233 -1.5775
 2941SOL    HW220460   3.502   0.027   6.128  0.7704  2.1415  0.2394
 2942SOL     OW20461   2.625   3.504   2.774  0.1076  0.1859  0.2509
 2942SOL    HW120462   2.708   3.475   2.736  0.1672 -0.2493  0.7033
 2942SOL    HW220463   2.561   3.443   2.737 -1.6778 -0.1769  3.8984
 2943SOL     OW20464   2.885   1.703   1.532  0.4040  0.3117  0.0832
 2943SOL    HW120465   2.851   1.712   1.443 -0.1902 -3.2461 -0.0470
 2943SOL    HW220466   2.814   1.650   1.569 -1.0774  3.1971  1.4191
 2944SOL     OW20467   4.700   3.122   7.847  0.2035  0.1146 -0.0660
 2944SOL    HW120468   0.038   3.102   7.900 -0.9630 -0.7574  1.2630
 2944SOL    HW220469   4.631   3.088   7.904  0.4532  1.8145  1.2438
 2945SOL     OW20470   1.909   2.878  11.363 -0.8504 -0.3830 -0.5002
 2945SOL    HW120471   1.956   2.958  11.385  0.7005 -1.7322  1.1482
 2945SOL    HW220472   1.973   2.816  11.398 -0.9964 -0.3488 -0.1703
 2946SOL     OW20473   0.804   1.778  14.803  0.2759 -0.0560 -0.2464
 2946SOL    HW120474   0.744   1.704  14.806  0.2986 -0.0403  0.5751
 2946SOL    HW220475   0.852   1.755  14.883  2.9308  0.6420 -1.6174
 2947SOL     OW20476   4.571   0.903  10.193  0.4384 -0.2237  0.5905
 2947SOL    HW120477   4.625   0.837  10.149 -0.9648 -0.8851 -0.1277
 2947SOL    HW220478   4.631   0.972  10.221 -2.5320  2.5406  0.1066
 2948SOL     OW20479   0.919   1.140   8.032 -0.3127  0.5339 -0.1395
 2948SOL    HW120480   0.948   1.055   7.998 -0.3938  0.3823  0.1696
 2948SOL    HW220481   0.860   1.164   7.961 -0.0680 -0.2797 -0.6229
 2949SOL     OW20482   3.041   1.433  13.824 -0.1334  0.3020  0.4159
 2949SOL    HW120483   3.061   1.355  13.771  0.3616  0.0139  1.0298
 2949SOL    HW220484   2.960   1.403  13.865 -0.2718  0.4165  0.2237
 2950SOL     OW20485   1.580   1.877   6.749 -0.5808  0.1259  0.0232
 2950SOL    HW120486   1.606   1.963   6.782 -0.6986  0.5380 -0.9510
 2950SOL    HW220487   1.554   1.843   6.835 -0.2463 -1.6463 -0.5900
 2951SOL     OW20488   3.344   2.273   4.868 -0.1051  0.2122 -0.3317
 2951SOL    HW120489   3.365   2.231   4.952 -3.1006 -0.2916  0.1356
 2951SOL    HW220490   3.381   2.199   4.819  0.9537  0.1233  0.5958
 2952SOL     OW20491   1.712   0.331   2.961 -0.5019 -0.6266 -0.1583
 2952SOL    HW120492   1.790   0.383   2.983 -1.7555  1.0678  0.2946
 2952SOL    HW220493   1.662   0.383   3.024  1.3948 -2.6875  3.1111
 2953SOL     OW20494   4.144   3.830   4.188 -0.5992  0.2495 -0.2720
 2953SOL    HW120495   4.156   3.907   4.242 -0.2754  0.2151 -0.2945
 2953SOL    HW220496   4.192   3.761   4.234  0.3829  2.1872  1.5574
 2954SOL     OW20497   4.712   3.842   2.383  0.4647  0.2466  0.0041
 2954SOL    HW120498   4.730   3.867   2.474  2.6640 -0.0613 -0.3497
 2954SOL    HW220499   4.617   3.851   2.383  0.5406  0.8523 -2.0451
 2955SOL     OW20500   0.911   1.798   8.733  0.0237  0.2613  0.1801
 2955SOL    HW120501   0.824   1.766   8.707 -0.7666  2.6280 -0.0329
 2955SOL    HW220502   0.924   1.855   8.657 -0.4147  0.9719  0.6448
 2956SOL     OW20503   1.978   4.618   1.555  0.1784 -0.4014  0.1653
 2956SOL    HW120504   1.895   4.594   1.513 -0.6914 -1.3923  2.4750
 2956SOL    HW220505   1.969   4.704   1.597 -0.5128 -0.5861  0.3966
 2957SOL     OW20506   1.281   1.803   1.970 -0.0401 -0.4863  0.4338
 2957SOL    HW120507   1.312   1.886   1.935  1.6284 -0.9474  0.7828
 2957SOL    HW220508   1.276   1.823   2.063 -0.2792  1.3802  0.0137
 2958SOL     OW20509   1.652   2.584   0.171 -0.2838 -0.0781 -0.5915
 2958SOL    HW120510   1.557   2.579   0.165 -0.1243  0.5286 -3.2713
 2958SOL    HW220511   1.669   2.502   0.218 -1.9561 -0.7409 -1.1492
 2959SOL     OW20512   2.585   0.653   7.247  0.4189 -0.3165  0.0037
 2959SOL    HW120513   2.601   0.694   7.162 -0.0768  0.0221  0.0771
 2959SOL    HW220514   2.630   0.715   7.304  1.9125 -2.8448  1.6037
 2960SOL     OW20515   2.027   3.351  14.912 -0.4854  0.1233 -0.5071
 2960SOL    HW120516   1.937   3.339  14.940 -1.2383  2.6219 -1.7946
 2960SOL    HW220517   2.015   3.412  14.839 -0.5734 -1.3519 -1.7300
 2961SOL     OW20518   4.121   2.273   0.384 -0.0888  0.1165  0.2449
 2961SOL    HW120519   4.124   2.255   0.290  0.9968 -0.9996  0.4889
 2961SOL    HW220520   4.053   2.214   0.415  0.7894 -0.1068  1.7304
 2962SOL     OW20521   0.247   0.273   2.535 -0.2868  0.0461  0.2016
 2962SOL    HW120522   0.223   0.233   2.451  0.8186 -0.0750 -0.0544
 2962SOL    HW220523   0.169   0.317   2.568 -2.1323 -0.9302 -2.8114
 2963SOL     OW20524   2.158   2.282   4.021  0.0935  0.0631 -0.1835
 2963SOL    HW120525   2.111   2.228   4.084  0.9785 -1.0064 -0.4434
 2963SOL    HW220526   2.153   2.226   3.943 -0.5402  0.1717 -0.2218
 2964SOL     OW20527   2.933   3.220  15.022 -0.0788 -0.1419  0.2506
 2964SOL    HW120528   2.896   3.286  15.081  0.8831  2.4067 -2.0230
 2964SOL    HW220529   2.926   3.145  15.082  1.7153 -1.4770 -1.2148
 2965SOL     OW20530   1.720   1.089   7.921  0.3551 -0.3420  0.4333
 2965SOL    HW120531   1.639   1.040   7.939 -0.2362  0.9424  1.2200
 2965SOL    HW220532   1.715   1.144   7.998  1.2022  0.8258 -0.3527
 2966SOL     OW20533   0.639   2.789   5.658  0.0421  0.1900 -0.0114
 2966SOL    HW120534   0.627   2.868   5.607  0.4544 -0.1532 -0.6349
 2966SOL    HW220535   0.556   2.741   5.659 -0.3620  0.9088  1.2893
 2967SOL     OW20536   1.275   4.300   1.593 -0.4434 -0.3456  0.1754
 2967SOL    HW120537   1.218   4.340   1.658 -0.1022 -0.9529  0.8545
 2967SOL    HW220538   1.294   4.379   1.544 -3.8425 -0.3354 -1.1218
 2968SOL     OW20539   2.615   0.556   4.058 -0.2166 -0.0398 -0.2206
 2968SOL    HW120540   2.607   0.473   4.104 -2.2957 -0.0389 -0.5758
 2968SOL    HW220541   2.630   0.529   3.968 -0.3942 -0.1725 -0.2110
 2969SOL     OW20542   3.465   2.214   2.404  0.4356 -0.3349 -0.3838
 2969SOL    HW120543   3.529   2.182   2.468 -1.7306 -0.5483  1.6911
 2969SOL    HW220544   3.522   2.234   2.330  0.6542 -0.1061 -0.1544
 2970SOL     OW20545   2.920   0.293   2.604 -0.9359  0.2169 -0.5640
 2970SOL    HW120546   2.829   0.283   2.576 -1.0386  1.8326 -0.8300
 2970SOL    HW220547   2.930   0.388   2.610 -1.2277  0.2579 -0.7228
 2971SOL     OW20548   4.685   3.618   8.698 -0.2155  0.0389 -0.2164
 2971SOL    HW120549   4.622   3.687   8.719  1.9831  1.8904  0.3491
 2971SOL    HW220550   0.016   3.682   8.683 -0.4582  0.1691 -0.8194
 2972SOL     OW20551   0.990   3.281   6.288 -0.0303  0.3076  0.1825
 2972SOL    HW120552   0.972   3.300   6.380 -0.6271  1.4639 -0.1782
 2972SOL    HW220553   0.981   3.368   6.250 -0.1004  1.3183  2.5735
 2973SOL     OW20554   3.934   2.229   3.485  0.4037 -0.1266 -0.4512
 2973SOL    HW120555   3.978   2.232   3.400  0.4466  2.2555 -0.3371
 2973SOL    HW220556   4.002   2.262   3.544  0.6296 -0.1537 -0.6969
 2974SOL     OW20557   4.487   4.131   2.255  0.1187  0.5512  0.0537
 2974SOL    HW120558   4.454   4.045   2.233 -1.6047  1.0419  0.7298
 2974SOL    HW220559   4.423   4.163   2.319  0.5790  0.3775  0.6086
 2975SOL     OW20560   2.424   0.981  15.966 -0.0361  0.6881  0.2270
 2975SOL    HW120561   2.457   1.070  15.980  0.2067  0.4222  1.3627
 2975SOL    HW220562   2.447   0.973  15.874  0.1732  0.5604  0.2895
 2976SOL     OW20563   3.009   4.703  15.854 -0.5446  0.0265  0.5566
 2976SOL    HW120564   2.954   4.625  15.859  0.8592 -1.0869 -1.0915
 2976SOL    HW220565   3.082   4.664  15.901 -0.1484  1.6082  1.2644
 2977SOL     OW20566   0.129   2.329   8.324  0.7076  0.0961 -0.5853
 2977SOL    HW120567   0.077   2.345   8.403  0.1303  2.1015 -1.3534
 2977SOL    HW220568   0.148   2.416   8.288 -0.4563  1.7546  2.7282
 2978SOL     OW20569   4.055   1.343   3.784 -0.1781  0.1166 -0.1641
 2978SOL    HW120570   4.078   1.349   3.877 -2.0556 -0.6368  0.3397
 2978SOL    HW220571   4.073   1.250   3.773 -0.1944  0.1121 -0.1522
 2979SOL     OW20572   0.076   2.199   9.359  0.3514 -0.0981  0.4468
 2979SOL    HW120573   0.118   2.273   9.316 -0.3403 -1.5546 -2.7548
 2979SOL    HW220574   0.143   2.130   9.356  0.5465  0.1702 -1.3936
 2980SOL     OW20575   3.429   3.537   6.816 -0.1151  0.5156  0.3805
 2980SOL    HW120576   3.368   3.611   6.817  1.9719  2.2274  0.4753
 2980SOL    HW220577   3.502   3.582   6.859 -0.4883  1.6344 -0.1484
 2981SOL     OW20578   3.738   0.634   2.303  0.0237 -0.2908  0.5930
 2981SOL    HW120579   3.769   0.625   2.393  1.2543 -0.9864  0.1034
 2981SOL    HW220580   3.795   0.576   2.252 -0.3041 -0.2576  0.1958
 2982SOL     OW20581   0.087   0.628  13.011 -0.3675  0.5498 -0.0405
 2982SOL    HW120582   0.085   0.678  12.930 -0.6750  0.2653 -0.2035
 2982SOL    HW220583   0.027   0.557  12.989  0.9189 -0.4698 -0.2907
 2983SOL     OW20584   2.995   0.754   3.718  0.1912  0.5444  0.2279
 2983SOL    HW120585   3.059   0.802   3.771  0.5311  1.2135 -0.7734
 2983SOL    HW220586   2.984   0.676   3.773 -0.2616 -0.4244 -1.2429
 2984SOL     OW20587   3.277   2.507  11.046  0.1579 -0.4152 -0.4332
 2984SOL    HW120588   3.267   2.461  11.129  0.9460 -0.5653 -0.4235
 2984SOL    HW220589   3.360   2.551  11.064 -0.3441  0.1527  0.5019
 2985SOL     OW20590   1.396   2.797   5.637  0.2409  0.1006  0.6723
 2985SOL    HW120591   1.457   2.736   5.679 -0.4486  0.2613  1.9041
 2985SOL    HW220592   1.411   2.794   5.542  1.3159  1.1594  0.8142
 2986SOL     OW20593   3.238   3.462   3.643  0.3821 -0.7275 -0.3783
 2986SOL    HW120594   3.281   3.499   3.720 -0.2452  1.7500 -1.2154
 2986SOL    HW220595   3.148   3.492   3.658  1.6739  2.5339  0.9220
 2987SOL     OW20596   2.395   4.706   6.853  0.2414  0.1067 -0.0882
 2987SOL    HW120597   2.367   4.716   6.762 -0.9856 -0.9405  0.1624
 2987SOL    HW220598   2.489   4.694   6.846  0.5553  2.7178 -0.1642
 2988SOL     OW20599   1.161   3.294   3.388 -0.2976  0.0613 -0.0561
 2988SOL    HW120600   1.180   3.313   3.296  1.3668 -0.3691  0.2037
 2988SOL    HW220601   1.066   3.308   3.387 -0.1646  1.0588  1.4696
 2989SOL     OW20602   1.772   2.205   4.338  0.0405  0.0133 -0.1912
 2989SOL    HW120603   1.719   2.270   4.384  0.0190 -0.2458  0.1463
 2989SOL    HW220604   1.777   2.130   4.397  1.9823 -1.2532 -1.9978
 2990SOL     OW20605   2.138   4.068  11.528 -0.2289 -0.3641 -0.1927
 2990SOL    HW120606   2.167   4.091  11.440 -0.2591  0.9015  0.1284
 2990SOL    HW220607   2.210   4.011  11.557 -0.6099 -0.6052  0.2779
 2991SOL     OW20608   3.810   0.457  14.422 -0.2382  0.7565  0.4796
 2991SOL    HW120609   3.751   0.427  14.353  0.9430 -0.9034  0.1980
 2991SOL    HW220610   3.887   0.404  14.404 -2.0302 -1.2467 -1.2189
 2992SOL     OW20611   0.724   1.558   3.115 -0.5035  0.4356  0.1444
 2992SOL    HW120612   0.724   1.501   3.192  2.0532  0.5525  0.2329
 2992SOL    HW220613   0.719   1.642   3.161  0.9666  1.5284 -1.6898
 2993SOL     OW20614   2.087   4.086   6.540 -0.1459  0.3402 -0.6492
 2993SOL    HW120615   2.120   4.173   6.517 -0.9033  1.3333  1.9368
 2993SOL    HW220616   2.169   4.038   6.535 -0.2752  0.0768 -0.3074
 2994SOL     OW20617   4.175   0.718   2.170 -0.3590  0.1013  0.3479
 2994SOL    HW120618   4.191   0.624   2.180 -1.9399 -0.3434 -1.2631
 2994SOL    HW220619   4.256   0.744   2.125  0.5335 -1.2743  1.1923
 2995SOL     OW20620   0.621   3.586   7.384  0.0949  0.5005  0.1422
 2995SOL    HW120621   0.697   3.532   7.407 -0.1201 -0.4396 -1.3922
 2995SOL    HW220622   0.574   3.528   7.324  1.3178 -0.8956  0.5211
 2996SOL     OW20623   3.923   4.061  12.811  0.5605  0.1340 -0.1782
 2996SOL    HW120624   3.880   4.051  12.726 -0.1717 -0.6497  0.2834
 2996SOL    HW220625   3.843   4.084  12.858  0.6974 -2.4542  1.2938
 2997SOL     OW20626   3.301   0.863  16.857 -0.5987  0.5505  0.1791
 2997SOL    HW120627   3.227   0.802  16.859 -1.5697  1.7757  2.5982
 2997SOL    HW220628   3.316   0.881  16.950 -3.5028  0.6462  0.6292
 2998SOL     OW20629   0.753   2.194   1.918 -0.0230  0.6018 -0.3578
 2998SOL    HW120630   0.795   2.171   2.001  1.6270  0.0859 -1.3360
 2998SOL    HW220631   0.821   2.245   1.874  0.9794 -0.8810 -0.5278
 2999SOL     OW20632   0.470   1.278   3.519 -0.2568  0.2920  0.1125
 2999SOL    HW120633   0.378   1.307   3.516 -0.8621 -1.4169  1.9499
 2999SOL    HW220634   0.460   1.189   3.487  3.8567 -0.0642 -0.1138
 3000SOL     OW20635   2.574   0.341   1.313 -0.1282 -0.4163 -0.1053
 3000SOL    HW120636   2.631   0.303   1.379  0.2554 -0.4988 -0.4821
 3000SOL    HW220637   2.514   0.267   1.303 -0.3383 -0.2228 -0.2732
 3001SOL     OW20638   0.939   0.883  14.812 -0.5515  0.2615 -0.1884
 3001SOL    HW120639   0.892   0.955  14.770  0.5178  1.1810  0.2033
 3001SOL    HW220640   0.931   0.921  14.900  2.0983 -0.5927  0.4178
 3002SOL     OW20641   2.842   4.655   2.375  0.0138  0.8185  0.0570
 3002SOL    HW120642   2.842   4.635   2.282 -0.1571 -3.6957  1.0465
 3002SOL    HW220643   2.791   4.582   2.410  0.6018  0.9040  1.0863
 3003SOL     OW20644   4.058   1.287   2.658  0.5964 -0.3685 -0.3044
 3003SOL    HW120645   4.017   1.222   2.715  2.2724 -0.2023  1.0991
 3003SOL    HW220646   4.150   1.262   2.649  0.5874 -0.9354  1.2047
 3004SOL     OW20647   2.931   0.990   9.216  0.0374 -0.2588  0.0491
 3004SOL    HW120648   2.916   1.066   9.271 -0.7022 -0.5718  0.2755
 3004SOL    HW220649   2.968   0.935   9.285 -1.2783  0.5714  1.4090
 3005SOL     OW20650   3.136   0.660   8.276  0.8335  0.3916  0.5323
 3005SOL    HW120651   3.132   0.598   8.203  0.3076  0.8575  0.1618
 3005SOL    HW220652   3.201   0.620   8.334  0.4559  0.6291  1.1251
 3006SOL     OW20653   3.963   0.458  13.578  0.4076 -0.3871  0.2041
 3006SOL    HW120654   3.903   0.393  13.616  0.8587 -1.8601 -1.6264
 3006SOL    HW220655   4.004   0.399  13.515 -1.4269 -0.0401 -1.3144
 3007SOL     OW20656   3.890   0.456   5.930 -0.3336 -0.3853  0.3517
 3007SOL    HW120657   3.836   0.404   5.989  0.1998 -0.8962  0.3793
 3007SOL    HW220658   3.948   0.385   5.905  0.2374 -0.0369  0.6980
 3008SOL     OW20659   3.973   1.368   0.280 -0.3468  0.0633 -0.0284
 3008SOL    HW120660   4.038   1.307   0.245 -1.0614 -0.7142 -0.0021
 3008SOL    HW220661   3.924   1.313   0.342 -1.1581  2.3781  1.4099
 3009SOL     OW20662   0.624   0.461   3.682  0.5457 -0.1045  0.1150
 3009SOL    HW120663   0.609   0.554   3.667 -0.5980 -0.3788 -0.4412
 3009SOL    HW220664   0.580   0.427   3.604  0.9814  0.1097 -0.2279
 3010SOL     OW20665   1.449   3.614   6.063  0.5543  0.1220  0.0477
 3010SOL    HW120666   1.434   3.599   5.970 -0.0195 -1.6944  0.4443
 3010SOL    HW220667   1.362   3.591   6.097  0.0668  0.1803 -1.1492
 3011SOL     OW20668   3.437   3.783   8.547  0.2181 -0.0666  0.5372
 3011SOL    HW120669   3.468   3.693   8.556 -0.5381 -0.7189 -3.1658
 3011SOL    HW220670   3.347   3.767   8.574  0.6171 -0.1434  1.7971
 3012SOL     OW20671   2.942   2.800   1.140 -0.3120  0.4925  0.3642
 3012SOL    HW120672   2.911   2.881   1.100 -0.4150 -1.0027 -2.5287
 3012SOL    HW220673   2.969   2.832   1.227  1.9403 -2.0056  0.5848
 3013SOL     OW20674   1.333   2.385   1.723 -0.2525  0.3433 -0.4055
 3013SOL    HW120675   1.367   2.369   1.635  1.6557  0.7618  0.2626
 3013SOL    HW220676   1.413   2.385   1.775  0.8662  1.2358 -2.1252
 3014SOL     OW20677   3.679   4.242   5.351  0.3445  0.1315  0.0317
 3014SOL    HW120678   3.720   4.155   5.349  0.6190  0.2669 -0.2317
 3014SOL    HW220679   3.614   4.230   5.281 -0.2034  0.2554  0.5148
 3015SOL     OW20680   4.332   2.853   4.276 -0.1286 -0.1748  0.3028
 3015SOL    HW120681   4.322   2.944   4.250 -1.2541 -0.4603 -0.2892
 3015SOL    HW220682   4.389   2.824   4.205 -0.3951 -0.6526  0.2808
 3016SOL     OW20683   3.889   2.911   0.475 -0.4910 -0.2360 -0.2128
 3016SOL    HW120684   3.808   2.908   0.527  0.8270  1.8353  1.9232
 3016SOL    HW220685   3.890   3.005   0.457 -0.4662 -0.4923 -1.5640
 3017SOL     OW20686   0.321   2.670  13.741 -0.2859  0.0673 -0.1744
 3017SOL    HW120687   0.329   2.764  13.728  4.3729 -0.3451 -0.2769
 3017SOL    HW220688   0.408   2.649  13.776 -0.4232  0.7643  0.5607
 3018SOL     OW20689   1.452   3.748  10.686 -0.2431  0.5223 -0.3524
 3018SOL    HW120690   1.368   3.726  10.647 -0.5580 -1.4570  1.4559
 3018SOL    HW220691   1.416   3.800  10.758 -0.3428  1.2842 -0.9583
 3019SOL     OW20692   2.592   4.634   4.329 -0.3524  0.1818  0.9106
 3019SOL    HW120693   2.659   4.670   4.387 -0.9202  1.1792  0.9565
 3019SOL    HW220694   2.568   4.551   4.370  1.8222 -0.2441  1.3219
 3020SOL     OW20695   3.174   3.370  10.481  0.0392  0.0450 -0.8505
 3020SOL    HW120696   3.229   3.400  10.553 -0.3887 -0.4289 -0.3146
 3020SOL    HW220697   3.232   3.309  10.437  0.6928 -0.0170  0.0892
 3021SOL     OW20698   1.260   4.397   4.925 -0.5643 -0.2467 -0.1008
 3021SOL    HW120699   1.205   4.333   4.971 -0.0590 -1.8783 -1.7352
 3021SOL    HW220700   1.312   4.335   4.874  1.1552 -0.0912  1.4834
 3022SOL     OW20701   4.103   2.167   1.423 -0.4012 -0.2952  0.4801
 3022SOL    HW120702   4.044   2.230   1.382 -1.5636 -1.3529  0.5426
 3022SOL    HW220703   4.132   2.127   1.341  0.9781 -1.4652  1.5357
 3023SOL     OW20704   0.813   2.031   5.257 -0.1194  0.5155 -0.6754
 3023SOL    HW120705   0.873   2.105   5.266  1.7141 -0.7921 -2.1462
 3023SOL    HW220706   0.770   2.039   5.342  1.8308  2.9725  0.0894
 3024SOL     OW20707   3.283   1.955   2.756 -0.4922  0.5504 -0.2259
 3024SOL    HW120708   3.199   2.001   2.755 -1.1315 -0.6228  0.4008
 3024SOL    HW220709   3.264   1.903   2.678  0.7615 -0.5149  0.1916
 3025SOL     OW20710   1.861   3.839   4.901 -0.0512 -0.0824 -0.1626
 3025SOL    HW120711   1.871   3.859   4.994 -2.3947 -0.8602  0.2586
 3025SOL    HW220712   1.819   3.922   4.875  1.8258  0.7745 -0.4525
 3026SOL     OW20713   4.174   3.429   0.492  0.3357 -0.3606  0.2248
 3026SOL    HW120714   4.244   3.390   0.545  1.0949 -0.2288 -0.6842
 3026SOL    HW220715   4.199   3.387   0.410 -0.7941 -0.7473  0.0820
 3027SOL     OW20716   4.648   4.478   4.443 -0.1026 -0.9518 -0.2666
 3027SOL    HW120717   4.624   4.432   4.362 -1.3886  2.2938 -1.7042
 3027SOL    HW220718   4.735   4.441   4.456  0.7207  0.7231 -1.0496
 3028SOL     OW20719   4.332   0.382   5.723 -0.6283  0.0469 -0.3374
 3028SOL    HW120720   4.297   0.457   5.771 -0.9509 -0.5657  0.3746
 3028SOL    HW220721   4.284   0.311   5.764  0.9458  0.9313  2.9978
 3029SOL     OW20722   4.015   0.416  15.141 -0.0786  0.2250 -0.8278
 3029SOL    HW120723   4.000   0.506  15.111  1.2738  0.6551 -0.1772
 3029SOL    HW220724   3.960   0.410  15.219 -1.6365  2.5930 -1.7437
 3030SOL     OW20725   3.022   2.112   5.986 -0.0259  0.0354  0.2688
 3030SOL    HW120726   2.971   2.171   5.930 -0.9029 -1.3589 -0.4059
 3030SOL    HW220727   3.090   2.088   5.923  0.1268  0.8058  0.1417
 3031SOL     OW20728   2.585   3.859   8.386  0.0544 -0.4680  0.4732
 3031SOL    HW120729   2.498   3.853   8.346 -0.1245 -0.3834  0.8441
 3031SOL    HW220730   2.564   3.898   8.471  1.7085 -0.2659  0.7848
 3032SOL     OW20731   2.386   2.228   5.086 -0.0633  0.1124  0.1063
 3032SOL    HW120732   2.320   2.186   5.141 -1.4308  1.1736 -0.7567
 3032SOL    HW220733   2.328   2.269   5.022  0.1772  0.1094 -0.1129
 3033SOL     OW20734   3.717   1.857   8.925  0.3639  0.6714 -0.2737
 3033SOL    HW120735   3.784   1.872   8.859  0.3254  1.1554 -0.2032
 3033SOL    HW220736   3.719   1.761   8.925 -2.6957  0.6035 -0.1666
 3034SOL     OW20737   3.814   3.693   4.055 -0.5206 -0.3548 -0.1145
 3034SOL    HW120738   3.790   3.739   4.135 -2.3882  2.4882 -2.2891
 3034SOL    HW220739   3.727   3.689   4.014 -0.7039 -0.7996  0.3187
 3035SOL     OW20740   3.598   3.095   6.267  0.1343 -0.3650 -0.0916
 3035SOL    HW120741   3.582   3.017   6.213  0.3628  0.4502 -1.3332
 3035SOL    HW220742   3.559   3.165   6.214  1.6261  0.7402  0.2791
 3036SOL     OW20743   3.083   0.321   2.806 -0.3571 -0.3580  0.1660
 3036SOL    HW120744   3.022   0.292   2.738  0.7833  0.6472 -1.2935
 3036SOL    HW220745   3.025   0.356   2.873 -0.5643  0.4614 -0.4436
 3037SOL     OW20746   1.310   1.524   2.450 -0.2862 -0.2255  0.0053
 3037SOL    HW120747   1.364   1.601   2.465 -0.1236 -0.7739  2.2264
 3037SOL    HW220748   1.255   1.563   2.382  1.6392  1.4651 -0.5822
 3038SOL     OW20749   4.724   1.572   0.189 -0.0563  0.5219  0.2363
 3038SOL    HW120750   4.688   1.486   0.211  1.6294  0.1726  1.5839
 3038SOL    HW220751   4.660   1.605   0.126  0.4821 -0.1880 -0.6786
 3039SOL     OW20752   4.042   1.668  14.017  0.6791  0.0705  0.3362
 3039SOL    HW120753   4.003   1.582  14.003  2.6731 -1.1066  2.1492
 3039SOL    HW220754   4.007   1.681  14.105 -2.5660  0.9829 -1.0845
 3040SOL     OW20755   2.928   4.220  10.697 -0.1101 -0.0119 -0.4550
 3040SOL    HW120756   3.004   4.275  10.679  0.8553 -1.1087  0.2352
 3040SOL    HW220757   2.856   4.250  10.641 -0.8371 -0.6684  0.1207
 3041SOL     OW20758   0.177   2.004   4.942  0.4412 -0.7942  0.3244
 3041SOL    HW120759   0.162   1.945   5.017 -0.1646 -0.6613  0.3099
 3041SOL    HW220760   0.269   1.991   4.922  1.3926  2.2262  2.7904
 3042SOL     OW20761   3.212   0.998   7.692  0.4853  0.2895  0.6351
 3042SOL    HW120762   3.206   0.966   7.782 -2.0348 -2.3370 -0.4446
 3042SOL    HW220763   3.247   0.925   7.642 -2.2431 -0.3552 -0.3016
 3043SOL     OW20764   4.122   0.280   2.126  0.1055  0.0654  0.5349
 3043SOL    HW120765   4.204   0.327   2.114  1.2040 -1.2912  2.7022
 3043SOL    HW220766   4.132   0.206   2.065 -0.2150 -0.3992  1.0401
 3044SOL     OW20767   3.090   4.559   4.284  0.0552  0.4008 -0.4784
 3044SOL    HW120768   3.096   4.576   4.378 -2.1183  2.5947 -0.7203
 3044SOL    HW220769   3.169   4.602   4.252 -0.6065  1.5199 -0.6091
 3045SOL     OW20770   2.397   2.903   7.755  0.5244  0.4596  0.2127
 3045SOL    HW120771   2.458   2.976   7.742  0.2950  0.7380  0.7183
 3045SOL    HW220772   2.364   2.901   7.665  2.1283 -0.5914 -0.3654
 3046SOL     OW20773   2.192   3.533  12.056 -0.2061 -0.4819  0.0581
 3046SOL    HW120774   2.100   3.555  12.065 -0.1001  0.7537 -2.0292
 3046SOL    HW220775   2.231   3.620  12.066  3.1588 -1.9844  0.0669
 3047SOL     OW20776   1.296   1.996   1.470  0.8185 -0.1710  0.0531
 3047SOL    HW120777   1.269   1.906   1.488  2.0484 -0.1238  2.1224
 3047SOL    HW220778   1.354   1.982   1.395  2.6448  1.9752  1.0843
 3048SOL     OW20779   1.746   1.482  15.803 -0.3447  0.0112  0.3294
 3048SOL    HW120780   1.738   1.387  15.793  2.3385 -0.0963 -0.7816
 3048SOL    HW220781   1.755   1.509  15.712 -0.9473  0.6312  0.4510
 3049SOL     OW20782   2.304   0.326   0.377 -0.5038  0.2560 -1.1874
 3049SOL    HW120783   2.221   0.365   0.352 -0.6761  0.4713 -0.2454
 3049SOL    HW220784   2.282   0.234   0.393  0.9933 -0.2336 -1.8739
 3050SOL     OW20785   0.515   4.383   9.781 -0.6444 -0.3538  0.0037
 3050SOL    HW120786   0.474   4.462   9.746 -2.5142 -1.8068 -1.0763
 3050SOL    HW220787   0.484   4.385   9.872  1.2875  0.5273  0.6335
 3051SOL     OW20788   4.516   2.796  13.833  0.1836 -0.2915 -0.1188
 3051SOL    HW120789   4.559   2.873  13.795 -0.8546  0.1375 -0.4418
 3051SOL    HW220790   4.521   2.814  13.926 -1.1757 -0.0122 -0.1035
 3052SOL     OW20791   2.103   0.576  11.162 -0.0250 -0.3043  0.5051
 3052SOL    HW120792   2.144   0.490  11.156  3.3480  1.2168  1.7618
 3052SOL    HW220793   2.167   0.629  11.210  1.4179  1.4220 -3.4044
 3053SOL     OW20794   4.327   0.303   6.800 -0.2024  0.8161  0.4027
 3053SOL    HW120795   4.416   0.304   6.763 -0.9124  1.3982 -1.2733
 3053SOL    HW220796   4.349   0.252   6.878 -2.4525  0.7768  0.9939
 3054SOL     OW20797   4.711   0.751   3.998  0.0454 -0.0129  0.4249
 3054SOL    HW120798   4.687   0.823   3.940  1.7441  0.8445  0.7871
 3054SOL    HW220799   4.632   0.697   3.999 -0.6921  1.0152 -1.2439
 3055SOL     OW20800   0.686   3.146   4.357 -0.2132 -0.1473  0.1161
 3055SOL    HW120801   0.643   3.110   4.280 -0.3430 -1.8339  0.9765
 3055SOL    HW220802   0.616   3.206   4.383 -0.1233  0.5377 -1.2134
 3056SOL     OW20803   0.303   2.604   5.167  0.1972  0.3587 -0.5824
 3056SOL    HW120804   0.254   2.668   5.115 -3.7471 -0.3001  2.2629
 3056SOL    HW220805   0.307   2.658   5.246  1.0292 -3.4509  1.9838
 3057SOL     OW20806   3.548   0.939  12.942  0.5202 -0.6114 -0.2431
 3057SOL    HW120807   3.574   1.029  12.962  0.5608 -0.5074 -0.7446
 3057SOL    HW220808   3.502   0.905  13.019 -2.3476  1.1824 -1.1704
 3058SOL     OW20809   3.833   1.446   4.025  0.5152  0.2926  0.4683
 3058SOL    HW120810   3.921   1.482   4.030  0.4749  0.5694 -0.7085
 3058SOL    HW220811   3.787   1.525   4.054  0.1150  0.3663 -0.3554
 3059SOL     OW20812   3.419   1.253  11.897  0.6157 -0.2889  0.5401
 3059SOL    HW120813   3.475   1.182  11.929 -0.4265 -1.0804  0.6237
 3059SOL    HW220814   3.332   1.212  11.891  0.1282  0.8566 -0.1025
 3060SOL     OW20815   3.854   3.523   7.547 -0.5639 -0.0910  0.1937
 3060SOL    HW120816   3.769   3.509   7.504 -0.2482 -0.1664 -0.4002
 3060SOL    HW220817   3.916   3.542   7.477 -0.0060  2.3140  1.3104
 3061SOL     OW20818   1.691   0.721   8.133 -0.4073  0.3163 -0.7771
 3061SOL    HW120819   1.763   0.767   8.088  0.1122  1.6628  1.4117
 3061SOL    HW220820   1.725   0.632   8.126 -2.8402 -0.6129 -0.4541
 3062SOL     OW20821   4.275   4.080   1.882  0.0417 -0.2729  0.1131
 3062SOL    HW120822   4.334   4.009   1.908  0.4507 -1.0228 -2.8364
 3062SOL    HW220823   4.276   4.073   1.786 -2.8423 -2.4763  0.2400
 3063SOL     OW20824   1.999   3.475  14.670 -0.4558 -0.3462  0.4199
 3063SOL    HW120825   2.065   3.423  14.625 -0.1605 -1.5444  2.2162
 3063SOL    HW220826   1.981   3.532  14.596  0.5324  0.2943  0.6769
 3064SOL     OW20827   3.578   1.171   6.753  0.6385 -0.6419  0.6039
 3064SOL    HW120828   3.569   1.235   6.682 -0.1402  0.5314  1.7703
 3064SOL    HW220829   3.493   1.127   6.749 -1.0424  2.5966  0.4006
 3065SOL     OW20830   1.015   4.081   3.054  0.5542  0.3141  0.2220
 3065SOL    HW120831   1.016   4.173   3.029  1.5661 -0.0849 -1.1791
 3065SOL    HW220832   1.030   4.034   2.972  1.7729  0.6351  0.2602
 3066SOL     OW20833   0.756   3.885   3.750 -0.0421  0.1131 -0.5247
 3066SOL    HW120834   0.674   3.915   3.712  0.6490  3.0760  0.3242
 3066SOL    HW220835   0.749   3.794   3.721  0.1844 -0.6441  1.8166
 3067SOL     OW20836   3.526   0.470   9.584 -0.3406  0.2552  0.2798
 3067SOL    HW120837   3.601   0.528   9.590 -0.6213  0.7330 -0.9094
 3067SOL    HW220838   3.508   0.486   9.491  0.0703 -1.1606 -0.0576
 3068SOL     OW20839   0.737   0.722   3.189  0.2360  0.0512  0.3421
 3068SOL    HW120840   0.752   0.635   3.152  0.5479 -0.0482  0.6971
 3068SOL    HW220841   0.724   0.770   3.107  1.7181  2.8107  1.6981
 3069SOL     OW20842   1.812   2.226   5.771  0.2496 -0.2904  0.0362
 3069SOL    HW120843   1.742   2.170   5.804 -0.0424 -1.1404 -1.9694
 3069SOL    HW220844   1.889   2.181   5.805 -0.3511 -0.2158  1.4986
 3070SOL     OW20845   3.398   4.398   0.703 -0.0914 -0.0085  0.5689
 3070SOL    HW120846   3.463   4.428   0.640  2.0201 -1.3505  2.1210
 3070SOL    HW220847   3.364   4.314   0.671  0.2089  0.1765 -0.2242
 3071SOL     OW20848   4.595   1.296   3.612 -0.2363 -0.5203 -0.2922
 3071SOL    HW120849   4.613   1.204   3.591 -4.5381 -1.4078 -0.0027
 3071SOL    HW220850   4.652   1.338   3.546  0.9504  0.1582  1.1631
 3072SOL     OW20851   1.556   4.693  11.580 -0.7257  0.0857 -0.2555
 3072SOL    HW120852   1.512   0.008  11.646 -3.3047 -0.7424 -1.3104
 3072SOL    HW220853   1.535   4.607  11.614  0.2216 -0.3223 -0.6869
 3073SOL     OW20854   0.838   2.203  10.087  0.5237  0.4643 -0.1181
 3073SOL    HW120855   0.820   2.197  10.181  0.3317 -0.7569 -0.2264
 3073SOL    HW220856   0.872   2.116  10.067 -0.0515  0.4461 -1.0421
 3074SOL     OW20857   3.106   0.895   4.530 -0.4972  0.1434  0.1632
 3074SOL    HW120858   3.123   0.837   4.605  1.5362 -1.1252 -1.2772
 3074SOL    HW220859   3.083   0.976   4.576 -1.6142  1.3623 -2.5531
 3075SOL     OW20860   2.453   1.327   7.254 -0.0391 -0.1721 -0.1065
 3075SOL    HW120861   2.532   1.323   7.201 -1.3709  2.6754 -2.3201
 3075SOL    HW220862   2.399   1.279   7.191  0.4735 -2.4668  1.2117
 3076SOL     OW20863   0.144   1.173   6.797  0.4708  0.3310  0.3202
 3076SOL    HW120864   0.209   1.103   6.803 -0.4048 -0.4164  1.2473
 3076SOL    HW220865   0.064   1.121   6.794  2.3614 -2.4701 -1.2458
 3077SOL     OW20866   1.148   3.662  13.995  0.5836 -0.2177  0.6083
 3077SOL    HW120867   1.168   3.750  14.026 -0.8907  0.1911  0.3889
 3077SOL    HW220868   1.237   3.628  14.002  0.9984  0.5696 -0.8155
 3078SOL     OW20869   0.986   1.807   2.232  0.0511 -0.0716  0.3836
 3078SOL    HW120870   0.972   1.854   2.150 -2.5581 -1.2847  0.1606
 3078SOL    HW220871   0.955   1.719   2.208 -1.2302  0.9455 -1.6963
 3079SOL     OW20872   3.099   1.753   7.353  0.2293  0.0823  0.0094
 3079SOL    HW120873   3.106   1.718   7.442 -0.2892 -0.4352 -0.1504
 3079SOL    HW220874   3.066   1.841   7.371 -1.0454 -0.2317 -0.8294
 3080SOL     OW20875   4.141   2.914  17.629  0.0525  0.4422  0.7268
 3080SOL    HW120876   4.071   2.855  17.654  0.7302 -1.4335 -1.7890
 3080SOL    HW220877   4.217   2.861  17.654 -0.6810 -0.7416  0.4277
 3081SOL     OW20878   2.008   3.424   2.844 -0.0986  0.0704 -1.0470
 3081SOL    HW120879   2.057   3.382   2.773 -1.3514 -2.6920 -0.3055
 3081SOL    HW220880   1.958   3.346   2.867  0.8077 -0.3705 -0.5831
 3082SOL     OW20881   1.264   1.985   2.528 -0.0111  0.4577 -0.3194
 3082SOL    HW120882   1.313   2.065   2.507  1.0204 -0.1252 -0.1382
 3082SOL    HW220883   1.327   1.938   2.583  0.6713  0.7907 -0.8063
 3083SOL     OW20884   2.183   4.325   4.416 -0.2179  0.6907  0.3677
 3083SOL    HW120885   2.153   4.241   4.382  0.9650  0.6976 -0.6991
 3083SOL    HW220886   2.163   4.375   4.337  1.3309  0.3183 -0.2660
 3084SOL     OW20887   4.589   2.971  12.729  0.2930 -0.1874  0.0052
 3084SOL    HW120888   4.573   2.966  12.823  1.6788  2.5371  0.3806
 3084SOL    HW220889   4.644   3.049  12.729  2.9971 -2.1097 -0.3094
 3085SOL     OW20890   0.141   1.529   8.058  0.2457  0.1400 -0.0545
 3085SOL    HW120891   0.136   1.477   8.138 -0.0728 -0.0104 -0.1727
 3085SOL    HW220892   0.218   1.480   8.027  0.9910  2.3401 -1.7155
 3086SOL     OW20893   2.501   4.462   4.664 -0.1887 -0.3358 -0.2726
 3086SOL    HW120894   2.496   4.477   4.758  0.2887  1.9627 -0.6211
 3086SOL    HW220895   2.446   4.535   4.634  1.2252  0.4032 -1.0713
 3087SOL     OW20896   3.153   3.637   5.849  0.5469 -0.1566 -0.1160
 3087SOL    HW120897   3.104   3.573   5.901  0.8546  1.7330  2.5401
 3087SOL    HW220898   3.227   3.645   5.909  1.1468 -2.8353 -0.5294
 3088SOL     OW20899   0.878   4.203   9.724  0.2911 -0.3075 -0.2794
 3088SOL    HW120900   0.962   4.163   9.744  0.8040  0.9707  0.1256
 3088SOL    HW220901   0.903   4.235   9.637 -0.0189 -1.0636 -0.6428
 3089SOL     OW20902   2.844   3.209  14.750  0.5087 -0.1667 -0.6449
 3089SOL    HW120903   2.853   3.202  14.845 -0.4718 -0.2847 -0.5586
 3089SOL    HW220904   2.911   3.143  14.732  0.5719 -0.0917 -0.6830
 3090SOL     OW20905   0.929   1.048   1.167  0.6866  0.0400  0.1765
 3090SOL    HW120906   0.838   1.061   1.138  0.7242 -2.0536 -0.8952
 3090SOL    HW220907   0.974   1.031   1.084  0.0402  0.9740 -0.3704
 3091SOL     OW20908   4.596   4.214   9.958 -0.5240  0.3276 -0.2806
 3091SOL    HW120909   4.637   4.139  10.000 -1.1989 -0.4863 -1.0936
 3091SOL    HW220910   4.671   4.272   9.941  0.6428 -0.4120  2.3861
 3092SOL     OW20911   2.896   2.987   6.161 -0.2711 -0.2032  0.7535
 3092SOL    HW120912   2.971   2.927   6.159 -1.4109 -1.6046 -0.2344
 3092SOL    HW220913   2.911   3.027   6.075 -0.2742 -2.9802 -0.5505
 3093SOL     OW20914   3.795   1.208  15.168 -0.9290 -0.1382 -0.0549
 3093SOL    HW120915   3.780   1.115  15.185  0.9547 -0.4795 -0.2933
 3093SOL    HW220916   3.823   1.246  15.251  0.7154 -1.9110  0.1873
 3094SOL     OW20917   2.695   1.869   4.820  0.7335 -0.2254 -0.4595
 3094SOL    HW120918   2.639   1.903   4.890  0.1173 -3.0629  0.4308
 3094SOL    HW220919   2.760   1.824   4.874  2.8088  1.3389 -1.6312
 3095SOL     OW20920   2.011   2.221   5.279 -0.1323 -0.6843 -0.1974
 3095SOL    HW120921   2.063   2.200   5.201 -1.0467  1.2619 -1.3532
 3095SOL    HW220922   2.042   2.153   5.338 -0.5290  0.0973  0.8991
 3096SOL     OW20923   0.455   0.801   5.841 -0.3391 -0.2042  0.2399
 3096SOL    HW120924   0.409   0.728   5.884  1.7635 -0.7645  1.5442
 3096SOL    HW220925   0.550   0.792   5.848 -0.5827 -2.0540  1.1300
 3097SOL     OW20926   3.924   0.872   8.070  0.1363 -0.2101 -0.0980
 3097SOL    HW120927   3.888   0.947   8.117  0.9154 -0.7863  1.4249
 3097SOL    HW220928   3.837   0.847   8.040  1.3475 -1.7598 -2.3159
 3098SOL     OW20929   1.504   3.028   5.859 -0.2602  0.3403  0.6642
 3098SOL    HW120930   1.595   2.999   5.869  0.5807  1.5924 -3.3251
 3098SOL    HW220931   1.462   2.949   5.892  0.6068  0.3270  1.7107
 3099SOL     OW20932   3.833   1.728   7.691  0.0121  0.0948  0.3564
 3099SOL    HW120933   3.773   1.727   7.765  2.1515 -1.4829  2.0726
 3099SOL    HW220934   3.921   1.716   7.728  0.6766  2.7326 -0.3550
 3100SOL     OW20935   3.201   0.968  10.757  0.9053 -0.1621 -0.2194
 3100SOL    HW120936   3.280   0.970  10.810  1.3920  1.2924 -0.9926
 3100SOL    HW220937   3.205   1.051  10.710 -0.1372  0.0340  0.0302
 3101SOL     OW20938   4.403   0.864   5.923 -0.2989  0.8555 -0.3072
 3101SOL    HW120939   4.459   0.798   5.964  0.0277  0.9012 -0.6768
 3101SOL    HW220940   4.389   0.836   5.833 -0.9544  0.7438 -0.1733
 3102SOL     OW20941   3.789   4.510   9.885  1.0814 -0.1652 -0.3187
 3102SOL    HW120942   3.733   4.520   9.808 -0.9848 -1.7120  0.9898
 3102SOL    HW220943   3.832   4.430   9.853  0.9546 -0.8920  1.3272
 3103SOL     OW20944   0.226   1.028   2.323 -0.3691  0.2098 -0.1531
 3103SOL    HW120945   0.236   1.094   2.391  0.0257 -1.6140  1.5533
 3103SOL    HW220946   0.273   1.067   2.249 -1.8147 -0.4087 -1.4181
 3104SOL     OW20947   3.774   1.121  16.089 -0.1522 -0.2344  0.3483
 3104SOL    HW120948   3.746   1.029  16.087  1.7737 -0.8481  1.4055
 3104SOL    HW220949   3.717   1.154  16.020 -0.9786  0.6258  1.4418
 3105SOL     OW20950   3.177   4.422   5.796  0.6245 -0.0799  0.3628
 3105SOL    HW120951   3.181   4.334   5.836  0.3451  0.0532  0.6875
 3105SOL    HW220952   3.192   4.394   5.706  1.0208  1.4786 -0.0427
 3106SOL     OW20953   4.214   3.599   6.099 -0.2974 -0.5966 -0.1721
 3106SOL    HW120954   4.125   3.583   6.130  1.0216 -0.6444  3.5921
 3106SOL    HW220955   4.243   3.676   6.148 -2.4365  0.2526 -0.2404
 3107SOL     OW20956   0.242   3.936  16.860  0.0672  0.0398 -0.2812
 3107SOL    HW120957   0.176   3.924  16.791 -1.2489 -0.0694  0.9839
 3107SOL    HW220958   0.257   3.842  16.874 -0.0535  0.3661  2.1249
 3108SOL     OW20959   1.977   2.268  13.263  0.3716 -0.0660  0.1399
 3108SOL    HW120960   2.045   2.264  13.196  0.1165 -0.3666 -0.0959
 3108SOL    HW220961   1.920   2.330  13.217 -1.0757 -3.1299 -2.1624
 3109SOL     OW20962   1.870   1.028   4.006 -0.0638  0.5161  0.1013
 3109SOL    HW120963   1.924   0.952   3.982 -0.8877 -0.7999  2.3847
 3109SOL    HW220964   1.832   1.068   3.928 -2.2012  0.4974  1.1266
 3110SOL     OW20965   1.922   1.273  15.487 -0.4233 -0.5252 -0.1727
 3110SOL    HW120966   1.878   1.210  15.430  0.3811 -0.7698 -0.5313
 3110SOL    HW220967   1.894   1.250  15.576 -0.1765  2.6072  0.7178
 3111SOL     OW20968   2.566   1.393   4.869 -0.0303 -0.0794 -0.1583
 3111SOL    HW120969   2.482   1.439   4.867 -0.1669 -0.2991  0.3780
 3111SOL    HW220970   2.540   1.327   4.806  0.5476 -0.7659  0.3209
 3112SOL     OW20971   4.602   3.342   4.074  0.7711  0.1046  0.2963
 3112SOL    HW120972   4.531   3.346   4.010 -0.5582  0.3651  1.7976
 3112SOL    HW220973   4.617   3.248   4.063  0.4307  0.1501 -0.5879
 3113SOL     OW20974   2.732   3.484   8.144  0.3563 -0.4812 -0.7896
 3113SOL    HW120975   2.767   3.479   8.055  2.4603 -1.1135  0.0748
 3113SOL    HW220976   2.641   3.515   8.141  0.5767  0.2262 -0.1697
 3114SOL     OW20977   3.134   1.921  13.471  0.0315 -1.2657  0.1018
 3114SOL    HW120978   3.222   1.890  13.451 -0.2575 -0.1074 -3.0036
 3114SOL    HW220979   3.108   1.852  13.531 -0.6876 -0.2987  0.9115
 3115SOL     OW20980   2.203   1.780  11.328 -0.3118  0.3180  0.1912
 3115SOL    HW120981   2.298   1.779  11.318 -0.5059  0.4284 -1.6533
 3115SOL    HW220982   2.191   1.873  11.347  1.0501  0.7118 -0.8611
 3116SOL     OW20983   0.816   2.024   7.169  0.7318  1.0497  0.0859
 3116SOL    HW120984   0.838   2.077   7.092  0.5739  0.0437 -0.6559
 3116SOL    HW220985   0.768   2.082   7.229 -0.5436  1.0874 -0.9630
 3117SOL     OW20986   2.741   0.613   3.012 -0.7472  0.4165 -0.3811
 3117SOL    HW120987   2.652   0.646   3.028 -0.6290  0.5661 -0.0374
 3117SOL    HW220988   2.728   0.544   2.947 -1.1469 -0.1005  0.2439
 3118SOL     OW20989   4.071   1.440  17.666  0.3905 -0.2838  0.5196
 3118SOL    HW120990   4.089   1.427  17.573 -0.3452  2.3203  0.0064
 3118SOL    HW220991   4.153   1.406  17.700 -0.4094 -4.3351 -1.5387
 3119SOL     OW20992   1.384   3.971   7.467  0.4115 -0.1366  0.1731
 3119SOL    HW120993   1.372   3.877   7.481  0.6611 -0.0437  1.0071
 3119SOL    HW220994   1.333   4.008   7.539 -1.4395 -1.7026 -0.3448
 3120SOL     OW20995   3.831   1.464  15.061  0.2701  0.7251 -0.2261
 3120SOL    HW120996   3.763   1.513  15.107 -0.7619 -1.9105  1.0762
 3120SOL    HW220997   3.814   1.374  15.088 -0.9632  0.9601 -0.2261
 3121SOL     OW20998   3.875   1.333   7.226  0.2173 -0.1329  0.4661
 3121SOL    HW120999   3.968   1.330   7.250  0.1260  0.4980  0.8889
 3121SOL    HW221000   3.894   1.269   7.157 -2.1233  1.5323 -1.7353
 3122SOL     OW21001   3.361   2.962   4.122 -0.2205  0.1552  0.2877
 3122SOL    HW121002   3.402   2.914   4.194  2.0960  2.2004  0.3244
 3122SOL    HW221003   3.302   3.023   4.167 -0.2806  0.9209 -0.8351
 3123SOL     OW21004   2.967   1.335   1.578  0.0198  0.1474 -0.0135
 3123SOL    HW121005   2.904   1.397   1.615 -1.5587 -0.6657 -1.3156
 3123SOL    HW221006   3.038   1.380   1.624 -0.9258  0.9081  0.7140
 3124SOL     OW21007   2.174   3.358   0.803 -0.8895  0.6645 -0.6951
 3124SOL    HW121008   2.098   3.349   0.746 -0.2492 -2.0909 -1.0992
 3124SOL    HW221009   2.202   3.448   0.783 -1.8583  0.9595 -0.6905
 3125SOL     OW21010   4.169   3.433   9.055  0.1551  0.3839  0.1988
 3125SOL    HW121011   4.194   3.344   9.079 -2.1372  0.4213  2.7302
 3125SOL    HW221012   4.165   3.436   8.959  0.5241 -1.3981  0.1316
 3126SOL     OW21013   2.883   1.611   5.080 -0.2103  0.2078  0.4936
 3126SOL    HW121014   2.875   1.706   5.084 -0.0455  0.2278  0.3381
 3126SOL    HW221015   2.948   1.600   5.011  1.6748 -2.7125  2.7244
 3127SOL     OW21016   2.032   3.201   9.900  0.3875 -0.5346 -0.1290
 3127SOL    HW121017   2.013   3.213   9.993 -0.4253 -1.8196 -0.1280
 3127SOL    HW221018   2.092   3.271   9.878 -1.2013 -0.0926 -3.1073
 3128SOL     OW21019   1.531   4.251   1.739 -0.5784 -0.1545  0.2863
 3128SOL    HW121020   1.582   4.283   1.665  0.6024 -0.8047  0.8180
 3128SOL    HW221021   1.440   4.254   1.711  0.3218  1.8633 -2.4520
 3129SOL     OW21022   3.754   2.689   5.371  0.1362  0.2881 -0.0681
 3129SOL    HW121023   3.752   2.783   5.351 -2.3815  0.3597  0.5474
 3129SOL    HW221024   3.660   2.670   5.367  0.5885 -1.9207  0.2998
 3130SOL     OW21025   4.233   1.804  10.817  0.3043  0.1838  0.0367
 3130SOL    HW121026   4.242   1.899  10.816  1.9395  0.0361  0.8976
 3130SOL    HW221027   4.231   1.783  10.723  3.0438  2.3762 -0.5236
 3131SOL     OW21028   2.077   1.813  15.368 -0.1907 -0.1272  0.2746
 3131SOL    HW121029   1.992   1.798  15.325 -0.7825  1.0394  1.0429
 3131SOL    HW221030   2.046   1.845  15.453  2.3616  0.1228  1.1100
 3132SOL     OW21031   1.638   3.614  14.610 -0.3624 -0.7884  0.2498
 3132SOL    HW121032   1.559   3.648  14.569  0.2177 -0.6087 -0.7048
 3132SOL    HW221033   1.701   3.686  14.607 -0.8742 -0.2030  3.2140
 3133SOL     OW21034   4.436   2.121   2.834 -0.1477 -0.2129  0.1830
 3133SOL    HW121035   4.486   2.079   2.764  1.2102 -2.1675  2.3450
 3133SOL    HW221036   4.359   2.064   2.834 -0.7057  0.5356  0.4358
 3134SOL     OW21037   0.497   2.843   0.461 -0.3538 -1.0926  0.6243
 3134SOL    HW121038   0.566   2.817   0.522 -0.7636 -1.9521  0.7182
 3134SOL    HW221039   0.552   2.864   0.385 -0.2546 -3.4578  0.0496
 3135SOL     OW21040   2.151   1.187  11.097 -0.3350 -0.6224  0.0068
 3135SOL    HW121041   2.208   1.214  11.169 -0.1778  0.0853 -0.3839
 3135SOL    HW221042   2.214   1.149  11.035 -0.4887  0.1473 -0.6200
 3136SOL     OW21043   0.023   2.487  15.037 -0.7203 -0.1049  0.0262
 3136SOL    HW121044   4.722   2.574  15.035  0.8499  0.6051 -0.4390
 3136SOL    HW221045   4.700   2.436  15.089  1.0416  0.4848  2.7336
 3137SOL     OW21046   0.519   0.724   7.715  0.1466 -0.7781  0.1556
 3137SOL    HW121047   0.603   0.710   7.670  2.7689  1.8457  4.2635
 3137SOL    HW221048   0.508   0.641   7.761 -0.7968 -0.8141 -0.1281
 3138SOL     OW21049   3.663   0.444  14.941  0.2712  0.1040 -0.1862
 3138SOL    HW121050   3.726   0.460  14.871  0.6113 -2.6790 -0.5176
 3138SOL    HW221051   3.720   0.461  15.016  1.9453 -1.2952 -1.1539
 3139SOL     OW21052   0.302   0.252  11.036 -0.0928 -0.8854  0.7180
 3139SOL    HW121053   0.290   0.337  10.993 -1.3652 -0.3854  2.0759
 3139SOL    HW221054   0.335   0.267  11.125 -1.7429  0.8865  1.0400
 3140SOL     OW21055   4.458   0.616  11.316  0.1242 -0.5706 -0.4149
 3140SOL    HW121056   4.471   0.709  11.296 -1.9796 -0.0569  0.6831
 3140SOL    HW221057   4.405   0.628  11.395  1.5997  1.9841  0.1865
 3141SOL     OW21058   1.301   1.148   0.498  0.0416  0.3629  0.3674
 3141SOL    HW121059   1.306   1.079   0.431  0.8469  0.5106  0.2806
 3141SOL    HW221060   1.226   1.198   0.465 -0.5981  0.3645  1.8267
 3142SOL     OW21061   0.452   3.307  14.663  0.1302  0.3335  0.1477
 3142SOL    HW121062   0.441   3.401  14.644  0.5543  0.3835  0.1373
 3142SOL    HW221063   0.364   3.272  14.652  0.2500 -0.3240  1.2729
 3143SOL     OW21064   3.796   0.496  12.366 -0.5118  0.2372 -0.5651
 3143SOL    HW121065   3.734   0.524  12.299  1.0086 -0.4547 -2.2516
 3143SOL    HW221066   3.819   0.573  12.418 -1.1773 -0.3494  0.5811
 3144SOL     OW21067   2.737   0.096  11.398  0.4423  0.4205  0.0632
 3144SOL    HW121068   2.698   0.168  11.350  0.7078  0.9426  0.6313
 3144SOL    HW221069   2.661   0.047  11.430 -0.9805  0.9729 -2.5129
 3145SOL     OW21070   2.127   2.278   1.310 -0.0854 -0.4144  0.4326
 3145SOL    HW121071   2.098   2.298   1.398 -2.5911 -2.6532  0.0977
 3145SOL    HW221072   2.210   2.237   1.334 -0.0165 -0.0402  0.8458
 3146SOL     OW21073   0.343   0.300  12.756  0.0882  0.1822 -0.6711
 3146SOL    HW121074   0.392   0.380  12.737  0.1146  0.5005  0.7466
 3146SOL    HW221075   0.352   0.294  12.851  2.4129 -1.1837 -0.9943
 3147SOL     OW21076   2.356   4.250   3.628 -0.6042 -0.0227  0.4679
 3147SOL    HW121077   2.310   4.210   3.702  1.7558 -1.8262  0.9794
 3147SOL    HW221078   2.279   4.279   3.579  0.2654  0.5988 -0.5439
 3148SOL     OW21079   0.063   2.465   3.860  0.6156 -0.2983  0.5128
 3148SOL    HW121080   0.104   2.408   3.795 -0.4638  0.4582 -0.8342
 3148SOL    HW221081   0.066   2.546   3.810 -2.7045 -0.8132 -0.5880
 3149SOL     OW21082   3.378   1.483   5.857  0.0920 -0.4604  0.3833
 3149SOL    HW121083   3.456   1.513   5.809  1.0404 -2.6407  0.5559
 3149SOL    HW221084   3.403   1.394   5.881  0.2996 -1.1054 -2.1691
 3150SOL     OW21085   3.998   1.518   4.323  0.4916  0.1361 -0.1492
 3150SOL    HW121086   4.020   1.601   4.281  2.3971 -0.1980  0.1902
 3150SOL    HW221087   4.084   1.476   4.313 -0.1555 -1.9627  2.8799
 3151SOL     OW21088   1.126   3.383   2.759  0.0800 -0.5090  0.0989
 3151SOL    HW121089   1.034   3.399   2.781 -0.1663 -0.6185 -0.8314
 3151SOL    HW221090   1.120   3.304   2.705 -1.5332 -1.6904  2.0248
 3152SOL     OW21091   4.342   1.037   2.126  0.1134 -0.0558  0.1308
 3152SOL    HW121092   4.310   1.087   2.201  0.4801 -1.9246  1.5465
 3152SOL    HW221093   4.412   1.097   2.099  0.8203 -0.8222  0.2436
 3153SOL     OW21094   1.729   0.371   0.469  0.3788 -0.5824  0.1656
 3153SOL    HW121095   1.659   0.311   0.443  0.0361 -0.7587  1.5243
 3153SOL    HW221096   1.788   0.376   0.394 -2.6327 -3.1194 -2.3607
 3154SOL     OW21097   4.494   2.528   1.964  0.0331  0.2485 -0.0858
 3154SOL    HW121098   4.499   2.576   1.881 -0.3311 -1.0187 -0.8476
 3154SOL    HW221099   4.454   2.444   1.941 -0.3731  0.6383 -0.8261
 3155SOL     OW21100   4.694   2.863  14.060  0.0817  0.0006  0.6142
 3155SOL    HW121101   4.688   2.771  14.085 -1.4245  0.4846  2.0895
 3155SOL    HW221102   0.032   2.865  14.002 -0.8165 -0.8217 -0.5901
 3156SOL     OW21103   0.426   1.024   3.392  0.2277  0.3594 -0.9150
 3156SOL    HW121104   0.472   1.034   3.308 -1.3064 -0.2466 -1.8253
 3156SOL    HW221105   0.467   0.946   3.427 -0.8244  0.7202  1.1352
 3157SOL     OW21106   3.891   1.075   2.514  0.4429  0.1733 -0.3531
 3157SOL    HW121107   3.844   1.113   2.440 -0.1049 -1.7944 -1.0145
 3157SOL    HW221108   3.948   1.150   2.528  1.9928 -1.3145  1.2972
 3158SOL     OW21109   3.581   0.367   8.463  0.4676 -0.4747 -0.0394
 3158SOL    HW121110   3.643   0.401   8.528  0.1754 -1.6809  0.8670
 3158SOL    HW221111   3.529   0.299   8.506 -0.6530  0.6440  0.3805
 3159SOL     OW21112   1.550   2.294   8.304 -0.6493 -0.4974  0.4937
 3159SOL    HW121113   1.642   2.268   8.311 -0.0122  1.8085  0.4864
 3159SOL    HW221114   1.517   2.308   8.393  1.3164  0.4353  1.0800
 3160SOL     OW21115   1.223   3.427   4.402 -0.5973 -0.4803  0.1330
 3160SOL    HW121116   1.181   3.488   4.462 -2.1367  0.5703 -1.9814
 3160SOL    HW221117   1.248   3.491   4.335 -0.9118  1.7164  2.1156
 3161SOL     OW21118   2.125   2.652   2.574  0.1342  0.1801 -0.5998
 3161SOL    HW121119   2.167   2.627   2.656 -1.0097 -1.2613 -0.4704
 3161SOL    HW221120   2.057   2.586   2.560 -0.1330 -0.1612  2.3208
 3162SOL     OW21121   0.149   2.389  15.327 -0.2311  0.1671 -0.1920
 3162SOL    HW121122   0.129   2.393  15.233 -1.2841  0.7530  0.0513
 3162SOL    HW221123   0.102   2.308  15.350  0.6807 -0.5523 -0.8687
 3163SOL     OW21124   4.437   2.251   7.819  0.2275 -0.3254  0.1728
 3163SOL    HW121125   4.451   2.290   7.905 -2.1727 -0.0122  0.4307
 3163SOL    HW221126   4.392   2.172   7.848  0.5194 -0.0527  1.3815
 3164SOL     OW21127   0.420   1.482   2.171  0.0772 -0.0986  0.0936
 3164SOL    HW121128   0.374   1.423   2.112 -1.3341  0.8601  0.2190
 3164SOL    HW221129   0.451   1.429   2.245  1.4343  1.9870  1.0295
 3165SOL     OW21130   3.765   4.334   4.097 -0.5164 -0.3064 -0.3907
 3165SOL    HW121131   3.707   4.331   4.173  0.9439 -3.2454  0.5988
 3165SOL    HW221132   3.841   4.278   4.112  0.3134  1.0798  0.5499
 3166SOL     OW21133   3.437   0.849  10.994 -0.0016 -0.1441  0.6997
 3166SOL    HW121134   3.439   0.754  10.984  2.0266  0.1064 -1.3985
 3166SOL    HW221135   3.506   0.856  11.060 -0.4614  1.5360  0.9990
 3167SOL     OW21136   1.185   3.082  14.340  0.4196 -0.2904  0.1440
 3167SOL    HW121137   1.130   3.008  14.364 -0.4359  0.5703  0.8456
 3167SOL    HW221138   1.277   3.061  14.353  0.4994 -0.4594 -0.6905
 3168SOL     OW21139   2.845   0.286   7.357 -0.1380 -0.0069  0.2115
 3168SOL    HW121140   2.887   0.200   7.365  0.7609  0.5854  1.8371
 3168SOL    HW221141   2.884   0.341   7.425  2.1359 -1.9863  0.5440
 3169SOL     OW21142   0.601   2.272   3.221 -0.0530  0.2607 -0.2712
 3169SOL    HW121143   0.513   2.289   3.188 -1.0061 -1.2458  1.5316
 3169SOL    HW221144   0.654   2.249   3.145 -1.3301  0.8047 -1.3271
 3170SOL     OW21145   2.312   2.221   4.291  0.0760  0.1997 -0.3404
 3170SOL    HW121146   2.357   2.144   4.258  1.4381  1.6175 -1.7351
 3170SOL    HW221147   2.226   2.210   4.252  0.5735 -2.8028 -0.5616
 3171SOL     OW21148   4.408   0.305  12.470  0.2891 -0.0412 -0.3048
 3171SOL    HW121149   4.322   0.293  12.510  1.6463 -1.2423  2.2834
 3171SOL    HW221150   4.465   0.261  12.533  1.9884  2.1706 -0.2769
 3172SOL     OW21151   1.945   0.164   2.844  0.4866  0.2273  0.2010
 3172SOL    HW121152   1.938   0.069   2.834  0.0320  0.1631  1.1302
 3172SOL    HW221153   1.968   0.192   2.755 -0.3626 -1.5936 -0.5908
 3173SOL     OW21154   2.318   3.105   5.842 -0.2673  0.0253  0.1288
 3173SOL    HW121155   2.229   3.070   5.856  1.0238 -2.6641  1.6020
 3173SOL    HW221156   2.349   3.105   5.932  0.2936 -1.5468 -0.0636
 3174SOL     OW21157   2.580   3.197   4.294 -0.4971 -0.0075 -0.2621
 3174SOL    HW121158   2.657   3.250   4.274 -0.3396 -0.7370 -1.6397
 3174SOL    HW221159   2.586   3.198   4.389  3.4713 -0.7196 -0.5034
 3175SOL     OW21160   0.891   3.003   1.880  0.4515 -0.2132 -0.0396
 3175SOL    HW121161   0.944   2.934   1.840  0.4477  0.3466 -1.0159
 3175SOL    HW221162   0.956   3.072   1.868  0.7296 -0.2600  1.1561
 3176SOL     OW21163   4.462   4.534   2.601  0.2629 -0.7435 -0.1360
 3176SOL    HW121164   4.370   4.509   2.588 -0.7232  2.6801  0.4402
 3176SOL    HW221165   4.513   4.517   2.521  0.6402  2.6481 -0.6184
 3177SOL     OW21166   0.588   1.558   5.163 -0.6898 -0.1244  0.3664
 3177SOL    HW121167   0.542   1.532   5.083 -0.2556 -1.7607  0.6481
 3177SOL    HW221168   0.678   1.527   5.148 -0.9332 -1.8206  2.4164
 3178SOL     OW21169   3.748   3.944   2.019 -0.6683  0.2586 -0.2025
 3178SOL    HW121170   3.703   3.942   2.103  0.4721  4.4659  0.5125
 3178SOL    HW221171   3.830   3.900   2.041  0.8176  2.1849 -1.9365
 3179SOL     OW21172   2.847   2.538   7.817  0.8007 -0.0588  0.4053
 3179SOL    HW121173   2.939   2.525   7.796  0.4099 -0.7149 -0.8750
 3179SOL    HW221174   2.858   2.602   7.887 -2.4192  1.4118 -0.3987
 3180SOL     OW21175   4.732   1.577  15.129 -0.3890  0.5659  0.7642
 3180SOL    HW121176   0.050   1.649  15.158 -1.0245  1.1524  0.5769
 3180SOL    HW221177   4.645   1.607  15.159 -0.2452  1.4944  0.2582
 3181SOL     OW21178   3.433   3.248   0.954  0.2099 -0.1416  0.6229
 3181SOL    HW121179   3.354   3.258   0.901  0.4157 -1.3677  0.0969
 3181SOL    HW221180   3.484   3.329   0.944  1.3390 -0.9867 -0.4916
 3182SOL     OW21181   1.250   0.086   0.213 -0.1640 -0.1385 -0.4509
 3182SOL    HW121182   1.265   0.033   0.291  2.8911 -1.1302 -1.7109
 3182SOL    HW221183   1.182   0.143   0.250  0.6104  0.3942  0.1352
 3183SOL     OW21184   1.829   0.451   1.218 -1.0509  0.9094  0.1782
 3183SOL    HW121185   1.801   0.540   1.242 -1.3396  1.0590 -0.7160
 3183SOL    HW221186   1.748   0.404   1.197 -0.3567 -0.2929  0.2393
 3184SOL     OW21187   4.398   0.705  16.592  0.5258  0.0396  0.3329
 3184SOL    HW121188   4.432   0.793  16.603  0.4823  0.2076 -0.9350
 3184SOL    HW221189   4.479   0.657  16.609  0.4866  0.3206  1.3143
 3185SOL     OW21190   4.501   0.789   6.877 -0.2449 -0.0730  0.0829
 3185SOL    HW121191   4.506   0.703   6.919 -1.1038 -0.7955 -1.2877
 3185SOL    HW221192   4.540   0.773   6.791  1.2827  0.5129  0.6812
 3186SOL     OW21193   1.501   2.770  10.393  0.4342 -0.0376  0.2433
 3186SOL    HW121194   1.468   2.801  10.477 -0.6247  1.5145 -0.7439
 3186SOL    HW221195   1.414   2.739  10.370  0.8958  0.3608 -2.0212
 3187SOL     OW21196   1.059   1.633   3.570  0.1889  0.1447 -0.2086
 3187SOL    HW121197   1.056   1.695   3.497  0.7053  0.0797 -0.2853
 3187SOL    HW221198   1.042   1.691   3.644 -1.3992  0.7418 -1.0313
 3188SOL     OW21199   1.333   4.200   2.276  0.4393 -0.4241  0.4734
 3188SOL    HW121200   1.315   4.280   2.226  4.6768 -0.2510 -0.8050
 3188SOL    HW221201   1.257   4.143   2.267  0.4735 -0.6340  1.5503
 3189SOL     OW21202   0.092   3.111   2.554 -0.1567  0.4354  0.7000
 3189SOL    HW121203   0.016   3.151   2.597 -2.7655 -0.2986 -3.2405
 3189SOL    HW221204   0.054   3.116   2.466  0.1562 -0.5696  0.5171
 3190SOL     OW21205   4.040   4.255   5.584 -0.0024  0.1346  0.5178
 3190SOL    HW121206   3.960   4.227   5.629 -1.4278  1.4786 -1.2148
 3190SOL    HW221207   4.021   4.261   5.490  1.9105 -0.4404  0.0954
 3191SOL     OW21208   0.915   3.154   7.036 -0.0844  0.6521 -0.1013
 3191SOL    HW121209   0.978   3.203   7.090 -0.0706  1.6733 -1.0437
 3191SOL    HW221210   0.969   3.081   7.005  2.3891  2.1733  0.5933
 3192SOL     OW21211   3.780   2.639  12.148  0.2909 -0.1505  0.3394
 3192SOL    HW121212   3.716   2.656  12.079  1.4652  1.4159 -0.3611
 3192SOL    HW221213   3.848   2.704  12.132  0.2637  0.2511  1.9192
 3193SOL     OW21214   2.330   2.212   1.824 -0.1528 -0.0662  0.3921
 3193SOL    HW121215   2.314   2.280   1.889 -2.4202  0.0128 -0.2414
 3193SOL    HW221216   2.278   2.241   1.749 -1.1035 -0.2729  0.9642
 3194SOL     OW21217   0.088   2.419  11.606 -0.0974 -1.0208  0.1784
 3194SOL    HW121218   0.034   2.434  11.529  1.6050 -0.4358 -0.9122
 3194SOL    HW221219   0.137   2.501  11.618  0.5023 -1.0204 -2.2582
 3195SOL     OW21220   2.729   2.375   2.699  0.4677 -0.0257 -0.0575
 3195SOL    HW121221   2.747   2.314   2.770 -0.5644  1.3801  1.4043
 3195SOL    HW221222   2.781   2.332   2.631  0.5155  0.6250 -0.4323
 3196SOL     OW21223   2.214   1.616   6.587 -0.3988  0.0051 -0.0077
 3196SOL    HW121224   2.280   1.668   6.633 -0.4856  1.5263 -1.6199
 3196SOL    HW221225   2.163   1.601   6.667 -1.5767 -0.4939 -0.8539
 3197SOL     OW21226   3.153   3.147   0.369 -0.1546  0.2613  0.1100
 3197SOL    HW121227   3.066   3.107   0.377  0.0474  0.0801  1.4451
 3197SOL    HW221228   3.133   3.240   0.382  0.1353  0.3098  0.2034
 3198SOL     OW21229   0.483   4.400   3.362 -0.2367  0.0321  0.5077
 3198SOL    HW121230   0.390   4.388   3.381  0.3641 -1.3819  2.4707
 3198SOL    HW221231   0.495   4.479   3.415 -0.1493 -0.4934  1.2661
 3199SOL     OW21232   2.668   3.435   3.726  0.1308 -0.7355 -0.2770
 3199SOL    HW121233   2.612   3.465   3.797  0.8440  3.0512 -1.3338
 3199SOL    HW221234   2.652   3.511   3.671  2.1761  0.4457  0.7658
 3200SOL     OW21235   0.450   0.420   9.323  0.0567  0.1786 -0.6485
 3200SOL    HW121236   0.399   0.469   9.387 -1.0072 -0.8034 -0.7474
 3200SOL    HW221237   0.483   0.346   9.373 -0.3450 -0.8678 -1.9475
 3201SOL     OW21238   4.573   3.193   2.930 -0.3236  0.3349 -0.1912
 3201SOL    HW121239   4.630   3.257   2.972  0.2494 -0.1742 -0.1908
 3201SOL    HW221240   4.607   3.109   2.961  0.2590  0.6653  0.0581
 3202SOL     OW21241   2.731   3.460  17.168 -0.3370 -0.2784  0.1695
 3202SOL    HW121242   2.797   3.396  17.142  1.4861  0.2921  3.2383
 3202SOL    HW221243   2.703   3.419  17.250  0.7389  3.1465  2.2580
 3203SOL     OW21244   0.021   1.912   5.611 -0.2487 -0.7717  0.3584
 3203SOL    HW121245   4.702   1.969   5.661 -1.7892 -1.7970 -0.2907
 3203SOL    HW221246   4.698   1.860   5.560  0.9609 -1.2922 -0.6148
 3204SOL     OW21247   2.397   1.700   9.298  0.4553  0.4927 -0.3045
 3204SOL    HW121248   2.385   1.635   9.229 -2.2905  0.4235  0.2252
 3204SOL    HW221249   2.311   1.741   9.301  0.0829 -0.4608  2.0054
 3205SOL     OW21250   3.841   0.322  16.356  0.1988 -0.2337 -0.1989
 3205SOL    HW121251   3.914   0.315  16.295 -0.2581 -0.8801 -0.6801
 3205SOL    HW221252   3.842   0.413  16.384  0.4155 -0.4234  0.4053
 3206SOL     OW21253   2.058   0.580   7.352 -0.7289 -0.0033  0.5734
 3206SOL    HW121254   2.063   0.654   7.413  1.6880  0.8995 -0.6963
 3206SOL    HW221255   2.137   0.604   7.303 -1.3407 -0.7193 -0.7596
 3207SOL     OW21256   2.115   2.925   2.503  0.2863  0.5547  0.4634
 3207SOL    HW121257   2.117   2.829   2.495  0.9481  0.5538  0.5835
 3207SOL    HW221258   2.159   2.947   2.421  0.2831  2.1134  0.8961
 3208SOL     OW21259   1.308   1.136   3.223 -0.4529  0.5774  0.1891
 3208SOL    HW121260   1.220   1.110   3.250 -0.0447 -2.8201 -1.7149
 3208SOL    HW221261   1.363   1.071   3.267 -4.7745 -1.0697  3.1814
 3209SOL     OW21262   0.265   3.843   3.789 -0.5924 -0.7555 -0.0021
 3209SOL    HW121263   0.170   3.860   3.790 -0.4665 -0.0627  0.5446
 3209SOL    HW221264   0.271   3.748   3.788 -1.8743 -0.8411  0.0828
 3210SOL     OW21265   1.028   1.805   4.608 -0.1957  0.1284 -0.3355
 3210SOL    HW121266   1.119   1.778   4.594 -0.7392 -1.2208 -1.2878
 3210SOL    HW221267   1.045   1.873   4.674 -2.1550 -0.1629  0.4768
 3211SOL     OW21268   3.273   0.255   4.727 -0.0379 -0.5676 -0.0158
 3211SOL    HW121269   3.230   0.246   4.812  1.1155 -0.4205  0.5752
 3211SOL    HW221270   3.207   0.231   4.661  0.7543 -0.6327 -0.7787
 3212SOL     OW21271   1.920   1.768   1.697  0.0555  0.2111 -0.4738
 3212SOL    HW121272   1.959   1.853   1.675  2.6104 -0.2566  2.2515
 3212SOL    HW221273   1.920   1.773   1.792 -0.4595  1.4908 -0.5452
 3213SOL     OW21274   3.956   1.185   9.412 -0.1605  0.0468  0.3796
 3213SOL    HW121275   3.996   1.236   9.482 -1.2120  0.1881  0.8729
 3213SOL    HW221276   3.885   1.230   9.365 -0.9101 -1.4229  0.1111
 3214SOL     OW21277   3.518   0.296   8.992 -0.0445  0.3238  0.2936
 3214SOL    HW121278   3.550   0.222   9.043  0.4162  0.8993  0.8241
 3214SOL    HW221279   3.478   0.243   8.923 -0.2624 -0.6707  1.1978
 3215SOL     OW21280   0.031   1.406   2.303  0.2991 -0.5906 -0.2048
 3215SOL    HW121281   0.023   1.335   2.239  2.2803 -0.1731 -0.9090
 3215SOL    HW221282   0.077   1.469   2.249 -0.2616  1.0068  1.1941
 3216SOL     OW21283   4.051   2.511  15.810  0.2723  0.0163 -0.0854
 3216SOL    HW121284   4.126   2.547  15.858  0.6127 -1.3853  0.4247
 3216SOL    HW221285   3.987   2.582  15.805 -0.7220 -0.9372 -0.8655
 3217SOL     OW21286   2.195   0.052   5.142 -0.2761  0.4780  0.7431
 3217SOL    HW121287   2.191   4.697   5.162 -0.1199  0.5353  1.0493
 3217SOL    HW221288   2.291   0.060   5.139 -0.5227  2.7574 -0.5090
 3218SOL     OW21289   3.853   2.912   0.076 -0.6293  0.3789 -0.5945
 3218SOL    HW121290   3.926   2.940   0.131 -1.1065 -0.1736  0.3228
 3218SOL    HW221291   3.780   2.922   0.138  0.3242  0.8936  0.4286
 3219SOL     OW21292   1.235   2.286   6.454  0.1395  0.0361  0.0914
 3219SOL    HW121293   1.222   2.292   6.359  1.2439 -2.8419 -0.2169
 3219SOL    HW221294   1.144   2.288   6.483 -0.2737  0.5133 -1.2447
 3220SOL     OW21295   2.687   4.197   8.711 -0.3210  0.4258 -0.1314
 3220SOL    HW121296   2.634   4.270   8.679  0.3724  0.3056 -1.5413
 3220SOL    HW221297   2.755   4.251   8.751 -0.0888 -0.6521  0.9356
 3221SOL     OW21298   1.295   3.736   3.837 -0.4422 -0.0037 -0.5153
 3221SOL    HW121299   1.303   3.657   3.784  0.9476 -0.1099 -0.1496
 3221SOL    HW221300   1.285   3.803   3.770  0.5425 -0.2816 -0.9376
 3222SOL     OW21301   3.691   1.890   7.196 -0.3634 -0.2067 -0.2463
 3222SOL    HW121302   3.730   1.856   7.277 -0.0209  2.1388  0.5928
 3222SOL    HW221303   3.746   1.861   7.124 -0.5871  0.0703 -0.5269
 3223SOL     OW21304   1.924   2.398   6.353  0.1262 -0.0178  0.4475
 3223SOL    HW121305   1.970   2.321   6.386 -0.0138 -0.9778 -1.5799
 3223SOL    HW221306   1.860   2.359   6.294  0.8694 -0.0250 -0.3736
 3224SOL     OW21307   1.749   0.039  11.364  0.1591  0.4250  0.1790
 3224SOL    HW121308   1.673   0.017  11.418 -0.0897  0.3785 -0.1951
 3224SOL    HW221309   1.795   0.100  11.422 -0.8739  0.9000  0.4846
 3225SOL     OW21310   2.522   2.560   7.278 -0.3303  0.3302  0.0780
 3225SOL    HW121311   2.476   2.587   7.358  0.8564  0.0139  0.8647
 3225SOL    HW221312   2.456   2.506   7.234  1.1919 -1.8111  0.4266
 3226SOL     OW21313   3.500   1.453  10.411  0.5645  0.0100 -0.1691
 3226SOL    HW121314   3.507   1.502  10.493 -0.7402  0.0796 -0.0935
 3226SOL    HW221315   3.590   1.423  10.398  0.5508 -0.3533  0.6100
 3227SOL     OW21316   2.707   0.330   1.567 -0.4219 -0.1054  0.6696
 3227SOL    HW121317   2.644   0.298   1.632 -0.0404  0.4619  1.3195
 3227SOL    HW221318   2.711   0.421   1.596  2.0501  0.5932 -1.9199
 3228SOL     OW21319   3.158   3.946   6.360  0.2159  0.5165 -0.5461
 3228SOL    HW121320   3.243   3.977   6.329  0.0380  2.0048  0.4671
 3228SOL    HW221321   3.184   3.858   6.387  2.1475  1.1848 -0.2352
 3229SOL     OW21322   3.749   3.511   2.455 -0.2310 -0.0799  0.4039
 3229SOL    HW121323   3.788   3.463   2.528  0.7798 -2.0411 -1.4297
 3229SOL    HW221324   3.659   3.519   2.488  0.0906 -0.6283  1.3903
 3230SOL     OW21325   0.539   1.648  11.455 -0.6405  0.0330  0.1279
 3230SOL    HW121326   0.472   1.669  11.520 -3.3328  0.7689 -2.9155
 3230SOL    HW221327   0.493   1.688  11.382  0.0340 -2.5859 -1.7606
 3231SOL     OW21328   3.870   2.811  15.547  0.4931 -0.1001  1.7098
 3231SOL    HW121329   3.841   2.732  15.593  0.1832 -0.8900  0.1337
 3231SOL    HW221330   3.891   2.772  15.463 -0.8126 -0.8777  1.7537
 3232SOL     OW21331   2.866   3.908   6.894 -0.1064 -0.3604  0.5405
 3232SOL    HW121332   2.919   3.979   6.928  0.8918  0.0931 -1.9805
 3232SOL    HW221333   2.827   3.956   6.821  2.3921  2.7529  1.2809
 3233SOL     OW21334   2.176   3.326  14.539  0.2587  0.2332  0.4180
 3233SOL    HW121335   2.255   3.292  14.582  0.8697 -1.8448 -2.3253
 3233SOL    HW221336   2.191   3.299  14.448 -0.1930  1.6275 -0.0769
 3234SOL     OW21337   3.627   3.828   3.626  0.9458  0.1235  0.0887
 3234SOL    HW121338   3.661   3.915   3.604  4.0396 -0.6133  1.9412
 3234SOL    HW221339   3.539   3.847   3.657  1.1665  0.3249  0.5921
 3235SOL     OW21340   2.298   2.811   9.171 -0.3638 -0.1574 -0.1792
 3235SOL    HW121341   2.348   2.842   9.096 -1.4473  0.1009 -0.7973
 3235SOL    HW221342   2.356   2.838   9.241  0.8407 -0.4614 -1.0706
 3236SOL     OW21343   1.387   1.274  13.748  0.2874  0.1633  0.1616
 3236SOL    HW121344   1.364   1.213  13.818 -1.5404  0.6687  0.0012
 3236SOL    HW221345   1.460   1.323  13.786 -0.6717  1.6987  0.0625
 3237SOL     OW21346   1.646   2.028   7.239  0.3342 -0.2581 -0.1611
 3237SOL    HW121347   1.658   2.109   7.289 -0.9718 -2.0017  3.0170
 3237SOL    HW221348   1.641   1.965   7.312  0.8111  1.9040  1.7335
 3238SOL     OW21349   1.058   0.506   1.352 -0.1400  0.6176 -0.2086
 3238SOL    HW121350   1.122   0.522   1.282  1.6231  1.0711  1.5230
 3238SOL    HW221351   1.118   0.461   1.411  2.2538  1.2159 -2.1606
 3239SOL     OW21352   3.660   2.146   2.575  0.3635 -0.1202 -0.8968
 3239SOL    HW121353   3.721   2.206   2.618  0.3995 -0.9128  0.1602
 3239SOL    HW221354   3.721   2.078   2.546 -1.3339 -2.2169  0.3743
 3240SOL     OW21355   4.607   1.853   2.950  0.4507  0.7370  0.1514
 3240SOL    HW121356   4.515   1.832   2.967  0.0861  0.3432 -2.2556
 3240SOL    HW221357   4.639   1.764   2.935  1.0984  1.0689 -0.4365
 3241SOL     OW21358   2.737   2.684   4.203 -0.3966 -0.2859 -0.1695
 3241SOL    HW121359   2.709   2.631   4.278  0.3256  1.7092  1.5218
 3241SOL    HW221360   2.800   2.631   4.154  2.0154  1.7036  0.8208
 3242SOL     OW21361   4.646   0.139   3.933 -0.5487 -0.5197  0.2982
 3242SOL    HW121362   4.624   0.199   3.862  1.5350  1.0984  1.0006
 3242SOL    HW221363   4.668   0.060   3.884 -0.9337 -0.8724  0.6967
 3243SOL     OW21364   2.083   1.137  10.226 -0.0698 -0.1781  0.4527
 3243SOL    HW121365   2.071   1.082  10.303 -2.8047 -2.0978 -1.3297
 3243SOL    HW221366   2.170   1.107  10.199  0.6593  1.2308  1.2804
 3244SOL     OW21367   2.521   3.388   1.251 -0.9305 -0.3232 -0.4241
 3244SOL    HW121368   2.603   3.362   1.211  0.4609  1.1483  1.4368
 3244SOL    HW221369   2.482   3.424   1.172  0.1703  0.7091 -0.4908
 3245SOL     OW21370   2.535   3.659   9.832 -0.2847 -0.0342 -0.8784
 3245SOL    HW121371   2.534   3.715   9.754  1.4691  0.1353 -0.7797
 3245SOL    HW221372   2.621   3.676   9.871 -1.0151 -1.4303  1.3195
 3246SOL     OW21373   2.932   1.549   3.851 -1.3816  0.4811  0.2670
 3246SOL    HW121374   2.858   1.609   3.859 -0.6412  1.4622 -0.1521
 3246SOL    HW221375   2.939   1.562   3.756  2.4801  0.2268  0.5235
 3247SOL     OW21376   0.247   0.265   4.630 -0.1142 -0.1314 -0.6650
 3247SOL    HW121377   0.280   0.177   4.644  0.9716  0.7864  2.6533
 3247SOL    HW221378   0.153   0.257   4.613  0.1780 -3.5042 -0.5800
 3248SOL     OW21379   0.544   4.606   2.388  0.1502 -0.5344  0.3991
 3248SOL    HW121380   0.490   4.552   2.330 -0.5206 -1.2164  1.6744
 3248SOL    HW221381   0.526   4.552   2.465 -0.4030 -0.3829  0.3779
 3249SOL     OW21382   1.356   3.850   2.432 -0.5435  0.0858 -0.3285
 3249SOL    HW121383   1.395   3.773   2.474  0.9434  0.6520 -0.6724
 3249SOL    HW221384   1.430   3.911   2.427  0.3342 -1.1265 -2.1032
 3250SOL     OW21385   3.259   3.671   7.458  0.1899 -0.2458  0.0468
 3250SOL    HW121386   3.272   3.745   7.518 -1.3131  1.1678 -1.3922
 3250SOL    HW221387   3.298   3.604   7.514  3.5616  2.2833  0.7385
 3251SOL     OW21388   0.350   0.299   6.600 -0.3399  0.0187 -0.4152
 3251SOL    HW121389   0.402   0.304   6.680  1.1918 -2.0216 -1.2833
 3251SOL    HW221390   0.412   0.242   6.553 -1.0858 -1.3022  0.2097
 3252SOL     OW21391   0.057   0.595   8.711  0.0721 -0.1774  0.1459
 3252SOL    HW121392   0.069   0.573   8.619  0.5585  1.2471 -0.1188
 3252SOL    HW221393   0.060   0.690   8.708 -2.7300 -0.1487 -1.0600
 3253SOL     OW21394   2.286   2.566   4.566 -0.0099  0.3649  0.3423
 3253SOL    HW121395   2.211   2.620   4.589 -0.7210 -0.1693 -0.7571
 3253SOL    HW221396   2.248   2.479   4.579  0.4028  0.2457  0.7628
 3254SOL     OW21397   0.638   2.326   9.368  0.1771 -0.1923 -0.1083
 3254SOL    HW121398   0.688   2.396   9.327 -1.1577  0.6976 -0.2199
 3254SOL    HW221399   0.702   2.279   9.421  0.4617  0.8848  0.4880
 3255SOL     OW21400   0.349   2.066   3.893 -0.2990  0.1025 -0.9163
 3255SOL    HW121401   0.267   2.097   3.931  1.3748  0.4179  2.4876
 3255SOL    HW221402   0.363   2.143   3.839 -0.6519 -0.2176 -1.4615
 3256SOL     OW21403   4.066   0.223   2.409  0.2200 -0.4194  0.3580
 3256SOL    HW121404   4.114   0.140   2.406 -0.6328 -0.9027  0.1015
 3256SOL    HW221405   4.090   0.264   2.326  1.6107  1.0193  1.4783
 3257SOL     OW21406   0.239   1.237   9.436 -0.0158  0.4761 -0.0290
 3257SOL    HW121407   0.274   1.326   9.429 -3.3593  1.9709  2.5412
 3257SOL    HW221408   0.156   1.252   9.480  0.4472 -3.1233  2.0342
 3258SOL     OW21409   1.006   0.168   6.905 -0.1716 -0.4987  0.4341
 3258SOL    HW121410   0.932   0.222   6.879 -0.9563 -1.5745  0.4448
 3258SOL    HW221411   1.039   0.214   6.982  0.0862  0.5569 -0.3044
 3259SOL     OW21412   1.021   1.845   5.489  0.2961  0.0699  0.1446
 3259SOL    HW121413   0.995   1.920   5.542  0.8942  0.2090  0.2416
 3259SOL    HW221414   0.959   1.846   5.417  0.3859 -0.3385  0.0604
 3260SOL     OW21415   4.484   1.596  15.308  0.0418  0.0975 -0.5133
 3260SOL    HW121416   4.441   1.511  15.297 -0.5726  0.1851  1.2689
 3260SOL    HW221417   4.412   1.652  15.338 -0.1836 -1.3960  1.7420
 3261SOL     OW21418   1.050   2.693   7.705  0.3059 -0.2154 -0.2026
 3261SOL    HW121419   0.983   2.637   7.742 -0.5590 -0.6947 -2.5234
 3261SOL    HW221420   1.102   2.704   7.785 -0.5971 -1.2198  0.5253
 3262SOL     OW21421   1.706   2.645   3.979  0.4045  0.0963 -0.4077
 3262SOL    HW121422   1.699   2.739   3.997  3.7473  0.0876  1.0394
 3262SOL    HW221423   1.700   2.602   4.065  0.4051 -0.3506 -0.6324
 3263SOL     OW21424   2.941   0.477   5.026  0.6928  0.0550 -0.2174
 3263SOL    HW121425   2.992   0.420   4.968  0.2840  1.0217 -1.5245
 3263SOL    HW221426   3.003   0.499   5.095  1.4107  2.9215 -1.7597
 3264SOL     OW21427   2.235   3.142  14.845 -0.0606 -0.0114  0.0471
 3264SOL    HW121428   2.192   3.057  14.858  0.3195  0.0549  1.7331
 3264SOL    HW221429   2.160   3.197  14.868  0.5866  0.4492  1.0831
 3265SOL     OW21430   2.645   3.423  12.900 -0.0360  0.0518 -0.2878
 3265SOL    HW121431   2.714   3.391  12.841  0.3831  3.4196 -1.6019
 3265SOL    HW221432   2.683   3.497  12.947  0.5322 -0.2844 -0.2056
 3266SOL     OW21433   4.414   1.049   7.351 -0.1845 -0.6573  0.8347
 3266SOL    HW121434   4.321   1.063   7.333 -0.2366 -1.2605  0.6412
 3266SOL    HW221435   4.421   0.954   7.342  2.6861 -0.1175 -2.5544
 3267SOL     OW21436   3.685   3.110   2.378 -0.5115 -0.4813  0.0582
 3267SOL    HW121437   3.593   3.128   2.394 -0.4608  1.5188 -1.9771
 3267SOL    HW221438   3.706   3.155   2.296 -0.5269  1.1850  0.9632
 3268SOL     OW21439   1.115   2.257  11.147  0.2481  0.1883 -0.1181
 3268SOL    HW121440   1.076   2.342  11.166 -2.5233 -1.3225  0.9896
 3268SOL    HW221441   1.160   2.243  11.230  0.6344 -0.8048 -0.4986
 3269SOL     OW21442   1.148   2.223   7.498 -0.2885 -0.0938  0.1950
 3269SOL    HW121443   1.070   2.175   7.526 -0.7202 -0.0262 -0.8942
 3269SOL    HW221444   1.119   2.256   7.413 -0.1800  0.3867  0.3447
 3270SOL     OW21445   1.977   1.620   5.541  0.2551  0.1304  0.2270
 3270SOL    HW121446   2.054   1.614   5.485  0.6191  1.1796  0.6339
 3270SOL    HW221447   1.947   1.709   5.527  2.6658  0.9565  0.4302
 3271SOL     OW21448   3.047   1.725   7.033  0.5294 -0.0244 -0.5557
 3271SOL    HW121449   3.010   1.643   7.067  0.3928  0.6766  1.0138
 3271SOL    HW221450   3.111   1.756   7.097 -0.1137 -0.1414  0.1576
 3272SOL     OW21451   3.948   2.418   6.633  0.8675 -0.1750  0.4121
 3272SOL    HW121452   3.991   2.336   6.608  0.7241  0.0374 -0.5087
 3272SOL    HW221453   4.025   2.475   6.632  0.1543  0.7362 -1.3408
 3273SOL     OW21454   1.429   4.578   2.290 -0.0473  0.6012 -0.0053
 3273SOL    HW121455   1.351   4.633   2.291  1.7831  3.1553  0.2552
 3273SOL    HW221456   1.392   4.502   2.244 -2.4633  1.8815 -0.1879
 3274SOL     OW21457   0.936   3.288   5.523  0.2138  0.1614 -0.0803
 3274SOL    HW121458   0.988   3.356   5.565  3.1488 -3.0246  1.4854
 3274SOL    HW221459   1.005   3.224   5.506 -1.8635 -1.9692 -0.6317
 3275SOL     OW21460   0.142   0.364  13.609 -0.1074  0.0691  0.1989
 3275SOL    HW121461   0.117   0.449  13.645  0.3428  1.4890 -2.8401
 3275SOL    HW221462   0.055   0.327  13.594 -0.1805  0.2586  0.1565
 3276SOL     OW21463   0.559   3.640   1.753 -0.0770  0.4373 -0.4632
 3276SOL    HW121464   0.467   3.637   1.778  0.0814  0.7424  0.1634
 3276SOL    HW221465   0.551   3.650   1.658  0.1614  1.7400 -0.3471
 3277SOL     OW21466   4.002   0.042  12.694  0.3248  0.3813 -0.2107
 3277SOL    HW121467   3.990   0.130  12.658  0.9023  0.1701 -0.9201
 3277SOL    HW221468   4.097   0.027  12.695 -0.1427 -2.4969  1.7742
 3278SOL     OW21469   2.976   4.604  12.275 -0.4496  0.0367  0.3026
 3278SOL    HW121470   2.907   4.551  12.235 -0.6473  1.0260 -0.6692
 3278SOL    HW221471   3.028   4.637  12.202 -0.3815 -3.1204 -1.0678
 3279SOL     OW21472   4.291   4.192   4.736 -0.4684 -0.2826 -0.1021
 3279SOL    HW121473   4.322   4.102   4.728  2.5508  0.7798 -0.2512
 3279SOL    HW221474   4.362   4.224   4.792 -1.2753  2.3010 -0.5326
 3280SOL     OW21475   2.401   3.305   7.191 -0.0327  0.2029  0.0577
 3280SOL    HW121476   2.369   3.311   7.281 -1.9927  0.8331 -0.6702
 3280SOL    HW221477   2.362   3.386   7.158 -1.6273 -0.1226  1.1121
 3281SOL     OW21478   0.584   1.993   2.677  0.7225 -0.0703  0.9958
 3281SOL    HW121479   0.576   1.899   2.658  0.0037 -0.5841  3.7018
 3281SOL    HW221480   0.495   2.016   2.705 -0.2689 -1.3898 -1.0452
 3282SOL     OW21481   3.302   0.761  11.329 -0.1243  0.4189  0.0508
 3282SOL    HW121482   3.270   0.709  11.256  0.9283  0.1570 -0.2171
 3282SOL    HW221483   3.379   0.801  11.290  1.2921  0.3028  2.7045
 3283SOL     OW21484   0.139   3.349  17.558 -0.9208 -0.0838  0.1718
 3283SOL    HW121485   0.085   3.276  17.527  0.4668 -0.7068 -0.7519
 3283SOL    HW221486   0.150   3.404  17.480 -0.5293 -1.4037 -0.7070
 3284SOL     OW21487   0.571   3.985   3.252 -0.0238 -0.1014 -0.2140
 3284SOL    HW121488   0.561   4.034   3.171  3.4710  0.2371 -0.4219
 3284SOL    HW221489   0.510   4.027   3.313  0.2333  1.0094 -0.7338
 3285SOL     OW21490   2.264   3.204   7.814  0.0516 -0.0736  0.0812
 3285SOL    HW121491   2.184   3.239   7.775  0.3676 -0.3815 -0.8560
 3285SOL    HW221492   2.248   3.113   7.838 -0.2937  0.9918  3.8138
 3286SOL     OW21493   3.040   0.581   3.481 -0.0837 -0.6801 -0.7235
 3286SOL    HW121494   3.026   0.630   3.562  1.8927 -0.9307 -0.2423
 3286SOL    HW221495   3.099   0.639   3.434  1.3153 -0.8444  0.8414
 3287SOL     OW21496   2.597   1.028   3.462 -0.3611 -0.2451  0.3423
 3287SOL    HW121497   2.578   1.102   3.519  1.2890  0.2573  0.2296
 3287SOL    HW221498   2.650   0.971   3.517  1.8413  0.5223 -0.9857
 3288SOL     OW21499   1.322   4.148   4.307  0.5457  0.0758  0.3431
 3288SOL    HW121500   1.354   4.238   4.297 -2.8437  1.4170  1.5749
 3288SOL    HW221501   1.233   4.155   4.271  0.2463 -0.6200  0.9447
 3289SOL     OW21502   4.665   4.645   6.859 -0.0201  0.3909  0.2056
 3289SOL    HW121503   4.696   4.561   6.824  1.3713  0.1764  1.9638
 3289SOL    HW221504   4.660   4.645   6.955  0.4884  0.8660  0.2318
 3290SOL     OW21505   3.160   1.611   4.511  0.0787 -0.0165  0.1292
 3290SOL    HW121506   3.155   1.676   4.581  1.1665 -1.0724  1.1941
 3290SOL    HW221507   3.235   1.566   4.551 -2.3305 -3.1123  1.1245
 3291SOL     OW21508   4.363   3.545   3.128  0.2683  0.9442  0.0974
 3291SOL    HW121509   4.362   3.497   3.045 -1.0440  1.3276 -0.1140
 3291SOL    HW221510   4.286   3.500   3.162  0.4086 -1.2721 -2.5453
 3292SOL     OW21511   2.207   4.367  13.132 -0.3015  0.2014 -0.4574
 3292SOL    HW121512   2.283   4.312  13.114  0.5959  1.0649  0.7255
 3292SOL    HW221513   2.252   4.451  13.121  0.0297  0.0290 -0.4201
 3293SOL     OW21514   0.910   0.733  16.922 -0.4660  0.0976 -0.3175
 3293SOL    HW121515   0.933   0.697  17.007 -0.1045  0.2991 -0.3266
 3293SOL    HW221516   0.829   0.685  16.906 -0.9159  0.3364  1.2771
 3294SOL     OW21517   2.722   4.023   9.215 -0.2554  0.0766  0.1175
 3294SOL    HW121518   2.697   4.050   9.126 -1.0080 -1.5002 -0.1545
 3294SOL    HW221519   2.767   4.101   9.247 -3.6555  2.1312 -0.1060
 3295SOL     OW21520   2.598   2.756   5.719  0.0857 -0.1684 -0.0050
 3295SOL    HW121521   2.617   2.729   5.629  0.6188  0.9749 -0.2408
 3295SOL    HW221522   2.554   2.841   5.708 -0.7306 -0.3959  1.5089
 3296SOL     OW21523   2.134   1.208   5.720  0.4405  0.2264  0.4376
 3296SOL    HW121524   2.230   1.212   5.720  0.5375 -2.7749 -0.6862
 3296SOL    HW221525   2.115   1.126   5.765 -0.8303  0.6134  0.6130
 3297SOL     OW21526   1.739   0.730  10.928 -0.1857  0.1225 -0.0537
 3297SOL    HW121527   1.718   0.779  11.007  0.2377 -1.9265  1.3477
 3297SOL    HW221528   1.835   0.734  10.933 -0.0139 -1.7806 -1.7184
 3298SOL     OW21529   4.555   4.719   7.567  0.1191  0.4452  0.0968
 3298SOL    HW121530   4.588   0.064   7.534 -4.1373  1.4482 -1.6518
 3298SOL    HW221531   4.566   4.736   7.660  3.5488 -0.7222 -0.1180
 3299SOL     OW21532   2.657   4.734   6.768 -0.1718 -0.0427 -0.2717
 3299SOL    HW121533   2.647   0.080   6.810  1.2765 -1.2407  2.4716
 3299SOL    HW221534   2.689   0.020   6.681  0.7672 -4.1633 -1.1044
 3300SOL     OW21535   1.740   3.041   7.714  0.2025 -0.0817  0.6289
 3300SOL    HW121536   1.674   2.974   7.698 -0.8398  1.0031  0.3998
 3300SOL    HW221537   1.680   3.099   7.760 -0.0504  0.6233 -0.5862
 3301SOL     OW21538   3.797   1.103   8.670 -0.1853  0.3689 -0.0604
 3301SOL    HW121539   3.770   1.090   8.761  0.3201  1.1349  0.1986
 3301SOL    HW221540   3.743   1.039   8.625  0.3951 -0.0225 -0.2039
 3302SOL     OW21541   0.322   4.296  10.343 -0.0184  0.2461 -0.0668
 3302SOL    HW121542   0.377   4.335  10.411 -1.3716  1.1547  0.5006
 3302SOL    HW221543   0.397   4.259  10.296  0.7968  1.1755  0.5006
 3303SOL     OW21544   3.907   0.260  13.207 -0.0959  0.5011 -0.4383
 3303SOL    HW121545   3.887   0.215  13.125 -2.2978  0.6833  0.0254
 3303SOL    HW221546   3.859   0.209  13.272 -0.8615 -1.8343 -2.7861
 3304SOL     OW21547   3.554   0.823   2.357 -0.2169  0.5612  0.0437
 3304SOL    HW121548   3.517   0.864   2.279  0.6634 -0.0563 -0.6951
 3304SOL    HW221549   3.629   0.781   2.315 -1.2095 -0.4585 -0.7111
 3305SOL     OW21550   3.344   1.875  14.048  0.4797 -0.7240  0.3585
 3305SOL    HW121551   3.377   1.842  13.965  1.3001 -3.0347  1.5815
 3305SOL    HW221552   3.253   1.856  14.025  0.7168 -0.6737 -0.6122
 3306SOL     OW21553   3.380   1.652  10.245  0.2208  0.2962 -0.2718
 3306SOL    HW121554   3.395   1.564  10.279 -1.3572  0.2829  0.4019
 3306SOL    HW221555   3.443   1.700  10.297 -0.2461  0.3069  0.2792
 3307SOL     OW21556   2.319   0.748  15.185 -0.2028  0.6230 -0.1934
 3307SOL    HW121557   2.364   0.740  15.269 -0.9367 -0.6681  0.0821
 3307SOL    HW221558   2.234   0.787  15.201  1.2140  3.4342  0.4030
 3308SOL     OW21559   2.470   1.668   4.617  0.0653 -0.3040 -0.5926
 3308SOL    HW121560   2.467   1.603   4.687  2.3994 -0.4188 -0.5883
 3308SOL    HW221561   2.449   1.620   4.537  0.3716  0.5244 -1.1686
 3309SOL     OW21562   0.646   0.585  16.858 -0.1122 -0.0756  0.6112
 3309SOL    HW121563   0.637   0.677  16.835 -0.9743 -0.3177 -0.0299
 3309SOL    HW221564   0.644   0.543  16.772 -0.1620  0.3194  0.4197
 3310SOL     OW21565   3.993   1.198   8.254  0.0176  0.7772 -0.3497
 3310SOL    HW121566   3.904   1.164   8.248  0.4683 -0.3869 -0.5251
 3310SOL    HW221567   4.031   1.117   8.289 -2.2455 -0.6549 -1.2753
 3311SOL     OW21568   1.533   1.884   1.700  0.5037 -0.4617  0.0278
 3311SOL    HW121569   1.594   1.952   1.674 -0.3984  1.0736  2.0225
 3311SOL    HW221570   1.463   1.944   1.724  0.3855 -0.0083 -1.4311
 3312SOL     OW21571   0.191   1.820   3.658  0.0907  0.1746  0.1509
 3312SOL    HW121572   0.246   1.860   3.591 -2.2183 -0.9583 -2.3959
 3312SOL    HW221573   0.157   1.741   3.619  0.9127  0.0960 -0.4082
 3313SOL     OW21574   0.568   3.104   6.507 -0.2675 -0.6257  0.2992
 3313SOL    HW121575   0.591   3.169   6.574  0.3057 -1.0564  0.5179
 3313SOL    HW221576   0.478   3.128   6.486 -0.1598 -0.7369 -0.2983
 3314SOL     OW21577   1.367   3.635   4.778  0.4731  0.1862 -0.0426
 3314SOL    HW121578   1.272   3.623   4.787  0.8757 -2.0212  1.2716
 3314SOL    HW221579   1.392   3.575   4.849 -1.9662  0.1186  0.7606
 3315SOL     OW21580   1.488   0.781  13.573 -0.1301  0.2348 -0.0598
 3315SOL    HW121581   1.531   0.821  13.497  1.0508 -1.5843 -0.3493
 3315SOL    HW221582   1.554   0.719  13.604 -0.8764 -1.8486 -2.7042
 3316SOL     OW21583   1.766   1.620   5.752 -0.0915 -0.2539 -0.5911
 3316SOL    HW121584   1.707   1.546   5.765 -0.2291 -0.1835 -0.8224
 3316SOL    HW221585   1.823   1.595   5.679 -1.4986  0.7551 -2.0493
 3317SOL     OW21586   3.778   4.395   0.168 -0.2522  0.2629  0.6194
 3317SOL    HW121587   3.870   4.369   0.170 -0.4783 -0.5042  0.7025
 3317SOL    HW221588   3.752   4.333   0.236  0.8066 -0.7504  0.0788
 3318SOL     OW21589   3.248   2.007   8.161  0.4204  0.6186 -0.8010
 3318SOL    HW121590   3.173   2.057   8.193  0.1610 -0.9505  1.0572
 3318SOL    HW221591   3.221   1.985   8.071 -0.3826  1.2341 -0.7101
 3319SOL     OW21592   2.273   1.867   2.926 -0.2861  0.4480 -0.0858
 3319SOL    HW121593   2.286   1.785   2.879 -0.5537  0.9467 -1.0449
 3319SOL    HW221594   2.359   1.873   2.967 -0.4604  1.1948  0.1784
 3320SOL     OW21595   0.989   1.034   3.817  0.1264 -0.4238  0.1223
 3320SOL    HW121596   0.994   0.975   3.743 -2.6641 -0.8804  0.2713
 3320SOL    HW221597   0.984   0.987   3.900 -2.5779 -0.6778 -0.1807
 3321SOL     OW21598   0.998   1.476  16.960 -0.7892 -0.8976 -0.3973
 3321SOL    HW121599   0.925   1.491  16.900 -0.8202  1.0656  0.1467
 3321SOL    HW221600   1.046   1.558  16.957 -0.9969 -0.7164  1.3201
 3322SOL     OW21601   0.734   0.885  13.033 -0.1637  0.4133 -0.1278
 3322SOL    HW121602   0.758   0.795  13.055  0.8211  1.1704  1.8386
 3322SOL    HW221603   0.763   0.872  12.942 -2.7732  1.3089 -1.1023
 3323SOL     OW21604   3.777   3.237  15.083 -0.4897 -0.3604 -0.7230
 3323SOL    HW121605   3.797   3.232  14.989  2.8097  0.8500 -0.0837
 3323SOL    HW221606   3.774   3.332  15.080  0.7055 -0.3305 -0.9097
 3324SOL     OW21607   3.317   0.547   8.457  0.2173  0.1573 -0.4335
 3324SOL    HW121608   3.397   0.546   8.404  0.5597 -2.5511  0.1537
 3324SOL    HW221609   3.314   0.459   8.495  1.1394  0.0827 -0.5453
 3325SOL     OW21610   4.087   3.756   6.875 -0.3194  0.2579  0.0683
 3325SOL    HW121611   4.036   3.819   6.927  0.1812  1.1560 -0.5164
 3325SOL    HW221612   4.087   3.800   6.790 -3.3363  3.9588  2.0045
 3326SOL     OW21613   2.998   1.350  16.014  0.6605  0.0066 -0.0964
 3326SOL    HW121614   3.005   1.268  15.966 -1.1945  0.6958 -1.5380
 3326SOL    HW221615   3.028   1.316  16.098 -0.6122  0.4295  0.5153
 3327SOL     OW21616   4.239   1.846   5.758  0.1486  0.2003 -0.3805
 3327SOL    HW121617   4.188   1.919   5.795  1.5105  0.5910  0.7471
 3327SOL    HW221618   4.242   1.867   5.664  0.5689  2.1697  0.0687
 3328SOL     OW21619   2.521   1.006   8.987 -0.2692 -0.2893 -0.2882
 3328SOL    HW121620   2.504   1.073   8.921 -1.6740 -1.1193 -0.7549
 3328SOL    HW221621   2.440   0.957   8.996  2.0288 -3.7348  1.5466
 3329SOL     OW21622   1.506   0.355  11.339  0.1223 -0.0517 -0.1789
 3329SOL    HW121623   1.417   0.336  11.369  0.6261  0.3309  1.5467
 3329SOL    HW221624   1.532   0.267  11.314 -0.1991  0.1304 -1.1465
 3330SOL     OW21625   1.186   3.102   8.257  0.3885 -0.4106 -0.1074
 3330SOL    HW121626   1.205   3.027   8.201 -2.2171 -1.2215  0.0977
 3330SOL    HW221627   1.111   3.140   8.212  0.7022  1.2019  0.7209
 3331SOL     OW21628   1.209   1.630   4.843 -0.0057  0.2845  0.4433
 3331SOL    HW121629   1.258   1.639   4.761  0.5448  1.7489  0.9531
 3331SOL    HW221630   1.122   1.662   4.819 -0.2783 -1.3912 -0.7837
 3332SOL     OW21631   1.993   2.657   5.587  0.3813  0.2218  0.1101
 3332SOL    HW121632   1.949   2.619   5.663 -0.5450 -0.6524 -0.8569
 3332SOL    HW221633   2.018   2.586   5.529 -1.3045 -1.2700  1.2278
 3333SOL     OW21634   3.769   4.308   7.352  0.5181 -0.3475  0.0615
 3333SOL    HW121635   3.799   4.239   7.411 -1.3317 -2.8928 -1.9809
 3333SOL    HW221636   3.786   4.389   7.400  0.1897  0.0807 -0.5351
 3334SOL     OW21637   4.735   2.752   5.815  0.1975  0.6419 -0.0624
 3334SOL    HW121638   4.644   2.722   5.817  0.8237 -1.2941 -0.8729
 3334SOL    HW221639   0.014   2.748   5.909 -1.6866  0.2090  0.2921
 3335SOL     OW21640   4.682   1.817   9.177  0.3047 -0.0189  0.0203
 3335SOL    HW121641   4.625   1.834   9.252  0.2286  2.5030 -0.6041
 3335SOL    HW221642   0.002   1.753   9.217 -0.1249 -0.7806 -0.5843
 3336SOL     OW21643   2.620   3.587  14.537 -0.2147  0.3276  0.2973
 3336SOL    HW121644   2.561   3.640  14.591 -0.1401  0.9099 -0.1928
 3336SOL    HW221645   2.678   3.544  14.600 -0.5602 -1.7519 -0.8069
 3337SOL     OW21646   4.703   1.509  15.779  0.3688  0.2602 -0.5080
 3337SOL    HW121647   4.671   1.580  15.834 -1.1454 -0.5549 -0.3284
 3337SOL    HW221648   4.647   1.518  15.702 -0.6960 -0.1767  0.2199
 3338SOL     OW21649   4.117   2.363   1.084 -0.6223 -0.2174  0.1571
 3338SOL    HW121650   4.186   2.371   1.150 -0.6620 -0.3187  0.2107
 3338SOL    HW221651   4.103   2.270   1.102 -1.5462  0.1054  1.0885
 3339SOL     OW21652   4.138   2.205   6.630 -0.1668 -0.3542 -0.4592
 3339SOL    HW121653   4.110   2.115   6.617  0.8729 -0.6805 -0.4498
 3339SOL    HW221654   4.139   2.220   6.724 -0.7238 -0.5066 -0.4313
 3340SOL     OW21655   1.927   2.488   5.800  0.0061 -0.0716  0.0547
 3340SOL    HW121656   1.891   2.403   5.827  2.8792 -0.7221  1.9400
 3340SOL    HW221657   2.017   2.474   5.832 -0.9388 -3.4455  1.2819
 3341SOL     OW21658   3.621   1.332   6.476  0.5252 -0.1442 -0.1476
 3341SOL    HW121659   3.627   1.264   6.408  1.4824 -0.6420  0.4449
 3341SOL    HW221660   3.527   1.353   6.482  0.8770  0.3709  3.1968
 3342SOL     OW21661   0.837   0.243   9.826  0.1121 -0.2575 -0.5829
 3342SOL    HW121662   0.923   0.275   9.800  0.9295 -0.9817  1.2377
 3342SOL    HW221663   0.774   0.273   9.760  0.9653 -1.2950 -1.8733
 3343SOL     OW21664   0.091   1.051   5.528 -0.4250 -0.3201  0.2907
 3343SOL    HW121665   0.143   1.017   5.601  0.0169 -2.2229 -0.9123
 3343SOL    HW221666   0.040   1.116   5.578 -2.0339  0.8400 -2.8766
 3344SOL     OW21667   4.266   2.039   7.943  0.3466 -0.4297 -0.4955
 3344SOL    HW121668   4.277   1.946   7.965  0.9889  0.0459  1.2408
 3344SOL    HW221669   4.270   2.083   8.028  1.4863 -0.3379 -0.6067
 3345SOL     OW21670   4.400   3.698   3.666 -0.4420 -0.1933  0.0823
 3345SOL    HW121671   4.481   3.675   3.711 -2.0145 -2.0987  1.9730
 3345SOL    HW221672   4.411   3.793   3.664  1.4110 -0.4329 -0.9354
 3346SOL     OW21673   1.268   0.442   9.703  0.2399  0.1949  0.3237
 3346SOL    HW121674   1.212   0.368   9.728  2.3148 -0.9061  1.7934
 3346SOL    HW221675   1.297   0.468   9.790  2.0445 -0.1129 -0.1765
 3347SOL     OW21676   3.701   3.859   2.771 -0.3854  0.3340  0.2076
 3347SOL    HW121677   3.782   3.868   2.719  0.7299 -0.5941  1.8031
 3347SOL    HW221678   3.734   3.850   2.860 -4.3977 -0.0852  1.6049
 3348SOL     OW21679   4.648   1.742   8.595  0.1601  0.4374 -0.2890
 3348SOL    HW121680   0.001   1.752   8.617 -0.2580  1.2550  1.1134
 3348SOL    HW221681   4.638   1.821   8.542 -0.0385 -0.4973 -1.6446
 3349SOL     OW21682   2.852   0.764   5.016  0.3282 -0.1934 -0.4143
 3349SOL    HW121683   2.867   0.858   5.020  0.1011 -0.1595 -0.3269
 3349SOL    HW221684   2.933   0.729   5.052  0.7106 -2.0830 -3.0514
 3350SOL     OW21685   2.604   1.009  13.466  0.5699  0.3803  0.4342
 3350SOL    HW121686   2.511   1.026  13.452  0.2872 -1.0977  0.5733
 3350SOL    HW221687   2.613   0.990  13.559 -1.1440  0.3125  0.5853
 3351SOL     OW21688   4.539   2.195   9.383 -0.0700  0.0711  0.0384
 3351SOL    HW121689   4.630   2.180   9.359 -0.4677 -1.4840 -0.5098
 3351SOL    HW221690   4.539   2.188   9.478 -2.1211 -0.2446  0.0188
 3352SOL     OW21691   3.233   3.645  15.246  0.3708 -0.4542 -0.5810
 3352SOL    HW121692   3.274   3.635  15.333  1.0991  3.4378 -0.4756
 3352SOL    HW221693   3.271   3.731  15.230 -0.4606 -0.3961 -2.1209
 3353SOL     OW21694   3.133   4.604   8.912 -0.3010  0.3467 -0.2952
 3353SOL    HW121695   3.153   4.565   8.827 -1.3039  1.9644 -1.2725
 3353SOL    HW221696   3.191   4.566   8.978  1.5527  2.1173 -0.9344
 3354SOL     OW21697   2.163   0.156   5.418  0.4045 -0.0117  0.2144
 3354SOL    HW121698   2.223   0.110   5.359 -0.7225 -1.5283  0.2692
 3354SOL    HW221699   2.133   0.234   5.371  0.7724  0.0826  0.1349
 3355SOL     OW21700   1.125   4.047   5.976 -0.4559 -0.0177 -0.2918
 3355SOL    HW121701   1.186   4.116   6.003 -0.0090 -0.4008 -0.3143
 3355SOL    HW221702   1.150   3.970   6.027 -1.2090  0.4082  0.7163
 3356SOL     OW21703   4.087   0.802   7.293 -0.1506  0.4131 -0.4809
 3356SOL    HW121704   4.096   0.893   7.319  1.4047 -0.4248  1.9695
 3356SOL    HW221705   4.093   0.795   7.198  0.8543 -0.6019 -0.3437
 3357SOL     OW21706   2.418   3.236   0.850  0.6718 -0.3502 -0.0331
 3357SOL    HW121707   2.338   3.288   0.857  0.4797 -0.5821 -0.4871
 3357SOL    HW221708   2.462   3.296   0.790  0.9592 -2.1016 -1.5934
 3358SOL     OW21709   0.407   1.085   2.114 -0.1424 -0.0819  0.4889
 3358SOL    HW121710   0.480   1.046   2.162 -0.3684  1.0965  1.7917
 3358SOL    HW221711   0.406   1.043   2.028 -0.3798  0.1391  0.3833
 3359SOL     OW21712   1.583   4.214   3.559 -0.3612  0.4784  0.1148
 3359SOL    HW121713   1.574   4.140   3.620  0.4461 -0.8162 -1.3256
 3359SOL    HW221714   1.492   4.220   3.529 -0.5175  1.6879  0.8204
 3360SOL     OW21715   0.288   0.613   6.013  0.1560 -0.5222 -0.1711
 3360SOL    HW121716   0.318   0.539   5.959  1.8298  0.9882 -1.3195
 3360SOL    HW221717   0.193   0.605   6.001  0.0352 -1.9764  1.8514
 3361SOL     OW21718   2.439   3.408   9.765 -0.1277 -0.0617  0.0381
 3361SOL    HW121719   2.487   3.491   9.766 -0.7981  0.3257 -0.5939
 3361SOL    HW221720   2.438   3.394   9.860  0.3650 -1.1039 -0.1028
 3362SOL     OW21721   4.266   0.384  14.992 -0.0987  0.3003 -0.0915
 3362SOL    HW121722   4.264   0.291  14.967 -0.4118 -0.1512  1.5851
 3362SOL    HW221723   4.194   0.387  15.055  0.3569  0.6070  0.4187
 3363SOL     OW21724   1.795   0.831  11.627 -0.4000 -0.3263 -0.2112
 3363SOL    HW121725   1.872   0.774  11.631  0.9666  1.7101  2.1323
 3363SOL    HW221726   1.741   0.814  11.704 -0.4648  1.7209  0.1909
 3364SOL     OW21727   1.560   1.819   4.507 -0.2297 -0.4025 -0.1338
 3364SOL    HW121728   1.494   1.859   4.450 -0.3246 -0.4513 -0.0576
 3364SOL    HW221729   1.560   1.732   4.467  1.2142 -0.5492  0.1832
 3365SOL     OW21730   1.480   2.940  10.616  0.3933 -0.5746 -0.2487
 3365SOL    HW121731   1.441   3.012  10.568  0.6902 -1.5490 -1.9557
 3365SOL    HW221732   1.565   2.936  10.573  0.4891  2.4916 -0.3594
 3366SOL     OW21733   2.792   4.505   2.855 -0.3347 -0.0139 -0.0882
 3366SOL    HW121734   2.789   4.596   2.827  2.6858  0.0956 -0.0460
 3366SOL    HW221735   2.714   4.464   2.817  0.2864  0.9000 -2.3340
 3367SOL     OW21736   1.912   1.591   5.236 -0.1059 -0.0386  0.4014
 3367SOL    HW121737   1.878   1.600   5.325 -1.5948 -3.3018  0.1626
 3367SOL    HW221738   1.832   1.596   5.184  0.1719  0.1753 -0.0122
 3368SOL     OW21739   3.028   0.185  16.602  0.2423 -0.1439 -0.2648
 3368SOL    HW121740   2.989   0.134  16.673  0.9043 -0.8071 -0.3781
 3368SOL    HW221741   2.946   0.212  16.561  0.6774  0.9826 -0.4090
 3369SOL     OW21742   0.412   4.557   3.016 -0.2117  0.6253  0.0288
 3369SOL    HW121743   0.336   4.591   2.968 -0.5162 -0.6676 -0.4086
 3369SOL    HW221744   0.370   4.572   3.100  3.4293 -0.3632  1.9975
 3370SOL     OW21745   4.333   1.484   7.232 -0.3482 -0.5593  0.1244
 3370SOL    HW121746   4.292   1.570   7.237  0.3530 -0.3793  2.4874
 3370SOL    HW221747   4.426   1.505   7.237 -0.7416  1.0817  0.5108
 3371SOL     OW21748   3.770   1.356   4.602  0.5407  0.1689  0.4298
 3371SOL    HW121749   3.856   1.336   4.565 -1.0414  0.2405 -3.2870
 3371SOL    HW221750   3.710   1.355   4.528 -0.3568  1.7101  1.1359
 3372SOL     OW21751   3.241   1.251  10.914 -0.1906  0.5543  0.4778
 3372SOL    HW121752   3.206   1.253  10.825 -4.1657  1.0282  2.0652
 3372SOL    HW221753   3.268   1.342  10.928 -0.3610  0.6263  0.3375
 3373SOL     OW21754   2.655   2.236   2.056 -0.6182  0.2128  0.3428
 3373SOL    HW121755   2.739   2.201   2.028 -0.9983 -0.4315  0.0202
 3373SOL    HW221756   2.636   2.196   2.141 -0.1030 -2.6510 -0.9073
 3374SOL     OW21757   2.695   4.547   7.317  0.1449 -0.0469  0.3843
 3374SOL    HW121758   2.669   4.456   7.301 -0.3584  0.0097  0.8868
 3374SOL    HW221759   2.778   4.539   7.362 -0.1291 -1.1431  0.7060
 3375SOL     OW21760   3.305   4.488   6.430 -0.0382  0.0011  0.5105
 3375SOL    HW121761   3.287   4.403   6.389 -1.5171  1.0196 -0.9249
 3375SOL    HW221762   3.223   4.527   6.459 -1.6950 -0.3966 -3.6497
 3376SOL     OW21763   0.690   1.075   0.999  0.2229  0.0888 -0.2263
 3376SOL    HW121764   0.718   1.150   0.947  0.6585  1.7907  2.4565
 3376SOL    HW221765   0.636   1.125   1.061  0.4468 -0.1415  0.1549
 3377SOL     OW21766   4.483   2.752  15.226  0.0200  0.1620  0.7293
 3377SOL    HW121767   4.552   2.766  15.161 -1.7632  0.7218 -1.0750
 3377SOL    HW221768   4.451   2.842  15.238  0.8878  0.5296  0.3320
 3378SOL     OW21769   2.377   0.640   8.575 -0.0281  0.4046 -0.2659
 3378SOL    HW121770   2.357   0.548   8.559 -0.2908  0.4353 -0.1156
 3378SOL    HW221771   2.415   0.642   8.663  0.2677 -0.0651 -0.3813
 3379SOL     OW21772   2.063   1.897  16.683  0.2549  0.2418 -0.0864
 3379SOL    HW121773   2.096   1.984  16.661  2.8596 -0.4512  0.9937
 3379SOL    HW221774   1.993   1.886  16.619 -0.3911 -0.2041  0.6922
 3380SOL     OW21775   3.346   3.375   6.398  0.8038 -0.4309 -0.1857
 3380SOL    HW121776   3.376   3.383   6.489 -2.4451 -2.5169  1.0518
 3380SOL    HW221777   3.278   3.443   6.397 -0.3793 -1.5884  1.9621
 3381SOL     OW21778   1.913   3.885   5.363 -0.1763 -0.1382 -0.0253
 3381SOL    HW121779   2.004   3.856   5.361  0.3819  1.5211  1.6899
 3381SOL    HW221780   1.871   3.809   5.324  0.1804 -0.4032  0.1133
 3382SOL     OW21781   1.832   2.812   9.817 -0.5498 -0.5947  0.2289
 3382SOL    HW121782   1.790   2.874   9.757 -1.0165 -1.1016  0.0343
 3382SOL    HW221783   1.770   2.824   9.890  0.9389  0.1799  1.3785
 3383SOL     OW21784   4.550   0.233   8.561 -0.2375 -0.4017  0.6336
 3383SOL    HW121785   4.511   0.312   8.599 -0.5003 -0.7026  0.9901
 3383SOL    HW221786   4.621   0.213   8.622 -0.0978  0.6061  0.8056
 3384SOL     OW21787   3.595   3.967   3.018 -0.4432  0.4088 -0.2452
 3384SOL    HW121788   3.588   3.946   3.111 -2.1137  0.1205 -0.4529
 3384SOL    HW221789   3.672   4.025   3.019  0.7565 -1.1529 -1.1560
 3385SOL     OW21790   0.799   4.335   8.592  0.6345  0.0767 -0.2395
 3385SOL    HW121791   0.774   4.373   8.508  1.2586 -1.3376 -1.0679
 3385SOL    HW221792   0.747   4.382   8.657 -0.2192  0.1557 -0.9858
 3386SOL     OW21793   3.125   4.502   6.924 -0.7618  0.0837  0.4377
 3386SOL    HW121794   3.145   4.587   6.885 -1.2336 -0.0333 -0.0731
 3386SOL    HW221795   3.185   4.442   6.879  0.8755  1.1984  1.1420
 3387SOL     OW21796   0.098   4.143  13.819  0.8061  0.0105  0.3815
 3387SOL    HW121797   0.180   4.193  13.816  1.7603 -1.4890  1.5915
 3387SOL    HW221798   0.130   4.062  13.859  2.1008  1.4147  2.1237
 3388SOL     OW21799   3.336   3.428  16.766  0.3731 -0.5365 -0.5775
 3388SOL    HW121800   3.320   3.351  16.712  0.0964 -0.4229 -0.6584
 3388SOL    HW221801   3.250   3.437  16.806  0.9483 -1.6997  0.9279
 3389SOL     OW21802   3.578   3.126   0.496 -0.0749  0.2961  0.0728
 3389SOL    HW121803   3.623   3.064   0.555  0.7520  0.1122 -0.7476
 3389SOL    HW221804   3.609   3.204   0.542 -1.5354  0.7943  0.1852
 3390SOL     OW21805   2.838   1.907  15.108  0.4261  0.3300 -0.1765
 3390SOL    HW121806   2.774   1.918  15.038  0.3453  1.7488  0.1196
 3390SOL    HW221807   2.801   1.840  15.164 -1.1435  3.0348  2.0263
 3391SOL     OW21808   2.899   0.665   9.491  0.2018 -0.0766 -0.1411
 3391SOL    HW121809   2.859   0.739   9.538 -1.0364 -1.6177  1.2113
 3391SOL    HW221810   2.991   0.674   9.519  0.7795 -1.5053 -1.6015
 3392SOL     OW21811   2.630   2.415   8.635 -0.1780 -0.1015 -0.5654
 3392SOL    HW121812   2.618   2.474   8.710 -0.4352  1.1677 -1.5872
 3392SOL    HW221813   2.623   2.473   8.559  0.1407  2.1679  1.0999
 3393SOL     OW21814   4.121   2.189  10.952 -0.0290 -0.3674  0.7762
 3393SOL    HW121815   4.165   2.125  10.895  0.1812 -0.5938  1.1908
 3393SOL    HW221816   4.196   2.226  10.999  0.6987 -0.6835 -0.1369
 3394SOL     OW21817   3.859   0.625   7.299 -0.7555  0.0841  0.1728
 3394SOL    HW121818   3.816   0.677   7.366 -0.2534 -2.3026  2.3611
 3394SOL    HW221819   3.934   0.684   7.299 -2.4621  2.2214 -0.7492
 3395SOL     OW21820   1.933   3.170   2.567 -0.5284 -0.1253  0.2035
 3395SOL    HW121821   1.938   3.176   2.662 -1.1372  0.5843  0.1892
 3395SOL    HW221822   1.958   3.079   2.553  0.6700  0.0868  0.9580
 3396SOL     OW21823   0.262   1.011   3.918 -0.1972  0.0622 -0.2147
 3396SOL    HW121824   0.203   0.991   3.990 -0.4948  1.2164 -0.1382
 3396SOL    HW221825   0.232   0.947   3.853 -0.0911 -2.1540  1.9099
 3397SOL     OW21826   1.788   1.884   5.722  0.6252  0.2845  0.2236
 3397SOL    HW121827   1.774   1.791   5.738  0.4158  0.7697  2.7865
 3397SOL    HW221828   1.722   1.915   5.784 -0.5986 -1.3249 -0.2758
 3398SOL     OW21829   3.270   2.564   8.912 -0.5573 -0.6054  0.4679
 3398SOL    HW121830   3.294   2.598   8.826  0.7274  0.4131  1.2226
 3398SOL    HW221831   3.246   2.640   8.964  2.5158 -0.0224  1.0490
 3399SOL     OW21832   0.601   3.047   4.141 -0.0036  0.6508  0.6619
 3399SOL    HW121833   0.638   2.968   4.101 -2.0306  0.3749 -0.6832
 3399SOL    HW221834   0.521   3.059   4.090  1.5886  3.5179 -1.1293
 3400SOL     OW21835   0.198   4.164   2.638  0.0640 -0.0870  0.8272
 3400SOL    HW121836   0.178   4.257   2.627  1.1090 -0.0387 -0.6796
 3400SOL    HW221837   0.243   4.171   2.722  0.2436 -0.1898  0.7408
 3401SOL     OW21838   1.943   2.490   3.771 -0.0128  0.2905 -0.3913
 3401SOL    HW121839   1.947   2.411   3.824 -0.7752  0.2224 -0.4413
 3401SOL    HW221840   1.940   2.550   3.846  1.7385  1.7882 -1.5256
 3402SOL     OW21841   1.735   3.277   2.976  0.1221 -0.2803 -0.1667
 3402SOL    HW121842   1.667   3.234   3.027 -0.2165 -0.3875 -0.7053
 3402SOL    HW221843   1.807   3.213   2.973  0.3185 -0.1206  1.0763
 3403SOL     OW21844   1.524   4.336   7.809 -0.1909  0.6973 -0.2518
 3403SOL    HW121845   1.481   4.316   7.726 -1.9542  0.0341  0.8215
 3403SOL    HW221846   1.549   4.249   7.839  0.5536  0.8661 -0.3786
 3404SOL     OW21847   4.013   1.089  11.376 -0.0342 -0.2509 -0.2698
 3404SOL    HW121848   4.022   1.040  11.294 -1.2600 -0.7617 -0.0925
 3404SOL    HW221849   4.091   1.061  11.423  0.0819  0.6289  0.0461
 3405SOL     OW21850   4.185   4.141   7.677 -0.1739 -0.3153  0.2777
 3405SOL    HW121851   4.220   4.226   7.649 -0.4176  0.4444  2.2944
 3405SOL    HW221852   4.116   4.167   7.738 -1.9091 -0.6045 -1.5673
 3406SOL     OW21853   2.633   0.288  11.236  0.3961 -0.2623  0.5522
 3406SOL    HW121854   2.560   0.349  11.228  0.5802 -0.2621 -1.1423
 3406SOL    HW221855   2.708   0.343  11.214  0.2351  0.6407  2.2883
 3407SOL     OW21856   2.775   3.086   8.407 -0.1135 -0.1146 -0.2533
 3407SOL    HW121857   2.698   3.065   8.354 -1.0386 -1.2009  1.5174
 3407SOL    HW221858   2.727   3.128   8.478  0.1498  0.8760 -0.6715
 3408SOL     OW21859   0.838   0.790   2.820  0.3366 -0.2554  0.4410
 3408SOL    HW121860   0.894   0.800   2.898  0.8786  0.5356 -0.0480
 3408SOL    HW221861   0.910   0.771   2.760  0.0033 -1.9873  0.5881
 3409SOL     OW21862   0.354   2.721  10.997  0.6696 -0.2086  0.2269
 3409SOL    HW121863   0.408   2.699  11.073  0.5837  0.9900  0.6387
 3409SOL    HW221864   0.329   2.811  11.019 -1.0664 -0.8128  0.7278
 3410SOL     OW21865   3.641   4.591   4.388  0.0184 -0.1307  0.1820
 3410SOL    HW121866   3.689   4.625   4.312  0.5509  1.0005  1.0236
 3410SOL    HW221867   3.686   4.635   4.460 -1.6461  0.6767  0.7160
 3411SOL     OW21868   0.990   1.650   6.096 -0.1729 -0.0343 -0.6101
 3411SOL    HW121869   1.062   1.587   6.090  1.1417  1.1457  2.8351
 3411SOL    HW221870   0.931   1.634   6.021 -0.2227  0.8228 -0.7529
 3412SOL     OW21871   3.387   4.267  12.000 -0.8770 -0.1556  0.3437
 3412SOL    HW121872   3.373   4.193  11.941  1.1557  0.1340 -0.5362
 3412SOL    HW221873   3.393   4.221  12.084  0.4331  0.7622  0.7607
 3413SOL     OW21874   0.602   0.261   8.544 -0.4259 -0.2210  0.7831
 3413SOL    HW121875   0.678   0.288   8.596  0.5756 -0.7170 -0.4402
 3413SOL    HW221876   0.608   0.322   8.470  0.6347  0.7277  1.6481
 3414SOL     OW21877   0.885   3.528   4.448  0.1778  0.2612 -0.0384
 3414SOL    HW121878   0.910   3.620   4.438  0.2047  0.2315 -0.2544
 3414SOL    HW221879   0.807   3.515   4.395 -1.4704 -0.7315  2.6695
 3415SOL     OW21880   0.217   3.935   1.908 -0.6290 -0.3239  0.4875
 3415SOL    HW121881   0.261   3.967   1.830 -3.6591  0.8383 -0.7177
 3415SOL    HW221882   0.278   3.972   1.971  0.8288 -1.3495 -0.3197
 3416SOL     OW21883   3.679   0.046   6.979  0.3011  0.1040  0.1867
 3416SOL    HW121884   3.737   0.121   6.966  0.9411 -0.2718  0.8110
 3416SOL    HW221885   3.713   0.013   7.063 -1.7036 -3.6426 -0.4883
 3417SOL     OW21886   0.038   4.224   3.553  0.2250  0.3922  0.2593
 3417SOL    HW121887   0.029   4.140   3.508 -0.5032  0.3029  0.5670
 3417SOL    HW221888   4.691   4.225   3.594 -0.0710 -0.2107 -0.3513
 3418SOL     OW21889   0.203   3.597  11.565  0.0840  0.1666 -0.1618
 3418SOL    HW121890   0.282   3.584  11.617  1.1821 -1.0779 -2.1657
 3418SOL    HW221891   0.232   3.662  11.501 -1.1315 -0.5267 -1.4285
 3419SOL     OW21892   1.380   1.344   2.255 -0.2291 -0.0397 -0.0258
 3419SOL    HW121893   1.360   1.432   2.288 -0.0612  1.0514 -2.7848
 3419SOL    HW221894   1.293   1.310   2.237  0.1528 -0.7031 -0.6213
 3420SOL     OW21895   0.887   0.622   4.768 -0.6182 -0.0515  0.0210
 3420SOL    HW121896   0.818   0.593   4.708 -0.9665 -1.2954  1.0085
 3420SOL    HW221897   0.843   0.666   4.841 -1.3015 -2.3897  1.0332
 3421SOL     OW21898   2.222   0.665   3.287  0.5628  0.4674  0.3565
 3421SOL    HW121899   2.159   0.597   3.266  1.2074  0.8566 -2.8522
 3421SOL    HW221900   2.212   0.723   3.212  0.7904  0.3049  0.1997
 3422SOL     OW21901   2.142   2.707   1.063 -0.0983 -0.4274 -1.0486
 3422SOL    HW121902   2.088   2.730   1.139 -1.3192 -0.0941 -2.0386
 3422SOL    HW221903   2.153   2.612   1.057  0.7472 -0.3355 -0.9668
 3423SOL     OW21904   1.637   1.529  17.204 -0.4470 -0.0301 -0.5520
 3423SOL    HW121905   1.641   1.549  17.110 -1.1106 -1.5886 -0.9097
 3423SOL    HW221906   1.580   1.599  17.236 -1.5576 -0.6138 -1.2579
 3424SOL     OW21907   1.252   1.351   2.668 -0.3878 -0.5215 -0.1681
 3424SOL    HW121908   1.196   1.425   2.648  1.8153  1.0074 -0.6291
 3424SOL    HW221909   1.316   1.351   2.596 -1.1108  0.1686 -0.8069
 3425SOL     OW21910   0.838   3.724   5.047  0.2256  0.5126  0.1928
 3425SOL    HW121911   0.841   3.675   4.965  0.6852 -1.0008  1.1142
 3425SOL    HW221912   0.763   3.684   5.092  0.8383  0.5734  1.2895
 3426SOL     OW21913   0.236   3.306  16.194 -0.5384  0.5952  0.4430
 3426SOL    HW121914   0.228   3.212  16.212 -1.4233  0.6348  0.2331
 3426SOL    HW221915   0.146   3.332  16.212 -1.3255 -2.1672  0.4574
 3427SOL     OW21916   0.659   1.013   2.812  0.1169 -0.5006  0.0127
 3427SOL    HW121917   0.721   0.947   2.782 -0.0514 -0.2414 -0.9404
 3427SOL    HW221918   0.707   1.065   2.876  1.1810 -1.9415  0.3841
 3428SOL     OW21919   3.258   3.789   2.693  0.2267 -0.1666 -0.1297
 3428SOL    HW121920   3.349   3.820   2.686 -0.4740  1.8306 -0.4897
 3428SOL    HW221921   3.259   3.720   2.627 -0.3737 -3.2256  3.1000
 3429SOL     OW21922   2.944   0.905   9.671  0.8683 -0.3071 -0.3123
 3429SOL    HW121923   2.984   0.899   9.758 -3.2038 -1.3699  1.4874
 3429SOL    HW221924   2.890   0.984   9.675  0.3248 -0.5813 -2.6083
 3430SOL     OW21925   3.279   3.930   3.167 -0.4860 -0.0879 -0.0674
 3430SOL    HW121926   3.270   3.921   3.072  0.0777  2.8172 -0.3967
 3430SOL    HW221927   3.208   3.874   3.199 -2.0235  1.7252 -0.3251
 3431SOL     OW21928   4.299   2.866   4.727  0.0039 -0.0268  0.0861
 3431SOL    HW121929   4.282   2.804   4.656 -0.9558  0.9125 -0.4870
 3431SOL    HW221930   4.344   2.939   4.685 -0.6798 -0.2100 -0.9484
 3432SOL     OW21931   2.444   4.425  13.828 -0.4258  0.3385 -0.4015
 3432SOL    HW121932   2.428   4.470  13.744 -1.2136  1.8115  0.5428
 3432SOL    HW221933   2.537   4.404  13.818  0.1211  1.9331  1.4923
 3433SOL     OW21934   4.421   2.080   4.676 -0.2085  0.4181  0.1644
 3433SOL    HW121935   4.440   2.019   4.747 -0.5508  0.3931  0.2348
 3433SOL    HW221936   4.364   2.149   4.710 -1.5539 -1.1724  1.1105
 3434SOL     OW21937   3.232   0.795   5.011 -0.0825 -0.1769  0.3458
 3434SOL    HW121938   3.180   0.765   5.086  1.9515 -2.1770  0.9523
 3434SOL    HW221939   3.303   0.833   5.061  0.9155 -0.6793 -0.6849
 3435SOL     OW21940   0.120   2.341   0.790  0.0306  0.3717 -0.6409
 3435SOL    HW121941   0.108   2.436   0.781 -1.4314  0.4259  1.9606
 3435SOL    HW221942   0.083   2.313   0.707 -1.8027 -0.9092  0.6076
 3436SOL     OW21943   2.728   1.062   1.963 -0.3781 -0.3072 -0.6424
 3436SOL    HW121944   2.791   1.070   1.891 -0.3354  3.0672 -0.2046
 3436SOL    HW221945   2.721   0.968   1.978 -0.0763 -0.0811  0.8535
 3437SOL     OW21946   0.062   2.292   8.770  0.0974 -0.1378  0.1959
 3437SOL    HW121947   0.145   2.250   8.749  0.1218  0.8208 -1.6548
 3437SOL    HW221948   0.089   2.384   8.761 -1.3461  0.3237  0.5898
 3438SOL     OW21949   0.642   1.844   5.677 -0.2380 -0.0549 -0.6170
 3438SOL    HW121950   0.569   1.809   5.728 -0.4629  1.4165  0.0924
 3438SOL    HW221951   0.692   1.900   5.735  0.9950 -1.5609 -0.2506
 3439SOL     OW21952   1.880   2.464   6.703  0.3935  0.1989 -0.7851
 3439SOL    HW121953   1.838   2.382   6.677  0.5190  0.3056 -1.3131
 3439SOL    HW221954   1.889   2.449   6.797 -2.5578  0.3848 -0.4681
 3440SOL     OW21955   2.494   3.201   8.002  0.4825 -0.3324 -0.8210
 3440SOL    HW121956   2.472   3.155   7.921 -0.4812  0.1594 -0.8416
 3440SOL    HW221957   2.558   3.258   7.959  1.4302 -1.2743 -0.6664
 3441SOL     OW21958   3.530   1.563   8.639 -0.3275 -0.2551 -0.1080
 3441SOL    HW121959   3.585   1.486   8.656 -0.0821 -0.1662 -0.5001
 3441SOL    HW221960   3.597   1.624   8.607  1.5089 -1.9452  0.4344
 3442SOL     OW21961   0.420   2.633   5.638 -0.4132 -0.6384 -0.3669
 3442SOL    HW121962   0.340   2.609   5.684 -1.6824  2.1855 -1.1251
 3442SOL    HW221963   0.387   2.633   5.548 -1.5226 -2.4789  0.0343
 3443SOL     OW21964   4.410   0.347   6.463 -0.3522  0.2745 -0.3861
 3443SOL    HW121965   4.323   0.385   6.475 -1.0346 -0.8331 -1.7389
 3443SOL    HW221966   4.427   0.313   6.550  0.6749  0.2342 -0.5960
 3444SOL     OW21967   1.431   4.285  12.918  0.7243  0.3733  0.0354
 3444SOL    HW121968   1.478   4.263  12.838 -0.0050 -1.6697  0.1826
 3444SOL    HW221969   1.411   4.378  12.908  0.1097  0.3450  0.9967
 3445SOL     OW21970   1.598   2.144   6.944  0.2340 -0.1129 -0.3053
 3445SOL    HW121971   1.585   2.103   7.029 -2.3377  0.4885 -0.4089
 3445SOL    HW221972   1.542   2.219   6.962  0.2276 -0.1978  0.0240
 3446SOL     OW21973   2.851   1.583   8.812  0.5411 -0.3139  0.2941
 3446SOL    HW121974   2.840   1.632   8.894 -1.4519 -0.4816  0.1251
 3446SOL    HW221975   2.828   1.643   8.741 -0.3177 -0.9935 -0.0115
 3447SOL     OW21976   1.036   1.447   4.195  0.3706 -0.5107  0.5051
 3447SOL    HW121977   1.118   1.432   4.147  1.0263 -0.0258  1.4719
 3447SOL    HW221978   1.045   1.540   4.215 -1.5047 -0.0225 -0.9240
 3448SOL     OW21979   0.503   2.742  15.258 -0.1363  0.3206 -0.1651
 3448SOL    HW121980   0.457   2.765  15.177  1.2576 -0.7472 -1.2489
 3448SOL    HW221981   0.443   2.688  15.310  0.1477  0.9762  0.8578
 3449SOL     OW21982   4.700   3.758  10.516 -0.1321 -0.4877  0.6679
 3449SOL    HW121983   4.622   3.807  10.539 -0.3181 -1.4647  2.1342
 3449SOL    HW221984   4.737   3.754  10.605 -0.5544 -0.1772  0.8537
 3450SOL     OW21985   2.036   1.307   1.836  0.1355 -0.0955  0.3257
 3450SOL    HW121986   2.020   1.256   1.757  0.7014 -0.8912  0.7253
 3450SOL    HW221987   2.087   1.384   1.809 -1.0156  0.0670 -1.3766
 3451SOL     OW21988   2.840   0.299  12.958  0.2268 -0.9372  0.9774
 3451SOL    HW121989   2.881   0.269  12.877  1.5029  0.4126  1.1155
 3451SOL    HW221990   2.904   0.368  12.976  0.0333 -0.8900  1.4758
 3452SOL     OW21991   4.692   3.192   6.764  0.1873  0.1710 -0.0715
 3452SOL    HW121992   0.038   3.235   6.758 -0.3001  1.4133  1.8802
 3452SOL    HW221993   4.643   3.239   6.696 -1.4476  0.9103  1.6388
 3453SOL     OW21994   4.001   2.358   6.049  0.2465  0.0782  0.2054
 3453SOL    HW121995   4.023   2.383   5.959 -3.8064 -3.8707 -1.8708
 3453SOL    HW221996   3.948   2.437   6.064  1.4817  1.0606 -0.5694
 3454SOL     OW21997   1.365   4.252   7.603 -0.3248 -0.4866  0.7043
 3454SOL    HW121998   1.295   4.234   7.666 -0.8728 -1.7958 -0.2958
 3454SOL    HW221999   1.317   4.267   7.522 -1.6173  2.4473  1.9871
 3455SOL     OW22000   2.031   4.295   2.237 -0.1120 -0.9036 -0.1718
 3455SOL    HW122001   1.973   4.219   2.231  0.1537 -1.0877 -0.4289
 3455SOL    HW222002   2.115   4.248   2.233 -0.7176 -2.0425  0.4411
 3456SOL     OW22003   2.683   3.496  12.534  0.6181  0.1842  0.4209
 3456SOL    HW122004   2.688   3.423  12.596  0.3141 -0.4850 -0.3344
 3456SOL    HW222005   2.589   3.510  12.527  0.8941  2.0493  0.5747
 3457SOL     OW22006   1.586   3.837   5.171  0.1419  0.2234  0.0675
 3457SOL    HW122007   1.568   3.751   5.133  0.0088  0.4043 -0.2778
 3457SOL    HW222008   1.556   3.822   5.261  0.3315 -1.2135 -0.1104
 3458SOL     OW22009   1.627   2.272   4.980  0.3692  0.6776  0.3209
 3458SOL    HW122010   1.603   2.187   4.943  1.8832  0.2301  0.3558
 3458SOL    HW222011   1.562   2.331   4.941 -0.6306  0.3870  1.5231
 3459SOL     OW22012   0.671   3.236   3.211 -0.6814  0.0892  0.7217
 3459SOL    HW122013   0.607   3.248   3.141 -0.4270  1.1008  0.6646
 3459SOL    HW222014   0.635   3.157   3.252  0.8466  0.5193  2.8528
 3460SOL     OW22015   3.003   0.585   1.635  0.4175 -0.0138  0.2009
 3460SOL    HW122016   3.028   0.562   1.546  4.4794  0.4925  1.2045
 3460SOL    HW222017   2.914   0.555   1.649 -0.0690  0.9133 -0.9773
 3461SOL     OW22018   3.384   1.732   3.355 -1.0330 -0.5175  0.3399
 3461SOL    HW122019   3.446   1.742   3.282 -0.7022  2.1583  0.9842
 3461SOL    HW222020   3.376   1.819   3.393  0.6295 -0.6151  0.9427
 3462SOL     OW22021   4.486   4.485   5.821 -0.8311 -0.6960  0.2078
 3462SOL    HW122022   4.485   4.514   5.912  0.0994  1.1432 -0.3798
 3462SOL    HW222023   4.418   4.418   5.825 -0.9303 -0.6799 -1.1944
 3463SOL     OW22024   1.436   0.218   2.193 -0.0984 -0.2183  0.1643
 3463SOL    HW122025   1.492   0.295   2.185 -0.5102 -0.0927 -1.6000
 3463SOL    HW222026   1.484   0.167   2.259 -0.8653  0.1839  1.0100
 3464SOL     OW22027   0.461   0.896   9.380  0.2334 -0.5613  0.2709
 3464SOL    HW122028   0.527   0.910   9.311 -0.1134 -1.4536 -0.2453
 3464SOL    HW222029   0.381   0.863   9.338  1.8231 -2.2667 -1.4198
 3465SOL     OW22030   3.034   1.173  13.153 -0.1109 -0.4332 -0.2114
 3465SOL    HW122031   3.079   1.209  13.077  0.7574 -0.9031  0.0809
 3465SOL    HW222032   2.944   1.156  13.124  0.0799  2.2606 -2.3511
 3466SOL     OW22033   3.950   4.660  14.404 -0.1250 -0.0641  0.4233
 3466SOL    HW122034   4.033   4.691  14.440  0.0463 -2.8416  2.3824
 3466SOL    HW222035   3.976   4.590  14.344 -0.0584 -0.4938  0.9611
 3467SOL     OW22036   1.831   4.083  10.243 -0.2673  0.0225 -0.0414
 3467SOL    HW122037   1.776   4.161  10.236 -0.4837  0.0913  2.7043
 3467SOL    HW222038   1.899   4.117  10.301 -2.1532  1.0470  1.5617
 3468SOL     OW22039   0.162   3.201   4.069 -0.3548 -0.3591  0.2134
 3468SOL    HW122040   0.077   3.159   4.055 -0.3207 -0.2300 -0.4108
 3468SOL    HW222041   0.153   3.192   4.164 -0.8729  1.0593  0.2988
 3469SOL     OW22042   4.367   4.492   0.728  0.0612 -0.5079  0.2052
 3469SOL    HW122043   4.384   4.419   0.669  0.1242 -0.6012  0.3390
 3469SOL    HW222044   4.288   4.462   0.773  0.3892 -1.3209  0.2288
 3470SOL     OW22045   3.959   2.003   9.664 -0.3676 -0.0507 -0.1013
 3470SOL    HW122046   3.988   2.036   9.749 -0.7523 -1.8287  0.7240
 3470SOL    HW222047   3.943   2.072   9.599 -0.1460  2.4091  2.4496
 3471SOL     OW22048   1.610   2.327  10.484  0.1130  0.0302  0.1550
 3471SOL    HW122049   1.544   2.374  10.535  0.2918  0.0408  0.3780
 3471SOL    HW222050   1.545   2.261  10.459  1.8542 -2.9961  3.6565
 3472SOL     OW22051   0.267   1.166   2.979  0.0510  0.0549  0.0528
 3472SOL    HW122052   0.350   1.211   2.993 -1.4988  2.2753  1.9758
 3472SOL    HW222053   0.299   1.076   2.971 -0.8173 -0.1208 -1.6461
 3473SOL     OW22054   4.587   3.257   7.276  0.5421 -0.3753 -0.0531
 3473SOL    HW122055   4.554   3.167   7.266 -0.3375 -0.1812  1.1718
 3473SOL    HW222056   4.611   3.271   7.184 -0.6384 -1.2147 -0.4874
 3474SOL     OW22057   2.683   3.654  10.520  0.0185 -0.2501 -0.1559
 3474SOL    HW122058   2.774   3.656  10.553 -0.9985 -0.1918  2.6699
 3474SOL    HW222059   2.693   3.592  10.448  0.8465  1.0869 -1.1946
 3475SOL     OW22060   3.678   0.813   3.735  0.3387  0.1509  0.0905
 3475SOL    HW122061   3.649   0.891   3.783  0.6848  0.4572 -0.2020
 3475SOL    HW222062   3.614   0.823   3.664 -0.5986  0.6620  1.0055
 3476SOL     OW22063   3.592   1.314   1.846 -0.0067  0.0461 -0.5474
 3476SOL    HW122064   3.666   1.253   1.835  1.0177  1.3263 -0.8467
 3476SOL    HW222065   3.560   1.312   1.756  3.0511  2.0643 -1.7100
 3477SOL     OW22066   1.838   3.783  13.368 -0.0948  0.2449 -0.0886
 3477SOL    HW122067   1.892   3.725  13.314 -1.3633  0.6061 -1.7513
 3477SOL    HW222068   1.899   3.856  13.364  1.2660 -0.8975 -0.2205
 3478SOL     OW22069   3.222   4.216   3.047 -0.0254 -0.0963  0.1284
 3478SOL    HW122070   3.303   4.182   3.009 -0.1460  0.3440 -0.5332
 3478SOL    HW222071   3.184   4.132   3.073 -1.1209  0.0843 -0.8716
 3479SOL     OW22072   2.955   1.091   8.839  0.4404  0.1133  0.4746
 3479SOL    HW122073   2.915   1.051   8.916  1.2651 -2.5484 -0.4836
 3479SOL    HW222074   2.955   1.016   8.779  0.1792  0.8322 -0.4295
 3480SOL     OW22075   0.313   1.167   0.871  0.0305 -0.0087 -0.1958
 3480SOL    HW122076   0.230   1.205   0.842 -0.2352 -0.2087  0.3043
 3480SOL    HW222077   0.308   1.191   0.963  0.0733 -3.5747  0.7113
 3481SOL     OW22078   2.495   2.244  15.080 -0.1759 -0.2953 -0.1289
 3481SOL    HW122079   2.523   2.153  15.073  2.4735  0.5420 -0.0970
 3481SOL    HW222080   2.498   2.278  14.990 -0.8348  1.5475  0.5376
 3482SOL     OW22081   3.387   2.871  14.789  0.1968  0.7509  0.7602
 3482SOL    HW122082   3.406   2.915  14.872  0.4202 -0.8048  1.5306
 3482SOL    HW222083   3.466   2.819  14.779 -0.4345  0.2835 -1.9115
 3483SOL     OW22084   1.164   0.635   1.853 -0.5305 -0.3651 -0.1481
 3483SOL    HW122085   1.086   0.686   1.871  0.3800  0.6170  1.0196
 3483SOL    HW222086   1.139   0.596   1.769  0.9475  0.9203 -1.1720
 3484SOL     OW22087   3.668   3.354   0.636 -0.9013  0.2477 -0.3647
 3484SOL    HW122088   3.762   3.368   0.649 -0.7578 -0.1516 -0.9792
 3484SOL    HW222089   3.639   3.387   0.721 -0.6742 -0.6119  0.0533
 3485SOL     OW22090   3.832   4.306   7.721  0.0643 -0.0173 -0.0188
 3485SOL    HW122091   3.878   4.241   7.774  0.5162 -2.1499 -2.9876
 3485SOL    HW222092   3.803   4.240   7.657 -0.3688  1.4984 -1.3831
 3486SOL     OW22093   0.262   3.562   7.980 -0.1274  0.1413 -0.8043
 3486SOL    HW122094   0.342   3.577   7.930  0.5136 -1.7367 -0.3343
 3486SOL    HW222095   0.200   3.613   7.928  1.6608  3.9642  0.7876
 3487SOL     OW22096   2.702   4.380   4.478  0.5728  0.1990 -0.9249
 3487SOL    HW122097   2.642   4.406   4.549 -0.2937 -1.9631 -0.8755
 3487SOL    HW222098   2.783   4.427   4.498 -0.4803  1.3687  0.6209
 3488SOL     OW22099   4.459   0.538   7.006 -0.2429  0.4909  0.3827
 3488SOL    HW122100   4.501   0.459   6.972 -3.0505 -0.7740 -0.1191
 3488SOL    HW222101   4.369   0.516   7.027  0.3066  0.0894  2.2975
 3489SOL     OW22102   1.488   1.204   8.937 -0.0286  0.6536 -0.0555
 3489SOL    HW122103   1.556   1.149   8.899  0.8061  1.2290  0.6074
 3489SOL    HW222104   1.422   1.135   8.928 -1.0929  1.4817  1.3110
 3490SOL     OW22105   0.282   1.669  12.018 -0.0188 -0.2510  0.3464
 3490SOL    HW122106   0.328   1.727  12.079 -1.7781  0.9847  0.4889
 3490SOL    HW222107   0.196   1.681  12.057  0.3049 -1.0683  1.3076
 3491SOL     OW22108   0.971   3.214   7.401 -0.2811 -0.4794 -0.0702
 3491SOL    HW122109   1.010   3.128   7.419  1.4582  0.4216  0.4373
 3491SOL    HW222110   1.046   3.273   7.405 -0.2587 -0.5362  0.3530
 3492SOL     OW22111   2.629   1.694  10.825 -0.0968  0.2384 -0.6529
 3492SOL    HW122112   2.544   1.729  10.851 -0.2721  0.3913 -1.4459
 3492SOL    HW222113   2.685   1.707  10.902  0.1860  2.7985 -1.2827
 3493SOL     OW22114   1.149   4.070   2.598  0.2728  0.6347  0.3141
 3493SOL    HW122115   1.110   3.991   2.561 -0.2058  0.2825  1.5763
 3493SOL    HW222116   1.240   4.062   2.569 -0.3178  1.7917 -1.8569
 3494SOL     OW22117   3.303   1.642   6.743  0.3422  0.6963  0.1233
 3494SOL    HW122118   3.374   1.700   6.715 -0.1811  1.5316  0.5277
 3494SOL    HW222119   3.323   1.642   6.837 -2.0120 -0.7755  0.6125
 3495SOL     OW22120   1.199   2.248   1.413 -0.6565  0.6899  0.1182
 3495SOL    HW122121   1.229   2.158   1.403  1.8054  1.7717 -2.2999
 3495SOL    HW222122   1.143   2.228   1.487 -0.1140 -0.4770  0.2124
 3496SOL     OW22123   0.236   2.697   4.141  0.1444  0.2261  0.0882
 3496SOL    HW122124   0.305   2.631   4.143 -0.8301 -0.8108 -1.2299
 3496SOL    HW222125   0.259   2.746   4.220 -3.7907  1.1663  0.6883
 3497SOL     OW22126   3.354   2.748   6.243 -0.3001 -0.3110  0.7446
 3497SOL    HW122127   3.430   2.699   6.272 -0.4607 -0.6806  0.5465
 3497SOL    HW222128   3.292   2.714   6.308 -0.7605 -0.6605  0.1220
 3498SOL     OW22129   4.189   4.700   3.427 -0.0591  0.0548  0.1807
 3498SOL    HW122130   4.151   4.616   3.455 -0.2423  0.1238  0.1379
 3498SOL    HW222131   4.148   0.013   3.497  0.7103 -0.5666  1.1052
 3499SOL     OW22132   0.870   1.597  13.380  0.4329  0.0307 -0.2242
 3499SOL    HW122133   0.831   1.533  13.438 -0.3353 -0.4050 -1.2250
 3499SOL    HW222134   0.792   1.624  13.331 -0.8689 -0.4844  1.5613
 3500SOL     OW22135   2.870   2.405   0.025  0.1521  0.9280  0.5257
 3500SOL    HW122136   2.790   2.364   0.058  0.6359 -0.6249 -0.2147
 3500SOL    HW222137   2.847   2.425  17.688  2.3470 -1.1273 -0.4950
 3501SOL     OW22138   3.571   0.106   8.594  0.0834  0.3190 -0.0801
 3501SOL    HW122139   3.635   0.108   8.665 -1.0400  0.7215  0.9346
 3501SOL    HW222140   3.633   0.085   8.525 -0.6120  1.5394 -1.0814
 3502SOL     OW22141   0.794   3.918  11.010  0.0048  0.9543 -0.2120
 3502SOL    HW122142   0.820   3.942  11.099 -1.4802  1.9605 -0.0575
 3502SOL    HW222143   0.699   3.912  11.014  0.0348 -0.0697 -1.0269
 3503SOL     OW22144   0.321   3.976   7.719 -0.1793  0.0381 -0.9595
 3503SOL    HW122145   0.313   3.889   7.681  0.9625 -0.5785  0.2234
 3503SOL    HW222146   0.349   3.949   7.806  0.1420  2.9708 -0.1533
 3504SOL     OW22147   0.979   1.962   9.484  0.1139 -0.1690 -0.5485
 3504SOL    HW122148   1.074   1.973   9.486 -0.2186  2.8567 -1.2544
 3504SOL    HW222149   0.968   1.897   9.554 -0.1080  1.5283  0.9884
 3505SOL     OW22150   3.975   2.594  13.621 -0.2112 -0.6827 -0.5604
 3505SOL    HW122151   3.894   2.627  13.583 -1.3146 -1.1835  1.3361
 3505SOL    HW222152   4.022   2.564  13.544 -1.2110  0.0841 -1.4676
 3506SOL     OW22153   2.822   4.188   4.242 -0.0097  0.3105  0.0325
 3506SOL    HW122154   2.761   4.211   4.312  2.2210 -0.2031  2.1623
 3506SOL    HW222155   2.872   4.120   4.287 -0.3703 -0.3469 -0.5604
 3507SOL     OW22156   1.686   3.154   1.599 -0.5747  0.1929 -0.2180
 3507SOL    HW122157   1.620   3.223   1.597 -1.2842 -0.4697  0.3826
 3507SOL    HW222158   1.639   3.075   1.571 -0.6802 -0.2458  1.1580
 3508SOL     OW22159   1.977   4.441   3.333  0.3977  0.3346 -0.3788
 3508SOL    HW122160   1.887   4.425   3.361  0.3071  1.6821  0.1169
 3508SOL    HW222161   2.010   4.352   3.333 -0.8515 -0.1318  0.0683
 3509SOL     OW22162   3.273   0.803  10.042 -0.4369 -0.3776  0.4865
 3509SOL    HW122163   3.337   0.790   9.971 -1.1639 -2.5780  0.2276
 3509SOL    HW222164   3.191   0.820   9.996  1.1708  0.7269 -1.9968
 3510SOL     OW22165   2.135   2.555   1.538 -0.2178  0.0178 -0.9304
 3510SOL    HW122166   2.116   2.602   1.619 -0.5796 -0.7852 -0.5468
 3510SOL    HW222167   2.229   2.557   1.519  0.0223 -0.0427  0.2481
 3511SOL     OW22168   0.768   2.839   6.896  0.1767 -0.0768 -0.3241
 3511SOL    HW122169   0.800   2.922   6.860  2.8883 -0.3154  1.5430
 3511SOL    HW222170   0.685   2.867   6.935 -0.5504 -2.1794 -0.3625
 3512SOL     OW22171   0.983   1.639   2.973 -0.3780 -0.0216 -0.1933
 3512SOL    HW122172   0.907   1.589   3.003 -0.1072 -0.2884  0.0548
 3512SOL    HW222173   0.969   1.641   2.879 -0.3028  0.2809 -0.1968
 3513SOL     OW22174   4.567   1.287   7.628  0.0863 -0.6505 -0.4073
 3513SOL    HW122175   4.510   1.363   7.615  0.2155 -0.5482 -0.3734
 3513SOL    HW222176   4.625   1.322   7.695  1.6023  1.3230 -2.7510
 3514SOL     OW22177   4.408   3.007   4.972 -0.4139  0.0226  0.5249
 3514SOL    HW122178   4.319   3.017   5.005 -0.8465 -1.5315 -0.1487
 3514SOL    HW222179   4.400   3.086   4.919 -1.1806 -0.8056 -0.5892
 3515SOL     OW22180   4.392   4.573   0.367 -0.0591 -0.2430 -0.1431
 3515SOL    HW122181   4.425   4.485   0.384  0.9162  0.2117  0.3068
 3515SOL    HW222182   4.463   4.622   0.327 -0.7541  0.7250 -0.1911
 3516SOL     OW22183   4.675   3.067   3.962 -0.2296  0.1115  0.1227
 3516SOL    HW122184   4.639   2.979   3.973  1.6950 -0.4111  2.2182
 3516SOL    HW222185   4.669   3.075   3.867 -2.0609 -0.6824  0.1702
 3517SOL     OW22186   4.493   0.284   1.765  0.5316 -0.1988  0.3237
 3517SOL    HW122187   4.481   0.322   1.853  0.0528  1.2030 -0.3423
 3517SOL    HW222188   4.572   0.336   1.749 -1.0741  1.7603 -1.2405
 3518SOL     OW22189   1.342   4.517   2.589 -0.2143  0.3314 -0.5512
 3518SOL    HW122190   1.377   4.562   2.512  1.5738 -0.0553  0.0381
 3518SOL    HW222191   1.375   4.432   2.560  0.6019  0.8877 -1.2520
 3519SOL     OW22192   1.123   0.166   9.104 -0.1644 -0.0596  0.1711
 3519SOL    HW122193   1.067   0.197   9.176 -1.7163 -1.3760 -0.4737
 3519SOL    HW222194   1.104   0.242   9.049 -0.7613  0.9966  1.8444
 3520SOL     OW22195   3.837   2.836   7.019  0.2934 -0.4303  0.0555
 3520SOL    HW122196   3.856   2.808   6.929 -2.3183  2.5798 -1.4522
 3520SOL    HW222197   3.763   2.791   7.059  0.3672  0.6450  1.4121
 3521SOL     OW22198   2.129   2.082   5.057 -0.0048 -0.3477  0.6807
 3521SOL    HW122199   2.158   2.085   4.966 -1.1277  1.9654  0.4127
 3521SOL    HW222200   2.064   2.012   5.061  0.4963 -0.8790 -0.2568
 3522SOL     OW22201   2.805   1.704  15.915 -0.1636  0.2751 -0.0290
 3522SOL    HW122202   2.771   1.758  15.986 -0.9279  0.2749 -0.3859
 3522SOL    HW222203   2.898   1.721  15.929 -0.1450  1.9160 -2.1517
 3523SOL     OW22204   0.156   0.475   7.942  0.2446  0.6191 -0.3420
 3523SOL    HW122205   0.075   0.424   7.938  1.3903 -1.4158  2.2362
 3523SOL    HW222206   0.214   0.416   7.991 -0.1164  0.3967 -0.1875
 3524SOL     OW22207   4.047   3.897   1.456  0.1642 -0.4448 -0.4103
 3524SOL    HW122208   4.013   3.981   1.426 -2.3405 -0.8061  1.4161
 3524SOL    HW222209   4.011   3.836   1.392  0.8343 -2.7845  1.4317
 3525SOL     OW22210   0.865   3.757   6.580 -0.4810  0.1245 -0.6298
 3525SOL    HW122211   0.844   3.845   6.611  1.7492  0.3474  0.2462
 3525SOL    HW222212   0.781   3.741   6.536 -0.9195  0.0694  0.2265
 3526SOL     OW22213   3.420   2.828  10.301  0.2442 -0.2466  0.6340
 3526SOL    HW122214   3.385   2.760  10.243  1.3972 -1.5962  1.5145
 3526SOL    HW222215   3.338   2.869  10.326  0.2987 -0.7331  1.6196
 3527SOL     OW22216   1.025   0.902   3.576 -0.3214  0.6017  0.2712
 3527SOL    HW122217   1.111   0.941   3.560 -0.2089  1.0246  1.8270
 3527SOL    HW222218   0.992   0.878   3.490 -0.7273 -0.6841  0.7822
 3528SOL     OW22219   1.260   4.169  12.330 -0.5756  0.3945 -0.1202
 3528SOL    HW122220   1.190   4.232  12.316  0.7257  2.4215  2.4983
 3528SOL    HW222221   1.287   4.199  12.417 -2.3350  0.6714  0.3230
 3529SOL     OW22222   3.275   0.386   5.254 -0.2904 -0.4687 -0.5519
 3529SOL    HW122223   3.336   0.320   5.285  1.7772  1.5585 -0.2872
 3529SOL    HW222224   3.261   0.441   5.331  0.6733  0.7626 -1.2566
 3530SOL     OW22225   4.331   2.634   8.682  0.3533  0.2477 -0.0079
 3530SOL    HW122226   4.369   2.645   8.769 -1.4521 -2.1739  1.1013
 3530SOL    HW222227   4.370   2.549   8.660 -0.4975  0.0896 -0.9021
 3531SOL     OW22228   1.859   1.784   6.759  0.6823 -0.7303 -0.2622
 3531SOL    HW122229   1.765   1.781   6.744  0.4338 -0.1249  1.2016
 3531SOL    HW222230   1.869   1.728   6.836 -2.6654  1.5829  1.8423
 3532SOL     OW22231   4.485   1.754  11.583 -0.3125  0.3714  0.5114
 3532SOL    HW122232   4.521   1.754  11.672 -2.1396 -2.8340  1.2471
 3532SOL    HW222233   4.433   1.673  11.589  1.6376 -0.8696  0.5908
 3533SOL     OW22234   0.562   0.668   5.490 -0.6303  0.5544 -0.1527
 3533SOL    HW122235   0.579   0.753   5.532 -1.1743 -0.1316  1.4809
 3533SOL    HW222236   0.511   0.624   5.558 -0.2597 -1.8440 -1.4491
 3534SOL     OW22237   0.019   2.548   5.438  0.1556 -0.2545  0.1242
 3534SOL    HW122238   0.094   2.528   5.493  0.5271 -1.2774 -0.7356
 3534SOL    HW222239   0.064   2.556   5.354  0.3592  3.2553  0.5606
 3535SOL     OW22240   1.049   1.115   5.245 -0.2316  0.2951  0.0517
 3535SOL    HW122241   0.986   1.167   5.196  0.0151 -0.4977 -1.1025
 3535SOL    HW222242   1.122   1.142   5.190  0.5210 -1.7892  0.0316
 3536SOL     OW22243   1.219   3.275   8.478 -0.1878 -0.5562  0.4236
 3536SOL    HW122244   1.247   3.200   8.530 -0.8934 -0.5870  0.7541
 3536SOL    HW222245   1.200   3.235   8.393  2.3661 -0.5542 -0.1463
 3537SOL     OW22246   3.697   0.436  11.735 -0.0319 -0.0402  0.0664
 3537SOL    HW122247   3.666   0.443  11.825 -0.4794  0.2887 -0.1140
 3537SOL    HW222248   3.711   0.342  11.743  1.2706  0.0699 -0.8744
 3538SOL     OW22249   3.726   1.831   9.719 -0.7342 -0.2790 -0.1790
 3538SOL    HW122250   3.762   1.811   9.806 -0.2693 -0.2338 -0.3591
 3538SOL    HW222251   3.784   1.905   9.702  1.3630 -1.3585  2.3471
 3539SOL     OW22252   3.512   2.379   3.899  0.2390 -0.0114 -0.1260
 3539SOL    HW122253   3.491   2.394   3.806  1.0044 -2.5836 -0.7062
 3539SOL    HW222254   3.437   2.420   3.942  0.7030 -0.5982  1.2383
 3540SOL     OW22255   1.727   4.442   8.449  0.1133  0.0103  0.3131
 3540SOL    HW122256   1.706   4.415   8.360  0.4230  0.2487  0.1701
 3540SOL    HW222257   1.646   4.481   8.482  0.7692  0.2861  1.6057
 3541SOL     OW22258   2.784   4.423   2.132  0.4470 -0.3674 -0.4110
 3541SOL    HW122259   2.788   4.437   2.037 -3.0839  1.2975 -0.2909
 3541SOL    HW222260   2.791   4.328   2.125  3.6514 -0.1583  0.0695
 3542SOL     OW22261   0.934   2.057   5.692  0.7669  0.0704 -0.0387
 3542SOL    HW122262   0.862   2.103   5.650  0.2304 -0.2037  0.5838
 3542SOL    HW222263   0.880   2.035   5.768  0.6891 -0.0797 -0.1384
 3543SOL     OW22264   3.367   0.164   4.270 -0.0000  0.0191 -0.3391
 3543SOL    HW122265   3.452   0.135   4.234 -0.1592  0.4954 -1.1062
 3543SOL    HW222266   3.315   0.107   4.213  2.5147 -2.2657 -0.3881
 3544SOL     OW22267   3.776   0.651   6.334  0.9125 -0.2118  0.4434
 3544SOL    HW122268   3.858   0.694   6.356  0.0591  0.5532  2.1761
 3544SOL    HW222269   3.707   0.682   6.393 -2.3348  2.8633 -4.9283
 3545SOL     OW22270   2.950   4.437  16.583 -0.4339 -0.5584  0.2101
 3545SOL    HW122271   2.927   4.348  16.609 -0.0481 -0.7277 -0.0297
 3545SOL    HW222272   2.925   4.487  16.661  2.8130  1.1403  0.1899
 3546SOL     OW22273   2.537   4.345   6.039 -0.2045 -0.6858  0.0603
 3546SOL    HW122274   2.455   4.298   6.027 -0.6825 -0.5937  3.0192
 3546SOL    HW222275   2.543   4.387   5.953 -0.3463  0.5235  0.6369
 3547SOL     OW22276   0.114   3.497   6.995  0.3406  0.3458  0.6840
 3547SOL    HW122277   0.150   3.537   7.074  1.3045  1.5598 -0.3815
 3547SOL    HW222278   0.069   3.575   6.962 -0.5353  0.2091  1.5439
 3548SOL     OW22279   2.020   2.423  10.423 -0.2070  0.0916  0.8700
 3548SOL    HW122280   1.940   2.471  10.402  0.5208  1.8904  2.2174
 3548SOL    HW222281   2.049   2.401  10.335 -1.5611  1.5071  0.0724
 3549SOL     OW22282   0.655   2.768   8.485 -0.0430  0.1605 -0.3735
 3549SOL    HW122283   0.657   2.863   8.492  1.3007 -0.0591  2.1231
 3549SOL    HW222284   0.723   2.759   8.418 -0.4620  1.5021 -0.9818
 3550SOL     OW22285   0.564   4.117   3.025 -0.5001  0.3886  0.1748
 3550SOL    HW122286   0.615   4.131   2.945 -0.1859 -0.7548  0.1867
 3550SOL    HW222287   0.571   4.207   3.057 -2.7763  0.4701  0.4277
 3551SOL     OW22288   3.958   4.271   9.816 -0.2025  0.0785  0.6507
 3551SOL    HW122289   3.945   4.229   9.731  2.4560 -1.6946  1.1007
 3551SOL    HW222290   3.983   4.206   9.882  0.7094 -1.2813 -1.0332
 3552SOL     OW22291   1.682   0.190   5.790  0.7029  0.1910 -0.0758
 3552SOL    HW122292   1.775   0.171   5.784  0.5877 -0.9888  1.8261
 3552SOL    HW222293   1.685   0.284   5.773  1.4009  0.0977 -0.4452
 3553SOL     OW22294   4.395   0.077   2.187  0.0410  0.1104  0.0558
 3553SOL    HW122295   4.334   0.059   2.116 -0.1801 -0.0891  0.2926
 3553SOL    HW222296   4.405   4.732   2.232 -1.0475  0.5123  1.0479
 3554SOL     OW22297   0.147   0.151  15.622  0.1879 -0.4324 -0.4604
 3554SOL    HW122298   0.073   0.143  15.682  0.1167  0.2495 -0.4631
 3554SOL    HW222299   0.104   0.126  15.540  0.7228 -3.0077  0.0454
 3555SOL     OW22300   2.162   2.532   7.962 -0.1486  0.5570 -0.5144
 3555SOL    HW122301   2.178   2.466   8.029 -1.4181  0.1612 -0.6012
 3555SOL    HW222302   2.158   2.485   7.878 -1.3878  0.5503 -0.4577
 3556SOL     OW22303   1.106   2.846   5.630 -0.1200  0.7814  0.5151
 3556SOL    HW122304   1.190   2.822   5.671  0.5041 -0.1188 -1.2901
 3556SOL    HW222305   1.111   2.815   5.540 -0.2624 -1.1455  1.1645
 3557SOL     OW22306   2.117   0.038  10.571  0.2183 -0.0179  0.3647
 3557SOL    HW122307   2.158   4.704  10.617 -0.4577 -0.0476  0.9263
 3557SOL    HW222308   2.195   0.088  10.549  0.3295 -0.8576 -1.1964
 3558SOL     OW22309   4.220   2.757   0.590  0.5647  0.1904  0.1498
 3558SOL    HW122310   4.156   2.824   0.614 -2.7797 -3.3457  0.9983
 3558SOL    HW222311   4.170   2.703   0.529  2.9948 -0.8845 -0.9042
 3559SOL     OW22312   3.287   1.802   2.525  0.8123 -0.2507  0.1481
 3559SOL    HW122313   3.372   1.760   2.519  1.3582  0.7574  0.7818
 3559SOL    HW222314   3.251   1.738   2.586  0.6473  0.7196  1.0669
 3560SOL     OW22315   0.994   3.714   7.629  0.3876 -0.1812 -0.2389
 3560SOL    HW122316   0.955   3.776   7.568 -0.5039  0.7265  1.2552
 3560SOL    HW222317   0.956   3.634   7.592  1.4406 -0.2663 -1.1396
 3561SOL     OW22318   1.072   0.718   8.773  0.3028  0.1607 -0.1589
 3561SOL    HW122319   1.023   0.796   8.748 -1.2132 -1.4981 -2.3975
 3561SOL    HW222320   1.071   0.732   8.868 -1.0951  0.5869 -0.2403
 3562SOL     OW22321   0.803   0.919  12.090 -0.5757 -0.4697  0.4046
 3562SOL    HW122322   0.804   0.980  12.016 -1.9692  0.4056  1.1059
 3562SOL    HW222323   0.873   0.953  12.145 -1.7295  1.0285  0.9608
 3563SOL     OW22324   1.344   0.737   0.211 -0.0042  0.3251 -0.2073
 3563SOL    HW122325   1.271   0.737   0.149 -0.7010 -0.4478  0.6190
 3563SOL    HW222326   1.413   0.695   0.160  0.1009  1.4900 -1.0405
 3564SOL     OW22327   2.982   0.626   8.966 -0.2921 -0.1035 -0.8295
 3564SOL    HW122328   2.980   0.607   9.060 -0.9035 -2.4599 -1.3137
 3564SOL    HW222329   3.041   0.701   8.975  1.4294 -1.1864 -3.3479
 3565SOL     OW22330   3.195   4.368   4.492  0.2593  0.3535 -0.0399
 3565SOL    HW122331   3.126   4.386   4.429 -1.1014  1.5292  1.7888
 3565SOL    HW222332   3.163   4.401   4.576  2.1516 -0.1155  0.8765
 3566SOL     OW22333   3.620   1.145   8.020 -0.3439  0.0325  0.0231
 3566SOL    HW122334   3.538   1.185   7.992 -1.3428 -2.3534 -0.5272
 3566SOL    HW222335   3.686   1.178   7.959  0.7298 -2.1681 -0.0259
 3567SOL     OW22336   4.552   1.793  10.977 -0.5088 -0.0445 -0.1040
 3567SOL    HW122337   4.511   1.807  10.891 -0.1846 -2.5493 -0.6680
 3567SOL    HW222338   4.503   1.855  11.030 -0.9112 -0.2040 -0.2880
 3568SOL     OW22339   1.624   1.453   1.838 -0.2027  0.3835  0.2292
 3568SOL    HW122340   1.646   1.510   1.764 -1.9363  1.2320  0.3665
 3568SOL    HW222341   1.609   1.369   1.793 -1.4316 -0.0122  1.3892
 3569SOL     OW22342   3.870   2.139  10.479  0.2706 -0.0020  0.0152
 3569SOL    HW122343   3.897   2.070  10.539 -0.4989  0.3770  0.7883
 3569SOL    HW222344   3.797   2.096  10.435 -0.5734 -0.6325  2.0241
 3570SOL     OW22345   4.170   4.692   9.433  0.3775  0.3035  0.3881
 3570SOL    HW122346   4.145   4.710   9.524  1.3535 -0.1272  0.7415
 3570SOL    HW222347   4.127   0.025   9.387 -1.2249  0.3710  1.9937
 3571SOL     OW22348   2.803   0.625  13.783 -0.0455 -0.1028 -0.3027
 3571SOL    HW122349   2.762   0.544  13.815 -0.6636  0.1542 -0.4400
 3571SOL    HW222350   2.847   0.571  13.718  1.0405 -3.0807  2.8919
 3572SOL     OW22351   4.274   4.149  17.416  0.6218 -0.3785 -0.0793
 3572SOL    HW122352   4.190   4.186  17.387  1.1274 -1.1990 -2.5950
 3572SOL    HW222353   4.256   4.159  17.509 -2.2066  1.7746 -0.8621
 3573SOL     OW22354   2.069   3.017   8.114 -0.0249  0.1312  0.2455
 3573SOL    HW122355   2.061   3.068   8.034 -2.7723  1.1308  1.1705
 3573SOL    HW222356   2.141   3.063   8.157  0.6931 -0.7643  0.0085
 3574SOL     OW22357   4.194   0.607   5.005  0.3365  0.2597 -0.7001
 3574SOL    HW122358   4.255   0.536   4.987 -0.7175 -0.4857 -1.3576
 3574SOL    HW222359   4.107   0.569   5.015  0.2395  0.9579  1.2670
 3575SOL     OW22360   0.252   3.862   3.498 -0.0125 -0.4938  0.3856
 3575SOL    HW122361   0.317   3.792   3.493  2.0193  1.5052 -0.7752
 3575SOL    HW222362   0.242   3.876   3.592  0.4933  1.4058  0.1550
 3576SOL     OW22363   3.629   4.085  15.776 -0.2692 -0.1864 -0.8981
 3576SOL    HW122364   3.539   4.053  15.781  0.5955 -2.5281 -0.1498
 3576SOL    HW222365   3.678   4.003  15.765  1.7636  0.7685  1.1451
 3577SOL     OW22366   3.558   0.356   7.176 -0.0790 -0.3346 -0.3870
 3577SOL    HW122367   3.542   0.263   7.159 -1.6589 -0.0158 -0.5979
 3577SOL    HW222368   3.565   0.356   7.272  2.5834  0.4992 -0.5888
 3578SOL     OW22369   2.834   0.438   1.884 -0.0345  0.5077  0.0648
 3578SOL    HW122370   2.907   0.421   1.944 -1.2389  1.0645  1.7015
 3578SOL    HW222371   2.794   0.355   1.860 -1.7867  1.1680  0.6701
 3579SOL     OW22372   1.305   3.471   3.676 -0.7122 -0.2672 -0.1876
 3579SOL    HW122373   1.314   3.395   3.734 -0.1749  1.2266  1.6997
 3579SOL    HW222374   1.384   3.453   3.626 -1.4503 -1.3847 -0.9191
 3580SOL     OW22375   2.520   2.773   2.361 -0.0904 -0.2722 -0.2970
 3580SOL    HW122376   2.543   2.682   2.384  0.7081 -0.2864 -1.1094
 3580SOL    HW222377   2.588   2.801   2.299 -0.0076 -2.2722 -1.1376
 3581SOL     OW22378   3.068   2.538   9.706 -0.2552  0.1276  0.0729
 3581SOL    HW122379   3.016   2.611   9.739  0.1476  0.3886  0.1260
 3581SOL    HW222380   3.094   2.572   9.621 -0.4325  1.3724  0.5185
 3582SOL     OW22381   4.265   0.289   8.044  0.7407  0.2618  0.0777
 3582SOL    HW122382   4.332   0.231   8.008 -2.6128 -4.2621  1.0754
 3582SOL    HW222383   4.260   0.248   8.130  1.8575 -0.8051 -0.3633
 3583SOL     OW22384   2.718   1.538  15.693 -0.5636  0.5064  0.8457
 3583SOL    HW122385   2.721   1.589  15.612 -3.2895  1.1639  1.1396
 3583SOL    HW222386   2.737   1.602  15.762  1.6808  2.9193 -1.9753
 3584SOL     OW22387   0.959   3.648   2.000  0.0444  0.1041  0.2621
 3584SOL    HW122388   1.022   3.708   1.960  0.9285 -0.5863  0.5896
 3584SOL    HW222389   0.966   3.571   1.944 -0.9439 -1.1759  1.8872
 3585SOL     OW22390   1.016   3.610   3.082 -0.0605  0.3177  0.2307
 3585SOL    HW122391   1.077   3.671   3.123 -1.5970  2.9310 -1.3447
 3585SOL    HW222392   0.998   3.661   3.003  3.2950 -1.2398 -1.5490
 3586SOL     OW22393   0.777   0.430  12.531 -0.0954  0.4010 -0.0552
 3586SOL    HW122394   0.781   0.524  12.550 -1.7947  0.1586  1.5496
 3586SOL    HW222395   0.802   0.394  12.616 -0.0693 -0.8752 -0.6090
 3587SOL     OW22396   3.573   1.632   1.353  0.0373  0.0711 -0.2589
 3587SOL    HW122397   3.620   1.549   1.361  1.3991  0.9651  1.2293
 3587SOL    HW222398   3.621   1.678   1.422 -0.6667  1.1315 -0.4773
 3588SOL     OW22399   1.735   3.214   5.705  0.2909  0.6304  1.2141
 3588SOL    HW122400   1.820   3.181   5.674 -0.7711  0.3110 -1.3378
 3588SOL    HW222401   1.707   3.132   5.747  0.1432 -0.1698 -0.4693
 3589SOL     OW22402   2.292   2.701  12.851  0.5573 -0.2826 -0.2795
 3589SOL    HW122403   2.223   2.764  12.874  1.1546  0.0852  0.4861
 3589SOL    HW222404   2.319   2.694  12.942  1.5429 -1.0820 -0.6337
 3590SOL     OW22405   0.474   2.783  10.509  0.3103 -0.3951 -0.1237
 3590SOL    HW122406   0.505   2.746  10.591  2.5287  1.5029 -0.1038
 3590SOL    HW222407   0.560   2.775  10.467  0.3648  0.6068 -0.2141
 3591SOL     OW22408   1.514   3.235   6.683 -0.8219  0.1303 -0.3001
 3591SOL    HW122409   1.491   3.208   6.594 -1.3466  2.5244 -0.8750
 3591SOL    HW222410   1.609   3.218   6.688 -0.8527  0.1020  0.1754
 3592SOL     OW22411   1.736   4.366  11.614  0.0502 -0.3341 -0.2008
 3592SOL    HW122412   1.807   4.302  11.608  3.2703  3.3205 -1.3107
 3592SOL    HW222413   1.662   4.306  11.613  0.5173 -0.8910 -1.4293
 3593SOL     OW22414   1.000   0.960   6.599  0.0608 -0.8980  0.3116
 3593SOL    HW122415   0.968   1.025   6.662 -0.8559 -1.1402  0.0929
 3593SOL    HW222416   0.918   0.935   6.558 -1.0413  2.1920  0.6778
 3594SOL     OW22417   4.430   1.969   3.830 -0.2720  0.3435  0.1983
 3594SOL    HW122418   4.515   1.966   3.786 -0.6968  0.3265 -0.6196
 3594SOL    HW222419   4.459   1.978   3.920 -0.3533 -0.7848  0.3451
 3595SOL     OW22420   4.113   2.317  15.056  0.4324 -0.2429  0.3306
 3595SOL    HW122421   4.079   2.376  14.988 -2.9903 -0.8129  1.5334
 3595SOL    HW222422   4.054   2.355  15.122  1.1561  0.2770  0.6747
 3596SOL     OW22423   4.657   3.270  13.936 -0.7500 -0.2826 -0.7821
 3596SOL    HW122424   4.589   3.230  13.991  1.2630 -0.1076  1.8339
 3596SOL    HW222425   4.608   3.330  13.880 -0.1207 -0.9227 -2.0366
 3597SOL     OW22426   1.310   2.419   5.133 -0.1148 -0.0642 -0.0238
 3597SOL    HW122427   1.388   2.402   5.186  1.5281  1.3623 -1.9810
 3597SOL    HW222428   1.355   2.452   5.055  2.5008 -1.4996  0.8778
 3598SOL     OW22429   2.759   2.618   8.303  0.3522 -0.1629 -0.7372
 3598SOL    HW122430   2.663   2.617   8.304  0.3919  0.0400  1.9272
 3598SOL    HW222431   2.782   2.674   8.229  0.8459 -0.4151 -0.7713
 3599SOL     OW22432   0.295   1.659   8.860  0.3838  0.4653 -0.4279
 3599SOL    HW122433   0.309   1.751   8.840 -0.4050  0.6534 -0.0997
 3599SOL    HW222434   0.319   1.625   8.774 -0.3604 -0.6781 -0.1873
 3600SOL     OW22435   1.195   3.944   4.954  0.0203 -0.4532 -0.1856
 3600SOL    HW122436   1.236   3.978   4.874  0.7428  0.8246  0.7134
 3600SOL    HW222437   1.231   3.993   5.029  2.1704 -1.1205 -0.8006
 3601SOL     OW22438   3.021   4.187   2.290 -0.5718 -0.7245  0.2202
 3601SOL    HW122439   3.042   4.137   2.369 -0.9432 -1.3800 -0.0990
 3601SOL    HW222440   3.000   4.268   2.338  0.7081  1.9755 -3.7809
 3602SOL     OW22441   3.223   1.091  11.366 -0.0128  0.2221 -0.2825
 3602SOL    HW122442   3.149   1.042  11.331 -1.9610  4.8844 -2.8286
 3602SOL    HW222443   3.293   1.063  11.307  0.4255 -3.9457  2.2947
 3603SOL     OW22444   2.939   2.606  11.275  0.2229 -0.3961 -0.3787
 3603SOL    HW122445   2.876   2.640  11.338  1.0816  2.1076 -0.8280
 3603SOL    HW222446   2.945   2.676  11.210  1.0261 -2.1479 -2.1943
 3604SOL     OW22447   4.101   1.372   7.821  0.4047  0.0458  0.1750
 3604SOL    HW122448   4.048   1.378   7.901  0.0267  1.4048 -0.1821
 3604SOL    HW222449   4.099   1.460   7.784  1.4104 -0.5011 -1.1738
 3605SOL     OW22450   3.993   1.009   6.040 -0.2912 -0.0615 -0.5642
 3605SOL    HW122451   3.929   0.957   6.089 -0.6925  0.9971  0.0217
 3605SOL    HW222452   4.031   0.936   5.990  2.4432  1.7513 -1.1392
 3606SOL     OW22453   4.623   1.370   2.686 -0.1652 -0.5713  0.0835
 3606SOL    HW122454   4.699   1.360   2.743 -0.4014 -3.5639 -0.1300
 3606SOL    HW222455   4.659   1.437   2.627  0.9429  0.8581  2.3861
 3607SOL     OW22456   1.198   2.539   2.516 -0.6028  0.1769  0.6958
 3607SOL    HW122457   1.287   2.523   2.547 -0.1070 -2.5693 -2.1034
 3607SOL    HW222458   1.152   2.538   2.600 -0.5013  0.0088  0.7503
 3608SOL     OW22459   4.235   4.738  17.740 -0.3222  0.7749 -0.2367
 3608SOL    HW122460   4.195   4.666  17.691  0.0993  1.0970 -1.0528
 3608SOL    HW222461   4.317   0.002  17.691 -0.2214  1.6018 -0.0112
 3609SOL     OW22462   4.549   2.207   3.642  0.4492 -0.2800  0.6603
 3609SOL    HW122463   4.618   2.143   3.623  0.0394  0.3418 -2.9829
 3609SOL    HW222464   4.599   2.269   3.696  1.0782 -1.3116  1.2732
 3610SOL     OW22465   0.629   1.265   4.476 -0.0702  0.1176 -0.2066
 3610SOL    HW122466   0.592   1.189   4.431  0.4915 -0.8974  1.0486
 3610SOL    HW222467   0.700   1.284   4.415 -0.0609 -0.1199 -0.2710
 3611SOL     OW22468   3.815   2.874  15.193  0.6577  0.1199  0.4494
 3611SOL    HW122469   3.904   2.907  15.204 -0.0454  2.1504  0.0492
 3611SOL    HW222470   3.838   2.785  15.220 -0.5115 -0.4600 -0.4531
 3612SOL     OW22471   0.288   3.672   8.438 -0.5834 -0.4108  0.2565
 3612SOL    HW122472   0.300   3.706   8.349 -3.7875  1.5945  0.5766
 3612SOL    HW222473   0.352   3.601   8.436  0.3487  0.4283  0.2639
 3613SOL     OW22474   2.647   0.121   1.970 -0.3078 -0.0072  0.3582
 3613SOL    HW122475   2.656   0.027   1.953 -1.5698  0.0477 -0.5530
 3613SOL    HW222476   2.594   0.144   1.894 -0.2377 -0.9174  0.0288
 3614SOL     OW22477   2.500   3.628   2.492  0.2986 -0.0151 -0.4164
 3614SOL    HW122478   2.548   3.593   2.418 -1.3291 -2.2190 -0.4311
 3614SOL    HW222479   2.477   3.543   2.530 -0.0394  0.4253  0.3720
 3615SOL     OW22480   1.815   1.208   3.781  0.9378 -0.3853 -0.2552
 3615SOL    HW122481   1.750   1.265   3.821  1.0496 -0.5106  0.1105
 3615SOL    HW222482   1.892   1.265   3.770  0.7855 -0.1224  0.0306
 3616SOL     OW22483   3.589   2.039   5.295  1.0177 -0.0236  0.1693
 3616SOL    HW122484   3.569   1.955   5.334  1.4618 -1.4467 -2.6582
 3616SOL    HW222485   3.659   2.022   5.232 -0.1692  1.1120 -1.4599
 3617SOL     OW22486   3.098   2.539   6.183 -0.5290  0.2317  0.0745
 3617SOL    HW122487   3.034   2.470   6.167 -0.3797  0.6670 -2.4210
 3617SOL    HW222488   3.170   2.479   6.206  0.8022  1.7107 -0.2514
 3618SOL     OW22489   3.993   3.925   6.643  0.2981  0.1692 -0.0747
 3618SOL    HW122490   3.899   3.929   6.625  0.5343  0.4988 -1.2411
 3618SOL    HW222491   4.018   4.012   6.676 -1.7010  0.5166  0.5269
 3619SOL     OW22492   4.684   2.109  13.780 -0.3317  0.6666 -0.0853
 3619SOL    HW122493   4.694   2.021  13.816  0.3314  0.0034 -1.8791
 3619SOL    HW222494   0.028   2.122  13.733  0.0174 -1.5573 -0.0865
 3620SOL     OW22495   0.864   3.332   6.850 -0.3612  0.2651 -0.6092
 3620SOL    HW122496   0.888   3.267   6.916 -1.9778  0.5380  0.2648
 3620SOL    HW222497   0.826   3.388   6.918  1.2315  0.4239  0.1559
 3621SOL     OW22498   4.153   0.686   0.063  0.0860 -1.4014  0.1482
 3621SOL    HW122499   4.159   0.690  17.721 -0.0897 -0.1927  0.1955
 3621SOL    HW222500   4.061   0.711   0.069  1.3661  2.9436  1.6298
 3622SOL     OW22501   2.757   0.931   0.490 -0.3384  0.0425  0.4645
 3622SOL    HW122502   2.775   1.024   0.482 -1.2864  0.2239  0.3893
 3622SOL    HW222503   2.727   0.901   0.404  0.9670 -3.2762  1.1480
 3623SOL     OW22504   1.793   2.979   8.109 -0.4749  0.5459  0.2117
 3623SOL    HW122505   1.776   3.063   8.066  1.3391  0.5199 -0.5402
 3623SOL    HW222506   1.888   2.976   8.108 -0.4997 -0.2321 -0.2522
 3624SOL     OW22507   2.451   1.938   7.913  0.4017 -0.4817 -0.0931
 3624SOL    HW122508   2.383   1.987   7.867 -0.8469 -4.1933 -2.2519
 3624SOL    HW222509   2.521   2.000   7.933  0.9330 -1.6128  1.5299
 3625SOL     OW22510   4.033   2.875  14.402  0.8901  0.1293 -0.3885
 3625SOL    HW122511   3.966   2.807  14.400 -0.5786  1.5813 -0.7521
 3625SOL    HW222512   4.098   2.821  14.448 -0.7926 -1.5118  0.0640
 3626SOL     OW22513   1.298   3.662  17.467 -0.1252 -0.3141  0.4494
 3626SOL    HW122514   1.267   3.661  17.557 -0.5821 -0.2047  0.2946
 3626SOL    HW222515   1.369   3.599  17.462  1.4142  1.3416  1.3184
 3627SOL     OW22516   3.885   0.951  15.267 -0.1023  0.0405 -0.3631
 3627SOL    HW122517   3.900   0.858  15.283  0.7526 -0.4840 -4.2924
 3627SOL    HW222518   3.819   0.978  15.331 -0.2641 -3.5674  0.9572
 3628SOL     OW22519   3.871   0.846  13.179 -0.0492 -0.3379 -0.8140
 3628SOL    HW122520   3.818   0.907  13.230 -1.9462 -2.2670 -0.4576
 3628SOL    HW222521   3.871   0.908  13.107 -2.0279 -1.1517 -1.5114
 3629SOL     OW22522   1.197   4.660   5.439  0.1835  0.1701  0.0904
 3629SOL    HW122523   1.258   4.649   5.365 -0.1081  2.2555 -0.4614
 3629SOL    HW222524   1.140   4.583   5.440  0.8022 -0.2294  2.6889
 3630SOL     OW22525   0.512   3.648   4.527 -0.5339  0.0589  0.5639
 3630SOL    HW122526   0.550   3.650   4.615  1.2025  0.3753 -0.1812
 3630SOL    HW222527   0.471   3.734   4.528  2.5741  1.5732 -0.8729
 3631SOL     OW22528   3.720   3.337   6.027 -0.7990 -0.2718  0.3047
 3631SOL    HW122529   3.805   3.351   5.985 -1.7621 -1.9653 -2.1318
 3631SOL    HW222530   3.662   3.407   5.996 -1.8860 -0.7160  1.3465
 3632SOL     OW22531   0.636   0.855   3.432  0.1186 -0.1057  0.5221
 3632SOL    HW122532   0.703   0.922   3.415 -0.0306 -0.1517 -0.2433
 3632SOL    HW222533   0.659   0.793   3.363 -2.4084  0.8844 -1.1992
 3633SOL     OW22534   2.536   2.766   5.172 -0.4655 -0.3121  0.1953
 3633SOL    HW122535   2.585   2.732   5.096  0.6501  1.5604  0.0642
 3633SOL    HW222536   2.507   2.850   5.137  0.9451  0.8066  1.7014
 3634SOL     OW22537   0.269   4.659  16.950 -0.4580  0.8629 -0.3541
 3634SOL    HW122538   0.359   4.662  16.981 -0.5325 -1.5109  0.0231
 3634SOL    HW222539   0.245   0.011  16.968 -2.0267  0.2360  0.7187
 3635SOL     OW22540   1.201   3.369  16.058  0.0858 -0.0080 -0.1202
 3635SOL    HW122541   1.202   3.399  16.149 -1.1561  0.5009 -0.2692
 3635SOL    HW222542   1.179   3.454  16.021  0.1982  0.4045  0.7566
 3636SOL     OW22543   4.735   2.213   4.965 -0.5473 -0.0038 -0.0220
 3636SOL    HW122544   0.020   2.287   4.909 -0.6704 -0.5275 -0.7708
 3636SOL    HW222545   0.068   2.151   4.951 -0.4251 -0.0257  0.7094
 3637SOL     OW22546   0.982   1.798   7.986 -0.5573 -0.0997  0.2459
 3637SOL    HW122547   0.930   1.747   7.923 -0.3693  2.2100 -1.7864
 3637SOL    HW222548   0.985   1.886   7.949 -0.9608  0.6663  2.0489
 3638SOL     OW22549   1.480   4.076   5.578 -0.1124 -0.2578  0.8131
 3638SOL    HW122550   1.417   4.054   5.509  2.1854 -2.1618 -0.6882
 3638SOL    HW222551   1.531   4.140   5.529 -0.2156 -1.7520 -1.2443
 3639SOL     OW22552   0.695   0.224   5.580  0.1064 -0.1139  0.0668
 3639SOL    HW122553   0.751   0.272   5.518 -2.2325  1.3466 -0.9243
 3639SOL    HW222554   0.673   0.291   5.644  1.3347  1.3554 -1.0408
 3640SOL     OW22555   4.178   1.292   8.826  0.8227 -0.0786 -0.1231
 3640SOL    HW122556   4.259   1.335   8.853  0.1156  0.7817  0.6600
 3640SOL    HW222557   4.130   1.323   8.903  0.4357 -1.8525  0.3301
 3641SOL     OW22558   4.310   1.161   8.124 -0.3814  0.0589  0.3487
 3641SOL    HW122559   4.348   1.178   8.038 -0.1290  2.4509  0.9547
 3641SOL    HW222560   4.390   1.126   8.164  0.0960  1.6830  0.8008
 3642SOL     OW22561   1.525   0.916   8.008 -0.0544 -0.0882 -0.4653
 3642SOL    HW122562   1.589   0.864   8.057 -1.4399 -0.3184  1.0887
 3642SOL    HW222563   1.445   0.914   8.060  0.0458 -2.5203 -0.4090
 3643SOL     OW22564   2.404   0.976   8.356  0.2380 -0.4378 -0.6979
 3643SOL    HW122565   2.456   0.899   8.335 -0.4106 -0.5280 -2.0103
 3643SOL    HW222566   2.402   1.000   8.263 -3.0449 -1.2710 -0.8429
 3644SOL     OW22567   4.340   4.140   3.142  0.0233 -0.3493 -0.4259
 3644SOL    HW122568   4.353   4.225   3.100  0.2018 -0.6334 -0.9361
 3644SOL    HW222569   4.429   4.105   3.136  0.3271  0.5144 -0.9046
 3645SOL     OW22570   4.344   2.395   8.407 -0.2401 -0.1474 -0.0100
 3645SOL    HW122571   4.251   2.398   8.384 -0.3305 -0.5733  0.2971
 3645SOL    HW222572   4.382   2.449   8.338 -2.4372  0.4832 -0.7069
 3646SOL     OW22573   2.310   2.275  12.527  0.2786  0.3792  0.0896
 3646SOL    HW122574   2.343   2.339  12.464 -1.2881  2.5229  1.4501
 3646SOL    HW222575   2.342   2.319  12.606 -1.0724  0.3595  0.6516
 3647SOL     OW22576   0.019   3.992   5.644 -0.7592 -0.6389  0.1566
 3647SOL    HW122577   0.069   4.060   5.599 -0.6066 -1.1403 -0.4417
 3647SOL    HW222578   4.738   3.929   5.574 -0.6184  0.0864 -0.5362
 3648SOL     OW22579   4.545   1.831   6.005 -0.2936  0.4832  0.0840
 3648SOL    HW122580   4.489   1.903   5.976 -1.7828 -0.6098  0.2551
 3648SOL    HW222581   4.475   1.779   6.044  0.2831 -0.1507  0.2820
 3649SOL     OW22582   4.491   2.645   5.762  0.2188 -0.4309 -0.2238
 3649SOL    HW122583   4.502   2.664   5.669  2.0378  2.0654  0.4970
 3649SOL    HW222584   4.514   2.553   5.767  1.0953 -0.1489  0.7786
 3650SOL     OW22585   2.267   1.362   7.601 -0.4026 -0.4552  0.2490
 3650SOL    HW122586   2.225   1.424   7.662 -1.9905 -0.4852 -0.8124
 3650SOL    HW222587   2.347   1.405   7.571 -0.7405 -1.0594 -1.5059
 3651SOL     OW22588   0.268   3.003   1.628 -0.1938 -0.4490 -0.0540
 3651SOL    HW122589   0.198   3.047   1.580  1.3556  0.7283 -1.2528
 3651SOL    HW222590   0.264   3.054   1.709  2.0501 -1.0870  0.4504
 3652SOL     OW22591   3.804   3.783  15.315 -0.4685 -0.5439 -0.5416
 3652SOL    HW122592   3.838   3.821  15.395  1.1242  0.9504 -1.9147
 3652SOL    HW222593   3.889   3.779  15.270 -0.9006  0.2492 -1.4313
 3653SOL     OW22594   0.500   3.033   2.685  0.3519 -0.0028  0.3382
 3653SOL    HW122595   0.431   3.062   2.745 -0.6837  0.3297 -1.0110
 3653SOL    HW222596   0.556   2.982   2.744 -0.6103  1.4720  2.4993
 3654SOL     OW22597   4.667   0.820   9.059 -0.2270  0.1319 -0.1107
 3654SOL    HW122598   4.719   0.842   8.981  0.3090  0.5338  0.3669
 3654SOL    HW222599   4.603   0.891   9.060  0.5174  0.7450  2.0416
 3655SOL     OW22600   2.053   0.421  14.991 -0.4858  0.2507 -0.6706
 3655SOL    HW122601   2.141   0.458  14.993 -0.2351 -0.3981  0.6537
 3655SOL    HW222602   2.032   0.414  14.898 -0.4890 -1.5444 -0.5183
 3656SOL     OW22603   3.513   4.511  11.989  0.5465 -0.1597 -0.0613
 3656SOL    HW122604   3.437   4.531  12.044  0.6550 -3.0298  1.1561
 3656SOL    HW222605   3.482   4.422  11.973 -0.2017  0.1286 -0.2184
 3657SOL     OW22606   2.628   4.709   9.054  0.3117 -0.8049 -0.0939
 3657SOL    HW122607   2.571   4.640   9.089 -0.8789 -0.3914 -1.2431
 3657SOL    HW222608   2.629   0.028   9.130  1.0727  0.3764 -1.0159
 3658SOL     OW22609   4.591   3.051   5.981 -0.1081  0.1195  0.2014
 3658SOL    HW122610   4.569   3.001   5.902  0.2000  2.0805 -1.1123
 3658SOL    HW222611   4.570   2.986   6.049  0.1375 -1.3817 -1.1521
 3659SOL     OW22612   0.981   3.335   4.629  0.2566  0.4906 -0.1663
 3659SOL    HW122613   0.899   3.289   4.648  1.3046 -0.4690  2.0382
 3659SOL    HW222614   0.942   3.394   4.564 -0.6701 -0.8919 -0.8596
 3660SOL     OW22615   0.881   0.199   4.474  0.5705 -0.8754 -0.0757
 3660SOL    HW122616   0.805   0.199   4.531  0.8725 -2.2426  0.3292
 3660SOL    HW222617   0.836   0.200   4.390  0.0365  0.6807  0.2182
 3661SOL     OW22618   2.859   3.817   5.964 -0.5632 -0.0082 -0.1516
 3661SOL    HW122619   2.855   3.755   6.036 -1.3081  0.9607  0.6484
 3661SOL    HW222620   2.873   3.762   5.887  0.1991 -0.3766  0.2413
 3662SOL     OW22621   0.597   2.278  10.701  0.5856 -0.5536 -0.3356
 3662SOL    HW122622   0.552   2.209  10.750 -0.7021  0.7987  0.3773
 3662SOL    HW222623   0.662   2.305  10.766  0.0044  0.7244 -0.2789
 3663SOL     OW22624   0.307   2.754   7.667  0.0102  0.0241 -0.0303
 3663SOL    HW122625   0.311   2.809   7.589  1.2792  1.1815  0.8606
 3663SOL    HW222626   0.271   2.675   7.625  1.1327 -0.5532  0.1032
 3664SOL     OW22627   3.879   1.148  14.540 -0.2376 -0.0048 -0.6175
 3664SOL    HW122628   3.870   1.188  14.626  2.1300  0.1460 -0.4327
 3664SOL    HW222629   3.790   1.112  14.535 -0.0828 -0.6311  1.1564
 3665SOL     OW22630   2.962   1.937   7.734 -0.0097  0.1441 -0.1647
 3665SOL    HW122631   2.925   2.025   7.732  0.4904  0.3768  0.7441
 3665SOL    HW222632   2.891   1.879   7.762  0.5135 -1.7485 -2.8071
 3666SOL     OW22633   1.802   1.228   1.285  0.2683  0.3923 -0.5113
 3666SOL    HW122634   1.712   1.237   1.315  0.1970 -0.2557 -0.5428
 3666SOL    HW222635   1.819   1.139   1.315  0.8732  0.9086  0.6810
 3667SOL     OW22636   1.807   1.695  13.167  0.3584  0.6033 -0.3695
 3667SOL    HW122637   1.872   1.658  13.226 -0.7426  0.8313  0.9859
 3667SOL    HW222638   1.754   1.615  13.156  0.4235  0.6376 -0.9445
 3668SOL     OW22639   3.987   1.978   5.795  0.2392 -0.1364 -0.5059
 3668SOL    HW122640   3.898   1.999   5.825 -0.1703 -2.9715  0.2982
 3668SOL    HW222641   3.987   2.003   5.703 -2.8344 -1.3117 -0.8342
 3669SOL     OW22642   0.431   2.417   4.417 -0.0697  0.4150  0.4231
 3669SOL    HW122643   0.470   2.332   4.394  0.2184  0.1024  2.0557
 3669SOL    HW222644   0.337   2.404   4.403  0.0548  1.1454 -1.0859
 3670SOL     OW22645   2.501   1.997   8.269  0.0493 -0.3928  0.2616
 3670SOL    HW122646   2.440   1.944   8.320 -0.7025 -1.2471 -1.5258
 3670SOL    HW222647   2.520   2.068   8.330  0.0160  0.7917 -1.1072
 3671SOL     OW22648   2.529   2.607   2.104  0.2095  0.4022  0.0328
 3671SOL    HW122649   2.481   2.554   2.167 -0.1932  0.3488 -0.3249
 3671SOL    HW222650   2.609   2.619   2.156 -0.4517 -1.2234  1.4320
 3672SOL     OW22651   3.949   3.613   3.510 -0.0404 -0.1605 -0.4370
 3672SOL    HW122652   3.913   3.665   3.438  0.8492  2.2328  0.8447
 3672SOL    HW222653   4.027   3.582   3.464 -1.7675 -4.0943 -0.7601
 3673SOL     OW22654   0.340   4.243   5.663  0.2615 -0.3033  0.4474
 3673SOL    HW122655   0.270   4.201   5.613 -0.0045  2.2849 -1.3677
 3673SOL    HW222656   0.402   4.171   5.661 -0.1431 -0.6141 -0.6250
 3674SOL     OW22657   0.745   3.438  11.707  0.0334  0.0457 -0.8698
 3674SOL    HW122658   0.715   3.369  11.767  0.5179  0.5961  0.0021
 3674SOL    HW222659   0.744   3.512  11.768 -0.6023 -0.7692  0.1176
 3675SOL     OW22660   4.060   1.046   4.652 -0.3065  0.4994 -0.8470
 3675SOL    HW122661   3.995   1.103   4.693  0.3548  0.9238 -0.3924
 3675SOL    HW222662   3.997   0.987   4.612 -2.7182  1.1171  2.1012
 3676SOL     OW22663   1.389   2.865   5.158 -0.8483 -0.5359  0.1905
 3676SOL    HW122664   1.353   2.954   5.163  1.7389  0.5765 -0.9545
 3676SOL    HW222665   1.437   2.873   5.076  0.3069 -1.6614  0.7752
 3677SOL     OW22666   0.667   2.135   6.140  0.2168 -0.4766 -0.0374
 3677SOL    HW122667   0.581   2.147   6.100  0.9793  0.8819 -1.2650
 3677SOL    HW222668   0.639   2.061   6.194 -1.1294  0.7480  0.9818
 3678SOL     OW22669   1.653   2.548   4.296  0.1546  0.5156 -0.4652
 3678SOL    HW122670   1.595   2.479   4.265  0.3918 -0.1809  0.6346
 3678SOL    HW222671   1.674   2.515   4.384 -2.0011  0.7609  0.1475
 3679SOL     OW22672   0.641   3.236   5.222  0.0466  1.0413 -0.4134
 3679SOL    HW122673   0.711   3.195   5.170  1.0916  0.0427  1.7857
 3679SOL    HW222674   0.564   3.200   5.178 -0.4918 -0.0039  1.4008
 3680SOL     OW22675   4.284   2.217  11.327  0.1072 -0.3232 -0.3592
 3680SOL    HW122676   4.204   2.169  11.307  1.4455 -1.6868 -2.4715
 3680SOL    HW222677   4.245   2.273  11.394 -3.0086 -0.6593 -1.9003
 3681SOL     OW22678   1.823   3.541   3.183  0.2871 -0.3575  0.4050
 3681SOL    HW122679   1.767   3.466   3.200 -1.1912  0.6287 -0.0728
 3681SOL    HW222680   1.902   3.508   3.225  1.4690  0.8284 -0.8863
 3682SOL     OW22681   0.958   1.603  14.381 -0.5255 -0.1649  0.1102
 3682SOL    HW122682   0.929   1.616  14.472 -2.7229  0.6763 -0.7102
 3682SOL    HW222683   0.959   1.698  14.365  2.8640  0.0939  1.7766
 3683SOL     OW22684   4.280   1.218   3.421  0.0320  0.2466  0.2517
 3683SOL    HW122685   4.307   1.308   3.402  0.6265  0.2426  1.0870
 3683SOL    HW222686   4.193   1.213   3.382  0.7632  1.0398 -1.4810
 3684SOL     OW22687   2.263   2.076  12.927  0.1510  0.2983  0.3608
 3684SOL    HW122688   2.294   2.009  12.866  1.0309 -0.0346  1.1764
 3684SOL    HW222689   2.193   2.026  12.970 -0.2803 -0.2780 -1.0098
 3685SOL     OW22690   0.010   1.542   2.529 -0.2633  0.5264 -0.3555
 3685SOL    HW122691   0.087   1.598   2.538  0.9635 -0.9836 -1.5821
 3685SOL    HW222692   0.030   1.490   2.452 -0.1265  0.5653 -0.3456
 3686SOL     OW22693   2.638   4.014   7.387 -0.0271 -0.0165 -0.3813
 3686SOL    HW122694   2.662   3.936   7.338 -1.8033 -1.9000  1.7829
 3686SOL    HW222695   2.614   3.980   7.473  0.2491  0.0428 -0.2808
 3687SOL     OW22696   3.778   1.226   7.824  0.0709  0.0010  0.0299
 3687SOL    HW122697   3.760   1.306   7.775 -1.6441  0.8829  2.1132
 3687SOL    HW222698   3.862   1.200   7.785  0.2350  1.2970 -0.4791
 3688SOL     OW22699   2.981   0.894   5.319 -0.1400 -0.2389  0.3281
 3688SOL    HW122700   2.958   0.954   5.248 -0.1926  1.3629  1.7210
 3688SOL    HW222701   2.923   0.907   5.393 -1.3270  2.8932 -1.1402
 3689SOL     OW22702   3.436   1.796   2.928  0.3274  0.1181 -0.1483
 3689SOL    HW122703   3.403   1.858   2.993 -0.5827  3.1661 -3.5066
 3689SOL    HW222704   3.377   1.813   2.854  1.9972  1.1138 -1.2660
 3690SOL     OW22705   2.804   2.170   7.720  0.6623  0.0690  0.1971
 3690SOL    HW122706   2.877   2.217   7.680  0.0527  0.2107 -0.7354
 3690SOL    HW222707   2.745   2.238   7.752  0.9411 -0.0648  1.0042
 3691SOL     OW22708   4.583   1.800  15.769  0.0064  0.1958 -0.6336
 3691SOL    HW122709   4.593   1.805  15.674 -1.0649 -1.7887 -0.8602
 3691SOL    HW222710   4.607   1.891  15.786 -0.0740 -0.2630  2.0096
 3692SOL     OW22711   0.587   1.643   6.372  0.3156  0.9106  0.7673
 3692SOL    HW122712   0.680   1.660   6.357 -0.2706  3.1604 -0.2600
 3692SOL    HW222713   0.547   1.642   6.285 -0.7997 -0.4686  1.3033
 3693SOL     OW22714   2.070   4.328   7.359 -0.6773 -0.2684 -0.1785
 3693SOL    HW122715   2.116   4.269   7.299 -1.9218 -0.9782 -0.4397
 3693SOL    HW222716   2.131   4.400   7.375 -1.2952  0.0211  0.8563
 3694SOL     OW22717   1.608   1.976   7.641  0.4451  0.3213 -0.0141
 3694SOL    HW122718   1.628   2.070   7.637  1.0441  0.1902 -0.0184
 3694SOL    HW222719   1.685   1.954   7.692 -0.7705  0.0164  1.6894
 3695SOL     OW22720   0.104   1.187   5.280  0.0659  0.4583  0.2936
 3695SOL    HW122721   0.131   1.167   5.370 -1.4230  0.3742  0.7229
 3695SOL    HW222722   0.017   1.147   5.282 -0.0952  0.7585 -0.6114
 3696SOL     OW22723   3.202   2.964  16.769 -0.1662 -0.0555  0.4315
 3696SOL    HW122724   3.145   2.893  16.740 -2.1774  1.9688 -0.6481
 3696SOL    HW222725   3.285   2.926  16.742  0.2172  0.9666  0.1757
 3697SOL     OW22726   2.058   3.965   6.312 -0.6390  0.4749 -0.3176
 3697SOL    HW122727   2.055   3.875   6.343  2.1343  1.0816  1.6866
 3697SOL    HW222728   2.056   4.013   6.394 -0.3615  0.3227 -0.2204
 3698SOL     OW22729   2.571   3.026   6.014  0.4962 -0.5409 -0.5508
 3698SOL    HW122730   2.544   2.938   6.041  0.5758 -0.0600  1.1355
 3698SOL    HW222731   2.637   2.996   5.953  0.3863 -1.4983 -0.2066
 3699SOL     OW22732   4.052   2.619  15.131  0.1157  0.1807 -0.3370
 3699SOL    HW122733   4.062   2.579  15.045  1.0826  1.1382 -0.6641
 3699SOL    HW222734   4.068   2.712  15.120  2.6264  0.0670  2.2101
 3700SOL     OW22735   3.332   0.617  16.682  0.3013 -0.2544 -0.3825
 3700SOL    HW122736   3.266   0.646  16.619  1.6260  1.3942 -1.0226
 3700SOL    HW222737   3.348   0.694  16.737 -1.8281 -0.5652  0.6408
 3701SOL     OW22738   3.938   3.356   5.010 -0.4279 -0.4951 -0.4148
 3701SOL    HW122739   3.899   3.442   5.027  0.1159 -0.3175 -0.0681
 3701SOL    HW222740   4.002   3.384   4.945 -0.2852  0.6853  0.2266
 3702SOL     OW22741   3.457   4.341   7.482  0.1215  0.0827 -0.1516
 3702SOL    HW122742   3.493   4.382   7.561  1.0417 -1.0672  0.0320
 3702SOL    HW222743   3.529   4.365   7.423  1.2883 -0.6142  0.9641
 3703SOL     OW22744   0.713   4.446  10.595 -0.1203  0.2562 -0.5313
 3703SOL    HW122745   0.628   4.447  10.639 -0.0002 -0.1578 -0.2825
 3703SOL    HW222746   0.705   4.374  10.531  0.4701  1.2624 -1.7318
 3704SOL     OW22747   4.368   2.046  12.034 -0.0904  0.1615 -0.0320
 3704SOL    HW122748   4.454   2.087  12.042 -1.1053  2.4180 -0.6497
 3704SOL    HW222749   4.334   2.060  12.123 -1.3474 -0.9695 -0.3297
 3705SOL     OW22750   1.247   2.614   9.134  1.0926  0.3329  0.3689
 3705SOL    HW122751   1.171   2.672   9.128  1.5106  0.8746  0.2705
 3705SOL    HW222752   1.259   2.618   9.229 -1.1263 -1.1270  0.6979
 3706SOL     OW22753   2.411   2.127   3.617  0.3629  0.2759 -0.2852
 3706SOL    HW122754   2.391   2.218   3.638  0.6380 -0.0214  1.2453
 3706SOL    HW222755   2.343   2.112   3.552  2.0065  3.1305 -2.7075
 3707SOL     OW22756   1.520   3.479  11.460  0.7856  1.0519  0.4378
 3707SOL    HW122757   1.529   3.392  11.498  0.0222  1.1603  0.8752
 3707SOL    HW222758   1.428   3.499  11.479  0.4271  0.5544 -0.7418
 3708SOL     OW22759   1.352   1.773   3.316 -0.2270 -0.7933  0.4704
 3708SOL    HW122760   1.421   1.829   3.351  0.0616 -0.2669 -0.9345
 3708SOL    HW222761   1.391   1.690   3.343  0.9181  0.8073  3.7327
 3709SOL     OW22762   1.368   3.030  11.991 -0.0443 -0.2527 -0.1031
 3709SOL    HW122763   1.312   3.052  12.065  1.8943 -0.7590  1.5181
 3709SOL    HW222764   1.300   3.052  11.928 -1.4713  1.1600  1.9409
 3710SOL     OW22765   0.859   1.551   7.035  0.2434 -0.1222 -0.1970
 3710SOL    HW122766   0.800   1.626   7.037 -0.3181 -0.5545 -0.3833
 3710SOL    HW222767   0.899   1.567   6.949  2.2255 -3.0486  0.1758
 3711SOL     OW22768   3.281   0.457   2.115  0.2253  0.3918 -0.5026
 3711SOL    HW122769   3.342   0.481   2.045 -0.1759 -0.4240 -1.1348
 3711SOL    HW222770   3.335   0.483   2.190  1.1382  1.3368 -1.4761
 3712SOL     OW22771   1.981   0.092  15.282  0.1553 -0.3415  0.0651
 3712SOL    HW122772   1.990   0.176  15.236 -1.8693 -0.9273 -1.4050
 3712SOL    HW222773   1.891   0.101  15.311 -0.2295  0.7974 -1.4605
 3713SOL     OW22774   2.535   0.614  12.641 -0.0404 -0.1752 -0.2325
 3713SOL    HW122775   2.510   0.697  12.601 -0.5988  0.4650  1.4663
 3713SOL    HW222776   2.628   0.615  12.618  0.8843 -1.5409  3.4478
 3714SOL     OW22777   0.248   0.636   5.396 -0.4507 -0.0758  0.0089
 3714SOL    HW122778   0.248   0.728   5.372 -0.9120 -0.1681 -0.3538
 3714SOL    HW222779   0.305   0.595   5.330 -0.8748 -2.1496  0.9386
 3715SOL     OW22780   4.287   0.699   9.247  0.2293 -0.0199  0.2471
 3715SOL    HW122781   4.236   0.649   9.183  2.7077 -1.5398 -0.5337
 3715SOL    HW222782   4.249   0.675   9.331 -1.3800 -3.9622 -1.6259
 3716SOL     OW22783   1.001   2.901  15.861  0.0914  0.5865  0.0616
 3716SOL    HW122784   1.006   2.836  15.931  0.2940 -1.1429 -1.5718
 3716SOL    HW222785   0.910   2.909  15.833 -0.4534 -0.5276  1.5483
 3717SOL     OW22786   0.316   2.785   1.883 -0.0009 -0.2493 -0.3308
 3717SOL    HW122787   0.285   2.853   1.943  0.5593 -0.5202  0.2694
 3717SOL    HW222788   0.411   2.776   1.891 -0.0052  0.2391  0.2910
 3718SOL     OW22789   1.354   1.185  12.216  0.4981  0.1234  0.0961
 3718SOL    HW122790   1.380   1.231  12.296  0.1431  1.6405 -0.6520
 3718SOL    HW222791   1.346   1.264  12.162 -0.3878  0.4299  0.6642
 3719SOL     OW22792   0.469   1.776   6.151 -0.4722  0.4925  0.1080
 3719SOL    HW122793   0.400   1.789   6.086 -1.4515 -0.9433  0.8587
 3719SOL    HW222794   0.443   1.838   6.219 -0.8087 -0.7965  1.1565
 3720SOL     OW22795   1.816   0.899   5.880 -0.3807  0.2957 -0.1825
 3720SOL    HW122796   1.767   0.933   5.955  1.5504  0.2933  1.0697
 3720SOL    HW222797   1.776   0.814   5.867  1.0610 -0.3554 -0.3825
 3721SOL     OW22798   3.996   4.278   5.316 -0.6637 -0.4692  0.0126
 3721SOL    HW122799   3.922   4.317   5.270 -3.1672 -3.6452  1.2971
 3721SOL    HW222800   3.989   4.188   5.282  1.1132 -1.5608  2.5101
 3722SOL     OW22801   2.851   2.458   4.099 -0.1110 -0.6676  0.7947
 3722SOL    HW122802   2.827   2.424   4.013  0.1825 -0.7930  0.7609
 3722SOL    HW222803   2.831   2.382   4.152  0.0492 -1.2821 -0.0231
 3723SOL     OW22804   2.771   4.700   7.103  0.0447  0.2777  0.0545
 3723SOL    HW122805   2.707   0.018   7.146  0.0505 -0.0514  0.5043
 3723SOL    HW222806   2.754   4.620   7.153  1.2662  0.1340  0.2584
 3724SOL     OW22807   4.400   2.588   3.109 -0.3840 -0.5169  0.0936
 3724SOL    HW122808   4.345   2.534   3.166 -2.4375  0.6998 -0.7255
 3724SOL    HW222809   4.387   2.545   3.024 -0.8326  0.5221 -0.3686
 3725SOL     OW22810   1.135   2.326   6.199  0.3491 -0.1430  0.3718
 3725SOL    HW122811   1.043   2.303   6.200  0.7337 -1.7114 -0.0617
 3725SOL    HW222812   1.172   2.288   6.120 -0.8158 -1.2975  0.3822
 3726SOL     OW22813   4.007   2.538   7.392 -0.6347 -0.0785 -0.0263
 3726SOL    HW122814   3.981   2.533   7.300  1.2011  2.2989 -0.6829
 3726SOL    HW222815   3.920   2.520   7.427 -1.0706  0.9087 -0.6008
 3727SOL     OW22816   2.960   4.329   2.533 -0.2250 -0.5931  0.3857
 3727SOL    HW122817   2.884   4.340   2.591 -0.1343 -0.3897  0.4655
 3727SOL    HW222818   3.001   4.415   2.528 -1.8224  0.0259 -2.3374
 3728SOL     OW22819   2.931   2.138   9.348  0.2513 -0.3165 -0.3146
 3728SOL    HW122820   3.014   2.113   9.307 -0.2701 -0.9825 -0.9660
 3728SOL    HW222821   2.959   2.148   9.439 -0.3250  0.3766 -0.2102
 3729SOL     OW22822   3.386   3.900  15.172  0.4128 -0.5175  0.0226
 3729SOL    HW122823   3.469   3.948  15.176 -0.1636  0.2661  2.4563
 3729SOL    HW222824   3.347   3.925  15.255 -3.6837  1.4801 -2.5005
 3730SOL     OW22825   2.774   2.693   6.183  0.1192 -0.2045 -0.5494
 3730SOL    HW122826   2.846   2.675   6.122  1.7152 -1.3492  1.6771
 3730SOL    HW222827   2.788   2.786   6.202  1.0244 -0.4334 -0.0887
 3731SOL     OW22828   1.611   0.392  12.020 -0.2698 -0.2007 -0.3158
 3731SOL    HW122829   1.700   0.425  12.023 -0.4559  0.1008  2.5629
 3731SOL    HW222830   1.566   0.474  12.043 -0.5078 -0.2809 -0.4877
 3732SOL     OW22831   1.186   4.598  10.898  0.1927  0.4538  0.2488
 3732SOL    HW122832   1.167   4.686  10.931 -0.4040 -0.2733  1.8316
 3732SOL    HW222833   1.276   4.620  10.874  0.5979 -0.3830  1.0162
 3733SOL     OW22834   2.330   1.317  11.273 -0.1691 -0.4468 -0.1232
 3733SOL    HW122835   2.379   1.372  11.212 -1.0297 -0.0161 -0.4169
 3733SOL    HW222836   2.264   1.375  11.310 -1.1236 -1.9312  0.4930
 3734SOL     OW22837   3.891   0.733   5.294 -0.1891  0.3311 -0.7381
 3734SOL    HW122838   3.920   0.680   5.219 -0.7492 -1.1096  0.0609
 3734SOL    HW222839   3.964   0.791   5.315 -1.6930  1.7102  0.6906
 3735SOL     OW22840   2.539   1.073   7.547 -0.2646  0.2853  0.3481
 3735SOL    HW122841   2.550   0.987   7.587  0.9041  0.2648 -0.0097
 3735SOL    HW222842   2.473   1.105   7.609 -0.1551 -1.1035  1.1661
 3736SOL     OW22843   1.223   4.709   1.949 -0.2906 -0.6614  0.7219
 3736SOL    HW122844   1.234   4.739   2.039 -1.0284  2.2117 -0.1339
 3736SOL    HW222845   1.162   4.635   1.957  0.5308 -1.5133 -0.9894
 3737SOL     OW22846   3.980   0.385   3.570  0.4656 -0.1562 -0.4277
 3737SOL    HW122847   4.037   0.456   3.601 -1.6212  1.2965  0.0988
 3737SOL    HW222848   3.979   0.403   3.476  2.2560  1.1729 -0.1908
 3738SOL     OW22849   1.474   1.806   5.159  0.1744 -0.1058 -0.3416
 3738SOL    HW122850   1.553   1.838   5.202 -0.2616 -0.9198  1.0798
 3738SOL    HW222851   1.396   1.821   5.213  0.0398 -0.3933 -0.4531
 3739SOL     OW22852   3.310   1.108  12.332 -0.2362 -0.0325 -0.0775
 3739SOL    HW122853   3.330   1.201  12.325  0.2233 -0.3187 -2.5414
 3739SOL    HW222854   3.323   1.101  12.427  1.7096  0.2147 -0.3284
 3740SOL     OW22855   2.486   1.171   8.762 -0.3076 -0.3393  0.0729
 3740SOL    HW122856   2.482   1.166   8.667  0.5064 -0.2052  0.0312
 3740SOL    HW222857   2.545   1.245   8.775 -0.9238 -0.0525  1.3003
 3741SOL     OW22858   4.152   1.942   4.689 -0.1515  0.2053  0.2912
 3741SOL    HW122859   4.180   2.020   4.738  2.0742 -0.9073  0.8024
 3741SOL    HW222860   4.135   1.982   4.603  0.2690 -1.7687 -0.7010
 3742SOL     OW22861   3.814   2.325   2.734 -0.0446  0.1163  0.2485
 3742SOL    HW122862   3.789   2.306   2.825 -1.1726 -1.0624 -0.3123
 3742SOL    HW222863   3.821   2.420   2.724  0.5906 -0.0557 -0.8614
 3743SOL     OW22864   3.762   1.050  13.346  0.2929 -0.4781 -0.1228
 3743SOL    HW122865   3.715   1.055  13.429  2.7270 -1.9139  1.3568
 3743SOL    HW222866   3.733   1.128  13.299 -0.4047  0.4333  1.8128
 3744SOL     OW22867   3.297   1.074  17.108 -0.2696 -0.0025  0.3933
 3744SOL    HW122868   3.316   1.150  17.163 -1.4417  0.8994 -0.4329
 3744SOL    HW222869   3.351   1.006  17.147  1.9168  1.3212 -0.3139
 3745SOL     OW22870   3.376   3.091   6.671  0.1720  0.2521 -0.0529
 3745SOL    HW122871   3.395   3.184   6.657  1.5319  0.3368  2.3611
 3745SOL    HW222872   3.459   3.044   6.665 -0.3171 -1.0021  3.3037
 3746SOL     OW22873   2.418   2.741   3.002 -0.1059  0.7131  0.1378
 3746SOL    HW122874   2.454   2.742   2.913  0.3726 -1.5235  0.2881
 3746SOL    HW222875   2.490   2.785   3.046  0.8018 -0.9906  0.3752
 3747SOL     OW22876   2.083   3.785   0.954 -0.3464  0.3837  0.0843
 3747SOL    HW122877   2.138   3.809   1.029  1.6220  0.0628 -1.2483
 3747SOL    HW222878   2.009   3.734   0.988  0.9259 -0.3899  1.7245
 3748SOL     OW22879   3.658   0.298   5.672 -0.3465  0.5115  0.2567
 3748SOL    HW122880   3.737   0.336   5.634 -0.1854  1.3876  1.4465
 3748SOL    HW222881   3.692   0.262   5.754 -1.2757  0.2484  0.5266
 3749SOL     OW22882   2.438   0.493   4.640 -0.0172  0.4523 -0.2296
 3749SOL    HW122883   2.448   0.523   4.730 -0.8238  2.2505 -0.7374
 3749SOL    HW222884   2.344   0.506   4.629  0.1977  1.4253 -0.9145
 3750SOL     OW22885   3.938   2.478  11.914 -0.0668 -0.1557  0.9014
 3750SOL    HW122886   4.010   2.425  11.881  0.1447  0.6006  0.1342
 3750SOL    HW222887   3.928   2.540  11.841  0.3596  0.2837  1.2210
 3751SOL     OW22888   0.799   4.726   3.479 -0.5769  0.2111  0.2375
 3751SOL    HW122889   0.889   4.698   3.461 -0.4708  0.8696 -0.2615
 3751SOL    HW222890   0.802   4.717   3.574 -0.1871 -2.3669 -0.0172
 3752SOL     OW22891   0.499   0.156   7.567 -0.2866 -0.0149  0.5118
 3752SOL    HW122892   0.444   0.102   7.511 -0.5907  1.5790 -0.7117
 3752SOL    HW222893   0.473   0.243   7.537  1.2792  0.3146  0.1358
 3753SOL     OW22894   3.639   2.447  11.848 -0.2624  0.6851 -0.0595
 3753SOL    HW122895   3.590   2.529  11.845  1.6988  1.8579  0.0135
 3753SOL    HW222896   3.694   2.450  11.926 -0.9533  0.2101  0.4398
 3754SOL     OW22897   3.805   2.755  13.473  0.1691 -0.6008  0.5169
 3754SOL    HW122898   3.869   2.826  13.472 -1.4384  0.8571  0.4024
 3754SOL    HW222899   3.747   2.800  13.535 -0.9868 -1.7909  0.3059
 3755SOL     OW22900   4.527   2.256   6.375  0.2948 -0.4702  0.4717
 3755SOL    HW122901   4.544   2.331   6.318  0.3098 -1.3495 -0.6771
 3755SOL    HW222902   4.597   2.201   6.341 -2.1314 -2.7768 -0.8112
 3756SOL     OW22903   1.504   3.136   0.650 -0.3982  0.2935 -0.0906
 3756SOL    HW122904   1.507   3.206   0.586  0.1581 -0.0639 -0.4546
 3756SOL    HW222905   1.586   3.097   0.620  0.1738  1.5974 -0.1800
 3757SOL     OW22906   0.019   2.934   5.388  0.1983  0.0817  0.0985
 3757SOL    HW122907   0.081   2.987   5.338  0.4687 -1.4065 -1.1248
 3757SOL    HW222908   4.690   2.925   5.322 -0.7414  0.2639  1.0337
 3758SOL     OW22909   2.917   0.376   4.659 -0.4050  0.0251  0.0368
 3758SOL    HW122910   2.893   0.465   4.683 -1.0200 -0.1335  0.0146
 3758SOL    HW222911   2.830   0.335   4.654 -0.5855  0.3362  0.5887
 3759SOL     OW22912   0.427   3.796   7.152 -0.2132  0.0605 -0.1817
 3759SOL    HW122913   0.363   3.865   7.133  0.1705  0.6096  0.5405
 3759SOL    HW222914   0.379   3.714   7.142  0.4022 -0.1663 -1.3149
 3760SOL     OW22915   0.290   2.883   7.426 -0.3717 -0.1103 -0.1344
 3760SOL    HW122916   0.218   2.903   7.367 -0.0610  2.0327  0.1966
 3760SOL    HW222917   0.363   2.857   7.369 -1.8556 -3.4100 -0.5552
 3761SOL     OW22918   4.377   0.268  14.220  0.3633  0.0430 -0.2213
 3761SOL    HW122919   4.293   0.226  14.200 -0.4564  0.6312  1.9911
 3761SOL    HW222920   4.378   0.330  14.147 -1.7005  0.0149 -0.2850
 3762SOL     OW22921   1.318   3.594   7.038 -0.3576  0.1285  0.6695
 3762SOL    HW122922   1.385   3.621   6.976 -0.2229 -0.0199  0.7490
 3762SOL    HW222923   1.331   3.499   7.047 -0.6305  0.2599  2.4704
 3763SOL     OW22924   0.983   1.995   9.986 -0.1640 -0.2816  0.5898
 3763SOL    HW122925   1.078   2.000   9.976 -0.2391  0.5283  0.2743
 3763SOL    HW222926   0.972   1.903  10.009  1.5041 -0.4672  0.6208
 3764SOL     OW22927   0.017   2.238   5.501 -0.3811  0.6140 -0.3190
 3764SOL    HW122928   0.025   2.233   5.597  1.3112 -1.5279 -0.5532
 3764SOL    HW222929   0.015   2.330   5.476  0.8509  0.6909 -0.1584
 3765SOL     OW22930   3.579   4.490   6.266  0.0612 -0.4057  0.1357
 3765SOL    HW122931   3.568   4.565   6.208  2.5716 -1.7732 -2.1180
 3765SOL    HW222932   3.488   4.474   6.292  0.8998 -0.6763  2.8846
 3766SOL     OW22933   0.201   3.758   1.631  0.4690  0.2829  0.2985
 3766SOL    HW122934   0.122   3.804   1.659  0.8518  1.5323 -0.6756
 3766SOL    HW222935   0.251   3.826   1.585  0.7528 -0.5224 -0.5857
 3767SOL     OW22936   3.924   3.083   3.235  0.2869  0.0504  0.6404
 3767SOL    HW122937   3.940   3.028   3.159  1.5735  1.5822 -0.2194
 3767SOL    HW222938   3.853   3.040   3.281  0.5980 -0.4755  0.6257
 3768SOL     OW22939   1.650   3.676   8.940 -0.4625  0.0306  0.2139
 3768SOL    HW122940   1.670   3.725   8.861 -1.5964 -0.2329 -0.2286
 3768SOL    HW222941   1.742   3.662   8.964 -0.3616 -2.2210 -1.5126
 3769SOL     OW22942   3.408   1.508   1.758  0.4042  0.4466 -0.1060
 3769SOL    HW122943   3.392   1.460   1.840  0.3700  0.1309 -0.2983
 3769SOL    HW222944   3.483   1.464   1.717 -0.2863 -1.3745  0.5823
 3770SOL     OW22945   0.810   1.178   2.178  0.2186 -0.2946 -0.5683
 3770SOL    HW122946   0.815   1.214   2.089  2.1970  0.5173 -0.1397
 3770SOL    HW222947   0.736   1.119   2.166  0.3951 -0.2798 -1.7632
 3771SOL     OW22948   0.631   0.234   9.476 -0.0799 -0.0537 -0.0559
 3771SOL    HW122949   0.657   0.315   9.521 -0.8924  0.7378 -1.0029
 3771SOL    HW222950   0.641   0.171   9.548 -2.4345 -0.3808  0.0072
 3772SOL     OW22951   3.377   3.011   8.918  0.1530  0.3722  0.2258
 3772SOL    HW122952   3.437   3.082   8.940 -0.4339  0.7479  0.6083
 3772SOL    HW222953   3.404   2.964   8.839  1.8060  0.2722  0.8547
 3773SOL     OW22954   4.198   0.615  13.728  0.6754  0.3766  0.0149
 3773SOL    HW122955   4.203   0.638  13.635 -0.0542  0.8709  0.0922
 3773SOL    HW222956   4.102   0.619  13.730  0.8282  3.1706  0.9116
 3774SOL     OW22957   3.710   1.742   8.044  0.3202  0.4854 -0.0811
 3774SOL    HW122958   3.656   1.810   8.083 -0.9332  0.1954 -1.3066
 3774SOL    HW222959   3.638   1.698   7.999  0.9918 -0.2559 -0.4474
 3775SOL     OW22960   4.159   2.335  11.826  0.2400  0.1243  0.5831
 3775SOL    HW122961   4.119   2.252  11.852 -0.3177  0.2640  0.1651
 3775SOL    HW222962   4.248   2.312  11.853  0.5703  2.4736  1.4685
 3776SOL     OW22963   3.890   4.173   3.833  0.6037 -0.1967  0.3075
 3776SOL    HW122964   3.894   4.268   3.844  0.4026 -0.1966  0.3724
 3776SOL    HW222965   3.972   4.152   3.787  0.9534  0.9603  0.3746
 3777SOL     OW22966   3.418   3.572   8.234 -0.2479 -0.4920  0.2554
 3777SOL    HW122967   3.347   3.570   8.298 -1.0652 -0.4264 -0.6412
 3777SOL    HW222968   3.472   3.497   8.257  0.8686 -0.1150 -1.1021
 3778SOL     OW22969   2.799   1.008   4.429 -0.4506  0.5735 -0.2773
 3778SOL    HW122970   2.847   1.058   4.362 -0.7477 -1.1699 -1.8000
 3778SOL    HW222971   2.722   0.994   4.374 -1.7344 -0.1047  1.7164
 3779SOL     OW22972   0.296   0.318   6.310  0.4583  0.0618  0.1090
 3779SOL    HW122973   0.345   0.242   6.341  1.7819  1.9884  2.7297
 3779SOL    HW222974   0.245   0.274   6.242  1.9365  0.0493 -0.9907
 3780SOL     OW22975   4.152   1.956   8.971 -0.1234 -0.1849  0.3017
 3780SOL    HW122976   4.233   1.973   8.922  1.4016 -1.0475  2.5346
 3780SOL    HW222977   4.182   1.871   9.004 -0.0874 -0.3806 -0.2360
 3781SOL     OW22978   1.684   1.483   3.600  0.6079  0.4380  0.0120
 3781SOL    HW122979   1.698   1.435   3.519 -0.3725  0.9609 -0.4590
 3781SOL    HW222980   1.590   1.501   3.597  0.4089 -0.6817 -0.5219
 3782SOL     OW22981   1.989   4.696   0.407  0.0942  0.6428 -0.2208
 3782SOL    HW122982   1.896   4.718   0.394  0.2877  1.6707  0.1319
 3782SOL    HW222983   1.979   4.684   0.501 -1.3436 -1.0146 -0.5777
 3783SOL     OW22984   1.313   2.418   5.785 -0.6116  0.1323 -0.2544
 3783SOL    HW122985   1.237   2.476   5.791 -1.6008 -1.3303  1.2999
 3783SOL    HW222986   1.271   2.341   5.824 -0.4106  0.7921  1.2975
 3784SOL     OW22987   4.237   1.932   2.863 -0.6443 -0.3237  0.5568
 3784SOL    HW122988   4.179   1.958   2.935 -1.8711  0.2140 -0.6303
 3784SOL    HW222989   4.288   1.859   2.898  0.0750 -0.1164 -0.0615
 3785SOL     OW22990   0.537   4.734   1.973  0.2221 -0.0591  0.3522
 3785SOL    HW122991   0.586   0.074   1.950  0.1074 -0.6186 -1.8352
 3785SOL    HW222992   0.509   4.715   1.883 -1.4157 -0.3649  0.9183
 3786SOL     OW22993   2.955   1.656   9.322 -0.3233  0.3409  0.0067
 3786SOL    HW122994   3.020   1.671   9.390 -0.5040  2.3714 -0.2623
 3786SOL    HW222995   2.899   1.731   9.340  0.1817  0.9195 -0.8563
 3787SOL     OW22996   4.688   0.867   4.503 -0.2227  0.1669 -0.3858
 3787SOL    HW122997   4.640   0.950   4.509 -1.0136 -0.3703  0.7522
 3787SOL    HW222998   4.617   0.809   4.476 -1.6402 -0.0488  3.7763
 3788SOL     OW22999   0.589   1.505   2.886  0.2718 -0.1917 -0.2945
 3788SOL    HW123000   0.655   1.449   2.845 -1.2038 -1.4367 -0.9643
 3788SOL    HW223001   0.643   1.537   2.959 -1.8349 -0.9962  1.6462
 3789SOL     OW23002   3.722   4.038   4.860  0.3752 -0.0645 -0.0551
 3789SOL    HW123003   3.764   4.109   4.908  1.8566 -0.3192 -0.9617
 3789SOL    HW223004   3.736   4.065   4.769  0.3523  0.8961  0.2262
 3790SOL     OW23005   0.684   1.212   6.190 -0.5259  0.5823 -0.5378
 3790SOL    HW123006   0.654   1.279   6.129 -0.7196  2.1784  1.3197
 3790SOL    HW223007   0.683   1.259   6.273  0.0610 -2.8433  1.4015
 3791SOL     OW23008   4.555   1.976   0.067 -0.1302  0.1015 -0.2424
 3791SOL    HW123009   4.648   1.961   0.051 -0.3408 -0.7999 -0.6151
 3791SOL    HW223010   4.544   2.036   0.141 -2.1836 -0.4067 -0.1310
 3792SOL     OW23011   0.798   0.386   1.219  0.4870  0.6127 -0.2203
 3792SOL    HW123012   0.709   0.421   1.211 -0.0118 -0.6088  0.0341
 3792SOL    HW223013   0.849   0.463   1.241  3.0288 -0.5062 -2.1732
 3793SOL     OW23014   4.318   0.978   1.507  0.3463  0.1242 -0.1216
 3793SOL    HW123015   4.286   0.967   1.597 -0.8869 -0.0480 -0.5831
 3793SOL    HW223016   4.263   1.051   1.482  1.2643  0.7643 -0.2888
 3794SOL     OW23017   3.609   0.358  16.134  0.2095  0.5660  0.2117
 3794SOL    HW123018   3.579   0.400  16.053 -3.3714  1.5352  2.0348
 3794SOL    HW223019   3.567   0.273  16.122 -1.0944  1.4042 -1.1648
 3795SOL     OW23020   2.414   3.818   3.566 -0.2936 -0.6355  0.3378
 3795SOL    HW123021   2.504   3.797   3.542  0.5842 -0.0027  3.0471
 3795SOL    HW223022   2.382   3.832   3.476  0.9304  1.0262  0.1576
 3796SOL     OW23023   3.120   4.162   6.583  0.5336 -0.1720 -0.6260
 3796SOL    HW123024   3.109   4.072   6.552  1.5799 -1.8712  3.8668
 3796SOL    HW223025   3.048   4.205   6.538 -1.1769 -2.1252  0.2731
 3797SOL     OW23026   1.555   4.212   5.062 -0.3068  0.2074  0.0618
 3797SOL    HW123027   1.478   4.214   5.005  1.4255  0.3833 -2.2689
 3797SOL    HW223028   1.599   4.290   5.028 -0.1010  0.7240  1.5145
 3798SOL     OW23029   1.120   2.287   0.070 -0.0196 -0.2628  0.3628
 3798SOL    HW123030   1.144   2.378   0.086 -1.1747  0.4610 -2.0130
 3798SOL    HW223031   1.067   2.300  17.745  1.7899  0.0010 -0.8224
 3799SOL     OW23032   0.920   0.071   7.305 -0.1229  0.1311  0.3496
 3799SOL    HW123033   0.990   0.130   7.332 -0.7171  1.1602 -0.3938
 3799SOL    HW223034   0.933   0.010   7.378  0.1998  1.5728  1.4928
 3800SOL     OW23035   1.132   2.018   3.521  1.1274 -0.7448 -0.0892
 3800SOL    HW123036   1.184   2.077   3.465  0.2867  0.7527  0.7180
 3800SOL    HW223037   1.183   1.937   3.513  1.1618 -0.7894  0.5943
 3801SOL     OW23038   0.882   3.198  11.546 -0.3982 -0.0026  0.0554
 3801SOL    HW123039   0.866   3.160  11.633 -3.2606  0.9658 -0.0614
 3801SOL    HW223040   0.941   3.268  11.572  1.2065 -0.9199 -1.1098
 3802SOL     OW23041   4.279   0.671   7.419  0.7961 -0.1018  0.1562
 3802SOL    HW123042   4.337   0.676   7.343 -0.3591  1.6186 -0.6011
 3802SOL    HW223043   4.205   0.719   7.382  1.1860 -0.2621 -0.8236
 3803SOL     OW23044   3.038   2.867   1.385  0.0836 -0.1454 -0.2097
 3803SOL    HW123045   3.124   2.908   1.379  0.5082 -0.9880  0.0710
 3803SOL    HW223046   2.993   2.915   1.454 -0.4080 -1.0704  0.1216
 3804SOL     OW23047   3.011   1.251   7.034  0.2752  0.0910  0.1328
 3804SOL    HW123048   3.000   1.339   7.072 -1.7358  0.1975 -0.6591
 3804SOL    HW223049   3.034   1.272   6.944 -0.2021 -0.9171 -0.2190
 3805SOL     OW23050   3.090   3.415  14.135 -0.0124  0.5501  0.5254
 3805SOL    HW123051   3.014   3.457  14.094 -0.8427 -0.5265  0.9505
 3805SOL    HW223052   3.100   3.334  14.085  0.8408  1.0578 -0.1202
 3806SOL     OW23053   0.992   1.454   7.288  0.7535 -0.5849  0.1404
 3806SOL    HW123054   0.931   1.490   7.224  1.2720 -0.4776 -0.2995
 3806SOL    HW223055   1.078   1.474   7.251  0.7954  1.5680  1.3892
 3807SOL     OW23056   1.887   2.233   8.975  0.5178  0.2300 -0.5795
 3807SOL    HW123057   1.968   2.273   9.006  1.2218 -1.7145  0.1128
 3807SOL    HW223058   1.855   2.179   9.047 -0.0873 -0.5179 -1.3991
 3808SOL     OW23059   3.064   2.201   6.816 -0.6290  0.2215 -0.2372
 3808SOL    HW123060   3.042   2.285   6.857  0.3113 -0.6986  2.1115
 3808SOL    HW223061   3.042   2.146   6.891 -0.9159  0.2826 -0.2763
 3809SOL     OW23062   0.931   1.695   7.708 -0.6628 -0.5086 -0.0691
 3809SOL    HW123063   0.945   1.601   7.716  0.2630 -0.2476  1.4224
 3809SOL    HW223064   1.007   1.721   7.655 -1.3653  0.0329 -0.8067
 3810SOL     OW23065   1.556   4.459   3.674  0.0475  0.5384  0.6361
 3810SOL    HW123066   1.554   4.509   3.593 -1.5720 -0.0578  0.3132
 3810SOL    HW223067   1.609   4.384   3.645  1.1116  0.7514  1.9964
 3811SOL     OW23068   0.689   3.679   5.626 -0.0605  0.3406  0.2516
 3811SOL    HW123069   0.655   3.605   5.576 -0.2734  0.5530  0.0794
 3811SOL    HW223070   0.616   3.700   5.684 -0.5809  0.9454 -0.6113
 3812SOL     OW23071   3.145   2.441   9.959 -0.9172  0.0432 -1.0420
 3812SOL    HW123072   3.232   2.481   9.949 -0.7812  0.1845  0.7652
 3812SOL    HW223073   3.134   2.410   9.869 -1.7946 -0.5942 -0.7086
 3813SOL     OW23074   4.005   1.876   5.509  0.3282 -0.5842 -0.0771
 3813SOL    HW123075   4.058   1.858   5.431 -0.5062  2.7764 -1.4164
 3813SOL    HW223076   3.936   1.929   5.469 -1.0462 -2.8790 -0.7103
 3814SOL     OW23077   2.019   3.918  12.248 -0.1695  0.2840  0.1983
 3814SOL    HW123078   1.983   3.994  12.294  1.8192  1.5105 -0.2704
 3814SOL    HW223079   2.099   3.897  12.296 -1.1867 -0.2812  1.6278
 3815SOL     OW23080   1.925   2.856   9.010  0.1215 -0.2928  0.1104
 3815SOL    HW123081   1.830   2.855   9.016 -0.0829  0.7050 -2.7775
 3815SOL    HW223082   1.935   2.950   9.023  0.6578 -0.0758 -1.7592
 3816SOL     OW23083   2.637   1.430   6.340  0.0321 -0.5837 -0.7115
 3816SOL    HW123084   2.730   1.446   6.324 -0.3708 -0.3197 -2.7167
 3816SOL    HW223085   2.600   1.456   6.256  1.3231  0.5704 -0.9235
 3817SOL     OW23086   4.434   0.844  17.620 -0.3200 -0.7573  0.6397
 3817SOL    HW123087   4.351   0.796  17.618 -0.7646  0.0985 -1.5687
 3817SOL    HW223088   4.493   0.780  17.659  1.2139  0.7163  0.7543
 3818SOL     OW23089   3.402   4.416   8.461 -0.1981  0.1052 -0.4109
 3818SOL    HW123090   3.425   4.324   8.451 -1.4585 -0.0554 -1.8429
 3818SOL    HW223091   3.478   4.468   8.435 -1.3599  2.0573  0.1218
 3819SOL     OW23092   3.806   0.211   6.689 -0.1027 -0.5265  0.1843
 3819SOL    HW123093   3.760   0.295   6.693  0.0527 -0.4570  0.4922
 3819SOL    HW223094   3.886   0.223   6.639 -0.5479 -0.0502 -0.4115
 3820SOL     OW23095   2.281   3.984   7.424  0.0982  0.1180  0.2916
 3820SOL    HW123096   2.226   3.944   7.492  0.2061 -0.1605  0.2165
 3820SOL    HW223097   2.229   3.975   7.344 -1.3423  0.5907  1.1613
 3821SOL     OW23098   3.754   1.784   8.589 -0.0653  0.1608 -0.1673
 3821SOL    HW123099   3.807   1.861   8.606 -0.5862  0.8425 -1.6917
 3821SOL    HW223100   3.753   1.794   8.494 -0.4344  0.0556 -0.1755
 3822SOL     OW23101   2.719   2.321   7.413  0.3525  0.5442 -0.1884
 3822SOL    HW123102   2.698   2.406   7.376  0.3846  1.5980  2.2056
 3822SOL    HW223103   2.668   2.321   7.494  0.6453  0.9736 -0.0052
 3823SOL     OW23104   1.681   0.474   2.178 -0.1064  0.5361  0.2198
 3823SOL    HW123105   1.720   0.442   2.259  1.9982  1.0777 -0.5668
 3823SOL    HW223106   1.705   0.567   2.176  3.1549 -0.3354  0.0564
 3824SOL     OW23107   2.091   3.627   7.384  0.1572 -1.5426  0.0273
 3824SOL    HW123108   2.044   3.690   7.329  2.6363  1.2034  1.0236
 3824SOL    HW223109   2.169   3.618   7.329 -0.2687 -3.1867 -0.3019
 3825SOL     OW23110   1.955   1.744  13.414 -0.3522 -0.7290  0.7153
 3825SOL    HW123111   2.001   1.779  13.490  0.7262  2.1447 -1.2898
 3825SOL    HW223112   1.937   1.825  13.367  0.8707 -1.4941 -1.0652
 3826SOL     OW23113   2.479   4.214   4.308 -0.0514 -0.3352  0.4869
 3826SOL    HW123114   2.533   4.268   4.367 -2.2440  0.1634  2.0513
 3826SOL    HW223115   2.491   4.256   4.223  0.1854 -1.4201 -0.0113
 3827SOL     OW23116   3.355   0.884   9.533 -0.1646  0.2343  0.4977
 3827SOL    HW123117   3.285   0.945   9.512  0.3180  2.1292  4.4263
 3827SOL    HW223118   3.411   0.892   9.456  0.1206  0.0923  0.6899
 3828SOL     OW23119   1.747   4.265   8.026  0.0088  0.5916  0.3333
 3828SOL    HW123120   1.770   4.314   7.947  2.0201 -0.3076  0.3692
 3828SOL    HW223121   1.715   4.191   7.975 -0.0506  2.0607 -1.7494
 3829SOL     OW23122   2.153   0.309   2.293  0.0813  0.3767 -0.7643
 3829SOL    HW123123   2.223   0.245   2.300  0.1236  0.6204  1.1764
 3829SOL    HW223124   2.072   0.258   2.301  0.5868 -0.2137  0.5889
 3830SOL     OW23125   1.661   1.947   0.066  0.3144 -0.1580  0.5222
 3830SOL    HW123126   1.582   1.946   0.120 -0.9686 -0.7442 -1.3800
 3830SOL    HW223127   1.649   1.866   0.017 -0.1389 -1.4317  2.7004
 3831SOL     OW23128   2.733   4.264   6.916 -0.0418 -0.5549  0.8106
 3831SOL    HW123129   2.752   4.357   6.923  4.2126 -1.2931 -0.6210
 3831SOL    HW223130   2.794   4.227   6.980 -0.6114 -0.9658  1.1140
 3832SOL     OW23131   3.639   1.171  13.071  0.0334  0.6218  0.4293
 3832SOL    HW123132   3.730   1.199  13.068  0.2506 -0.1240  0.0755
 3832SOL    HW223133   3.594   1.246  13.111 -0.3455  1.2155 -1.1135
 3833SOL     OW23134   4.454   0.102   4.681 -0.4923 -0.4343  0.3520
 3833SOL    HW123135   4.472   0.029   4.740  0.0584 -1.3705 -0.9718
 3833SOL    HW223136   4.492   0.173   4.734  0.3728  1.3784 -2.6863
 3834SOL     OW23137   1.603   4.214   5.384 -0.1434 -0.3480  0.3210
 3834SOL    HW123138   1.672   4.279   5.396 -1.2219  1.1456 -1.4813
 3834SOL    HW223139   1.608   4.193   5.291 -1.0838  0.5257  0.0693
 3835SOL     OW23140   4.686   1.946   3.733 -0.2217 -0.6074 -0.1417
 3835SOL    HW123141   4.694   1.986   3.820 -0.8210  1.6977 -1.1622
 3835SOL    HW223142   0.036   1.917   3.712 -0.8582 -0.8684 -2.4266
 3836SOL     OW23143   1.250   0.121   7.341  0.1785  0.2139 -0.1040
 3836SOL    HW123144   1.254   0.030   7.370  0.8782  0.4048  0.4161
 3836SOL    HW223145   1.298   0.165   7.411 -1.7870  0.9632  0.7767
 3837SOL     OW23146   1.261   4.652   9.072 -0.0031  0.2932  0.2841
 3837SOL    HW123147   1.199   4.725   9.077  0.4624  0.5191  2.8856
 3837SOL    HW223148   1.201   4.583   9.100  1.1639 -1.1308 -0.7825
 3838SOL     OW23149   3.668   0.469  11.438 -0.1921 -0.0858 -0.5058
 3838SOL    HW123150   3.609   0.480  11.363 -1.7345 -2.0830  0.4058
 3838SOL    HW223151   3.614   0.412  11.492 -2.0464 -0.3242 -2.5866
 3839SOL     OW23152   1.714   3.008   9.672  0.1461 -0.2285  0.2209
 3839SOL    HW123153   1.724   3.092   9.718 -0.7483  1.8294 -3.3389
 3839SOL    HW223154   1.684   3.042   9.588 -0.5335  1.5956  1.1774
 3840SOL     OW23155   3.210   0.467  16.909  0.5712 -0.3604  0.3028
 3840SOL    HW123156   3.205   0.416  16.828 -1.8845  1.5993 -0.7545
 3840SOL    HW223157   3.189   0.553  16.874  1.8151 -0.2534 -0.1706
 3841SOL     OW23158   1.948   2.539   9.751  0.5823 -0.1004 -0.0994
 3841SOL    HW123159   1.938   2.538   9.656  1.2399 -0.5098 -0.1658
 3841SOL    HW223160   1.902   2.617   9.781 -3.3150 -2.2194 -0.5286
 3842SOL     OW23161   0.952   1.363   6.099 -0.0422  0.3749 -0.5846
 3842SOL    HW123162   0.945   1.315   6.016 -0.4106 -1.0677  0.2841
 3842SOL    HW223163   0.879   1.328   6.150  0.0085  0.3752 -0.5121
 3843SOL     OW23164   3.974   1.372  12.626  0.1683 -0.1577 -0.9131
 3843SOL    HW123165   4.034   1.340  12.693 -2.1590 -2.6916 -0.0247
 3843SOL    HW223166   3.947   1.456  12.663  1.6934  0.1562 -0.5263
 3844SOL     OW23167   1.784   4.614  15.814 -0.0908  0.0217  0.1356
 3844SOL    HW123168   1.875   4.598  15.789 -0.7663 -0.2569 -2.1372
 3844SOL    HW223169   1.774   4.570  15.899  1.4142 -0.9695 -0.1961
 3845SOL     OW23170   3.213   2.652   6.455 -0.3198 -0.6603 -0.2485
 3845SOL    HW123171   3.221   2.680   6.546 -1.0479  0.0447 -0.3968
 3845SOL    HW223172   3.119   2.636   6.463 -0.5516  0.8115 -0.0142
 3846SOL     OW23173   1.794   1.370   8.529  0.0820  0.2047 -0.0238
 3846SOL    HW123174   1.809   1.390   8.621  0.7326  0.0628 -0.0942
 3846SOL    HW223175   1.803   1.275   8.530  1.8341  0.4064  2.2941
 3847SOL     OW23176   0.223   4.445   2.667 -0.8246  0.2083 -0.5228
 3847SOL    HW123177   0.152   4.500   2.702 -0.4544  0.1005  0.3902
 3847SOL    HW223178   0.252   4.508   2.600 -0.0266 -0.2268 -0.5851
 3848SOL     OW23179   2.435   3.606  16.156  0.4123  0.4985 -0.8408
 3848SOL    HW123180   2.469   3.517  16.158  0.0137  0.3587 -0.2258
 3848SOL    HW223181   2.463   3.638  16.071  0.7082 -0.2254 -1.0117
 3849SOL     OW23182   4.242   4.728   2.459 -0.0762 -0.2525 -0.4859
 3849SOL    HW123183   4.277   4.658   2.403  1.6534 -1.0891  1.6865
 3849SOL    HW223184   4.199   4.675   2.526 -1.5323 -0.7475 -1.7906
 3850SOL     OW23185   4.252   1.714  15.396 -0.5981 -0.5434  0.2469
 3850SOL    HW123186   4.192   1.788  15.408  0.6648  0.6989 -0.9996
 3850SOL    HW223187   4.279   1.716  15.488  2.0798 -1.0674 -0.5584
 3851SOL     OW23188   0.700   0.542  16.364  0.1181 -0.1649 -0.9884
 3851SOL    HW123189   0.792   0.554  16.341 -0.0168 -0.0033 -1.4415
 3851SOL    HW223190   0.658   0.565  16.281  0.9470 -0.3775 -1.4713
 3852SOL     OW23191   4.008   3.845   2.108  0.2722  0.0400 -0.4428
 3852SOL    HW123192   4.027   3.752   2.123  0.3238  0.0334 -0.5478
 3852SOL    HW223193   4.051   3.883   2.184  0.9417 -0.2672 -0.6659
 3853SOL     OW23194   1.011   0.916   4.057 -0.3211 -0.4616 -0.5402
 3853SOL    HW123195   1.023   0.845   4.121 -1.8279  0.8454  1.1736
 3853SOL    HW223196   0.951   0.963   4.114 -0.3007  1.2780 -1.9544
 3854SOL     OW23197   0.805   1.998   4.032 -0.0156 -0.2975 -0.3370
 3854SOL    HW123198   0.743   2.052   3.984  1.0504  0.3943 -0.9409
 3854SOL    HW223199   0.796   1.915   3.986  0.5593  0.7835 -2.3921
 3855SOL     OW23200   3.797   3.107   4.407 -0.0374  0.2189 -0.1282
 3855SOL    HW123201   3.723   3.167   4.394  1.3909  2.3200  1.3975
 3855SOL    HW223202   3.813   3.115   4.501 -0.5025  0.1017 -0.0357
 3856SOL     OW23203   4.580   0.483  13.024 -0.0121 -0.0023  0.7981
 3856SOL    HW123204   4.520   0.504  12.952 -0.0346  0.2625  0.8933
 3856SOL    HW223205   4.541   0.528  13.099  0.5923 -0.6315  1.4887
 3857SOL     OW23206   2.157   1.600   0.243  0.5167 -0.3000 -0.2369
 3857SOL    HW123207   2.247   1.617   0.215  1.4663 -0.9318  2.4248
 3857SOL    HW223208   2.119   1.558   0.165  1.7124  2.9648 -2.5658
 3858SOL     OW23209   3.884   1.619   4.948  0.4403 -0.0802  0.4885
 3858SOL    HW123210   3.897   1.643   4.856  1.0445  0.5717  0.7542
 3858SOL    HW223211   3.931   1.537   4.935 -0.6583 -1.1968  3.5261
 3859SOL     OW23212   2.035   3.187   7.481 -0.4624 -0.6270  0.4940
 3859SOL    HW123213   1.978   3.224   7.414 -0.1532 -1.7791 -0.4146
 3859SOL    HW223214   2.012   3.094   7.483  2.4471 -1.3256  1.9003
 3860SOL     OW23215   3.216   2.646   7.004  0.6527 -0.3826  0.4654
 3860SOL    HW123216   3.122   2.625   7.008  0.2073  1.4140 -0.2679
 3860SOL    HW223217   3.224   2.709   7.076 -0.1459  1.0777 -0.7243
 3861SOL     OW23218   1.458   1.684   1.540 -0.3257  0.6770  0.3897
 3861SOL    HW123219   1.456   1.756   1.602 -0.6758  1.2797 -0.3127
 3861SOL    HW223220   1.363   1.672   1.540 -0.4183  1.3699 -1.9809
 3862SOL     OW23221   0.059   4.066   9.643 -0.4043 -0.1589  0.1862
 3862SOL    HW123222   0.109   4.117   9.706  1.1909 -3.9239  1.9314
 3862SOL    HW223223   0.094   4.077   9.554 -0.3038  0.7273  0.3288
 3863SOL     OW23224   2.847   0.480   8.809 -0.2161  0.0295 -0.8894
 3863SOL    HW123225   2.915   0.539   8.841 -1.3996  1.0140 -0.2042
 3863SOL    HW223226   2.854   0.411   8.876  1.0605  1.2864  0.2676
 3864SOL     OW23227   1.398   0.217   5.562 -1.0772  0.2231  0.1541
 3864SOL    HW123228   1.374   0.135   5.606 -1.1576  1.0453  1.6329
 3864SOL    HW223229   1.464   0.249   5.623 -0.3268  0.2806 -0.6831
 3865SOL     OW23230   1.672   4.258  12.357  0.1060 -0.7164 -0.4123
 3865SOL    HW123231   1.634   4.343  12.333  1.5268  0.3075  0.9706
 3865SOL    HW223232   1.677   4.216  12.271 -0.2387  0.5430 -1.0448
 3866SOL     OW23233   3.103   4.691  17.159  0.3583  0.2086 -0.0649
 3866SOL    HW123234   3.094   4.712  17.252  1.5605  0.1330  0.0564
 3866SOL    HW223235   3.161   4.615  17.162 -0.0944 -0.0458  2.1301
 3867SOL     OW23236   1.566   0.354   4.109  0.4223  0.2457  0.2576
 3867SOL    HW123237   1.544   0.415   4.039  0.0634 -1.0443 -0.7503
 3867SOL    HW223238   1.592   0.411   4.182  0.8752  2.5351 -1.6924
 3868SOL     OW23239   3.418   0.857  17.194  0.0308  0.1763  0.4487
 3868SOL    HW123240   3.491   0.794  17.200 -1.5024 -1.6540 -0.1728
 3868SOL    HW223241   3.356   0.830  17.262 -2.2347  0.9952 -1.3205
 3869SOL     OW23242   4.425   3.384   7.735  0.3322 -0.3838  0.0374
 3869SOL    HW123243   4.423   3.327   7.659  1.4480 -0.4671  0.0678
 3869SOL    HW223244   4.416   3.318   7.803 -4.2922  0.7412  0.5144
 3870SOL     OW23245   4.025   2.027   4.188 -0.0469 -0.2572 -0.4726
 3870SOL    HW123246   4.013   2.060   4.099 -2.5178 -2.3089 -0.9335
 3870SOL    HW223247   3.951   2.069   4.231  0.2872  0.6582 -0.8105
 3871SOL     OW23248   0.033   4.654   8.757  0.0680  0.2514  0.1290
 3871SOL    HW123249   0.097   4.719   8.784 -0.3440 -0.0195  1.7904
 3871SOL    HW223250   4.701   4.686   8.813  0.5177  0.8101  0.3749
 3872SOL     OW23251   2.403   1.618   2.249  0.1062  0.2550  0.1052
 3872SOL    HW123252   2.330   1.623   2.311  0.2686 -0.2479  0.3368
 3872SOL    HW223253   2.357   1.668   2.181 -2.7874 -1.8680  0.5214
 3873SOL     OW23254   4.159   2.264  10.621  0.5010 -0.1403  0.5427
 3873SOL    HW123255   4.221   2.317  10.570  1.3237 -3.1152 -1.5033
 3873SOL    HW223256   4.116   2.212  10.554 -0.4161  0.6113  0.5386
 3874SOL     OW23257   3.303   2.462   7.495 -0.1302 -0.4767 -0.3342
 3874SOL    HW123258   3.299   2.548   7.454  2.2376  0.4808  1.4434
 3874SOL    HW223259   3.391   2.434   7.471  0.0693 -1.2176  1.2222
 3875SOL     OW23260   3.477   3.370   7.045  0.0532  0.2293 -0.9955
 3875SOL    HW123261   3.403   3.381   7.105 -1.4730  1.2518 -3.0581
 3875SOL    HW223262   3.440   3.415   6.969 -3.4236  0.0709  0.6262
 3876SOL     OW23263   4.053   3.458   8.493 -0.3991  0.1785  0.0167
 3876SOL    HW123264   4.066   3.517   8.567 -2.9578  0.3252  0.3539
 3876SOL    HW223265   4.076   3.519   8.423  0.2906  1.6007  1.4954
 3877SOL     OW23266   3.231   4.112   9.316 -0.0988 -0.1178 -0.4474
 3877SOL    HW123267   3.191   4.169   9.383  1.9354  2.3317 -1.3314
 3877SOL    HW223268   3.153   4.084   9.267 -0.4674  1.9755 -1.0737
 3878SOL     OW23269   3.626   1.487   7.160  0.0879 -0.2118 -0.1164
 3878SOL    HW123270   3.612   1.475   7.253  3.1851  2.6611  0.7458
 3878SOL    HW223271   3.720   1.501   7.164  0.0126  0.4944 -0.6355
 3879SOL     OW23272   3.919   3.447   6.533 -0.6992  0.2745  0.0851
 3879SOL    HW123273   3.883   3.409   6.453  3.0082 -3.7160  0.3190
 3879SOL    HW223274   4.005   3.403   6.534 -1.6965 -1.6561  0.8575
 3880SOL     OW23275   1.647   1.171   5.047  0.3071 -0.1764  0.4317
 3880SOL    HW123276   1.587   1.235   5.085  0.8835  1.2829 -1.0797
 3880SOL    HW223277   1.615   1.170   4.956 -0.2941 -1.7935  0.6544
 3881SOL     OW23278   2.419   2.917   8.957  0.8458  0.1157 -0.5987
 3881SOL    HW123279   2.348   2.956   8.907 -0.7265 -1.1601  0.6049
 3881SOL    HW223280   2.480   2.907   8.884  2.0788  0.1837  0.4225
 3882SOL     OW23281   3.966   2.126   3.938 -0.0184  0.1667  0.1854
 3882SOL    HW123282   3.905   2.173   3.881  0.5299  2.5838  1.6069
 3882SOL    HW223283   3.955   2.040   3.897  0.6025 -0.0545  0.4896
 3883SOL     OW23284   2.021   0.446   5.984  0.1299 -0.1469  0.3683
 3883SOL    HW123285   2.048   0.358   6.012 -2.7940 -0.1274  3.3217
 3883SOL    HW223286   2.098   0.478   6.032 -0.5418  1.6433  0.2315
 3884SOL     OW23287   3.867   2.475  16.153 -0.1768 -0.0555 -0.0036
 3884SOL    HW123288   3.818   2.534  16.096  0.5522 -0.4014 -0.9937
 3884SOL    HW223289   3.854   2.512  16.240 -0.9549 -1.8678  0.6624
 3885SOL     OW23290   1.955   3.231   7.224 -0.1587  0.1311 -0.0300
 3885SOL    HW123291   2.049   3.222   7.210 -0.3500 -0.0875 -1.2047
 3885SOL    HW223292   1.941   3.319   7.187  0.2844 -0.6661 -2.1202
 3886SOL     OW23293   1.894   3.539   5.573 -0.1743 -0.3924  1.0783
 3886SOL    HW123294   1.825   3.558   5.637 -0.5721 -2.6443  1.3017
 3886SOL    HW223295   1.967   3.594   5.602  1.0538 -0.2339 -2.3972
 3887SOL     OW23296   4.058   2.382   8.391 -0.0883  0.5724  0.1270
 3887SOL    HW123297   4.044   2.289   8.410  2.9425  0.5712  2.4541
 3887SOL    HW223298   4.045   2.436   8.470  2.6022 -1.1084  1.7133
 3888SOL     OW23299   4.348   3.316   0.648 -0.9621 -0.1320  0.1147
 3888SOL    HW123300   4.318   3.279   0.731  0.2944 -1.3060  0.0304
 3888SOL    HW223301   4.424   3.370   0.670 -0.6627 -0.6306  0.2934
 3889SOL     OW23302   0.991   2.394   4.869  0.2028 -0.1139 -0.2932
 3889SOL    HW123303   0.945   2.340   4.805 -1.3233 -2.4494  2.7616
 3889SOL    HW223304   1.050   2.448   4.816 -0.4062  0.6842 -0.1604
 3890SOL     OW23305   1.833   2.854   1.704  0.3512  0.0069 -0.4713
 3890SOL    HW123306   1.855   2.945   1.723  1.0537 -0.4809  1.0439
 3890SOL    HW223307   1.766   2.878   1.641 -0.8711 -0.0064  0.8161
 3891SOL     OW23308   2.751   3.952  16.759  0.1705  0.0344 -0.0608
 3891SOL    HW123309   2.679   3.993  16.712  0.5948  0.8963  0.0467
 3891SOL    HW223310   2.828   3.952  16.702 -0.1304 -1.5507 -0.4790
 3892SOL     OW23311   3.047   3.347  16.498  0.1139  0.3959 -0.0381
 3892SOL    HW123312   3.088   3.355  16.412  1.6117 -1.5557  0.5029
 3892SOL    HW223313   3.126   3.332  16.550 -1.2072 -0.2382  1.7909
 3893SOL     OW23314   3.918   1.449  16.907 -0.1735  0.0390  0.0201
 3893SOL    HW123315   3.893   1.367  16.865  5.1172 -0.4124 -2.2677
 3893SOL    HW223316   3.992   1.470  16.851 -1.5377  1.2049 -1.3356
 3894SOL     OW23317   2.775   3.783   3.408 -0.5089  0.5687  0.3096
 3894SOL    HW123318   2.754   3.799   3.316 -0.0703 -0.2396  0.0614
 3894SOL    HW223319   2.833   3.708   3.392  0.4658  1.3799  0.0548
 3895SOL     OW23320   1.685   1.327  16.769 -0.1103 -1.1670 -0.1883
 3895SOL    HW123321   1.718   1.397  16.713 -1.9850  1.1310  1.5587
 3895SOL    HW223322   1.618   1.381  16.812  1.0038 -0.0289  0.1280
 3896SOL     OW23323   1.377   3.510   0.077 -0.5276  0.3116  0.0902
 3896SOL    HW123324   1.345   3.422   0.057  0.0575  0.0125  0.4598
 3896SOL    HW223325   1.465   3.513   0.038 -0.3546  1.7616  0.5852
 3897SOL     OW23326   4.017   0.254   6.367 -0.1971 -0.2883  0.1374
 3897SOL    HW123327   3.993   0.331   6.315  0.0210  0.4111  1.0758
 3897SOL    HW223328   4.060   0.296   6.441 -0.0113  0.7015 -0.5370
 3898SOL     OW23329   1.047   0.800   0.278 -0.3541  0.0973 -0.0638
 3898SOL    HW123330   0.988   0.762   0.343 -0.8995  2.7374  1.0006
 3898SOL    HW223331   1.016   0.749   0.203  0.1108  0.0426 -0.2160
 3899SOL     OW23332   1.556   1.953  10.573 -0.3114  0.7514  0.0146
 3899SOL    HW123333   1.514   2.030  10.535  0.8847  0.2926 -2.2807
 3899SOL    HW223334   1.480   1.899  10.592  0.7329 -0.5890  0.3781
 3900SOL     OW23335   4.575   2.121   5.306 -0.4568  0.4289  0.2996
 3900SOL    HW123336   4.639   2.153   5.370  0.1661  0.5552 -0.3906
 3900SOL    HW223337   4.516   2.087   5.374 -0.6561 -1.2185 -0.7066
 3901SOL     OW23338   4.007   3.142   6.452 -0.1564  0.4446 -0.4006
 3901SOL    HW123339   4.071   3.213   6.448  0.6448 -0.4091 -2.6840
 3901SOL    HW223340   4.051   3.085   6.516  0.2422  1.7609  0.4997
 3902SOL     OW23341   3.829   3.244  16.396 -0.2445 -0.3615  0.0053
 3902SOL    HW123342   3.831   3.153  16.368 -2.2120 -1.3210  2.9601
 3902SOL    HW223343   3.915   3.259  16.438  0.7656  0.6340 -2.4477
 3903SOL     OW23344   3.700   4.361   2.552 -0.0970  0.2142  0.4755
 3903SOL    HW123345   3.695   4.265   2.554 -0.9673  0.2229 -2.1427
 3903SOL    HW223346   3.604   4.362   2.553 -0.0751  2.7657 -1.6301
 3904SOL     OW23347   2.525   0.154   7.173 -0.1600 -0.6286  0.6655
 3904SOL    HW123348   2.497   0.245   7.166  1.2920 -0.1069  1.5708
 3904SOL    HW223349   2.545   0.146   7.080  0.7423  0.3692  0.7779
 3905SOL     OW23350   3.139   2.747  14.846  0.1833 -0.5320 -0.3035
 3905SOL    HW123351   3.227   2.783  14.854  0.0581 -0.7516  2.1087
 3905SOL    HW223352   3.152   2.673  14.788 -1.6060  0.1186 -1.5555
 3906SOL     OW23353   3.868   0.352   3.265  0.8793 -0.1710  0.0386
 3906SOL    HW123354   3.910   0.416   3.208 -0.3029  2.0155  1.6050
 3906SOL    HW223355   3.930   0.283   3.242  0.1888 -1.0294  0.7739
 3907SOL     OW23356   4.187   1.063   3.734  0.2167 -0.6634 -0.7388
 3907SOL    HW123357   4.252   1.034   3.671  2.6817 -1.6468  2.2492
 3907SOL    HW223358   4.113   1.006   3.712 -0.5878  0.5830 -1.2594
 3908SOL     OW23359   3.843   4.469  13.845  0.3093 -0.1074  0.1824
 3908SOL    HW123360   3.901   4.511  13.782  0.6256 -0.7585  0.0332
 3908SOL    HW223361   3.803   4.406  13.785 -0.0276  0.9473 -0.6955
 3909SOL     OW23362   2.363   1.848   5.755 -0.2855  0.0540 -0.3974
 3909SOL    HW123363   2.357   1.830   5.849 -1.9120 -1.5293 -0.8078
 3909SOL    HW223364   2.282   1.802   5.733  0.8543 -2.2750  0.2042
 3910SOL     OW23365   3.574   2.154   9.543 -0.7352 -0.1875  0.2267
 3910SOL    HW123366   3.482   2.182   9.547 -0.2652  1.5455 -0.9321
 3910SOL    HW223367   3.594   2.164   9.450 -0.4412  0.0925  0.3214
 3911SOL     OW23368   2.607   0.079  14.817  0.4331 -0.1767 -0.0180
 3911SOL    HW123369   2.626   0.043  14.904  0.5306 -1.4080 -0.5567
 3911SOL    HW223370   2.663   0.019  14.768 -0.2568 -0.7794 -0.0687
 3912SOL     OW23371   3.198   0.095  17.744 -0.1496  0.1061  0.5490
 3912SOL    HW123372   3.117   0.111   0.039 -0.8535  1.0766 -0.9541
 3912SOL    HW223373   3.260   0.060   0.054 -0.0470 -0.1925  0.2806
 3913SOL     OW23374   1.819   0.624   3.368  0.1676 -0.1053  0.1723
 3913SOL    HW123375   1.823   0.619   3.464  2.3885 -0.1930  0.0730
 3913SOL    HW223376   1.749   0.563   3.345 -0.0656  0.5131 -0.7525
 3914SOL     OW23377   0.588   0.730   5.174  0.4701 -0.2670  0.0902
 3914SOL    HW123378   0.670   0.700   5.212  0.5166 -1.1052 -0.6615
 3914SOL    HW223379   0.533   0.653   5.190 -1.7886  1.4146  0.4639
 3915SOL     OW23380   2.113   3.887  10.450 -0.4521  0.1244  0.0997
 3915SOL    HW123381   2.149   3.822  10.390 -1.1529  0.2078 -0.4037
 3915SOL    HW223382   2.163   3.875  10.531 -2.0758 -0.8013  0.9637
 3916SOL     OW23383   0.205   0.806  15.979 -0.1968 -0.4106 -0.0598
 3916SOL    HW123384   0.266   0.857  16.033  0.2420 -1.8476  0.8006
 3916SOL    HW223385   0.224   0.849  15.895 -2.8399  0.3423 -0.2746
 3917SOL     OW23386   0.434   3.506   7.577  0.1807  0.0947  0.3841
 3917SOL    HW123387   0.366   3.467   7.521  2.6846 -0.8851 -1.9466
 3917SOL    HW223388   0.511   3.508   7.521  0.2479  0.4089  0.4886
 3918SOL     OW23389   0.021   2.834   9.445  0.2196 -0.5599 -0.2731
 3918SOL    HW123390   4.704   2.762   9.476  0.9228 -1.9296 -2.1833
 3918SOL    HW223391   4.709   2.908   9.412  0.2572 -1.0105 -1.3205
 3919SOL     OW23392   3.259   4.506   9.887  0.2269  0.2570 -0.5850
 3919SOL    HW123393   3.319   4.577   9.905  2.1269 -0.7029 -3.0873
 3919SOL    HW223394   3.305   4.454   9.821 -2.1545  0.2244 -2.2465
 3920SOL     OW23395   2.241   2.006   4.542  0.0449 -0.4048  0.7624
 3920SOL    HW123396   2.288   1.958   4.473 -1.0016 -0.0112 -0.2161
 3920SOL    HW223397   2.224   1.936   4.606 -4.3276  0.5540  0.6431
 3921SOL     OW23398   2.391   1.088  11.383  0.1335  0.3894 -0.2544
 3921SOL    HW123399   2.391   1.174  11.341  2.6172  0.4073 -0.2195
 3921SOL    HW223400   2.463   1.105  11.445  0.0239  0.3425 -0.1131
 3922SOL     OW23401   2.873   1.617   6.645  0.5723  0.0423  0.2577
 3922SOL    HW123402   2.862   1.628   6.551 -0.1401 -1.3288  0.1823
 3922SOL    HW223403   2.923   1.697   6.665  1.4723 -0.6017  0.5709
 3923SOL     OW23404   0.868   2.223   9.518 -0.0709  0.2290  0.0237
 3923SOL    HW123405   0.906   2.139   9.495 -2.0647 -0.5333 -0.4450
 3923SOL    HW223406   0.832   2.203   9.605 -0.5743  2.6655  0.3911
 3924SOL     OW23407   4.160   3.841  17.292 -0.0179  0.1004  0.1761
 3924SOL    HW123408   4.253   3.832  17.314  0.4527 -0.0865 -1.9092
 3924SOL    HW223409   4.152   3.935  17.272  2.3495  0.8291  2.6149
 3925SOL     OW23410   1.128   3.869  16.053 -0.0001  0.4230 -0.1299
 3925SOL    HW123411   1.112   3.960  16.079  0.7904 -0.1902  2.5040
 3925SOL    HW223412   1.152   3.868  15.960  0.0942  1.2637 -0.1201
 3926SOL     OW23413   0.044   3.193  12.496 -0.5853 -0.2495 -0.1509
 3926SOL    HW123414   0.108   3.148  12.441  0.1921  0.4780  0.1568
 3926SOL    HW223415   0.102   3.226  12.565 -0.4949  2.8409 -1.6798
 3927SOL     OW23416   0.467   0.477   5.201  0.5404 -0.0020 -0.6913
 3927SOL    HW123417   0.463   0.473   5.106 -0.8192  1.6220 -0.6921
 3927SOL    HW223418   0.489   0.385   5.213 -3.4611 -0.7038  1.2511
 3928SOL     OW23419   2.704   3.508   7.135  0.3826 -0.8302 -0.3417
 3928SOL    HW123420   2.663   3.488   7.051  1.2262 -1.6679 -0.5467
 3928SOL    HW223421   2.796   3.487   7.121  0.7709  1.2628 -0.8759
 3929SOL     OW23422   3.082   0.937   9.443  0.3668  0.3287 -0.1385
 3929SOL    HW123423   3.045   0.920   9.529 -2.5546  1.8606 -1.1055
 3929SOL    HW223424   3.091   1.032   9.449 -0.4906  0.3920  0.1941
 3930SOL     OW23425   3.556   3.392   4.809  0.3501 -0.0019  0.5423
 3930SOL    HW123426   3.495   3.451   4.763 -1.2158 -2.6654 -0.8153
 3930SOL    HW223427   3.523   3.378   4.898 -0.8837 -1.4456 -0.1332
 3931SOL     OW23428   3.260   1.829  14.973 -0.4851 -0.0454  0.2284
 3931SOL    HW123429   3.303   1.898  14.921  1.2543 -0.8289  0.6224
 3931SOL    HW223430   3.184   1.885  14.988  0.0364  1.4562 -2.7427
 3932SOL     OW23431   2.819   0.629   4.740  0.1556  0.2743  0.1362
 3932SOL    HW123432   2.813   0.721   4.711 -0.8285  0.0509 -0.3597
 3932SOL    HW223433   2.803   0.647   4.832  0.8775 -0.3097  0.3787
 3933SOL     OW23434   1.954   1.113   8.797  0.6194 -0.1842 -0.0479
 3933SOL    HW123435   1.984   1.118   8.706  1.5907 -0.7273  0.2355
 3933SOL    HW223436   1.940   1.208   8.806  0.5362 -0.1693 -0.3423
 3934SOL     OW23437   1.664   0.123  15.864 -0.0467 -0.2957 -0.6922
 3934SOL    HW123438   1.650   0.070  15.943 -0.2816 -0.3314 -0.7594
 3934SOL    HW223439   1.734   0.068  15.829  0.0884 -1.0475  0.7410
 3935SOL     OW23440   3.216   1.595   7.644  0.4753  0.2346 -0.1591
 3935SOL    HW123441   3.190   1.506   7.620 -3.4813  1.4121 -0.1187
 3935SOL    HW223442   3.160   1.614   7.719  0.5163  1.8460 -0.5396
 3936SOL     OW23443   2.853   0.542  16.494  0.5147 -0.2194 -0.3790
 3936SOL    HW123444   2.760   0.524  16.485  0.3315 -0.4730  1.8637
 3936SOL    HW223445   2.870   0.583  16.409 -1.0840  2.2930  0.5200
 3937SOL     OW23446   0.898   3.705  16.080  0.2278  0.7252  0.0110
 3937SOL    HW123447   0.973   3.758  16.051 -0.7997  1.9225 -0.4974
 3937SOL    HW223448   0.832   3.737  16.019 -1.6816  1.1086  2.2616
 3938SOL     OW23449   4.674   2.276   1.150 -0.0658 -0.2555  0.0541
 3938SOL    HW123450   4.699   2.222   1.075 -0.0519 -0.4273  0.1821
 3938SOL    HW223451   4.640   2.205   1.205  0.4530 -0.6486 -0.1343
 3939SOL     OW23452   1.549   0.601   2.542  0.4725  0.1256 -0.2501
 3939SOL    HW123453   1.523   0.572   2.629  3.5839  0.1136  0.6574
 3939SOL    HW223454   1.488   0.673   2.525 -0.3858 -0.3882  0.6099
 3940SOL     OW23455   1.621   0.376   0.203 -0.4074  0.0525 -0.5395
 3940SOL    HW123456   1.677   0.299   0.193 -1.1734 -0.4024 -1.4074
 3940SOL    HW223457   1.538   0.349   0.163  1.0622 -1.3316 -2.7117
 3941SOL     OW23458   1.824   2.952   6.583  0.6087 -0.0378 -0.4634
 3941SOL    HW123459   1.838   2.892   6.510  1.0722 -0.3246 -0.1443
 3941SOL    HW223460   1.861   2.903   6.657  0.1850 -0.2152 -0.3667
 3942SOL     OW23461   0.721   4.242   5.671  0.5143 -0.2350  0.2460
 3942SOL    HW123462   0.802   4.214   5.715  0.5768 -0.5995 -0.1038
 3942SOL    HW223463   0.662   4.166   5.672  0.1434  0.0291 -1.8036
 3943SOL     OW23464   2.787   2.247   7.158  0.8971  0.0003 -0.1793
 3943SOL    HW123465   2.824   2.160   7.174 -0.4592 -0.5916 -0.2609
 3943SOL    HW223466   2.768   2.283   7.244 -2.5909 -1.7461 -0.2232
 3944SOL     OW23467   2.033   3.095   0.113 -0.0882 -0.4059  0.2891
 3944SOL    HW123468   2.022   3.029   0.045  3.1133  0.3582 -0.9376
 3944SOL    HW223469   1.940   3.118   0.121 -0.4976 -2.0292  0.0519
 3945SOL     OW23470   2.461   1.234   0.597  0.3012  0.1157  0.9082
 3945SOL    HW123471   2.366   1.229   0.607  0.0948 -1.7301 -1.9478
 3945SOL    HW223472   2.484   1.147   0.629 -1.3319 -0.3116  0.8946
 3946SOL     OW23473   1.689   4.079   7.801 -0.5656  0.8743  0.2107
 3946SOL    HW123474   1.643   3.996   7.788  0.4674  0.5060 -1.0247
 3946SOL    HW223475   1.691   4.118   7.714  2.2541  1.5052  0.5750
 3947SOL     OW23476   0.789   1.343   2.818  0.0643  0.4452 -0.3095
 3947SOL    HW123477   0.880   1.359   2.844  0.5204 -1.4097 -0.7387
 3947SOL    HW223478   0.780   1.257   2.860  0.1550  0.4972 -0.1827
 3948SOL     OW23479   1.737   3.995  13.170 -0.5774 -0.4594 -0.1720
 3948SOL    HW123480   1.718   4.088  13.181 -0.2551 -0.5204  0.9703
 3948SOL    HW223481   1.727   3.950  13.254  0.0867 -1.8742 -0.8607
 3949SOL     OW23482   3.516   3.666   2.949 -0.3627  0.2578  0.2807
 3949SOL    HW123483   3.561   3.748   2.931 -0.5560  0.8139  2.3895
 3949SOL    HW223484   3.529   3.662   3.044  0.1194 -1.3126  0.1470
 3950SOL     OW23485   3.077   0.285   3.254 -0.0100  0.2774  0.1369
 3950SOL    HW123486   3.172   0.283   3.261 -0.0173 -1.0376  0.0366
 3950SOL    HW223487   3.062   0.378   3.238  0.7668 -0.2051 -3.3895
 3951SOL     OW23488   3.623   1.550  15.234 -0.1851  0.4396 -0.1591
 3951SOL    HW123489   3.534   1.550  15.270 -0.2167 -2.0615 -0.2805
 3951SOL    HW223490   3.675   1.589  15.304 -2.0224 -0.1845  1.5499
 3952SOL     OW23491   3.244   3.005   5.287  0.5172 -0.2340  0.0464
 3952SOL    HW123492   3.149   3.019   5.287  0.8128  1.7543  1.9724
 3952SOL    HW223493   3.270   3.064   5.357  2.9904 -1.1546 -0.1022
 3953SOL     OW23494   1.622   0.913   2.825  0.1715 -0.4765  0.0536
 3953SOL    HW123495   1.700   0.906   2.880  0.2209 -1.5543 -0.1514
 3953SOL    HW223496   1.582   0.998   2.844  1.3845  0.0080  0.4598
 3954SOL     OW23497   2.615   3.545   5.650  0.1222  0.4394 -0.1451
 3954SOL    HW123498   2.604   3.470   5.592 -1.2673  0.2580  0.3393
 3954SOL    HW223499   2.525   3.546   5.684 -0.7372 -1.6629 -2.3724
 3955SOL     OW23500   0.466   2.136   3.581 -0.5001  0.3384 -0.5794
 3955SOL    HW123501   0.384   2.111   3.539  0.3295 -0.3442 -1.7868
 3955SOL    HW223502   0.523   2.111   3.509  0.9208  0.1403  0.6078
 3956SOL     OW23503   0.311   3.417   3.367 -0.1573  0.2032 -0.1586
 3956SOL    HW123504   0.269   3.466   3.437 -0.8255  1.8495 -1.7260
 3956SOL    HW223505   0.401   3.451   3.371  0.8038 -2.0918 -2.0177
 3957SOL     OW23506   3.651   2.650  17.394 -0.1945  0.3988  0.8157
 3957SOL    HW123507   3.590   2.631  17.466 -0.8007  1.7072  0.6606
 3957SOL    HW223508   3.686   2.729  17.436  2.5005 -1.3839  1.9029
 3958SOL     OW23509   1.380   4.293  15.359  0.2542  0.0805  0.3075
 3958SOL    HW123510   1.457   4.240  15.381  0.0006  0.6214  2.4815
 3958SOL    HW223511   1.337   4.273  15.442 -0.6288 -0.1660 -0.2138
 3959SOL     OW23512   3.157   2.681   5.444 -0.1450 -0.8111 -0.4621
 3959SOL    HW123513   3.140   2.676   5.350 -1.9547  1.7625 -0.2715
 3959SOL    HW223514   3.116   2.765   5.464 -1.6384 -2.3708  3.0737
 3960SOL     OW23515   1.661   0.205   7.454 -0.0608 -0.5700 -0.1878
 3960SOL    HW123516   1.739   0.205   7.510 -0.7127 -2.4969  0.6902
 3960SOL    HW223517   1.704   0.197   7.369 -0.0134  1.6392 -0.3804
 3961SOL     OW23518   0.861   3.446   2.817  0.3893 -0.8461  0.4501
 3961SOL    HW123519   0.803   3.405   2.881 -0.7952  1.7556  1.0712
 3961SOL    HW223520   0.796   3.515   2.798  0.1580 -1.2521 -0.2628
 3962SOL     OW23521   4.098   1.519  15.257  0.0369  0.1133 -0.0327
 3962SOL    HW123522   4.160   1.456  15.220 -1.0616 -0.0157 -1.6478
 3962SOL    HW223523   4.154   1.575  15.312  0.3646 -0.4514  0.2097
 3963SOL     OW23524   2.284   1.381   6.895 -0.1640 -0.2389  0.3513
 3963SOL    HW123525   2.203   1.432   6.891  0.1321  0.1872 -0.2375
 3963SOL    HW223526   2.253   1.321   6.964 -0.3955 -0.5524 -0.0281
 3964SOL     OW23527   4.344   0.068   1.776 -0.2416 -0.3836 -0.1834
 3964SOL    HW123528   4.395   0.150   1.777 -0.7278 -0.0776 -0.2855
 3964SOL    HW223529   4.392   0.017   1.710 -3.2713 -0.5534 -2.2396
 3965SOL     OW23530   2.575   3.079   2.303  0.2378  0.0634 -0.4733
 3965SOL    HW123531   2.628   3.003   2.277  0.0653  0.5085 -2.0769
 3965SOL    HW223532   2.563   3.116   2.216  2.1780 -0.4154 -0.9469
 3966SOL     OW23533   2.025   1.565   3.155 -0.0091 -0.0642  0.2811
 3966SOL    HW123534   1.954   1.626   3.179 -1.2770 -1.9294  1.2466
 3966SOL    HW223535   1.978   1.503   3.099 -0.9391  1.3638 -0.5385
 3967SOL     OW23536   4.480   0.079   8.109  0.2905 -0.4811 -0.5706
 3967SOL    HW123537   4.451   4.731   8.136 -0.1980 -0.9167 -2.4938
 3967SOL    HW223538   4.535   0.093   8.186  1.8652 -2.3572 -1.3602
 3968SOL     OW23539   0.256   3.300  10.319 -0.0121  0.7340 -0.0101
 3968SOL    HW123540   0.204   3.292  10.399 -1.5552  0.7006 -1.0199
 3968SOL    HW223541   0.252   3.394  10.306  0.0133  0.9723  1.6406
 3969SOL     OW23542   1.048   4.345  12.347 -0.1039  0.1885  0.5788
 3969SOL    HW123543   0.971   4.401  12.349 -0.2778 -0.0412  0.1533
 3969SOL    HW223544   1.116   4.413  12.343 -1.2547  1.2525 -0.5757
 3970SOL     OW23545   3.804   0.730   3.304 -0.6666  0.4086 -0.0569
 3970SOL    HW123546   3.813   0.669   3.377  0.2104  1.9763  1.1348
 3970SOL    HW223547   3.737   0.681   3.256  0.8400 -1.2142 -0.5306
 3971SOL     OW23548   0.398   3.062  15.063 -0.4564  0.8079 -0.0150
 3971SOL    HW123549   0.436   3.105  15.140 -0.0680 -1.0101  0.7946
 3971SOL    HW223550   0.399   3.138  15.004  1.9681  0.1165 -0.8911
 3972SOL     OW23551   1.461   2.636  16.497 -0.2033 -0.2759 -0.2077
 3972SOL    HW123552   1.468   2.705  16.564  0.5884  0.6461 -1.2295
 3972SOL    HW223553   1.381   2.587  16.517  0.3894 -0.8937  0.6520
 3973SOL     OW23554   0.745   1.179  11.366 -0.1081 -0.5680  0.2144
 3973SOL    HW123555   0.724   1.271  11.383  1.3052  0.4160 -3.4140
 3973SOL    HW223556   0.670   1.163  11.309 -0.3271 -0.0412  0.3457
 3974SOL     OW23557   3.678   0.829   8.012  0.2031 -0.5185  0.5703
 3974SOL    HW123558   3.591   0.853   8.044  0.6348  1.0905  0.5171
 3974SOL    HW223559   3.671   0.841   7.918  1.0746  2.2599  0.8710
 3975SOL     OW23560   1.914   0.988   1.446 -0.3526 -0.1380  0.0311
 3975SOL    HW123561   2.000   1.028   1.436 -0.9523  1.2818  0.4986
 3975SOL    HW223562   1.920   0.914   1.386  0.4542  0.2372 -0.3410
 3976SOL     OW23563   2.951   4.666   4.027  0.1501 -0.0944  0.5516
 3976SOL    HW123564   3.009   4.612   4.081  2.1433 -0.3327 -1.8244
 3976SOL    HW223565   2.883   4.675   4.094  1.0273 -0.0858  1.4411
 3977SOL     OW23566   4.112   1.164   0.213  0.0160 -0.1149 -0.4661
 3977SOL    HW123567   4.064   1.103   0.157  0.8128  0.1271 -1.3927
 3977SOL    HW223568   4.199   1.166   0.173  0.3557  0.3032  0.2853
 3978SOL     OW23569   1.275   3.405   2.184  0.0701  0.1115  0.5740
 3978SOL    HW123570   1.328   3.344   2.235 -1.2356 -0.0357  1.7497
 3978SOL    HW223571   1.334   3.480   2.176 -0.2381  0.7261  3.8021
 3979SOL     OW23572   3.902   0.622   3.917  0.6475 -0.3451  0.6523
 3979SOL    HW123573   3.818   0.583   3.892  0.6153  0.8381 -1.0874
 3979SOL    HW223574   3.901   0.626   4.013  1.3955 -0.1322  0.6580
 3980SOL     OW23575   3.398   3.936   4.205 -0.0607  0.2070 -0.5328
 3980SOL    HW123576   3.490   3.953   4.185 -0.1869  2.4579  0.8698
 3980SOL    HW223577   3.386   4.007   4.268 -0.0164 -2.2721  2.2405
 3981SOL     OW23578   0.920   2.330   0.942 -0.5482 -0.0739  0.4223
 3981SOL    HW123579   0.928   2.392   1.015  0.0477 -1.0280  1.1579
 3981SOL    HW223580   0.833   2.358   0.913 -1.4244 -1.5037  1.7111
 3982SOL     OW23581   0.735   3.839   2.299 -0.0259 -0.5887  0.1653
 3982SOL    HW123582   0.772   3.784   2.229  0.4028 -1.0253  0.7313
 3982SOL    HW223583   0.674   3.786   2.350  1.1416 -2.4452 -0.3260
 3983SOL     OW23584   0.120   2.551   0.593 -0.3166 -0.2599  0.3984
 3983SOL    HW123585   0.062   2.627   0.602  0.8368  0.6188  0.3819
 3983SOL    HW223586   0.194   2.579   0.539 -1.0849 -1.6283 -1.3914
 3984SOL     OW23587   3.873   3.011   3.850  0.4087  0.1026 -0.0034
 3984SOL    HW123588   3.812   3.012   3.776 -1.6825 -1.0639  1.7006
 3984SOL    HW223589   3.821   3.025   3.930 -1.9560 -0.9977 -1.3508
 3985SOL     OW23590   4.679   2.399   2.115 -0.0121 -0.2291  0.3724
 3985SOL    HW123591   4.613   2.461   2.084  1.3297  1.0956  0.1773
 3985SOL    HW223592   4.722   2.379   2.032 -0.7733  0.5388 -0.2078
 3986SOL     OW23593   2.042   1.588   8.758 -0.1542 -0.1918  0.5154
 3986SOL    HW123594   2.043   1.671   8.711 -0.6781 -0.3727  0.1823
 3986SOL    HW223595   2.047   1.618   8.849 -0.4801 -1.6186  1.0127
 3987SOL     OW23596   4.717   0.976  17.386 -0.0099 -0.2665  0.1571
 3987SOL    HW123597   0.014   0.997  17.472 -0.0366 -0.7261  0.2810
 3987SOL    HW223598   4.696   1.065  17.358  1.0578 -0.6590 -1.9425
 3988SOL     OW23599   3.302   1.489   6.242 -0.3222  0.7041 -0.1841
 3988SOL    HW123600   3.397   1.492   6.249 -0.2827  0.2452 -0.5066
 3988SOL    HW223601   3.291   1.402   6.202 -0.2982  0.9222 -0.6614
 3989SOL     OW23602   4.597   4.169   8.733 -0.8431  0.1979  0.5479
 3989SOL    HW123603   4.667   4.109   8.706 -0.4206 -0.0907  2.2444
 3989SOL    HW223604   4.645   4.246   8.703  1.5330 -2.0300 -1.3320
 3990SOL     OW23605   2.625   0.140   9.262 -0.3455 -0.6560 -0.2054
 3990SOL    HW123606   2.559   0.192   9.309  0.3677 -0.4562  0.5755
 3990SOL    HW223607   2.686   0.115   9.331  0.3364 -2.6057 -1.5006
 3991SOL     OW23608   1.030   3.747   7.314  0.4092  0.1639 -0.2327
 3991SOL    HW123609   0.942   3.766   7.345  0.0711 -2.1353  0.1790
 3991SOL    HW223610   1.018   3.661   7.273 -1.8377  1.1192 -1.5654
 3992SOL     OW23611   1.130   3.096   4.604 -0.2902 -0.4751  0.1617
 3992SOL    HW123612   1.070   3.171   4.596  0.6655  0.2183 -0.4144
 3992SOL    HW223613   1.205   3.123   4.552 -0.4109 -3.7138 -1.6640
 3993SOL     OW23614   3.377   3.951   4.727  0.2849  0.5012 -0.0072
 3993SOL    HW123615   3.406   3.896   4.654  0.1434  0.3663  0.0393
 3993SOL    HW223616   3.443   4.021   4.723  2.2009 -1.3211 -0.2929
 3994SOL     OW23617   4.094   2.373   4.324  0.5642  0.3846 -0.6560
 3994SOL    HW123618   4.008   2.349   4.358  0.6552  0.3574 -0.4438
 3994SOL    HW223619   4.145   2.374   4.405 -0.8735  1.6625  0.2525
 3995SOL     OW23620   4.021   2.516  11.118  0.0807 -0.6722 -0.4078
 3995SOL    HW123621   4.054   2.605  11.108  0.8927 -0.9587 -0.2843
 3995SOL    HW223622   4.102   2.468  11.098 -0.0618 -1.2075  0.2983
 3996SOL     OW23623   2.684   1.607   1.159  0.5819  0.2025  0.3679
 3996SOL    HW123624   2.663   1.586   1.068  0.2160  3.4485 -0.3307
 3996SOL    HW223625   2.688   1.517   1.189  1.1302  0.5873  1.4453
 3997SOL     OW23626   3.408   2.157   5.620  0.7258 -0.1935 -0.0236
 3997SOL    HW123627   3.427   2.189   5.708  0.3332  0.3756 -0.1398
 3997SOL    HW223628   3.389   2.236   5.570 -2.9611 -1.6832 -0.9833
 3998SOL     OW23629   4.371   1.007   3.562  0.2296  0.3015  0.1937
 3998SOL    HW123630   4.464   1.026   3.571  0.3212 -0.5758  1.1148
 3998SOL    HW223631   4.342   1.079   3.506  3.1068  0.0280 -1.6145
 3999SOL     OW23632   4.086   1.254  15.112 -0.1312  0.2202  0.1581
 3999SOL    HW123633   4.088   1.238  15.018  1.1701  0.6690  0.1083
 3999SOL    HW223634   3.995   1.283  15.117 -0.0181  0.7765 -1.0851
 4000SOL     OW23635   2.986   3.481  14.381 -0.6282 -0.4675 -0.2853
 4000SOL    HW123636   3.012   3.429  14.305  0.1358 -3.5471  2.0656
 4000SOL    HW223637   3.074   3.504  14.413 -1.2898  1.1190  0.3871
 4001SOL     OW23638   1.871   3.996   6.683  0.1746 -0.0957  0.1667
 4001SOL    HW123639   1.834   4.082   6.661  2.5989  0.8912 -0.0940
 4001SOL    HW223640   1.957   3.998   6.642  0.7090  0.3443  1.3190
 4002SOL     OW23641   4.118   2.103   8.442 -0.4709  0.1659 -0.1617
 4002SOL    HW123642   4.101   2.063   8.357  0.0476 -0.0004 -0.1854
 4002SOL    HW223643   4.212   2.115   8.432 -0.1923 -1.8021 -0.0227
 4003SOL     OW23644   1.652   3.958   8.287  0.2433 -0.1327 -0.0826
 4003SOL    HW123645   1.745   3.979   8.287  0.1648  0.1834 -1.8577
 4003SOL    HW223646   1.638   3.962   8.382 -0.0901  0.9258 -0.1812
 4004SOL     OW23647   2.070   2.016   0.365 -0.5931 -0.6963 -0.1532
 4004SOL    HW123648   2.123   2.006   0.444  0.1740 -0.8436 -0.6884
 4004SOL    HW223649   2.028   1.931   0.371  0.2497 -1.0105  1.2302
 4005SOL     OW23650   1.205   1.668   8.031  0.3137 -0.5476  0.0553
 4005SOL    HW123651   1.114   1.697   8.022  0.9648  1.9831  1.6860
 4005SOL    HW223652   1.204   1.597   8.095 -0.8908 -0.2624  0.3654
 4006SOL     OW23653   3.916   4.571  16.863  0.2588 -0.2469 -0.3267
 4006SOL    HW123654   3.841   4.595  16.918 -0.6321 -0.0167 -1.6435
 4006SOL    HW223655   3.902   4.617  16.780  0.4382 -1.8913 -1.2773
 4007SOL     OW23656   0.742   1.909  12.848  0.1266  0.3005 -0.1692
 4007SOL    HW123657   0.667   1.873  12.801  0.5935 -0.7840 -0.0936
 4007SOL    HW223658   0.698   1.918  12.933 -0.4060  2.2825 -0.6668
 4008SOL     OW23659   3.423   1.966  10.921  0.4755 -0.8241  0.3957
 4008SOL    HW123660   3.352   2.029  10.934  1.8708  0.6439  0.9593
 4008SOL    HW223661   3.491   2.032  10.933  0.2227 -0.4073 -0.4695
 4009SOL     OW23662   2.609   4.202   6.693 -0.3227 -0.5166 -0.6023
 4009SOL    HW123663   2.656   4.219   6.774 -1.5365 -1.5155  0.2950
 4009SOL    HW223664   2.537   4.262   6.716  1.2800  0.1150  2.7067
 4010SOL     OW23665   1.713   1.726  12.234 -0.1174  0.1317  0.2210
 4010SOL    HW123666   1.677   1.723  12.322  0.9962  0.3411  0.6932
 4010SOL    HW223667   1.638   1.759  12.185 -0.9378 -1.4682  0.3819
 4011SOL     OW23668   3.873   1.769  12.901 -0.0748  0.3791 -0.0531
 4011SOL    HW123669   3.947   1.830  12.896 -0.5374  0.8585 -1.0828
 4011SOL    HW223670   3.854   1.778  12.994  0.8249 -0.5444  0.2274
 4012SOL     OW23671   1.469   2.083   8.713  0.5252 -0.1290 -0.1502
 4012SOL    HW123672   1.509   1.997   8.701  0.0936  0.0899 -3.1625
 4012SOL    HW223673   1.407   2.068   8.784  1.5030 -0.3426  0.6481
 4013SOL     OW23674   3.687   3.517  15.443 -0.4690 -0.1784  0.6116
 4013SOL    HW123675   3.688   3.612  15.429  1.7645 -0.1962  0.7047
 4013SOL    HW223676   3.713   3.481  15.358  0.5320  1.6435  0.1496
 4014SOL     OW23677   0.425   0.032   6.859 -0.5637  0.1892 -0.2783
 4014SOL    HW123678   0.516   0.034   6.889 -0.0151  2.0919 -2.1064
 4014SOL    HW223679   0.427   0.001   6.769  1.8979  0.7263 -0.3895
 4015SOL     OW23680   3.203   4.377   5.515 -0.6077  0.5953 -0.2988
 4015SOL    HW123681   3.164   4.384   5.427 -0.9457 -0.6846 -0.2551
 4015SOL    HW223682   3.272   4.315   5.492 -0.1323  0.8377  0.4831
 4016SOL     OW23683   2.802   2.354  17.503 -0.0248  0.3586 -0.3770
 4016SOL    HW123684   2.777   2.263  17.516  0.5791  0.0054 -1.7304
 4016SOL    HW223685   2.801   2.359  17.408  0.8847 -2.1370 -0.5137
 4017SOL     OW23686   3.967   4.527   4.386 -0.1260  0.1199  0.3166
 4017SOL    HW123687   3.951   4.593   4.454 -3.1650 -2.1958  1.8350
 4017SOL    HW223688   3.999   4.587   4.318 -0.5103  0.6089  0.5682
 4018SOL     OW23689   3.949   2.785   7.723  0.1516  0.4443 -0.0250
 4018SOL    HW123690   4.006   2.834   7.782  0.9220 -0.3427 -0.1140
 4018SOL    HW223691   3.878   2.770   7.785  1.9686  1.4608  2.3046
 4019SOL     OW23692   0.687   1.665   7.366  0.0152  0.5994 -0.0544
 4019SOL    HW123693   0.617   1.657   7.430 -0.3063  0.7463 -0.3927
 4019SOL    HW223694   0.683   1.583   7.316 -1.8346  0.7352 -0.1076
 4020SOL     OW23695   2.380   0.491   8.871  0.0831 -0.7093  0.5467
 4020SOL    HW123696   2.379   0.439   8.790 -1.3053 -0.6959  0.5569
 4020SOL    HW223697   2.327   0.433   8.925 -1.4125  0.4935  0.3686
 4021SOL     OW23698   1.052   2.774   4.541  0.1530  0.7684 -0.0034
 4021SOL    HW123699   1.085   2.830   4.611 -0.1862  0.1766  0.6177
 4021SOL    HW223700   1.118   2.786   4.472  1.4308 -1.9702  0.7485
 4022SOL     OW23701   3.889   1.490   2.713  0.1359 -0.1792 -0.4673
 4022SOL    HW123702   3.923   1.533   2.792 -0.6032 -0.5969  0.0820
 4022SOL    HW223703   3.938   1.408   2.704  0.1495 -0.3109  0.8350
 4023SOL     OW23704   0.954   1.130   1.894  0.3495 -0.0350  0.1475
 4023SOL    HW123705   1.020   1.190   1.861 -0.1733  2.0767  2.9238
 4023SOL    HW223706   0.900   1.123   1.815  0.3348 -0.8391  0.2264
 4024SOL     OW23707   1.223   1.082   6.453 -0.3919  0.1778 -0.4934
 4024SOL    HW123708   1.147   1.034   6.485  0.0298  0.8743  1.5504
 4024SOL    HW223709   1.281   1.010   6.427  0.0337  0.2263  0.3090
 4025SOL     OW23710   3.281   1.841   4.342 -0.6222 -0.1996  0.5505
 4025SOL    HW123711   3.328   1.906   4.393  2.5415  0.0353 -2.6510
 4025SOL    HW223712   3.252   1.782   4.412 -1.0093  0.7804  1.2207
 4026SOL     OW23713   0.528   4.317   7.113 -0.0223 -0.0992 -0.2960
 4026SOL    HW123714   0.474   4.389   7.078  1.3746  1.3667  0.5467
 4026SOL    HW223715   0.582   4.378   7.164 -0.8792 -0.1280  0.6427
 4027SOL     OW23716   1.325   1.269   7.468  0.4362 -0.5286 -0.0452
 4027SOL    HW123717   1.230   1.274   7.474  0.6188 -2.2650  3.9126
 4027SOL    HW223718   1.327   1.319   7.386  1.9693  2.9382  2.1003
 4028SOL     OW23719   1.480   3.788  14.853  0.2817  0.4540 -0.2031
 4028SOL    HW123720   1.417   3.860  14.852  0.6635  0.7716 -1.9611
 4028SOL    HW223721   1.461   3.747  14.768 -0.1204 -0.2048  0.2028
 4029SOL     OW23722   4.117   4.240  12.811  0.2314  1.0305  0.1932
 4029SOL    HW123723   4.032   4.197  12.825 -0.1014  0.7785 -2.5710
 4029SOL    HW223724   4.168   4.179  12.758 -1.7370 -0.1291 -0.3624
 4030SOL     OW23725   0.949   0.640   2.058 -0.8541  0.1038 -0.5422
 4030SOL    HW123726   0.907   0.726   2.063  2.3087  1.6708 -0.8385
 4030SOL    HW223727   1.024   0.654   2.116 -2.1088  3.0479  0.3718
 4031SOL     OW23728   4.686   1.231  17.231 -0.3130  0.6181 -0.4788
 4031SOL    HW123729   4.729   1.314  17.249 -3.4290  2.7043 -2.8323
 4031SOL    HW223730   4.593   1.246  17.252 -0.6734  0.3294 -1.8591
 4032SOL     OW23731   2.749   1.265  10.019 -0.4910 -0.5969 -0.6621
 4032SOL    HW123732   2.715   1.175  10.010  1.2246 -1.2147 -0.8886
 4032SOL    HW223733   2.731   1.278  10.112  1.1831  0.8824 -0.5606
 4033SOL     OW23734   0.274   3.616   1.855 -0.4159 -0.2338  0.2811
 4033SOL    HW123735   0.243   3.625   1.765  1.3119 -1.2817 -0.4163
 4033SOL    HW223736   0.238   3.692   1.900  0.0042 -0.2059  0.5744
 4034SOL     OW23737   2.120   3.451   4.072 -0.6816 -0.4274 -0.2219
 4034SOL    HW123738   2.094   3.529   4.022  0.7711  0.2776  0.1229
 4034SOL    HW223739   2.169   3.493   4.142  0.5166 -0.9343 -0.7640
 4035SOL     OW23740   1.520   3.052   2.942  0.2107  0.0382  0.3938
 4035SOL    HW123741   1.599   3.012   2.978  1.2947  0.0403 -2.0181
 4035SOL    HW223742   1.464   2.983   2.978 -1.3394  1.0639 -0.0787
 4036SOL     OW23743   2.204   3.853   5.360  0.0255 -0.0229 -0.3922
 4036SOL    HW123744   2.194   3.779   5.300 -1.7868 -0.5580  0.5844
 4036SOL    HW223745   2.298   3.863   5.374  0.3740  0.3326 -2.9403
 4037SOL     OW23746   1.909   2.228   3.879  0.0261 -0.0044 -0.3162
 4037SOL    HW123747   1.849   2.199   3.811  0.8231 -0.4287 -0.8364
 4037SOL    HW223748   1.857   2.209   3.957  1.0864 -2.9766 -0.3349
 4038SOL     OW23749   2.491   0.161   4.441  0.3300  0.0121 -0.5082
 4038SOL    HW123750   2.492   0.066   4.432 -1.6331 -0.0545 -0.0533
 4038SOL    HW223751   2.402   0.180   4.409  0.8288 -0.1203 -2.0005
 4039SOL     OW23752   2.899   0.328   5.529 -0.5279 -0.1922  0.0117
 4039SOL    HW123753   2.902   0.414   5.571  0.3803 -0.6831  0.9688
 4039SOL    HW223754   2.985   0.321   5.488  0.7240  0.4860  2.4825
 4040SOL     OW23755   4.169   2.993  14.684  0.8189 -0.2654  0.1781
 4040SOL    HW123756   4.142   2.906  14.655  0.7368  0.6647 -2.5118
 4040SOL    HW223757   4.225   3.018  14.611  0.8810  0.2412  0.3977
 4041SOL     OW23758   4.351   1.366  15.323  0.6545  0.1254  0.0324
 4041SOL    HW123759   4.398   1.289  15.355 -1.1455 -0.8318  0.3764
 4041SOL    HW223760   4.272   1.348  15.374  1.3665  0.2304  1.1849
 4042SOL     OW23761   3.244   0.941   5.432 -0.2524  0.3071  0.4085
 4042SOL    HW123762   3.264   0.858   5.476 -0.3950 -0.0627 -0.2234
 4042SOL    HW223763   3.162   0.931   5.384  0.3548  0.1478 -0.6135
 4043SOL     OW23764   0.322   3.120   2.931 -0.4977 -0.1460  0.1212
 4043SOL    HW123765   0.338   3.049   2.994 -0.6099  0.4429  0.8106
 4043SOL    HW223766   0.250   3.165   2.976  1.5066  2.0566  1.1187
 4044SOL     OW23767   1.833   3.226  14.634 -0.4335 -0.3639 -0.1947
 4044SOL    HW123768   1.897   3.286  14.595  0.7365  0.1414  2.4656
 4044SOL    HW223769   1.765   3.282  14.670  1.1742  1.5077 -0.0699
 4045SOL     OW23770   4.534   1.211   3.273 -0.0514 -0.0331  0.6955
 4045SOL    HW123771   4.468   1.218   3.343  0.4605 -0.7560  1.2590
 4045SOL    HW223772   4.516   1.121   3.247 -2.2087  0.0909  1.7650
 4046SOL     OW23773   1.394   0.072   0.998  0.0252  0.0631 -0.1251
 4046SOL    HW123774   1.474   0.021   0.988  0.3017  0.9145 -2.2708
 4046SOL    HW223775   1.332   0.014   1.042  1.0797 -0.2620  0.9246
 4047SOL     OW23776   3.787   3.173  11.733 -0.1656  0.2035  0.4220
 4047SOL    HW123777   3.716   3.161  11.796  0.1346 -0.5456  0.6179
 4047SOL    HW223778   3.776   3.259  11.692  0.7895  1.0681  1.9793
 4048SOL     OW23779   2.823   3.530   1.036 -0.0480 -0.4879  0.0271
 4048SOL    HW123780   2.813   3.528   1.132  0.5079 -0.8372  0.0782
 4048SOL    HW223781   2.812   3.435   1.032  0.5920 -0.4975 -1.5179
 4049SOL     OW23782   3.170   4.006   7.446 -0.7506  0.0751 -0.1773
 4049SOL    HW123783   3.188   4.084   7.498 -2.4686 -0.2169  0.8643
 4049SOL    HW223784   3.084   3.979   7.479 -0.7344 -0.0115 -0.2082
 4050SOL     OW23785   2.618   0.316  16.226 -0.6279  0.2777 -0.5802
 4050SOL    HW123786   2.623   0.365  16.144 -1.7948 -0.2622 -0.9655
 4050SOL    HW223787   2.545   0.261  16.200  0.7979 -1.1353 -1.6403
 4051SOL     OW23788   0.097   0.868   8.805  0.2593  0.5048 -0.1859
 4051SOL    HW123789   0.144   0.948   8.824  0.3005  0.6225 -0.7670
 4051SOL    HW223790   0.072   0.885   8.714  0.6226  0.8988 -0.2068
 4052SOL     OW23791   3.936   3.152   0.300 -0.6707 -0.4444  0.3869
 4052SOL    HW123792   3.980   3.150   0.216  1.2399 -2.1029  1.4194
 4052SOL    HW223793   3.896   3.239   0.296  2.5756  1.1539  2.6134
 4053SOL     OW23794   3.673   3.034   3.676 -0.0207  0.3375 -0.3307
 4053SOL    HW123795   3.612   3.046   3.603  0.8891 -1.1091 -1.3266
 4053SOL    HW223796   3.675   3.125   3.706 -2.0589  0.8703 -1.7540
 4054SOL     OW23797   2.496   1.189   1.896  0.1551 -0.3370  0.6725
 4054SOL    HW123798   2.543   1.113   1.933 -2.4152 -1.1836  2.2058
 4054SOL    HW223799   2.497   1.176   1.802 -0.7590  0.9071  0.4890
 4055SOL     OW23800   1.585   0.560   5.977 -0.0438  0.1225 -0.6822
 4055SOL    HW123801   1.523   0.571   5.904 -0.3739  0.2246 -0.3835
 4055SOL    HW223802   1.673   0.560   5.937  0.6789 -2.8201  0.9478
 4056SOL     OW23803   2.930   3.008   2.340 -0.1681  0.1051 -0.5300
 4056SOL    HW123804   2.919   2.973   2.428 -0.0330 -0.2882 -0.6698
 4056SOL    HW223805   2.859   2.970   2.288 -1.4869  2.5906 -0.5956
 4057SOL     OW23806   3.369   3.093  14.984  0.0827 -0.1879  0.2332
 4057SOL    HW123807   3.418   3.060  15.060  1.1121 -1.0372 -0.8079
 4057SOL    HW223808   3.381   3.188  14.984  0.2634 -0.2067  1.3178
 4058SOL     OW23809   1.264   0.708  10.094  0.5645  0.3982  0.1893
 4058SOL    HW123810   1.301   0.628  10.056 -0.0333  1.0961 -1.9122
 4058SOL    HW223811   1.281   0.699  10.187 -0.0901  0.6912  0.3353
 4059SOL     OW23812   2.456   3.414   4.743 -0.5039  0.2316 -0.0066
 4059SOL    HW123813   2.390   3.403   4.810 -0.0616 -1.0863  0.2203
 4059SOL    HW223814   2.452   3.331   4.695  2.1357 -0.1448  0.4366
 4060SOL     OW23815   0.093   2.148   3.959 -1.0448  0.2728 -0.2210
 4060SOL    HW123816   0.043   2.226   3.935 -0.4033  0.4155 -1.1062
 4060SOL    HW223817   0.093   2.171   4.052 -2.5362 -1.5728  0.2119
 4061SOL     OW23818   3.599   2.687   7.086  0.1155 -0.1762  0.3290
 4061SOL    HW123819   3.571   2.728   7.004 -3.1328  1.1562  2.0893
 4061SOL    HW223820   3.528   2.706   7.147  0.6689 -2.9217  1.8210
 4062SOL     OW23821   0.292   2.356   3.363  0.4683  0.8569  0.6852
 4062SOL    HW123822   0.198   2.343   3.375  0.6406 -1.7453 -0.6964
 4062SOL    HW223823   0.317   2.286   3.302  0.5087  2.7291 -1.4330
 4063SOL     OW23824   3.382   1.646   4.125  0.2591  0.2763 -0.4206
 4063SOL    HW123825   3.371   1.727   4.175  0.1085 -0.4850  0.7886
 4063SOL    HW223826   3.292   1.616   4.118 -0.2134  1.9453 -1.4998
 4064SOL     OW23827   3.501   2.963   6.947  0.7081 -0.0087  0.3482
 4064SOL    HW123828   3.522   3.054   6.925 -1.8201  0.7656  1.1827
 4064SOL    HW223829   3.563   2.921   6.886 -0.1630  0.2319 -0.6998
 4065SOL     OW23830   3.641   2.477   5.035  0.4687 -0.4982 -0.2984
 4065SOL    HW123831   3.707   2.431   5.087  0.4206 -2.5686 -2.0602
 4065SOL    HW223832   3.677   2.563   5.016 -1.0141  0.0975 -0.3957
 4066SOL     OW23833   1.646   0.971   5.248 -0.6003  0.4671  0.0797
 4066SOL    HW123834   1.651   1.043   5.310  0.6402  0.6232 -0.2020
 4066SOL    HW223835   1.630   1.014   5.164  0.2006 -1.8245 -1.2463
 4067SOL     OW23836   0.599   2.776   4.067 -0.3758 -0.3778 -0.0995
 4067SOL    HW123837   0.540   2.723   4.121  0.1703  0.8791  1.7201
 4067SOL    HW223838   0.672   2.716   4.053 -0.6410 -0.9638  1.0489
 4068SOL     OW23839   1.450   2.782  10.115 -0.3203 -0.2046 -0.1515
 4068SOL    HW123840   1.497   2.818  10.190  3.5829 -2.2134 -1.6306
 4068SOL    HW223841   1.391   2.719  10.157 -1.3828  1.2085  0.4498
 4069SOL     OW23842   2.445   3.006  12.319 -0.4973  0.3377 -0.3545
 4069SOL    HW123843   2.470   3.099  12.316 -0.4793  0.4009  1.8751
 4069SOL    HW223844   2.425   2.992  12.412  0.4313 -0.9939 -0.3517
 4070SOL     OW23845   0.899   3.018  14.022 -0.1666 -0.1230  0.1686
 4070SOL    HW123846   0.928   3.063  14.101  2.3540  0.2189 -0.9315
 4070SOL    HW223847   0.878   2.931  14.056 -0.2654 -1.6597 -3.8510
 4071SOL     OW23848   3.966   2.024  16.294  0.3733  0.7727 -0.4133
 4071SOL    HW123849   3.948   2.080  16.218  0.2509  1.9863  0.4949
 4071SOL    HW223850   4.020   2.089  16.340  1.3752 -1.3545  1.4124
 4072SOL     OW23851   3.399   0.109  11.783 -0.1389  0.3112  0.9135
 4072SOL    HW123852   3.306   0.102  11.801 -0.5903  1.4607 -0.9936
 4072SOL    HW223853   3.401   0.201  11.758  2.1568  0.1115  0.2871
 4073SOL     OW23854   1.526   2.372   7.295  0.4749 -0.6239  0.0274
 4073SOL    HW123855   1.457   2.412   7.348  1.0076  0.3745 -0.0223
 4073SOL    HW223856   1.494   2.379   7.205 -0.1012  0.6911  0.3341
 4074SOL     OW23857   2.608   0.507  12.322  0.1251 -0.2186 -0.0364
 4074SOL    HW123858   2.530   0.546  12.361 -0.2806 -0.7420 -0.3300
 4074SOL    HW223859   2.595   0.426  12.371 -0.8279 -1.1141 -1.7700
 4075SOL     OW23860   3.826   4.192   6.410  0.0681 -0.4309 -0.0743
 4075SOL    HW123861   3.790   4.229   6.491 -1.4505  1.9831 -1.8682
 4075SOL    HW223862   3.805   4.099   6.421  2.5772 -1.0426 -0.5127
 4076SOL     OW23863   2.300   1.390   4.281 -0.4297 -0.0940 -0.0993
 4076SOL    HW123864   2.345   1.416   4.201  0.4872 -0.6543  0.2311
 4076SOL    HW223865   2.365   1.337   4.328  0.0063  1.8903  1.5505
 4077SOL     OW23866   2.130   1.033   6.657  0.3502  0.4342 -0.0190
 4077SOL    HW123867   2.098   1.018   6.568  0.0197 -1.0253  0.3379
 4077SOL    HW223868   2.101   1.121   6.680  0.3154  0.0490  1.4260
 4078SOL     OW23869   2.010   0.738   2.498 -0.3879  0.7443 -0.1494
 4078SOL    HW123870   1.919   0.765   2.488 -0.3430  1.3566  1.0355
 4078SOL    HW223871   2.057   0.822   2.494  1.9471 -0.5097  1.0638
 4079SOL     OW23872   3.276   0.419   4.320 -0.1992 -0.7575  0.1659
 4079SOL    HW123873   3.316   0.332   4.327  1.2476 -0.2162 -1.4108
 4079SOL    HW223874   3.251   0.432   4.412  1.7251 -1.0208  0.7416
 4080SOL     OW23875   2.295   4.128  11.862  0.1487 -0.0700 -0.1240
 4080SOL    HW123876   2.246   4.142  11.943  2.6793 -0.3664  1.4587
 4080SOL    HW223877   2.346   4.048  11.874  1.6874  1.1072  1.2697
 4081SOL     OW23878   3.807   2.348   5.215 -0.4437  0.0358 -0.0935
 4081SOL    HW123879   3.837   2.350   5.306  0.8401 -2.1963 -0.4684
 4081SOL    HW223880   3.784   2.257   5.194 -2.6177  0.5417  0.1288
 4082SOL     OW23881   1.915   2.612  15.962 -0.1027 -0.2662 -0.5752
 4082SOL    HW123882   1.972   2.673  15.915 -0.9494 -0.5568 -1.9763
 4082SOL    HW223883   1.837   2.665  15.980  0.0496 -0.2050 -0.0910
 4083SOL     OW23884   0.142   3.879   2.901 -0.2400  0.1445  0.1806
 4083SOL    HW123885   0.229   3.903   2.868 -0.3335 -2.2101 -1.7938
 4083SOL    HW223886   0.130   3.931   2.981 -1.0973 -0.4890  0.4613
 4084SOL     OW23887   4.594   1.276  11.443  0.6064  0.5566 -0.8409
 4084SOL    HW123888   4.578   1.186  11.415 -0.5862  0.9593 -1.4763
 4084SOL    HW223889   4.503   1.308  11.447  0.3350 -0.0141 -2.6108
 4085SOL     OW23890   2.010   1.955  16.199 -0.2141  0.3561 -0.4427
 4085SOL    HW123891   2.012   1.860  16.211  0.8653  0.2991 -1.0248
 4085SOL    HW223892   2.009   1.981  16.291  0.0206 -1.3598  0.0474
 4086SOL     OW23893   2.198   0.120  14.106  0.3900  0.1195 -0.4046
 4086SOL    HW123894   2.291   0.103  14.119  0.3458 -0.0538 -0.3046
 4086SOL    HW223895   2.160   0.065  14.174 -1.9572 -2.7465 -4.0177
 4087SOL     OW23896   3.312   1.499  11.985  0.4081  0.1767  0.1908
 4087SOL    HW123897   3.303   1.427  11.923  0.2458  0.6057 -0.2804
 4087SOL    HW223898   3.347   1.565  11.925 -0.7742 -0.7563 -1.5043
 4088SOL     OW23899   3.589   3.270   3.201  0.7552  0.3551 -0.0844
 4088SOL    HW123900   3.621   3.270   3.110  1.2101  0.2773  0.0754
 4088SOL    HW223901   3.536   3.350   3.204 -2.5965 -1.9471  1.3598
 4089SOL     OW23902   3.953   4.462   8.122  0.2004  0.4741  0.4712
 4089SOL    HW123903   3.890   4.521   8.082 -1.7484 -1.1981  1.0841
 4089SOL    HW223904   4.027   4.484   8.065 -0.7561  0.5783 -0.7213
 4090SOL     OW23905   1.592   1.249   2.736 -0.1000  0.1776  0.3734
 4090SOL    HW123906   1.517   1.282   2.785 -0.0430 -0.0187  0.5976
 4090SOL    HW223907   1.555   1.227   2.651  2.4781  0.4483 -0.8087
 4091SOL     OW23908   1.526   1.333  11.044  0.1423  0.0751 -1.2395
 4091SOL    HW123909   1.577   1.295  11.116 -0.8498  0.8538 -0.1039
 4091SOL    HW223910   1.586   1.339  10.971  1.7438 -0.3042  0.0559
 4092SOL     OW23911   0.298   0.674   1.530  0.8773  0.4038 -0.3234
 4092SOL    HW123912   0.318   0.647   1.620  0.7526  2.5121  0.3290
 4092SOL    HW223913   0.204   0.656   1.537  0.9092  0.1541 -0.5374
 4093SOL     OW23914   4.288   4.217   7.214 -0.5143  0.2373  0.0488
 4093SOL    HW123915   4.239   4.298   7.204  0.0100  0.5611  0.0719
 4093SOL    HW223916   4.226   4.148   7.193  1.9329 -2.3345  1.1999
 4094SOL     OW23917   2.677   2.120   2.957  0.1685  0.1069 -0.1308
 4094SOL    HW123918   2.744   2.059   2.925  0.4089 -0.7624  2.0140
 4094SOL    HW223919   2.732   2.173   3.015 -0.8485  0.9083  0.0977
 4095SOL     OW23920   0.835   1.747   5.264  0.1937 -0.4128 -0.4374
 4095SOL    HW123921   0.816   1.680   5.198 -0.2690  0.9916 -1.7280
 4095SOL    HW223922   0.780   1.822   5.243  0.1104 -0.5140 -0.5820
 4096SOL     OW23923   1.770   3.479   2.590 -0.2286 -0.0272  0.4321
 4096SOL    HW123924   1.789   3.516   2.676  1.7566 -0.7063  0.2916
 4096SOL    HW223925   1.782   3.390   2.623  0.3194  0.5963  1.8839
 4097SOL     OW23926   4.339   0.937  13.256  0.5830 -0.0386  0.3120
 4097SOL    HW123927   4.269   0.883  13.218  1.4691  0.3766 -1.8989
 4097SOL    HW223928   4.359   0.990  13.179 -2.7957 -0.1240 -0.6274
 4098SOL     OW23929   1.888   3.505  17.053 -0.2918  0.4826  0.0486
 4098SOL    HW123930   1.957   3.439  17.049 -0.9156 -0.2518  1.3517
 4098SOL    HW223931   1.934   3.576  17.008  0.8310 -0.9529 -1.1146
 4099SOL     OW23932   0.913   1.609  12.521  0.5071  0.2411 -0.6325
 4099SOL    HW123933   0.959   1.558  12.587  1.1755  1.3112 -0.2766
 4099SOL    HW223934   0.908   1.549  12.446  2.6353  1.3103 -1.6308
 4100SOL     OW23935   1.645   4.324   1.048  0.7173  0.0139 -0.2477
 4100SOL    HW123936   1.567   4.350   0.998 -0.6700 -0.2237  1.7523
 4100SOL    HW223937   1.628   4.237   1.085 -1.6534 -0.5446 -2.6308
 4101SOL     OW23938   4.481   3.085  13.468  0.1353  0.4692  0.3336
 4101SOL    HW123939   4.429   3.103  13.546 -2.0203 -2.0921 -0.5061
 4101SOL    HW223940   4.419   3.035  13.415  0.6836  1.3196 -1.1433
 4102SOL     OW23941   2.361   3.444  10.898 -0.0432  0.4895  0.2699
 4102SOL    HW123942   2.363   3.419  10.990  0.8791  0.1324  0.1523
 4102SOL    HW223943   2.269   3.466  10.883 -0.2833 -1.6885 -1.4801
 4103SOL     OW23944   0.552   1.692  14.251  0.1467  0.1732 -0.0733
 4103SOL    HW123945   0.533   1.615  14.198  2.0890 -1.1520  1.1741
 4103SOL    HW223946   0.625   1.729  14.201 -0.3979  1.5427  0.1466
 4104SOL     OW23947   1.399   2.350  12.653  0.1724  0.1682  0.1004
 4104SOL    HW123948   1.335   2.403  12.606 -1.3279 -1.7747 -0.0582
 4104SOL    HW223949   1.353   2.268  12.671  0.8225 -0.8161 -2.6592
 4105SOL     OW23950   2.333   0.777   1.842 -1.3585 -0.4031 -0.6340
 4105SOL    HW123951   2.276   0.706   1.812 -0.3972 -1.8196  0.8677
 4105SOL    HW223952   2.335   0.830   1.763  1.3331 -0.0600 -0.3338
 4106SOL     OW23953   1.486   3.588   6.590 -0.2835 -0.1330 -0.5792
 4106SOL    HW123954   1.407   3.549   6.553 -0.5324 -0.4091  0.2562
 4106SOL    HW223955   1.513   3.652   6.524  0.6169  0.0404 -0.0456
 4107SOL     OW23956   3.887   1.728   2.525  0.6095 -0.0186  0.0760
 4107SOL    HW123957   3.874   1.683   2.608  1.0927  1.0868  0.7558
 4107SOL    HW223958   3.922   1.654   2.474  0.9400 -0.6116  1.1614
 4108SOL     OW23959   1.567   3.494  17.639  0.1162  0.4049  0.2656
 4108SOL    HW123960   1.645   3.446  17.666 -1.0757 -0.8505  1.4423
 4108SOL    HW223961   1.601   3.581  17.618  1.2912 -0.6662 -2.3292
 4109SOL     OW23962   3.599   1.306   8.990  0.1996  0.4375  0.3292
 4109SOL    HW123963   3.510   1.302   9.024 -0.8476  2.3412 -2.1792
 4109SOL    HW223964   3.595   1.248   8.914  0.0325 -0.9821  1.4153
 4110SOL     OW23965   0.262   3.469   2.371 -0.4537 -0.1405 -0.3360
 4110SOL    HW123966   0.291   3.441   2.457  2.3259  2.2294 -0.5168
 4110SOL    HW223967   0.166   3.475   2.379 -0.7580 -1.4649 -2.9422
 4111SOL     OW23968   3.287   1.472   5.010 -0.2765 -0.2671  0.2166
 4111SOL    HW123969   3.281   1.496   4.918 -0.3581 -1.9804 -0.2111
 4111SOL    HW223970   3.351   1.401   5.003  0.1795  0.3861 -2.0342
 4112SOL     OW23971   1.391   4.687   5.262 -0.3091  0.2879 -0.0598
 4112SOL    HW123972   1.394   0.012   5.191  1.7369  0.7796  0.4645
 4112SOL    HW223973   1.482   4.674   5.289 -0.4089  1.1855  0.7265
 4113SOL     OW23974   4.522   3.664  17.057 -0.2377 -0.2113  0.3640
 4113SOL    HW123975   4.524   3.576  17.093  1.7008  0.1163  1.0666
 4113SOL    HW223976   4.463   3.711  17.115  0.2602  0.3819  0.3994
 4114SOL     OW23977   1.889   3.313   4.947 -0.1145 -0.0758 -0.4440
 4114SOL    HW123978   1.892   3.231   4.995 -0.8117 -0.5479 -1.2031
 4114SOL    HW223979   1.953   3.295   4.879  0.6368  0.6556  0.0634
 4115SOL     OW23980   2.454   2.945   7.077  0.0900  0.0303 -0.1197
 4115SOL    HW123981   2.517   3.002   7.031  2.1491 -3.0097 -1.0602
 4115SOL    HW223982   2.370   2.990   7.067  0.8116  1.1993 -1.0098
 4116SOL     OW23983   3.200   0.585  17.733 -0.1629  0.2555  0.2864
 4116SOL    HW123984   3.169   0.633   0.055  1.1757  4.0955 -1.6113
 4116SOL    HW223985   3.265   0.640  17.689 -0.3740  1.3457  1.3623
 4117SOL     OW23986   3.501   2.352   7.336  0.2485  0.5523  0.7450
 4117SOL    HW123987   3.505   2.268   7.291  0.9740  1.2382 -0.4759
 4117SOL    HW223988   3.454   2.402   7.270  2.8232  0.0591 -1.4573
 4118SOL     OW23989   1.747   2.947   3.081  0.2607  0.1942 -0.0126
 4118SOL    HW123990   1.745   2.932   3.176  0.7261  5.0043  0.7809
 4118SOL    HW223991   1.809   2.879   3.055  1.2484  0.0162  2.7684
 4119SOL     OW23992   0.812   0.334   0.224 -0.1398  0.1971  0.0190
 4119SOL    HW123993   0.740   0.392   0.250 -1.2509 -0.7893 -0.8868
 4119SOL    HW223994   0.807   0.313   0.131  1.4278 -2.2838  0.4725
 4120SOL     OW23995   4.307   1.949  11.508  0.4639  0.1984 -0.6203
 4120SOL    HW123996   4.367   1.882  11.541 -0.7772 -0.2454  0.7511
 4120SOL    HW223997   4.289   2.004  11.584  0.9963 -0.6824  0.1398
 4121SOL     OW23998   1.036   4.137  17.247  0.0727  1.0067  0.3988
 4121SOL    HW123999   1.073   4.131  17.158 -0.4443 -2.5537  0.4136
 4121SOL    HW224000   1.072   4.218  17.284  1.7201  0.9964 -1.1611
 4122SOL     OW24001   1.974   0.784  17.467 -0.0077 -0.1897  0.4647
 4122SOL    HW124002   1.993   0.878  17.473  0.3865 -0.1875 -0.7990
 4122SOL    HW224003   1.991   0.766  17.374  1.4081 -1.1241  0.9015
 4123SOL     OW24004   0.177   0.289   3.848  0.0935  0.2653 -0.2444
 4123SOL    HW124005   0.214   0.213   3.892  0.0634  1.8269  2.4710
 4123SOL    HW224006   0.169   0.352   3.920  0.7928 -0.6666  0.6450
 4124SOL     OW24007   1.410   2.795   5.978  0.4268  0.2656 -0.4727
 4124SOL    HW124008   1.331   2.756   5.940  1.1471 -1.3505 -0.3063
 4124SOL    HW224009   1.411   2.752   6.064  0.3831  0.4810 -0.3663
 4125SOL     OW24010   1.831   1.983   4.512 -0.5339 -0.1413 -0.8938
 4125SOL    HW124011   1.758   1.922   4.500 -0.4845  0.2211 -3.1244
 4125SOL    HW224012   1.895   1.921   4.546 -1.2261 -1.1763 -1.4788
 4126SOL     OW24013   1.147   2.111   4.568 -0.0599 -0.1207 -0.7656
 4126SOL    HW124014   1.155   2.074   4.655 -1.7877  3.4471  0.8972
 4126SOL    HW224015   1.055   2.093   4.549 -0.4032  0.9471 -0.0865
 4127SOL     OW24016   3.044   0.284   3.730  0.9648 -0.2374 -0.6045
 4127SOL    HW124017   3.085   0.214   3.678  1.0257 -0.1454 -0.6803
 4127SOL    HW224018   2.977   0.236   3.779 -0.7873  1.7694 -1.0289
 4128SOL     OW24019   4.566   2.835   0.157  0.4818 -0.1119  0.0495
 4128SOL    HW124020   4.602   2.753   0.191  1.2360 -0.1009 -0.7224
 4128SOL    HW224021   4.627   2.898   0.194  0.4794 -2.0480  3.3076
 4129SOL     OW24022   0.463   3.585  15.024 -0.4789 -0.6454 -0.0919
 4129SOL    HW124023   0.528   3.655  15.036 -0.0954 -1.1711  0.8735
 4129SOL    HW224024   0.523   3.510  15.020 -0.7343 -0.7375 -2.0548
 4130SOL     OW24025   1.865   1.461  15.273  0.2769  0.2865  0.3948
 4130SOL    HW124026   1.838   1.423  15.357 -1.3355  0.7576  0.0821
 4130SOL    HW224027   1.929   1.395  15.247 -0.3477 -1.0434  2.2483
 4131SOL     OW24028   0.080   2.443   2.347 -0.3792 -0.0001  0.6050
 4131SOL    HW124029   0.041   2.406   2.268  1.9799 -1.0339 -0.0613
 4131SOL    HW224030   0.169   2.453   2.313 -0.7970  0.1843 -0.4455
 4132SOL     OW24031   3.072   1.154   5.821  0.0810 -0.0662  0.2702
 4132SOL    HW124032   3.111   1.066   5.825  1.6626  0.5156 -2.7958
 4132SOL    HW224033   3.015   1.135   5.747 -0.7502 -0.0369  0.8962
 4133SOL     OW24034   4.023   3.454   2.237  0.8215  0.3479 -0.1507
 4133SOL    HW124035   4.065   3.509   2.171 -0.7706  3.1060  1.1098
 4133SOL    HW224036   3.938   3.440   2.196  0.5668  1.1852  0.0964
 4134SOL     OW24037   2.141   2.064   3.519 -0.2096 -0.4633 -0.0172
 4134SOL    HW124038   2.102   2.148   3.494  1.8876  1.1920  2.3475
 4134SOL    HW224039   2.158   2.031   3.430 -0.6447  1.8178 -0.9566
 4135SOL     OW24040   0.596   3.322   5.950  0.5935  0.2032 -0.0969
 4135SOL    HW124041   0.570   3.240   5.991  0.7311  1.0988  1.8294
 4135SOL    HW224042   0.667   3.290   5.895  0.4551 -0.7947  0.3084
 4136SOL     OW24043   2.439   3.804  15.400 -0.8104  0.3557  0.2251
 4136SOL    HW124044   2.459   3.737  15.334 -0.2795  0.2954  0.4519
 4136SOL    HW224045   2.500   3.877  15.388 -0.0652 -0.1174  1.1102
 4137SOL     OW24046   1.418   0.085   7.889  0.0342 -0.0635  0.2770
 4137SOL    HW124047   1.466   0.165   7.870  0.5082 -0.5471 -0.6016
 4137SOL    HW224048   1.486   0.025   7.920  1.3654  2.1240  1.5453
 4138SOL     OW24049   4.353   3.077   6.247  0.1054  0.2661  0.1958
 4138SOL    HW124050   4.412   3.010   6.211  0.4410  1.7180 -1.9472
 4138SOL    HW224051   4.316   3.020   6.314  2.0195  0.1770  1.1843
 4139SOL     OW24052   4.014   1.853  11.962 -0.1957 -0.1464  0.0756
 4139SOL    HW124053   3.946   1.795  11.928 -1.1632 -0.4169  2.5120
 4139SOL    HW224054   4.079   1.785  11.979  1.1332  1.4677  1.4221
 4140SOL     OW24055   0.370   1.920  12.120 -1.2175 -0.5567 -0.1602
 4140SOL    HW124056   0.343   1.854  12.183  3.0067 -2.0920  0.0213
 4140SOL    HW224057   0.296   1.980  12.131 -0.9803 -0.3293  0.1826
 4141SOL     OW24058   2.760   2.770  10.899  0.4473 -0.4424  0.2077
 4141SOL    HW124059   2.819   2.736  10.832 -0.2526 -0.0448 -0.6192
 4141SOL    HW224060   2.816   2.774  10.977  0.0484  1.2875  0.4135
 4142SOL     OW24061   3.204   0.600   5.460  0.0691 -1.1257  0.1713
 4142SOL    HW124062   3.175   0.661   5.528 -1.2853 -0.4067 -1.0456
 4142SOL    HW224063   3.298   0.619   5.460  0.1820 -1.7187  1.2150
 4143SOL     OW24064   2.736   2.994   3.633  0.3741 -0.3290  0.2661
 4143SOL    HW124065   2.647   2.979   3.602 -0.1810 -0.5261  1.9433
 4143SOL    HW224066   2.722   2.957   3.720 -0.3786 -0.4598  0.0860
 4144SOL     OW24067   0.045   4.181  10.544  0.0431  0.1871  0.2331
 4144SOL    HW124068   4.698   4.141  10.558 -0.3573  0.6916 -0.7854
 4144SOL    HW224069   0.074   4.195  10.634 -0.6450 -0.5465  0.5720
 4145SOL     OW24070   4.098   1.549   3.626 -0.0220 -0.0960  0.4345
 4145SOL    HW124071   4.066   1.466   3.662 -2.2523 -0.1413 -1.5728
 4145SOL    HW224072   4.192   1.547   3.640  0.2330  1.0609 -1.1622
 4146SOL     OW24073   2.819   2.161   0.850 -0.0258  0.5140 -0.2338
 4146SOL    HW124074   2.787   2.232   0.794 -0.6664  2.0295  2.0460
 4146SOL    HW224075   2.794   2.090   0.790  0.8981  2.4108 -2.8913
 4147SOL     OW24076   1.108   1.057   6.029  0.0007 -0.0278  0.0421
 4147SOL    HW124077   1.060   1.111   5.965  3.8092  2.5969 -0.5878
 4147SOL    HW224078   1.054   0.979   6.040 -0.4356  0.5491  1.9617
 4148SOL     OW24079   0.798   0.260   6.501  0.2053  0.6728  1.2969
 4148SOL    HW124080   0.780   0.350   6.473 -0.4786  0.7584  2.0211
 4148SOL    HW224081   0.890   0.244   6.479 -0.2715 -1.3107  0.7261
 4149SOL     OW24082   0.691   4.166   4.927  0.8751 -0.8719  0.0257
 4149SOL    HW124083   0.753   4.093   4.918  1.6266 -0.1029 -1.1267
 4149SOL    HW224084   0.706   4.215   4.846 -1.3867 -1.1121 -0.5463
 4150SOL     OW24085   1.065   0.995   2.937 -0.7380  0.2049 -0.5081
 4150SOL    HW124086   1.121   0.927   2.900 -0.8467  0.1924 -0.6511
 4150SOL    HW224087   1.126   1.069   2.940  0.5887 -0.8023 -2.5099
 4151SOL     OW24088   3.469   2.071   9.252  0.1309  0.2054 -0.4533
 4151SOL    HW124089   3.478   1.981   9.284 -1.5396  0.1588 -0.1110
 4151SOL    HW224090   3.542   2.071   9.190  0.1514 -2.1352 -0.4525
 4152SOL     OW24091   0.063   2.111   0.566 -0.6059  0.1790  0.1436
 4152SOL    HW124092   0.095   2.064   0.489 -2.6340 -0.2414 -0.4512
 4152SOL    HW224093   0.041   2.196   0.526 -0.3748  0.1074 -0.1401
 4153SOL     OW24094   0.731   0.194   7.155 -0.0877 -0.8174  0.0728
 4153SOL    HW124095   0.800   0.150   7.204  0.9479 -1.2548 -1.7746
 4153SOL    HW224096   0.770   0.281   7.157 -1.3443 -0.2572  0.2216
 4154SOL     OW24097   1.805   3.017   2.220  0.2894  0.6329  0.1650
 4154SOL    HW124098   1.897   3.006   2.199 -0.2785  0.2007 -2.0766
 4154SOL    HW224099   1.782   2.926   2.236 -1.5596  0.7580 -1.6959
 4155SOL     OW24100   2.640   2.828   3.887 -0.5653 -0.7090 -0.1429
 4155SOL    HW124101   2.558   2.793   3.853  0.7118 -2.5723 -1.3093
 4155SOL    HW224102   2.622   2.850   3.978  0.7806  0.8765 -0.2528
 4156SOL     OW24103   1.545   1.747   7.325 -0.1276  0.7291  0.1089
 4156SOL    HW124104   1.613   1.775   7.386 -2.4526  1.7825  2.2232
 4156SOL    HW224105   1.470   1.780   7.374  0.1765  0.6464  0.6421
 4157SOL     OW24106   3.271   1.001   4.860 -0.0802 -0.0005  0.0619
 4157SOL    HW124107   3.319   0.942   4.802  1.2394  1.4417 -0.2940
 4157SOL    HW224108   3.251   0.935   4.927 -0.5438 -0.2774 -0.3419
 4158SOL     OW24109   1.586   3.245   6.234  0.1490 -0.1832  0.0965
 4158SOL    HW124110   1.530   3.222   6.308 -1.4978  2.0925 -0.4257
 4158SOL    HW224111   1.525   3.251   6.160 -1.6582  0.5740  1.6207
 4159SOL     OW24112   1.933   0.513   3.652 -0.5989  0.3814 -0.0420
 4159SOL    HW124113   2.003   0.460   3.689 -1.4834 -2.1519 -1.9879
 4159SOL    HW224114   1.852   0.481   3.693 -1.4814  1.3633 -1.0114
 4160SOL     OW24115   4.338   3.134   3.246  0.2276  0.0197  0.1200
 4160SOL    HW124116   4.372   3.072   3.310 -1.2263  2.0313  2.8697
 4160SOL    HW224117   4.267   3.181   3.290 -0.6272 -1.9465  0.8322
 4161SOL     OW24118   2.604   1.777   4.116  0.0395  0.2340  0.1083
 4161SOL    HW124119   2.647   1.764   4.032  1.1157  1.2110  0.5006
 4161SOL    HW224120   2.673   1.749   4.176 -2.5413 -2.3796  1.8372
 4162SOL     OW24121   2.095   0.867   8.762 -0.3371 -0.5459 -1.0355
 4162SOL    HW124122   2.143   0.873   8.679  0.3225  1.7426 -0.4821
 4162SOL    HW224123   2.024   0.929   8.745 -0.5504  0.0123  1.9308
 4163SOL     OW24124   1.743   2.617  10.362  0.2603  0.1512  0.2980
 4163SOL    HW124125   1.806   2.685  10.388 -0.1845  1.2996 -1.6653
 4163SOL    HW224126   1.660   2.665  10.360 -0.6405 -1.2891  2.8242
 4164SOL     OW24127   0.088   2.789   8.155 -0.4149 -0.3207 -0.1049
 4164SOL    HW124128   0.123   2.773   8.067 -0.4936 -1.4676  0.0638
 4164SOL    HW224129   0.132   2.719   8.204  2.1907  1.7050  0.4396
 4165SOL     OW24130   0.299   0.640  13.859  0.0314  0.2594  0.0328
 4165SOL    HW124131   0.307   0.734  13.877  0.3528  0.1084  0.6572
 4165SOL    HW224132   0.333   0.593  13.935 -0.6165  0.5437  0.5018
 4166SOL     OW24133   2.984   1.149   2.942 -0.1426  0.7178 -0.5634
 4166SOL    HW124134   3.000   1.221   2.880 -1.7205  2.9862  1.6656
 4166SOL    HW224135   2.935   1.097   2.878  0.1505 -0.9051  0.5342
 4167SOL     OW24136   2.834   3.317   8.847 -0.4404  0.1244  0.2369
 4167SOL    HW124137   2.892   3.353   8.780  0.0783  0.8260  1.0655
 4167SOL    HW224138   2.798   3.242   8.800 -0.1309  0.7149 -0.9406
 4168SOL     OW24139   3.769   2.207   5.981  0.4158  0.0623  0.4891
 4168SOL    HW124140   3.773   2.149   6.057  2.7741  1.1926  1.2239
 4168SOL    HW224141   3.835   2.274   6.001  1.8304 -0.6402 -1.8301
 4169SOL     OW24142   1.346   0.970   4.107  0.3166  0.3129  0.0809
 4169SOL    HW124143   1.400   1.011   4.175 -1.0823 -0.3432  1.5869
 4169SOL    HW224144   1.364   0.878   4.126  1.2570  0.4932  0.0772
 4170SOL     OW24145   4.322   4.243   2.432  0.1930  0.2002 -0.3453
 4170SOL    HW124146   4.231   4.226   2.409  0.7171  0.7092 -2.7504
 4170SOL    HW224147   4.333   4.327   2.476 -0.9595  0.6075 -0.8481
 4171SOL     OW24148   3.796   1.439   6.032 -0.2334  0.0224  0.3585
 4171SOL    HW124149   3.870   1.491   6.065 -0.6655  1.3442 -0.7679
 4171SOL    HW224150   3.806   1.453   5.938 -1.9590 -0.1217  0.1574
 4172SOL     OW24151   1.202   0.922  14.714  0.4679 -0.0997  0.0352
 4172SOL    HW124152   1.213   0.948  14.806  0.7311 -1.3375  0.3505
 4172SOL    HW224153   1.118   0.876  14.715  0.8629 -0.8691 -2.0885
 4173SOL     OW24154   1.374   3.402   2.825  0.6415 -0.5683 -0.3382
 4173SOL    HW124155   1.389   3.482   2.877  0.9339 -1.2862  0.7009
 4173SOL    HW224156   1.280   3.384   2.831  0.6326 -0.5307 -0.3654
 4174SOL     OW24157   3.403   2.865   3.022 -0.0794  0.0672 -0.0195
 4174SOL    HW124158   3.495   2.866   2.996 -0.3683 -2.4147 -1.2328
 4174SOL    HW224159   3.368   2.950   2.993 -2.2870 -0.3781  1.3409
 4175SOL     OW24160   2.532   2.725   1.768 -0.8320  0.2449  0.2513
 4175SOL    HW124161   2.481   2.685   1.697 -1.2581  1.3169 -0.0484
 4175SOL    HW224162   2.621   2.696   1.747  0.1207  3.0492  0.3741
 4176SOL     OW24163   0.664   1.248   4.740  0.1910  0.4546 -0.6128
 4176SOL    HW124164   0.666   1.272   4.647  0.0019 -1.8234 -1.2289
 4176SOL    HW224165   0.691   1.156   4.734  1.8910  0.9448 -0.3973
 4177SOL     OW24166   1.094   1.727   3.329 -0.2364 -0.5441 -0.7021
 4177SOL    HW124167   1.182   1.753   3.301 -0.0169 -0.4407  0.1043
 4177SOL    HW224168   1.044   1.795   3.283  0.7387  1.9406  1.8872
 4178SOL     OW24169   4.421   2.587   8.223  0.0385  0.4232 -0.2182
 4178SOL    HW124170   4.373   2.655   8.176 -1.5641 -0.7598 -0.3094
 4178SOL    HW224171   4.501   2.580   8.171  0.8321 -0.3092  1.1199
 4179SOL     OW24172   4.681   3.281   3.212  0.4238 -0.2613 -0.8752
 4179SOL    HW124173   4.720   3.267   3.298 -0.4535  4.6634  0.3257
 4179SOL    HW224174   4.596   3.239   3.223  1.1337 -1.3422  0.5214
 4180SOL     OW24175   4.329   0.497  14.697 -0.7318  0.1500  0.3998
 4180SOL    HW124176   4.399   0.431  14.700  0.1866  1.0734 -0.7133
 4180SOL    HW224177   4.382   0.572  14.672 -0.4985 -0.3283 -0.5131
 4181SOL     OW24178   2.345   2.339   6.858 -0.1479  0.4803 -0.0869
 4181SOL    HW124179   2.303   2.393   6.791 -0.7727 -1.2672 -1.1006
 4181SOL    HW224180   2.368   2.260   6.810 -0.7895 -0.6163  1.4100
 4182SOL     OW24181   2.201   2.611  10.850  0.5754 -0.0472  0.1837
 4182SOL    HW124182   2.280   2.558  10.856  0.3249 -0.0967  3.3320
 4182SOL    HW224183   2.190   2.620  10.756 -0.7258 -1.1243  0.2243
 4183SOL     OW24184   2.264   3.824   1.337 -0.1668  0.1999 -0.6200
 4183SOL    HW124185   2.358   3.815   1.323  0.0990 -1.2763  2.1281
 4183SOL    HW224186   2.264   3.792   1.427 -0.7015  3.1343  0.4568
 4184SOL     OW24187   4.696   3.045   7.596 -0.3340  0.1886 -0.0618
 4184SOL    HW124188   4.673   3.063   7.687  2.0999  2.8512  0.0087
 4184SOL    HW224189   0.009   2.967   7.615 -2.0042 -1.1303 -0.8762
 4185SOL     OW24190   1.956   2.990  16.057  0.0178  0.4349  0.5961
 4185SOL    HW124191   1.995   2.922  16.002  0.9364  0.3639  1.3237
 4185SOL    HW224192   1.872   2.952  16.081  0.9168 -0.9388  1.5982
 4186SOL     OW24193   1.958   2.245   3.367  0.0529  0.1532  0.5552
 4186SOL    HW124194   1.952   2.258   3.272 -1.1793 -3.8762  0.0823
 4186SOL    HW224195   1.944   2.336   3.393 -1.5757  0.6922 -2.1280
 4187SOL     OW24196   1.192   3.670  17.729 -0.9374 -0.5548  0.6438
 4187SOL    HW124197   1.258   3.619   0.022 -0.4075 -0.0331  0.4658
 4187SOL    HW224198   1.172   3.739   0.039 -1.3284  0.4075 -0.5078
 4188SOL     OW24199   4.543   0.194   6.671  0.0394  0.0630  0.1683
 4188SOL    HW124200   4.559   0.102   6.648  0.6764  0.5851 -1.4477
 4188SOL    HW224201   4.633   0.219   6.691 -0.3342  1.3345  0.2869
 4189SOL     OW24202   0.173   0.097   6.979  0.1496 -0.1575 -0.2300
 4189SOL    HW124203   0.242   0.150   7.020 -1.7379  2.0523  0.0416
 4189SOL    HW224204   0.228   0.051   6.915 -0.1513  1.8805 -1.9623
 4190SOL     OW24205   3.147   1.436  10.484  0.8930 -0.3955 -0.2827
 4190SOL    HW124206   3.170   1.528  10.499  1.9556 -0.5821 -0.7618
 4190SOL    HW224207   3.136   1.433  10.389  2.7043  2.3898 -0.5879
 4191SOL     OW24208   2.845   2.772   2.972 -0.1235 -0.8188 -0.0491
 4191SOL    HW124209   2.840   2.677   2.971 -1.4873 -0.7645  1.2703
 4191SOL    HW224210   2.756   2.803   2.988 -0.0788  0.3763 -2.1189
 4192SOL     OW24211   1.114   3.958   4.512  0.5690 -0.2797 -0.2609
 4192SOL    HW124212   1.169   3.896   4.465  1.6272  1.4650 -1.2984
 4192SOL    HW224213   1.026   3.927   4.488  0.3766  0.6080 -0.7231
 4193SOL     OW24214   0.347   0.589   3.249  0.0816 -0.7941 -0.5025
 4193SOL    HW124215   0.380   0.550   3.169  1.2961 -0.6043 -0.0966
 4193SOL    HW224216   0.306   0.669   3.215 -0.5635 -1.2974 -0.9139
 4194SOL     OW24217   2.159   0.128   0.152 -0.3303 -1.0860 -0.0408
 4194SOL    HW124218   2.175   0.193   0.083  0.5547 -1.3076 -0.0529
 4194SOL    HW224219   2.095   0.076   0.104  0.9667 -1.5648 -1.2761
 4195SOL     OW24220   0.115   0.044  12.793 -0.1288 -0.4276 -0.0884
 4195SOL    HW124221   0.111   0.126  12.743  0.1495 -0.5133 -0.2517
 4195SOL    HW224222   0.176   0.060  12.865 -1.9317  0.6415  1.1954
 4196SOL     OW24223   0.289   1.288  11.902 -0.0973 -0.4302  0.5172
 4196SOL    HW124224   0.227   1.349  11.862 -1.6465 -1.9049  0.6850
 4196SOL    HW224225   0.355   1.279  11.834 -0.8753  2.7899 -0.6401
 4197SOL     OW24226   1.973   2.690   8.138 -0.0684 -0.0337 -0.4750
 4197SOL    HW124227   2.010   2.651   8.059 -1.2176  2.5727 -2.3003
 4197SOL    HW224228   2.022   2.773   8.131 -0.2673  0.0821 -0.4764
 4198SOL     OW24229   0.413   1.509   7.218 -0.3808 -0.3645 -0.5260
 4198SOL    HW124230   0.327   1.484   7.253 -0.8067 -0.7887 -1.8974
 4198SOL    HW224231   0.463   1.428   7.230  0.0437  0.3481  2.5493
 4199SOL     OW24232   1.731   2.598   7.246 -0.9841  0.3529 -0.6204
 4199SOL    HW124233   1.778   2.656   7.185  1.5904 -0.4074  0.6313
 4199SOL    HW224234   1.754   2.510   7.215  2.2171  0.8826  0.2606
 4200SOL     OW24235   4.464   0.138  14.545  0.1429 -0.4627  0.0324
 4200SOL    HW124236   4.380   0.124  14.589 -1.2588 -0.9145 -2.8573
 4200SOL    HW224237   4.447   0.226  14.511  0.5979 -0.6182 -0.5881
 4201SOL     OW24238   3.655   2.855  17.589  0.1727  0.1310  0.2180
 4201SOL    HW124239   3.588   2.909  17.629  0.2375  0.1808  0.2602
 4201SOL    HW224240   3.723   2.842  17.655 -0.8640  1.6235  1.5835
 4202SOL     OW24241   1.774   2.247  16.169 -0.4282  0.5407  0.1603
 4202SOL    HW124242   1.728   2.260  16.086 -0.3013  0.9162  0.1524
 4202SOL    HW224243   1.856   2.214  16.134 -0.9684 -1.0427  0.3669
 4203SOL     OW24244   3.807   2.056   5.105 -0.3260 -0.1643 -0.1647
 4203SOL    HW124245   3.762   2.062   5.021  0.5577  0.5340 -0.5853
 4203SOL    HW224246   3.877   1.996   5.080 -0.8091 -0.6044 -0.4600
 4204SOL     OW24247   2.811   2.513   2.973 -0.4039  0.1755 -0.1142
 4204SOL    HW124248   2.866   2.434   2.974  0.9032  1.0677 -2.1908
 4204SOL    HW224249   2.794   2.532   3.065  2.5782  0.6956  0.3132
 4205SOL     OW24250   2.958   1.165   8.481  0.1120 -0.0301  0.0096
 4205SOL    HW124251   2.955   1.228   8.553  0.0259  0.7090 -0.6443
 4205SOL    HW224252   2.877   1.117   8.501 -1.2640  1.7156 -1.2943
 4206SOL     OW24253   2.482   1.360  14.172  0.1417  0.2328 -0.2346
 4206SOL    HW124254   2.534   1.299  14.225 -0.1047 -0.5782 -0.9402
 4206SOL    HW224255   2.449   1.429  14.230 -1.7674  0.0347 -1.0671
 4207SOL     OW24256   2.527   0.130   6.129 -0.3730 -0.5289 -0.2705
 4207SOL    HW124257   2.477   0.065   6.079  0.4058  1.3996 -3.5947
 4207SOL    HW224258   2.598   0.139   6.066 -1.1632 -0.2550 -1.1229
 4208SOL     OW24259   3.806   0.409   6.224  0.4207 -0.0712 -0.2762
 4208SOL    HW124260   3.823   0.503   6.226  0.9469 -0.2145  2.5906
 4208SOL    HW224261   3.719   0.409   6.264  0.5864  1.3198  0.1092
 4209SOL     OW24262   4.213   0.785   6.582 -0.1743 -0.0331 -0.0076
 4209SOL    HW124263   4.290   0.728   6.576 -1.2492 -1.5004  0.2203
 4209SOL    HW224264   4.164   0.733   6.647  1.6542  0.8943  2.1374
 4210SOL     OW24265   0.676   3.979   0.950 -0.3770  0.7295  0.0991
 4210SOL    HW124266   0.586   3.970   0.979  0.2752 -5.3140  0.2864
 4210SOL    HW224267   0.716   3.945   1.030  0.5718 -0.5044 -0.9026
 4211SOL     OW24268   3.754   4.057   3.568  0.6247 -0.9551  0.2789
 4211SOL    HW124269   3.763   4.115   3.492  2.7162 -0.5268  0.8512
 4211SOL    HW224270   3.845   4.030   3.580  1.0884  0.9187  1.1042
 4212SOL     OW24271   3.577   1.134   9.500  0.2749  0.2126 -0.4787
 4212SOL    HW124272   3.633   1.206   9.470 -1.1682  2.3433  1.9626
 4212SOL    HW224273   3.578   1.071   9.427  0.7823  0.4723 -0.6955
 4213SOL     OW24274   0.912   0.647   8.551  0.1857 -0.0623 -0.1093
 4213SOL    HW124275   0.970   0.656   8.627  0.6461 -0.5095 -0.4044
 4213SOL    HW224276   0.957   0.575   8.506 -0.7449 -0.0896 -0.9884
 4214SOL     OW24277   3.346   2.286  12.522 -0.3823 -0.9955 -0.2787
 4214SOL    HW124278   3.364   2.222  12.453 -0.7402  1.2309 -2.4222
 4214SOL    HW224279   3.327   2.235  12.601 -0.2536 -0.5023  0.0680
 4215SOL     OW24280   1.686   1.403  13.164 -0.0083  0.1136 -0.4156
 4215SOL    HW124281   1.665   1.419  13.256 -2.7498 -0.3872 -0.9608
 4215SOL    HW224282   1.618   1.447  13.113  1.2006  0.9929 -1.2921
 4216SOL     OW24283   3.425   0.009   6.806  0.5756 -0.1586  0.1766
 4216SOL    HW124284   3.466   4.735   6.892 -1.0881  0.5576  1.0723
 4216SOL    HW224285   3.499   0.018   6.745  1.6741 -3.0203  1.0415
 4217SOL     OW24286   1.510   0.055  14.685  0.5031  0.2421 -0.1366
 4217SOL    HW124287   1.475   0.144  14.680  1.9191  0.8802  1.4187
 4217SOL    HW224288   1.532   0.039  14.593 -1.9899 -1.4082 -0.4700
 4218SOL     OW24289   2.001   1.898   2.225  0.2418  0.2733  0.0214
 4218SOL    HW124290   1.986   1.990   2.203  0.6022  0.5569  0.9586
 4218SOL    HW224291   2.091   1.905   2.255  0.1717 -0.2809  0.3629
 4219SOL     OW24292   1.179   4.338  10.236 -0.3160  0.1648  0.0732
 4219SOL    HW124293   1.129   4.351  10.316 -2.2563 -1.4613 -0.8723
 4219SOL    HW224294   1.225   4.264  10.275  0.2368  2.4617  3.8158
 4220SOL     OW24295   2.469   3.840   2.083  0.3813 -0.4657  0.0255
 4220SOL    HW124296   2.537   3.773   2.089  0.9250  0.0870  0.0110
 4220SOL    HW224297   2.401   3.798   2.136  0.6285 -1.5894 -0.5460
 4221SOL     OW24298   0.400   0.837   6.551  0.1994  0.2936  0.7043
 4221SOL    HW124299   0.464   0.805   6.487 -1.2167 -0.4203 -0.3523
 4221SOL    HW224300   0.401   0.931   6.532  0.8568  0.0243 -0.6233
 4222SOL     OW24301   1.852   2.353   6.066 -0.3836 -0.0197 -0.4348
 4222SOL    HW124302   1.807   2.305   6.136 -0.5608  0.9326  0.1008
 4222SOL    HW224303   1.886   2.282   6.011  0.5943 -0.1899  0.3769
 4223SOL     OW24304   2.295   0.420   1.486 -0.1736  0.2411  0.1807
 4223SOL    HW124305   2.364   0.472   1.446 -0.0564 -0.6178 -0.7241
 4223SOL    HW224306   2.321   0.442   1.575 -1.2433  1.3270  0.2375
 4224SOL     OW24307   1.115   1.004   9.138 -0.2805  0.2863 -0.5865
 4224SOL    HW124308   1.116   1.016   9.233 -2.7894  1.5705 -0.7304
 4224SOL    HW224309   1.113   1.096   9.112  0.9491  0.1105 -1.3384
 4225SOL     OW24310   3.728   4.574   8.862 -0.5675  0.8072  0.1348
 4225SOL    HW124311   3.749   4.655   8.816  0.1852  0.2445 -0.5032
 4225SOL    HW224312   3.647   4.600   8.906 -1.7310 -0.7232 -1.0971
 4226SOL     OW24313   3.947   0.777   2.752 -0.5995 -0.2989 -0.3753
 4226SOL    HW124314   3.877   0.804   2.811 -0.5866 -2.0906  0.4816
 4226SOL    HW224315   3.940   0.683   2.773 -1.9368  0.1117  1.0350
 4227SOL     OW24316   1.173   2.708   8.266  0.4030 -0.1018 -0.1369
 4227SOL    HW124317   1.226   2.770   8.216 -1.9759  2.0258 -0.0523
 4227SOL    HW224318   1.217   2.714   8.351 -0.5091  0.2950  0.3067
 4228SOL     OW24319   1.354   3.676   1.304 -0.4429 -0.1760 -0.1642
 4228SOL    HW124320   1.322   3.737   1.370  2.0957  1.3984 -0.4137
 4228SOL    HW224321   1.444   3.659   1.330 -0.5641  0.4127  0.6420
 4229SOL     OW24322   1.712   0.274  14.916  0.8587  0.0509 -0.0378
 4229SOL    HW124323   1.754   0.198  14.877  1.2080  0.0495  0.3354
 4229SOL    HW224324   1.740   0.351  14.866  1.3047  1.0107  1.6873
 4230SOL     OW24325   3.040   4.629   4.567  0.1877  0.1117 -0.1304
 4230SOL    HW124326   3.065   4.581   4.646 -0.2344  1.0957  0.6021
 4230SOL    HW224327   3.107   4.697   4.556  2.1442 -1.6052  1.0517
 4231SOL     OW24328   3.015   4.579  12.542 -0.2542 -0.6317 -0.3953
 4231SOL    HW124329   3.083   4.635  12.580  1.1071 -2.1675 -0.6028
 4231SOL    HW224330   3.040   4.584  12.450 -0.0130 -0.3987 -0.3174
 4232SOL     OW24331   2.032   2.456  11.117 -0.2027 -1.1496 -0.3678
 4232SOL    HW124332   2.061   2.444  11.027  3.6000 -0.6495  0.7641
 4232SOL    HW224333   1.949   2.500  11.099  0.5259 -0.2582 -1.5016
 4233SOL     OW24334   0.632   2.610  12.510 -0.4688  0.2753  0.2835
 4233SOL    HW124335   0.567   2.557  12.464  2.2081  0.5079 -3.8817
 4233SOL    HW224336   0.575   2.681  12.538 -0.4457  0.9628 -1.3764
 4234SOL     OW24337   4.389   0.257   4.212 -0.0559 -0.0202  0.0050
 4234SOL    HW124338   4.330   0.227   4.282 -0.7161 -1.3581 -1.1183
 4234SOL    HW224339   4.403   0.348   4.238  2.6253 -0.4126 -0.0958
 4235SOL     OW24340   1.370   0.923   8.838 -0.2452  0.1781 -0.4155
 4235SOL    HW124341   1.462   0.924   8.813 -0.1192  2.6137  0.0682
 4235SOL    HW224342   1.320   0.950   8.760 -0.0791 -1.2685 -1.0042
 4236SOL     OW24343   4.292   1.565   2.549  0.1770  0.0161 -0.6909
 4236SOL    HW124344   4.296   1.478   2.588 -1.9154  0.1215 -0.2759
 4236SOL    HW224345   4.367   1.610   2.590 -2.4804  2.0468  1.9176
 4237SOL     OW24346   2.995   0.090  15.622 -0.1576  0.3025 -0.2273
 4237SOL    HW124347   3.079   0.055  15.591  0.7431  2.2000  0.0536
 4237SOL    HW224348   2.995   0.054  15.711  0.3558  2.0241  0.4696
 4238SOL     OW24349   2.048   2.895  14.347  0.4797  0.0865  0.7075
 4238SOL    HW124350   2.056   2.825  14.281 -1.1682  0.3547  0.1995
 4238SOL    HW224351   2.097   2.858  14.420 -1.0655 -1.1646  1.1188
 4239SOL     OW24352   0.488   3.534  10.989 -0.0861  0.4016  0.5021
 4239SOL    HW124353   0.505   3.493  11.074 -0.6963  1.5803  1.2059
 4239SOL    HW224354   0.574   3.531  10.948 -0.1101 -0.3620  0.5231
 4240SOL     OW24355   3.719   1.669   1.590  0.3135  0.0455  0.4802
 4240SOL    HW124356   3.657   1.740   1.605  2.8040  1.9764  1.5025
 4240SOL    HW224357   3.780   1.685   1.661 -1.9342  0.8104  2.2356
 4241SOL     OW24358   2.934   2.827  16.933  0.1801  0.4195  0.0073
 4241SOL    HW124359   2.854   2.778  16.956  0.6733 -1.6188 -2.6514
 4241SOL    HW224360   2.972   2.797  16.851  1.3220 -2.4342  1.5646
 4242SOL     OW24361   0.846   2.132   9.774 -0.5999  0.3046  0.5614
 4242SOL    HW124362   0.905   2.151   9.846 -3.7996  1.0907  2.9757
 4242SOL    HW224363   0.778   2.086   9.823  0.5172 -1.8317  0.1080
 4243SOL     OW24364   2.436   2.283   7.887 -0.2652 -0.7306 -0.4120
 4243SOL    HW124365   2.392   2.244   7.963 -1.6537  0.0548 -0.8260
 4243SOL    HW224366   2.506   2.333   7.930  0.2770  0.5447 -2.8101
 4244SOL     OW24367   2.584   4.199   4.789 -0.0717 -0.7193  0.0734
 4244SOL    HW124368   2.630   4.273   4.750 -2.4243  0.2941 -0.7961
 4244SOL    HW224369   2.652   4.147   4.831  0.9936 -1.2284 -2.2407
 4245SOL     OW24370   1.500   0.859   6.151 -0.7185  0.0678  0.1135
 4245SOL    HW124371   1.549   0.941   6.136  0.0239 -0.0971  1.6197
 4245SOL    HW224372   1.453   0.848   6.069 -0.8422  2.4443 -0.1546
 4246SOL     OW24373   2.918   0.309   9.386 -0.3724 -0.3666  0.0679
 4246SOL    HW124374   2.996   0.286   9.335 -0.4563  1.2488 -0.7819
 4246SOL    HW224375   2.886   0.381   9.331  0.7165  1.0215  1.2675
 4247SOL     OW24376   3.140   1.586   4.036  0.0140  0.0898 -0.4329
 4247SOL    HW124377   3.078   1.609   3.966  0.1229  1.7863  0.0348
 4247SOL    HW224378   3.087   1.583   4.116 -0.3121  0.4214 -0.6321
 4248SOL     OW24379   1.664   2.973   3.744 -0.3415 -0.4612 -0.0733
 4248SOL    HW124380   1.705   2.926   3.817  1.7025  1.5467  0.0764
 4248SOL    HW224381   1.608   2.904   3.708  0.3217 -0.8987 -0.2600
 4249SOL     OW24382   0.118   3.075  16.102  0.2172 -0.4343  0.3619
 4249SOL    HW124383   0.202   3.095  16.061  0.6496 -1.9440  0.5347
 4249SOL    HW224384   0.061   3.093  16.028  0.2695 -2.0294 -0.0600
 4250SOL     OW24385   3.228   4.733  12.626 -0.2431 -0.0630 -0.2243
 4250SOL    HW124386   3.265   0.082  12.615  1.2435 -0.8063 -1.1733
 4250SOL    HW224387   3.307   4.682  12.643 -0.3348 -0.5395 -1.2540
 4251SOL     OW24388   4.155   2.847   9.496 -0.0799 -0.4509 -0.1265
 4251SOL    HW124389   4.147   2.942   9.483 -0.9909 -0.5641 -0.4408
 4251SOL    HW224390   4.189   2.828   9.409 -1.1979  0.5647 -0.7949
 4252SOL     OW24391   0.295   0.420   9.003 -0.2664  0.7569  0.0447
 4252SOL    HW124392   0.307   0.514   8.997  0.0083  0.6801 -0.5697
 4252SOL    HW224393   0.299   0.406   8.908  0.5426  0.2544  0.1448
 4253SOL     OW24394   0.169   3.325   8.059 -0.7219  0.3347 -0.0254
 4253SOL    HW124395   0.195   3.408   8.018 -0.4940  0.2444 -0.0644
 4253SOL    HW224396   0.184   3.264   7.986 -1.1171  0.7052 -0.4179
 4254SOL     OW24397   3.116   2.643   2.573  0.2005 -0.0570 -0.6605
 4254SOL    HW124398   3.151   2.674   2.656 -0.2576  0.0650 -0.5164
 4254SOL    HW224399   3.195   2.607   2.531  1.2766  2.0942 -0.4707
 4255SOL     OW24400   4.107   1.279   2.097 -0.2563  0.3683 -0.1437
 4255SOL    HW124401   4.081   1.190   2.072  2.3049 -0.4461  0.1358
 4255SOL    HW224402   4.094   1.327   2.016  2.7533 -0.5446 -1.1354
 4256SOL     OW24403   2.780   4.409   1.282 -0.4756 -0.2632 -0.1311
 4256SOL    HW124404   2.846   4.476   1.300 -0.0761 -0.8952  0.7631
 4256SOL    HW224405   2.835   4.334   1.259  0.5526 -0.2307  2.2123
 4257SOL     OW24406   0.074   1.032   3.138  0.3811  0.4260  0.7979
 4257SOL    HW124407   0.104   1.092   3.070 -1.5815 -0.0123 -0.4419
 4257SOL    HW224408   4.731   0.993   3.108  1.1421 -0.6518  0.0997
 4258SOL     OW24409   3.497   2.123   8.616  0.2521  0.0088  0.0172
 4258SOL    HW124410   3.508   2.035   8.580 -1.7922 -0.3078  0.1986
 4258SOL    HW224411   3.487   2.107   8.710  2.6769  0.6649  0.4004
 4259SOL     OW24412   3.863   3.355  12.643 -0.5614  0.4585  0.7566
 4259SOL    HW124413   3.848   3.340  12.736  1.1647  0.0735  0.9693
 4259SOL    HW224414   3.940   3.412  12.654 -0.2885  0.6257 -2.0151
 4260SOL     OW24415   2.763   0.110   6.556 -0.0156 -0.1748 -0.1467
 4260SOL    HW124416   2.832   0.138   6.617 -0.7564 -1.1775  1.1669
 4260SOL    HW224417   2.804   0.086   6.473  2.6838  2.7096  0.3415
 4261SOL     OW24418   3.201   3.133   4.218  0.4658  0.5593 -0.0529
 4261SOL    HW124419   3.173   3.154   4.307 -1.0601 -3.0407  0.3051
 4261SOL    HW224420   3.164   3.208   4.171  1.9501  1.4824  0.2499
 4262SOL     OW24421   1.676   0.983   6.963  0.7777 -0.2152  0.2219
 4262SOL    HW124422   1.646   1.068   6.996 -0.3270 -0.7732  0.6541
 4262SOL    HW224423   1.607   0.932   7.005  1.3027  0.2207  1.6285
 4263SOL     OW24424   1.087   4.104  14.822 -0.0858 -0.0224 -0.0899
 4263SOL    HW124425   1.108   4.194  14.848  1.0362 -0.3267  0.0859
 4263SOL    HW224426   1.160   4.051  14.855 -0.0387  2.3113  3.5425
 4264SOL     OW24427   0.786   1.630   5.563 -0.1657  0.4889 -0.1527
 4264SOL    HW124428   0.824   1.677   5.489  0.1735 -1.5941 -1.3039
 4264SOL    HW224429   0.707   1.681   5.584 -0.8922 -0.6099 -0.2249
 4265SOL     OW24430   3.659   4.517   8.399  0.2082 -0.0704  0.1666
 4265SOL    HW124431   3.743   4.470   8.399  0.4299  0.3164 -2.6255
 4265SOL    HW224432   3.687   4.603   8.367 -1.0519  0.3154  0.1025
 4266SOL     OW24433   1.121   4.494  14.215  0.3994  0.3138  0.1781
 4266SOL    HW124434   1.132   4.419  14.273  0.0002  0.8858  0.9843
 4266SOL    HW224435   1.153   4.565  14.270  0.2110  1.0060 -0.5940
 4267SOL     OW24436   1.259   3.014   2.706  0.0636  0.5786  0.1564
 4267SOL    HW124437   1.252   2.930   2.751  1.1441  0.6887  0.5293
 4267SOL    HW224438   1.172   3.011   2.666 -0.8477 -1.0420  2.2449
 4268SOL     OW24439   2.359   1.261   6.657  0.0710  0.2637  0.1957
 4268SOL    HW124440   2.389   1.181   6.700 -0.7413 -0.0865  0.1089
 4268SOL    HW224441   2.331   1.308   6.736  0.3009  1.3370 -0.3631
 4269SOL     OW24442   0.938   3.202   2.598  0.5146 -0.6691  0.0972
 4269SOL    HW124443   0.853   3.244   2.611 -0.3965 -2.2886 -0.7006
 4269SOL    HW224444   0.941   3.213   2.503 -1.1848 -2.0302 -0.1006
 4270SOL     OW24445   4.350   2.978  17.060  0.3326  0.0481  0.5076
 4270SOL    HW124446   4.270   2.935  17.092  0.1752 -0.3822 -0.4671
 4270SOL    HW224447   4.329   2.986  16.967  0.4173 -0.8229  0.4161
 4271SOL     OW24448   3.192   1.200   9.424  0.1074 -0.5282 -0.3637
 4271SOL    HW124449   3.153   1.275   9.380  0.3135 -0.2237 -0.0310
 4271SOL    HW224450   3.218   1.248   9.503 -0.1071 -0.0287 -0.6046
 4272SOL     OW24451   2.519   1.460   8.533 -0.5578 -0.4830  0.0890
 4272SOL    HW124452   2.586   1.517   8.494 -1.6286  1.2752  0.8154
 4272SOL    HW224453   2.556   1.376   8.506  0.2746 -0.1953  0.3371
 4273SOL     OW24454   1.715   2.755  17.644 -0.0438  0.1012 -0.1261
 4273SOL    HW124455   1.748   2.816  17.710  1.9102 -0.5650 -0.4733
 4273SOL    HW224456   1.755   2.670  17.664 -0.3747 -0.0650 -0.1686
 4274SOL     OW24457   2.666   2.485   3.701  0.0305  0.4063  0.0049
 4274SOL    HW124458   2.676   2.390   3.696  1.4972  0.6559 -1.6975
 4274SOL    HW224459   2.571   2.497   3.690 -0.3643 -3.0092 -0.2292
 4275SOL     OW24460   3.489   1.502   5.602 -0.8980 -0.1386  0.4208
 4275SOL    HW124461   3.502   1.572   5.666 -0.9118  1.7332 -1.6183
 4275SOL    HW224462   3.456   1.551   5.527  3.0762  0.1517 -1.1256
 4276SOL     OW24463   4.566   3.052  12.247  0.1773  0.1464 -0.0475
 4276SOL    HW124464   4.521   3.075  12.166  1.8457 -0.8368 -1.2489
 4276SOL    HW224465   4.572   2.957  12.244  3.4288  0.3305  0.3349
 4277SOL     OW24466   0.457   4.449  10.075  0.3133  1.0394  0.0723
 4277SOL    HW124467   0.541   4.456  10.121 -1.6141  0.6938  3.6470
 4277SOL    HW224468   0.405   4.387  10.126  1.1413 -0.9789 -1.5551
 4278SOL     OW24469   1.895   0.962   2.250 -0.3800 -0.2793 -0.6475
 4278SOL    HW124470   1.985   0.988   2.264 -0.2051 -0.1889 -1.9649
 4278SOL    HW224471   1.846   1.029   2.299  0.1933 -0.5867  0.3527
 4279SOL     OW24472   4.379   3.112   1.913 -0.2848  0.4817  0.4637
 4279SOL    HW124473   4.466   3.073   1.918 -0.5272  0.0407  1.1787
 4279SOL    HW224474   4.329   3.034   1.934 -0.8410 -0.1305 -3.0984
 4280SOL     OW24475   3.285   0.379  16.171 -0.5556 -0.2926  0.2251
 4280SOL    HW124476   3.324   0.312  16.226 -1.0226  0.4924  1.5230
 4280SOL    HW224477   3.247   0.326  16.101  0.5319 -1.0719  0.2149
 4281SOL     OW24478   1.995   4.014  14.743 -0.2585  0.1095  0.3907
 4281SOL    HW124479   2.046   3.954  14.797 -1.6303 -1.7654 -0.3913
 4281SOL    HW224480   2.059   4.025  14.673  0.9232 -2.2310  1.1120
 4282SOL     OW24481   1.695   2.131  12.534  0.0772  0.4695  0.1666
 4282SOL    HW124482   1.622   2.084  12.575 -0.4450  0.1748 -1.0979
 4282SOL    HW224483   1.759   2.127  12.605  1.7727  1.9733 -1.2843
 4283SOL     OW24484   3.517   3.040   3.409  0.5215  0.6349 -0.1004
 4283SOL    HW124485   3.536   3.124   3.367  0.5994  0.1369 -1.0485
 4283SOL    HW224486   3.565   2.983   3.349 -1.1675  0.0851 -0.9100
 4284SOL     OW24487   2.532   2.684   6.008 -0.2181 -0.5974  0.3035
 4284SOL    HW124488   2.569   2.738   5.939  0.4355 -0.2370  0.9398
 4284SOL    HW224489   2.592   2.687   6.082  1.0898  0.1625 -0.8060
 4285SOL     OW24490   1.543   0.004  17.480 -0.3194  0.0424 -0.0542
 4285SOL    HW124491   1.496   0.060  17.419 -2.9061 -1.4058  0.5791
 4285SOL    HW224492   1.477   0.009  17.550  0.2068  0.0980  0.4339
 4286SOL     OW24493   4.141   3.100   9.549  0.0852 -0.5083  0.2112
 4286SOL    HW124494   4.161   3.189   9.521 -0.9212  0.2919  2.0453
 4286SOL    HW224495   4.183   3.102   9.635  2.1823  1.8971 -0.8837
 4287SOL     OW24496   3.704   4.075  16.564  0.2583 -0.3451 -0.2203
 4287SOL    HW124497   3.685   4.134  16.637 -0.3385  1.8179 -2.0962
 4287SOL    HW224498   3.679   3.990  16.599 -0.6965  0.6954  1.6428
 4288SOL     OW24499   3.105   0.585   9.862 -0.5385  0.3637 -0.3349
 4288SOL    HW124500   3.166   0.514   9.880 -1.4882  0.0727  1.7432
 4288SOL    HW224501   3.123   0.607   9.771 -1.1065  0.5455 -0.4048
 4289SOL     OW24502   3.877   4.268   5.027 -1.4454 -0.0171  0.8962
 4289SOL    HW124503   3.945   4.335   5.017 -1.9434  0.2172 -0.9414
 4289SOL    HW224504   3.801   4.321   5.050 -2.4067  0.1476 -2.6334
 4290SOL     OW24505   3.775   0.093   1.684  0.3208  0.1605 -0.0739
 4290SOL    HW124506   3.681   0.080   1.670  0.5701 -2.4303  0.6890
 4290SOL    HW224507   3.775   0.046   1.767  1.0549  0.0750 -0.1222
 4291SOL     OW24508   2.475   0.705   3.400 -0.6525 -0.5367  0.7806
 4291SOL    HW124509   2.521   0.634   3.445  0.2819 -0.2295  0.3252
 4291SOL    HW224510   2.384   0.679   3.397 -0.0604 -2.5351  0.5800
 4292SOL     OW24511   2.825   2.719   8.059  0.4455  0.1994  0.7128
 4292SOL    HW124512   2.746   2.751   8.014  0.5103 -1.8576 -0.8933
 4292SOL    HW224513   2.854   2.798   8.105  0.4369  0.0211  1.0163
 4293SOL     OW24514   3.522   1.699   2.537  0.7303  0.1155 -0.1299
 4293SOL    HW124515   3.589   1.760   2.508  1.9213 -2.9049 -3.7066
 4293SOL    HW224516   3.573   1.649   2.601 -3.4932 -2.2950  1.4188
 4294SOL     OW24517   3.531   2.664   8.745 -0.5878 -0.1268  0.1984
 4294SOL    HW124518   3.498   2.663   8.835 -1.8506  1.5596 -0.2446
 4294SOL    HW224519   3.532   2.569   8.733  0.9976 -0.1628  0.6260
 4295SOL     OW24520   0.083   3.230   2.000 -0.4996 -0.4324  0.4771
 4295SOL    HW124521   0.027   3.158   1.972 -2.6528  1.2310  0.4981
 4295SOL    HW224522   0.034   3.265   2.075 -1.6364  0.7996 -0.8336
 4296SOL     OW24523   3.062   3.635   2.988 -0.0122  0.1434  0.3709
 4296SOL    HW124524   3.106   3.712   3.024  1.3861 -0.8155  0.7220
 4296SOL    HW224525   2.989   3.675   2.940 -0.1386 -0.4803  0.0372
 4297SOL     OW24526   0.689   4.506   8.403 -0.1643  1.0159 -0.2245
 4297SOL    HW124527   0.631   4.541   8.471  1.5821  0.3226  1.6198
 4297SOL    HW224528   0.698   4.585   8.349  0.6892  1.0270 -0.0610
 4298SOL     OW24529   3.508   1.882   7.769 -0.0565  0.0187 -0.3966
 4298SOL    HW124530   3.420   1.913   7.791  0.4929 -0.3679  2.3359
 4298SOL    HW224531   3.538   1.972   7.757 -1.5274  0.3076 -1.8744
 4299SOL     OW24532   1.712   3.243  10.054 -0.5292  0.7363 -0.2151
 4299SOL    HW124533   1.711   3.168  10.114  0.8188  1.1424  0.3200
 4299SOL    HW224534   1.659   3.303  10.107 -0.0207  0.7304  0.3008
 4300SOL     OW24535   0.462   1.795   8.543  0.1620  0.0504  0.1647
 4300SOL    HW124536   0.500   1.881   8.525 -0.0796  0.4807  1.6674
 4300SOL    HW224537   0.527   1.754   8.600 -0.9158  2.0649  2.8585
 4301SOL     OW24538   2.332   0.204   3.084 -0.6379 -0.5416 -0.0737
 4301SOL    HW124539   2.243   0.185   3.115 -0.5147 -1.4361 -0.2740
 4301SOL    HW224540   2.329   0.297   3.060  2.7183 -0.1152  1.1977
 4302SOL     OW24541   0.351   0.972  11.218 -0.4558 -0.3296  0.0320
 4302SOL    HW124542   0.434   1.016  11.234  0.0937 -1.2994 -0.1528
 4302SOL    HW224543   0.345   0.970  11.123  1.6887  0.4914 -0.1112
 4303SOL     OW24544   3.784   2.163   4.695 -0.5527  0.7719 -0.5311
 4303SOL    HW124545   3.763   2.104   4.623 -1.1148  0.8457 -0.4219
 4303SOL    HW224546   3.741   2.119   4.768  1.6150  2.0996  1.5402
 4304SOL     OW24547   3.730   2.162  10.127  0.1532 -0.1631  0.1319
 4304SOL    HW124548   3.699   2.099  10.062  0.7727 -0.6318  0.2910
 4304SOL    HW224549   3.692   2.129  10.208  2.3080 -2.5399  0.1752
 4305SOL     OW24550   2.694   0.788   1.406  0.2483  0.3358 -0.6944
 4305SOL    HW124551   2.766   0.826   1.356 -0.1239 -1.1880 -2.4050
 4305SOL    HW224552   2.711   0.830   1.491  1.0969  0.1984 -0.7897
 4306SOL     OW24553   1.326   2.691   1.009  0.0569 -0.0086  0.1581
 4306SOL    HW124554   1.333   2.779   0.973  3.8658 -0.4514 -0.2640
 4306SOL    HW224555   1.421   2.680   1.015  0.1895  0.1754 -1.4463
 4307SOL     OW24556   4.582   1.336   6.739 -0.1482 -0.3893 -0.1036
 4307SOL    HW124557   4.666   1.296   6.761 -0.4653 -1.0240 -0.0617
 4307SOL    HW224558   4.522   1.290   6.798  2.8990 -0.6439  2.7651
 4308SOL     OW24559   0.862   3.675  16.518 -1.3571 -0.3928  0.1103
 4308SOL    HW124560   0.787   3.617  16.528 -1.3682 -0.3334  0.3652
 4308SOL    HW224561   0.918   3.639  16.587  0.3051  0.5954 -0.7330
 4309SOL     OW24562   3.784   2.978   6.437  0.1467  0.3914 -0.4620
 4309SOL    HW124563   3.716   3.020   6.384  0.0023  2.7664  1.5770
 4309SOL    HW224564   3.856   3.040   6.425  0.5972  0.1910  1.2480
 4310SOL     OW24565   4.724   0.004   3.695  0.3814  0.0074  0.6378
 4310SOL    HW124566   4.687   0.084   3.657  1.2856  0.9609  1.7834
 4310SOL    HW224567   0.075   0.010   3.664  0.2170  1.2813  0.4182
 4311SOL     OW24568   0.858   4.356   2.546  0.4374  0.4536 -0.1443
 4311SOL    HW124569   0.791   4.293   2.519  0.1403  0.1170  1.3949
 4311SOL    HW224570   0.922   4.299   2.589  0.0032  1.4237  1.8147
 4312SOL     OW24571   0.845   4.639   2.184 -0.0870  0.4165 -0.5315
 4312SOL    HW124572   0.778   4.702   2.211  1.8196  1.7520  1.0174
 4312SOL    HW224573   0.798   4.578   2.127 -3.0547  2.3847 -0.1742
 4313SOL     OW24574   4.470   3.990   3.647  0.0179  0.5900  0.1416
 4313SOL    HW124575   4.396   4.032   3.690 -0.7268 -1.6913  1.0788
 4313SOL    HW224576   4.450   4.015   3.557  1.4693  0.9601 -0.0837
 4314SOL     OW24577   2.032   1.050   1.105  0.0340 -0.8538  0.2331
 4314SOL    HW124578   2.007   0.961   1.132 -0.5787 -0.7838 -0.1029
 4314SOL    HW224579   2.000   1.052   1.015 -0.0804 -2.1152  0.2370
 4315SOL     OW24580   0.474   2.108   7.444 -0.0405 -0.9646  0.3184
 4315SOL    HW124581   0.394   2.107   7.390  0.2168 -1.2409 -0.0611
 4315SOL    HW224582   0.525   2.141   7.370 -2.6992 -0.4573 -1.2897
 4316SOL     OW24583   1.557   0.415   3.159 -0.5523  0.5693 -0.4522
 4316SOL    HW124584   1.607   0.386   3.235 -0.0755  3.1799  0.2466
 4316SOL    HW224585   1.474   0.368   3.173  0.2749 -0.8514 -0.3658
 4317SOL     OW24586   1.569   3.470   9.108  0.4075 -0.3408  0.3995
 4317SOL    HW124587   1.582   3.406   9.038  0.6829  1.2014 -0.9711
 4317SOL    HW224588   1.575   3.558   9.071 -0.5093 -0.6216 -0.4217
 4318SOL     OW24589   0.893   0.569  13.008  0.6670  0.2080  0.3928
 4318SOL    HW124590   0.913   0.477  13.027  0.1357  0.1183  0.5149
 4318SOL    HW224591   0.798   0.561  13.012  0.6151  0.6245  0.0067
 4319SOL     OW24592   2.626   1.414   2.998 -0.0559 -0.2688 -0.6304
 4319SOL    HW124593   2.578   1.332   2.991  0.2032 -0.7343  2.7924
 4319SOL    HW224594   2.615   1.442   2.908 -1.3739  1.4542  0.0699
 4320SOL     OW24595   0.573   2.985   8.955 -0.0187  0.1686 -0.4665
 4320SOL    HW124596   0.642   2.996   8.890 -1.2301  0.9452 -1.6235
 4320SOL    HW224597   0.497   2.987   8.896 -0.4451 -2.5069  0.0126
 4321SOL     OW24598   2.504   2.388  15.597  0.3313  0.3502 -0.7614
 4321SOL    HW124599   2.524   2.326  15.527  1.0215 -0.5389  0.2104
 4321SOL    HW224600   2.589   2.395  15.641 -0.2459 -0.2914  0.4754
 4322SOL     OW24601   3.112   1.401  12.970  0.3498 -0.3593  0.3901
 4322SOL    HW124602   3.200   1.434  12.983  0.4297 -0.1249 -0.7335
 4322SOL    HW224603   3.071   1.486  12.953 -0.0140 -0.8121 -0.9803
 4323SOL     OW24604   0.331   2.998  17.424  0.4283  0.2707  0.3791
 4323SOL    HW124605   0.325   2.999  17.328  0.6841  0.5899  0.3657
 4323SOL    HW224606   0.254   2.943  17.440 -0.4607  1.1876 -0.7331
 4324SOL     OW24607   2.059   2.561   7.427  0.1959  0.1470 -0.2589
 4324SOL    HW124608   2.043   2.490   7.489 -3.0449  0.5363 -0.6204
 4324SOL    HW224609   2.026   2.526   7.344 -0.5738  0.4377 -0.0760
 4325SOL     OW24610   1.821   0.642   2.780 -0.7587 -0.3986 -0.3105
 4325SOL    HW124611   1.834   0.724   2.827  0.4538 -1.2994  0.9269
 4325SOL    HW224612   1.818   0.590   2.860  0.4591 -0.6140 -0.3925
 4326SOL     OW24613   1.805   0.618   8.681 -0.0141  0.1353 -0.6758
 4326SOL    HW124614   1.898   0.608   8.699 -0.6612 -1.4399  1.7932
 4326SOL    HW224615   1.768   0.599   8.768 -1.5232  1.0486 -1.1104
 4327SOL     OW24616   0.932   1.408  15.276 -0.2130  0.2603  0.3549
 4327SOL    HW124617   0.924   1.504  15.278 -0.6803  0.2358 -0.3030
 4327SOL    HW224618   0.886   1.392  15.194 -1.9198  1.1258  1.1502
 4328SOL     OW24619   3.836   1.375   1.500 -0.0302  0.6169 -0.2557
 4328SOL    HW124620   3.783   1.362   1.422  0.9332 -1.7350 -0.5112
 4328SOL    HW224621   3.772   1.398   1.567  0.7546 -0.0407  0.7183
 4329SOL     OW24622   2.645   3.234  12.684  0.3155  0.0073  0.6129
 4329SOL    HW124623   2.568   3.182  12.662  1.1521 -1.2695  0.7114
 4329SOL    HW224624   2.651   3.217  12.778 -1.6571  1.0981  0.9378
 4330SOL     OW24625   0.313   1.170   7.958  0.0720 -0.2181 -0.2294
 4330SOL    HW124626   0.223   1.199   7.944  0.2774 -0.2535 -1.6497
 4330SOL    HW224627   0.299   1.075   7.963  2.9185 -0.5261  1.8814
 4331SOL     OW24628   3.645   0.942   9.713 -0.1778  0.1352 -0.0655
 4331SOL    HW124629   3.694   0.973   9.789 -0.1576  0.0342 -0.0385
 4331SOL    HW224630   3.653   1.018   9.655  0.3263 -0.5580 -0.9129
 4332SOL     OW24631   0.480   3.545   5.380 -0.4063 -0.3477 -0.1246
 4332SOL    HW124632   0.570   3.516   5.373 -0.3901 -0.4256  0.3973
 4332SOL    HW224633   0.442   3.458   5.372  0.7348 -0.8546  0.1173
 4333SOL     OW24634   0.382   1.916   7.876  0.1776  0.5152 -0.2657
 4333SOL    HW124635   0.472   1.884   7.876 -0.0145 -0.0562  1.8052
 4333SOL    HW224636   0.338   1.839   7.840  0.9790  1.6226 -3.5209
 4334SOL     OW24637   1.900   1.088  10.839 -0.0287 -0.0714  0.2417
 4334SOL    HW124638   1.839   1.097  10.766  0.8351 -0.0874 -0.4848
 4334SOL    HW224639   1.936   1.001  10.821  0.8592  0.9021 -2.6931
 4335SOL     OW24640   0.591   1.655   9.002 -0.7514  0.0387  0.0588
 4335SOL    HW124641   0.601   1.749   9.021 -0.2711  0.0805 -0.3939
 4335SOL    HW224642   0.671   1.641   8.952 -0.5234 -0.1694  0.4872
 4336SOL     OW24643   4.590   2.902  17.132  0.0501  0.1731 -0.5014
 4336SOL    HW124644   4.572   2.849  17.210  1.7111  2.5695  1.5231
 4336SOL    HW224645   4.500   2.927  17.112 -0.0412  1.9369  2.1968
 4337SOL     OW24646   3.476   1.968   8.844  0.7664  0.6415 -0.0056
 4337SOL    HW124647   3.560   1.938   8.876 -0.4257 -1.9008  0.6937
 4337SOL    HW224648   3.437   1.881   8.840  3.8294 -0.6197 -2.1309
 4338SOL     OW24649   3.925   1.009   6.392  0.4320  0.7976 -0.1052
 4338SOL    HW124650   3.960   0.920   6.383 -2.4870 -0.5101  1.6189
 4338SOL    HW224651   4.007   1.057   6.383 -0.1090  2.1068  1.9362
 4339SOL     OW24652   3.983   1.182  11.619  0.2174  0.6562 -0.8619
 4339SOL    HW124653   3.957   1.164  11.528  0.0858  1.3941 -0.9681
 4339SOL    HW224654   3.991   1.091  11.648  2.6080  0.1484 -3.0464
 4340SOL     OW24655   2.778   0.667   2.425  0.1923  0.1361  0.1905
 4340SOL    HW124656   2.760   0.607   2.353  0.8431 -1.7791  1.6229
 4340SOL    HW224657   2.764   0.748   2.375  2.6923 -0.9997 -2.2957
 4341SOL     OW24658   4.047   4.128  14.864 -0.1894  0.5851  0.7370
 4341SOL    HW124659   4.026   4.114  14.956  0.2258 -0.3025  0.7017
 4341SOL    HW224660   4.142   4.113  14.859 -0.5525 -0.6574 -2.1690
 4342SOL     OW24661   2.426   0.945   3.183  0.1798 -0.0177  0.5038
 4342SOL    HW124662   2.449   0.935   3.276  2.0726  1.5838  0.2093
 4342SOL    HW224663   2.506   0.919   3.137  0.1633 -1.2576  1.1597
 4343SOL     OW24664   1.765   4.081   6.208  0.7955 -0.4889 -0.5156
 4343SOL    HW124665   1.831   4.150   6.208 -1.6040  1.8014  1.3908
 4343SOL    HW224666   1.815   4.002   6.230 -0.2131 -1.2768 -1.0216
 4344SOL     OW24667   1.402   1.907   3.618 -0.4664  0.1973 -0.0168
 4344SOL    HW124668   1.482   1.948   3.584  1.1161 -1.5720  1.6168
 4344SOL    HW224669   1.425   1.817   3.641 -2.1477 -0.3844 -0.6052
 4345SOL     OW24670   4.430   0.156   3.592  0.0284  0.2391 -0.5389
 4345SOL    HW124671   4.379   0.079   3.569  0.7935 -0.2414 -0.5951
 4345SOL    HW224672   4.428   0.204   3.509 -0.9497  0.0236 -0.6473
 4346SOL     OW24673   0.222   4.100   6.377 -0.4867  0.3925 -0.5783
 4346SOL    HW124674   0.186   4.017   6.409 -0.4314  0.9506  0.9201
 4346SOL    HW224675   0.140   4.149   6.379  0.3781  1.7062  2.1511
 4347SOL     OW24676   1.191   3.117  12.203 -0.1938 -0.0038 -0.7515
 4347SOL    HW124677   1.138   3.038  12.211  0.2452 -0.3129 -0.9321
 4347SOL    HW224678   1.178   3.150  12.292  1.9299  0.9085 -0.7847
 4348SOL     OW24679   0.642   3.731   8.410 -0.4381 -0.0145 -0.1124
 4348SOL    HW124680   0.561   3.695   8.375 -0.3400 -0.6025  0.2734
 4348SOL    HW224681   0.605   3.800   8.465  1.6780  0.7152  0.4199
 4349SOL     OW24682   1.569   2.804   9.293  0.0137 -0.5244 -0.3138
 4349SOL    HW124683   1.621   2.737   9.337 -1.1084 -0.9829  0.3081
 4349SOL    HW224684   1.643   2.856   9.262  0.8755 -0.4746  1.8017
 4350SOL     OW24685   3.246   2.328  13.835  0.5138  0.1798 -0.4369
 4350SOL    HW124686   3.321   2.334  13.895 -0.9484 -1.6753  1.5519
 4350SOL    HW224687   3.203   2.253  13.875 -1.7985  1.2697 -0.8977
 4351SOL     OW24688   1.267   3.773   3.109 -0.1597  0.2356  0.1966
 4351SOL    HW124689   1.354   3.736   3.092 -1.0992 -1.7874 -0.1179
 4351SOL    HW224690   1.244   3.816   3.027 -2.8025 -0.5990  0.5058
 4352SOL     OW24691   0.571   1.304   6.676 -0.0238  0.3932 -0.5575
 4352SOL    HW124692   0.545   1.353   6.754  0.1203  0.8899 -0.8199
 4352SOL    HW224693   0.666   1.306   6.687  0.0429 -0.8367 -0.9796
 4353SOL     OW24694   0.789   1.491  10.616  0.6332 -0.5802  0.2010
 4353SOL    HW124695   0.806   1.557  10.682  2.2854 -1.0059  0.2096
 4353SOL    HW224696   0.763   1.553  10.548  2.1602  0.4879  0.5865
 4354SOL     OW24697   2.370   0.518  12.108 -0.1053  0.6495 -0.2560
 4354SOL    HW124698   2.429   0.556  12.043  1.3626  0.5135  1.0040
 4354SOL    HW224699   2.435   0.501  12.177 -0.1943 -0.4099 -0.4348
 4355SOL     OW24700   4.115   4.738  13.402  0.0632 -0.1389 -0.0783
 4355SOL    HW124701   4.120   4.696  13.316  0.7951  1.1509 -0.6638
 4355SOL    HW224702   4.192   4.699  13.445 -1.0288 -0.2884  1.7534
 4356SOL     OW24703   4.697   2.815   8.549 -0.0460  0.5602 -0.6688
 4356SOL    HW124704   4.680   2.819   8.643  2.0877  1.9954 -0.3616
 4356SOL    HW224705   4.615   2.788   8.508 -0.8728  0.9179  0.7496
 4357SOL     OW24706   0.286   2.448   7.144 -0.1230 -0.5894  0.6703
 4357SOL    HW124707   0.222   2.379   7.163 -0.6024 -0.4904 -0.5557
 4357SOL    HW224708   0.352   2.394   7.100  0.6290 -0.0681  1.1666
 4358SOL     OW24709   1.348   0.060  16.330  0.1063  0.1416 -0.1442
 4358SOL    HW124710   1.314   0.123  16.266  1.1953  1.8000  0.9105
 4358SOL    HW224711   1.430   0.105  16.350 -1.5279  2.4533  1.3223
 4359SOL     OW24712   2.573   2.694  17.226 -0.1920  0.3269 -0.3598
 4359SOL    HW124713   2.496   2.707  17.281  0.5179  0.1935  0.6428
 4359SOL    HW224714   2.635   2.745  17.277  0.7177 -0.6903 -0.4502
 4360SOL     OW24715   2.370   3.287   5.659  0.1564 -0.3536 -0.2558
 4360SOL    HW124716   2.331   3.373   5.670  0.5136  0.0010 -1.7247
 4360SOL    HW224717   2.331   3.225   5.720 -0.0149  0.7440  0.7417
 4361SOL     OW24718   2.474   3.357   2.554 -0.2238  0.3808 -0.3876
 4361SOL    HW124719   2.405   3.291   2.549 -1.6247  1.7831  0.5169
 4361SOL    HW224720   2.555   3.307   2.566  1.7621  3.7343  0.1289
 4362SOL     OW24721   2.437   2.028  11.504 -0.4230 -0.0843 -1.0522
 4362SOL    HW124722   2.486   1.978  11.438 -0.1906 -0.2782 -0.7346
 4362SOL    HW224723   2.352   1.989  11.481 -1.2080  0.7644  0.4119
 4363SOL     OW24724   4.222   2.474  17.340 -0.0355  0.4312 -0.6576
 4363SOL    HW124725   4.252   2.401  17.285  0.8752 -0.3565  0.9060
 4363SOL    HW224726   4.127   2.463  17.326 -0.1504  1.8542 -0.9484
 4364SOL     OW24727   2.682   3.400   7.419  0.7277 -0.3530  0.0392
 4364SOL    HW124728   2.639   3.453   7.353 -0.9530 -1.8502 -0.0594
 4364SOL    HW224729   2.718   3.330   7.364 -1.0017 -0.3191 -1.1362
 4365SOL     OW24730   3.560   0.627   9.326 -0.3671  0.0580  0.1040
 4365SOL    HW124731   3.653   0.617   9.307 -0.1869 -1.0812  1.5557
 4365SOL    HW224732   3.571   0.672   9.410 -1.0471 -3.0568  1.8612
 4366SOL     OW24733   0.058   3.615   2.885 -0.2422  0.2057  0.7466
 4366SOL    HW124734   0.028   3.585   2.970 -0.4025  1.5367  1.1597
 4366SOL    HW224735   0.109   3.691   2.913  0.2976 -0.5514  1.8412
 4367SOL     OW24736   4.662   1.606   2.857 -0.6104  0.0869 -0.2411
 4367SOL    HW124737   0.019   1.610   2.855 -0.5999 -0.5298 -1.0505
 4367SOL    HW224738   4.647   1.531   2.915  0.5734 -1.2819 -1.6729
 4368SOL     OW24739   2.657   0.929   0.200  0.2980 -0.1548 -0.0398
 4368SOL    HW124740   2.641   0.836   0.219 -1.9618  0.7026  2.2002
 4368SOL    HW224741   2.694   0.911   0.113  1.6452 -0.1956  0.5464
 4369SOL     OW24742   1.075   2.409   3.916  0.3248  0.1813 -0.0830
 4369SOL    HW124743   1.053   2.365   3.998 -3.2667  2.7494  0.3309
 4369SOL    HW224744   1.015   2.368   3.854 -0.3653  0.1681  0.6050
 4370SOL     OW24745   0.981   3.665   3.950  0.6293 -0.3868 -0.1855
 4370SOL    HW124746   1.020   3.638   3.868 -1.0424 -1.6743 -0.5474
 4370SOL    HW224747   0.964   3.583   3.997 -0.0220 -0.2549 -0.1942
 4371SOL     OW24748   4.580   2.377  15.210 -0.2868 -0.3696  0.1382
 4371SOL    HW124749   4.513   2.390  15.143  0.7330 -0.9881 -0.9945
 4371SOL    HW224750   4.557   2.289  15.241 -0.0793 -1.4610 -2.8688
 4372SOL     OW24751   2.647   2.798   6.871  0.1166  0.1642 -0.1777
 4372SOL    HW124752   2.582   2.859   6.904  0.6755  1.4190 -1.3668
 4372SOL    HW224753   2.590   2.724   6.851 -2.0073  2.3505 -2.2435
 4373SOL     OW24754   2.411   3.812   3.840 -0.3462  0.5259  0.0396
 4373SOL    HW124755   2.398   3.802   3.746 -1.6235  0.1226  0.2696
 4373SOL    HW224756   2.469   3.888   3.842 -1.7043  1.5857 -1.1123
 4374SOL     OW24757   4.083   0.999   2.009 -0.8794  0.5271  0.1197
 4374SOL    HW124758   4.030   0.956   2.076  1.6250 -1.1171  1.0417
 4374SOL    HW224759   4.172   0.968   2.026  0.3899  3.2418 -1.4703
 4375SOL     OW24760   3.108   1.259   9.004 -0.0174 -0.8901  0.1164
 4375SOL    HW124761   3.053   1.209   8.944 -0.1905  0.4140 -0.7963
 4375SOL    HW224762   3.055   1.276   9.083  0.4544  0.9156  0.0376
 4376SOL     OW24763   3.214   3.532   6.563 -0.1181  0.3227  0.2472
 4376SOL    HW124764   3.191   3.445   6.597  0.7826 -0.0898 -0.1886
 4376SOL    HW224765   3.125   3.562   6.547  0.5883  2.3332  0.1610
 4377SOL     OW24766   3.831   1.882  15.632  0.1855  0.1955 -0.5088
 4377SOL    HW124767   3.870   1.867  15.719  1.4563 -0.4005 -1.1873
 4377SOL    HW224768   3.869   1.970  15.623  1.4861 -0.3843 -0.6136
 4378SOL     OW24769   3.671   1.614  11.536  0.1972 -0.3617 -0.0812
 4378SOL    HW124770   3.730   1.545  11.566  0.2304  0.0650  0.8469
 4378SOL    HW224771   3.585   1.581  11.564  0.7285  0.7452  2.8583
 4379SOL     OW24772   4.223   3.547   5.372 -0.3634  0.5845 -0.1376
 4379SOL    HW124773   4.310   3.515   5.351 -0.9686 -0.4212 -1.0915
 4379SOL    HW224774   4.188   3.499   5.447  0.2512 -1.8403 -1.4321
 4380SOL     OW24775   3.713   1.941   0.472  0.0307 -0.1235  0.4058
 4380SOL    HW124776   3.680   1.972   0.556 -1.9519 -0.0819 -0.3982
 4380SOL    HW224777   3.648   1.972   0.409  2.3515  0.4911 -1.7032
 4381SOL     OW24778   4.055   2.777  11.123  0.0059 -0.5540 -0.3621
 4381SOL    HW124779   4.033   2.857  11.075 -1.3845 -0.7302 -0.0044
 4381SOL    HW224780   4.083   2.817  11.206 -1.4873 -0.1982 -0.0263
 4382SOL     OW24781   0.284   2.202   8.638  0.1578  0.3034 -0.1245
 4382SOL    HW124782   0.367   2.244   8.661  0.5183 -1.1807  1.3325
 4382SOL    HW224783   0.306   2.164   8.553 -0.0211 -0.3675  0.1332
 4383SOL     OW24784   4.474   1.193   6.204  0.1118  0.5205  0.4515
 4383SOL    HW124785   4.548   1.179   6.264  0.0985  0.4860  0.4598
 4383SOL    HW224786   4.433   1.109   6.188  0.0122  0.1298  2.7110
 4384SOL     OW24787   2.550   2.685   4.535  0.3052 -0.2518 -0.1699
 4384SOL    HW124788   2.484   2.619   4.558 -0.8446  1.2709  0.9856
 4384SOL    HW224789   2.501   2.744   4.477 -0.4678  1.1285  1.8622
 4385SOL     OW24790   4.587   0.258   7.565  0.2499 -0.3566  0.2441
 4385SOL    HW124791   4.555   0.338   7.607 -0.0999  0.5988 -1.8045
 4385SOL    HW224792   4.668   0.288   7.524  0.1687  1.2399  1.2399
 4386SOL     OW24793   0.744   0.607   7.560  0.5974 -0.0056 -0.2111
 4386SOL    HW124794   0.699   0.626   7.477 -1.3020 -0.5143  0.6985
 4386SOL    HW224795   0.823   0.659   7.550  1.1149 -0.6512  0.5566
 4387SOL     OW24796   1.592   3.330   0.816 -0.0085  0.4970 -0.3102
 4387SOL    HW124797   1.531   3.279   0.763  1.9013 -1.3473 -0.7368
 4387SOL    HW224798   1.638   3.383   0.751 -1.3335  0.5864 -1.1763
 4388SOL     OW24799   1.908   1.263   7.784  0.3930  0.1618  0.5496
 4388SOL    HW124800   1.887   1.313   7.706  0.9369 -2.6842 -1.4422
 4388SOL    HW224801   1.819   1.236   7.808  0.1044  1.5995  1.0767
 4389SOL     OW24802   1.428   1.299  12.877  0.1228 -0.0695  0.6574
 4389SOL    HW124803   1.412   1.276  12.969  2.3500  0.0060  1.0596
 4389SOL    HW224804   1.516   1.267  12.861 -1.4618 -2.3456 -3.3482
 4390SOL     OW24805   4.580   0.251   9.411 -0.1614 -0.0027  0.1421
 4390SOL    HW124806   4.559   0.321   9.473  0.8939 -1.5008  2.1679
 4390SOL    HW224807   4.580   0.180   9.475  2.7417 -0.4976 -0.3980
 4391SOL     OW24808   2.239   0.067   7.047 -0.1089 -0.3071  0.3365
 4391SOL    HW124809   2.289   0.050   6.967 -1.1085 -2.7619  0.2515
 4391SOL    HW224810   2.161   0.013   7.038 -0.4031  0.2247 -0.3331
 4392SOL     OW24811   4.274   3.232   6.015 -0.1281  0.4976 -0.0237
 4392SOL    HW124812   4.301   3.170   6.084 -0.2051  0.6491  0.1434
 4392SOL    HW224813   4.180   3.220   6.029 -0.1363  0.5084 -0.0713
 4393SOL     OW24814   0.901   0.439   8.016 -0.0007 -0.1521 -0.6356
 4393SOL    HW124815   0.892   0.415   7.924 -2.6268  0.2215 -0.4967
 4393SOL    HW224816   0.992   0.468   8.013 -0.5515  1.5575 -0.5091
 4394SOL     OW24817   0.008   4.037  13.307  0.3289 -0.3107 -0.3417
 4394SOL    HW124818   4.724   4.052  13.399 -1.4153  0.4413 -0.9031
 4394SOL    HW224819   0.079   3.974  13.320  0.5598  0.4676  2.1321
 4395SOL     OW24820   3.810   1.190  12.452  0.3980  0.1411 -0.4974
 4395SOL    HW124821   3.727   1.222  12.416  0.4223 -0.3996 -1.0529
 4395SOL    HW224822   3.822   1.262  12.514  1.0629 -1.8773  1.7333
 4396SOL     OW24823   2.382   2.031  17.064  0.0854  0.5071  0.0896
 4396SOL    HW124824   2.365   1.941  17.090 -2.0677  0.3980 -1.6727
 4396SOL    HW224825   2.304   2.048  17.012  0.9694  1.5483 -0.8982
 4397SOL     OW24826   0.682   0.044   3.216  0.1762 -0.8182  0.4021
 4397SOL    HW124827   0.698   4.723   3.144 -1.1724 -0.5354 -0.1329
 4397SOL    HW224828   0.739   0.015   3.287  0.9055  0.1406  0.2156
 4398SOL     OW24829   3.239   4.564  17.417  0.3034  0.1879  0.3035
 4398SOL    HW124830   3.332   4.545  17.429 -0.2380 -2.4329  0.2941
 4398SOL    HW224831   3.199   4.477  17.413 -1.7539  1.1781 -0.7658
 4399SOL     OW24832   1.157   2.751   5.113 -0.4072  0.6142 -0.2258
 4399SOL    HW124833   1.174   2.788   5.026  0.2659  2.0568  0.5072
 4399SOL    HW224834   1.247   2.747   5.146 -1.3511 -0.9447  2.1025
 4400SOL     OW24835   0.412   4.595   4.679 -0.1498  0.1021  0.0773
 4400SOL    HW124836   0.490   4.594   4.734 -1.2569 -0.4739  1.6236
 4400SOL    HW224837   0.444   4.662   4.618  0.9825  0.4260  1.0518
 4401SOL     OW24838   2.469   1.638  15.127 -0.1073  0.4205 -0.1854
 4401SOL    HW124839   2.425   1.590  15.058  0.8976 -0.3039 -0.3245
 4401SOL    HW224840   2.399   1.695  15.160 -1.2547 -1.6817  1.0150
 4402SOL     OW24841   3.322   4.237   3.486  0.8324  0.4151 -0.0757
 4402SOL    HW124842   3.283   4.325   3.485 -2.5175 -1.0359  2.4665
 4402SOL    HW224843   3.326   4.204   3.575  0.4986  4.5363  1.4855
 4403SOL     OW24844   3.357   0.020   6.478 -0.1197  0.3585  0.2533
 4403SOL    HW124845   3.350   4.666   6.459 -1.4600  0.6101 -0.4383
 4403SOL    HW224846   3.417   0.019   6.552 -1.6106  0.2962  1.4449
 4404SOL     OW24847   2.270   0.334   4.953  0.0002 -0.4050  0.7023
 4404SOL    HW124848   2.287   0.348   5.046  1.7871 -3.4325  0.8446
 4404SOL    HW224849   2.312   0.410   4.911  0.6658 -1.9771 -1.4874
 4405SOL     OW24850   1.063   1.328   2.869 -0.3080  0.4207 -0.0534
 4405SOL    HW124851   1.123   1.346   2.797  0.1620 -2.1886 -0.3030
 4405SOL    HW224852   1.101   1.340   2.956  0.8717 -2.0910 -0.2547
 4406SOL     OW24853   1.568   0.066   6.695  0.3040  0.1487 -0.1932
 4406SOL    HW124854   1.526   0.036   6.614  1.0679  0.5602 -0.7361
 4406SOL    HW224855   1.608   0.146   6.663 -0.4100  0.4863 -0.2292
 4407SOL     OW24856   0.820   0.691   9.655  0.2878  0.0674  0.4804
 4407SOL    HW124857   0.906   0.733   9.658  1.9993 -3.1532 -3.8507
 4407SOL    HW224858   0.760   0.765   9.669  1.0590  0.8853 -0.5040
 4408SOL     OW24859   2.781   4.622   5.020 -0.5570  0.7037 -0.2081
 4408SOL    HW124860   2.859   4.677   5.024  1.3736 -1.9846 -0.4010
 4408SOL    HW224861   2.789   4.557   5.090  2.7445  1.5518  0.2173
 4409SOL     OW24862   3.287   1.018   9.248  0.1779 -0.0355  0.0246
 4409SOL    HW124863   3.252   1.086   9.306  0.6380 -1.1649  1.6240
 4409SOL    HW224864   3.207   0.967   9.240 -0.5260  1.5117 -2.9688
 4410SOL     OW24865   0.102   1.369   2.863 -0.0345  0.3634 -0.0753
 4410SOL    HW124866   0.157   1.311   2.916  0.9237  0.7566 -0.6521
 4410SOL    HW224867   0.165   1.438   2.842 -1.2923  0.4580 -3.4648
 4411SOL     OW24868   4.625   2.949   6.897 -0.0005  0.1788  0.2119
 4411SOL    HW124869   4.545   2.900   6.879  0.5051 -0.8196  0.6711
 4411SOL    HW224870   4.604   3.039   6.873  1.4611  0.7945  1.3066
 4412SOL     OW24871   1.366   4.474   9.592  0.1804 -0.4416  0.0133
 4412SOL    HW124872   1.431   4.511   9.652 -1.6005 -2.4524  3.1547
 4412SOL    HW224873   1.369   4.384   9.622  1.6956 -0.2819  0.3215
 4413SOL     OW24874   2.954   4.706   2.106  0.4256 -0.1930  0.1602
 4413SOL    HW124875   2.965   4.737   2.016  1.5413 -2.0203 -0.3187
 4413SOL    HW224876   2.899   0.032   2.150  3.2875  2.9876 -0.9790
 4414SOL     OW24877   1.452   3.521   3.064 -0.1777  0.7837 -0.5454
 4414SOL    HW124878   1.435   3.429   3.082 -3.0301  1.5598  0.6208
 4414SOL    HW224879   1.441   3.553   3.153  0.2616 -0.6884  0.0424
 4415SOL     OW24880   1.924   4.701  10.108 -0.1087  0.7827  0.3506
 4415SOL    HW124881   1.908   4.706  10.202  0.9061 -0.7799  0.6113
 4415SOL    HW224882   2.020   4.698  10.101 -0.0736  1.4141  0.5220
 4416SOL     OW24883   0.155   1.145   8.759  0.2637 -0.1711 -0.3525
 4416SOL    HW124884   0.144   1.201   8.682  1.2433 -1.1666 -1.2223
 4416SOL    HW224885   0.070   1.159   8.801 -0.4557 -2.5811 -0.9998
 4417SOL     OW24886   1.443   2.816   7.794 -0.2116  0.7328  0.7219
 4417SOL    HW124887   1.480   2.779   7.713 -2.2344 -0.0924  0.1847
 4417SOL    HW224888   1.437   2.740   7.852  0.2695  1.0987  1.2469
 4418SOL     OW24889   3.259   0.034   2.686 -0.0848 -0.0341 -0.2739
 4418SOL    HW124890   3.191   0.029   2.753  0.4580 -2.2789  0.1023
 4418SOL    HW224891   3.221   0.098   2.626 -0.7764 -0.8246 -0.6743
 4419SOL     OW24892   0.065   4.357   6.834 -0.7615 -0.3003  0.3012
 4419SOL    HW124893   4.718   4.317   6.822 -0.9784  0.2041  0.1926
 4419SOL    HW224894   0.121   4.280   6.842  0.4843  0.6110  0.4608
 4420SOL     OW24895   4.390   2.295  17.223 -0.1681  0.4246 -0.1130
 4420SOL    HW124896   4.451   2.222  17.210  1.6703  2.0338 -0.4566
 4420SOL    HW224897   4.452   2.365  17.245  1.4366 -1.2294  0.6675
 4421SOL     OW24898   1.004   1.838  12.916 -0.0528  0.1955 -1.0615
 4421SOL    HW124899   0.916   1.866  12.891 -0.4849 -0.6403 -0.4838
 4421SOL    HW224900   0.999   1.853  13.011  0.1020 -1.5842 -0.7709
 4422SOL     OW24901   4.676   2.199   9.000 -0.6497  0.1173 -0.7182
 4422SOL    HW124902   0.005   2.198   9.067 -1.1520 -0.0612 -0.2120
 4422SOL    HW224903   4.729   2.215   8.922 -0.3635 -2.1203 -0.9762
 4423SOL     OW24904   2.623   1.433   8.874 -0.0042  0.2015  0.2527
 4423SOL    HW124905   2.536   1.469   8.856 -0.2094  0.1602  1.1755
 4423SOL    HW224906   2.687   1.499   8.846  1.4709 -0.9070  1.0615
 4424SOL     OW24907   0.157   1.087   2.723  0.9613  0.5507  0.4065
 4424SOL    HW124908   0.125   1.146   2.792  0.5943 -0.1708  0.8500
 4424SOL    HW224909   0.084   1.072   2.664 -1.9039  1.1728  3.7761
 4425SOL     OW24910   2.203   3.980   2.357 -0.0826  0.8481  0.0550
 4425SOL    HW124911   2.208   3.918   2.285  0.2319 -0.2756  1.0487
 4425SOL    HW224912   2.291   4.018   2.359 -0.5831  1.9224  1.6462
 4426SOL     OW24913   3.812   1.455   5.766  0.2978 -0.5236 -0.3897
 4426SOL    HW124914   3.848   1.507   5.695  1.0689 -0.0467  0.3389
 4426SOL    HW224915   3.824   1.364   5.738 -0.9553 -0.4114 -1.2592
 4427SOL     OW24916   3.754   2.582  16.788  0.2873 -0.0769  0.7327
 4427SOL    HW124917   3.673   2.591  16.838 -1.7488 -0.2490 -2.5896
 4427SOL    HW224918   3.780   2.490  16.788  0.2089 -0.0980  0.5471
 4428SOL     OW24919   1.127   0.310   9.387 -0.2669 -0.4867 -0.5968
 4428SOL    HW124920   1.130   0.237   9.449  1.7290 -1.2224 -1.5478
 4428SOL    HW224921   1.221   0.317   9.372 -0.3227 -0.7895 -1.0874
 4429SOL     OW24922   1.716   1.451   3.876  0.3388  0.1335 -0.1472
 4429SOL    HW124923   1.718   1.466   3.781 -1.6489 -2.7631 -0.6719
 4429SOL    HW224924   1.621   1.443   3.889 -0.0414  3.6432 -0.8037
 4430SOL     OW24925   2.936   0.781   6.886  0.0091  0.1873  0.3010
 4430SOL    HW124926   3.028   0.784   6.911 -0.3651  1.4180  1.5083
 4430SOL    HW224927   2.940   0.706   6.827  2.1472  1.1502 -0.7784
 4431SOL     OW24928   3.198   2.291   4.630 -0.8706 -0.3672  0.0995
 4431SOL    HW124929   3.211   2.281   4.724  1.5405  0.5319 -0.1340
 4431SOL    HW224930   3.278   2.338   4.606 -0.0797 -1.8282 -0.1145
 4432SOL     OW24931   3.487   1.901   8.145 -0.0137  0.0460  0.4949
 4432SOL    HW124932   3.418   1.968   8.145  0.7254  0.8024 -0.1938
 4432SOL    HW224933   3.440   1.818   8.159 -0.7101  0.4772  0.7224
 4433SOL     OW24934   3.783   4.574   7.430 -0.4917  0.3302 -0.0783
 4433SOL    HW124935   3.867   4.619   7.420 -0.8476  0.6582 -1.5339
 4433SOL    HW224936   3.737   4.633   7.370 -2.0387 -2.0226 -1.1957
 4434SOL     OW24937   2.144   4.148   5.764  0.0365 -0.2322  0.1870
 4434SOL    HW124938   2.211   4.082   5.779  0.2688  0.0899  0.5649
 4434SOL    HW224939   2.075   4.096   5.723 -0.3587  0.9185 -0.5967
 4435SOL     OW24940   3.931   1.908  11.475  0.3826  0.1288 -0.3774
 4435SOL    HW124941   3.921   2.001  11.496 -1.9143 -0.3693  0.6421
 4435SOL    HW224942   4.003   1.882  11.532  0.9114 -0.6677 -1.3981
 4436SOL     OW24943   3.910   1.436   3.370 -0.4896 -0.1296  0.0070
 4436SOL    HW124944   3.940   1.346   3.354 -0.0578  0.2130 -1.0945
 4436SOL    HW224945   3.898   1.421   3.464 -2.8781 -1.3398 -0.4764
 4437SOL     OW24946   3.732   4.000  10.973  0.1467 -0.1540 -0.3207
 4437SOL    HW124947   3.700   4.059  11.041  1.5718 -1.1352  1.2194
 4437SOL    HW224948   3.680   4.040  10.903  0.8915 -1.5301 -1.6665
 4438SOL     OW24949   2.825   0.896   4.708  0.3393  0.1311  0.1288
 4438SOL    HW124950   2.794   0.935   4.626  0.1170  2.3192  1.2270
 4438SOL    HW224951   2.903   0.948   4.724  0.5722 -0.1454 -0.1238
 4439SOL     OW24952   1.861   3.691   3.590 -0.7879  0.0607 -0.3072
 4439SOL    HW124953   1.916   3.634   3.536  0.6422  2.4363 -1.3772
 4439SOL    HW224954   1.929   3.734   3.642 -0.4776  2.6396 -2.8650
 4440SOL     OW24955   0.211   2.526   1.866 -0.2916  0.6142 -0.2200
 4440SOL    HW124956   0.239   2.611   1.900  2.7212 -0.0723 -1.0010
 4440SOL    HW224957   0.138   2.552   1.809 -0.6036  1.4156  0.5313
 4441SOL     OW24958   3.545   3.067   5.515 -0.5058  0.0880  0.4848
 4441SOL    HW124959   3.486   3.130   5.473 -1.0911 -2.4196 -2.4329
 4441SOL    HW224960   3.624   3.107   5.480  0.0606 -0.0852  1.5833
 4442SOL     OW24961   2.301   0.367  12.497 -0.0926  0.9548 -1.2351
 4442SOL    HW124962   2.312   0.380  12.591  1.0047  0.7528 -1.3373
 4442SOL    HW224963   2.299   0.458  12.467 -0.1221  1.7245  1.0880
 4443SOL     OW24964   4.699   1.794   7.708 -0.1035  0.0833  0.2873
 4443SOL    HW124965   4.607   1.774   7.725 -0.7400  1.5090 -1.5521
 4443SOL    HW224966   4.707   1.870   7.765 -2.5988  0.0940  0.6166
 4444SOL     OW24967   2.135   0.712   7.002 -0.5394 -0.2842 -0.4285
 4444SOL    HW124968   2.055   0.736   6.956 -1.7097  1.4644  2.5455
 4444SOL    HW224969   2.143   0.617   6.995 -0.8889 -0.2779 -0.8455
 4445SOL     OW24970   3.840   4.534   5.300 -0.6834 -0.1613  0.0856
 4445SOL    HW124971   3.885   4.598   5.245 -0.3188 -0.2882  0.2387
 4445SOL    HW224972   3.892   4.532   5.381 -1.6314 -3.4867  0.6117
 4446SOL     OW24973   0.213   4.332   9.627  0.3434 -0.1513  0.1961
 4446SOL    HW124974   0.124   4.364   9.643  0.7547  1.2903 -0.4459
 4446SOL    HW224975   0.236   4.282   9.705  0.0242 -0.0749  0.3421
 4447SOL     OW24976   1.766   2.505   8.571  0.5480 -0.3820  0.9646
 4447SOL    HW124977   1.784   2.417   8.538  0.3036 -0.5786  1.3491
 4447SOL    HW224978   1.805   2.509   8.658 -0.6176  1.6154  1.3823
 4448SOL     OW24979   3.475   0.369   7.857 -0.0667  0.3970 -0.4614
 4448SOL    HW124980   3.431   0.397   7.937 -0.4248 -1.3367 -0.0366
 4448SOL    HW224981   3.467   0.273   7.863  0.2539  0.4918  1.5759
 4449SOL     OW24982   4.603   1.261   3.875 -0.0570 -0.4830  0.3534
 4449SOL    HW124983   4.577   1.284   3.786  0.5573 -0.7731  0.0989
 4449SOL    HW224984   4.697   1.264   3.856 -0.1788  0.7942 -0.0629
 4450SOL     OW24985   1.220   1.677  13.103  0.0756  0.9666 -0.5476
 4450SOL    HW124986   1.165   1.599  13.110 -1.7800  2.6506  4.0031
 4450SOL    HW224987   1.151   1.736  13.134 -1.5963 -1.6413  0.8147
 4451SOL     OW24988   1.158   2.698   5.907 -0.7084  0.1428  0.4539
 4451SOL    HW124989   1.090   2.648   5.951 -0.7085 -2.1309 -2.1310
 4451SOL    HW224990   1.147   2.679   5.814 -1.3664  2.7531 -0.0039
 4452SOL     OW24991   0.077   1.393  13.927  0.0322  0.2007 -0.3290
 4452SOL    HW124992   0.070   1.318  13.986 -0.2690  0.2825 -0.2627
 4452SOL    HW224993   0.147   1.355  13.873  1.0959  1.5896  0.0816
 4453SOL     OW24994   0.248   2.529   4.770 -0.3247  0.1477 -0.2688
 4453SOL    HW124995   0.334   2.540   4.729 -1.0263 -1.7206 -2.2316
 4453SOL    HW224996   0.251   2.603   4.830  0.2202 -0.5643  0.5864
 4454SOL     OW24997   4.382   3.961  10.946 -0.3198  0.1468  0.0776
 4454SOL    HW124998   4.292   3.959  10.915 -1.3021  1.6127  2.9034
 4454SOL    HW224999   4.401   4.055  10.936  1.4644  0.0853  2.8799
 4455SOL     OW25000   1.105   3.547   5.568  0.2783  0.1272  0.0428
 4455SOL    HW125001   1.178   3.524   5.626  0.4410  0.7619  0.0887
 4455SOL    HW225002   1.141   3.614   5.510  0.0181  0.8877  0.7528
 4456SOL     OW25003   0.449   3.108   2.362 -0.0457 -0.2814  0.8106
 4456SOL    HW125004   0.522   3.169   2.377 -2.1911  2.5020 -0.1140
 4456SOL    HW225005   0.409   3.130   2.446 -2.3798 -0.1189 -0.3497
 4457SOL     OW25006   1.599   0.552   4.342 -0.4416 -0.1595  0.1015
 4457SOL    HW125007   1.645   0.612   4.400  0.6226 -0.8129 -0.0605
 4457SOL    HW225008   1.632   0.467   4.370 -0.1717 -0.8291 -2.1944
 4458SOL     OW25009   3.705   2.665   3.446 -0.5376  0.2677 -0.2547
 4458SOL    HW125010   3.741   2.580   3.471  0.1090  0.1813 -1.4925
 4458SOL    HW225011   3.628   2.666   3.503 -1.7226  2.3781 -1.8886
 4459SOL     OW25012   4.193   0.408   7.463 -0.3206  0.2758  0.3480
 4459SOL    HW125013   4.202   0.503   7.462  2.2287  0.0259 -1.5606
 4459SOL    HW225014   4.216   0.394   7.555 -2.3400  0.7616  0.9234
 4460SOL     OW25015   3.066   2.432   1.407  0.3212  0.2307 -0.1263
 4460SOL    HW125016   3.011   2.369   1.359  2.4100 -2.5228  1.0906
 4460SOL    HW225017   3.124   2.456   1.334 -0.3718  1.9559 -0.1093
 4461SOL     OW25018   1.589   1.547   0.121  0.3019 -0.3236 -0.7114
 4461SOL    HW125019   1.572   1.514   0.209  2.7638  1.9549  0.5976
 4461SOL    HW225020   1.645   1.480   0.079  1.8766 -1.2268  2.8463
 4462SOL     OW25021   3.311   1.733  13.762 -0.0933  0.2507  0.1604
 4462SOL    HW125022   3.240   1.784  13.801 -3.5384 -2.8091 -2.0238
 4462SOL    HW225023   3.268   1.674  13.699  0.0037  0.0928  0.2412
 4463SOL     OW25024   3.973   1.557   2.973 -0.0549 -0.1906 -0.2298
 4463SOL    HW125025   3.920   1.478   2.975 -0.8082  0.3965  2.4263
 4463SOL    HW225026   3.936   1.599   3.050 -0.5142  0.9024 -1.0436
 4464SOL     OW25027   0.398   3.444   6.726  0.0027  0.1769  0.4805
 4464SOL    HW125028   0.479   3.409   6.690  0.0415 -0.0622  0.8098
 4464SOL    HW225029   0.445   3.503   6.785  1.4206 -1.4807  0.9688
 4465SOL     OW25030   2.032   4.115   1.747 -0.4916  0.0959  0.0060
 4465SOL    HW125031   1.980   4.195   1.741 -1.0122 -0.2076  0.4299
 4465SOL    HW225032   1.979   4.071   1.814 -1.5842 -1.1463 -1.6843
 4466SOL     OW25033   0.172   3.232  16.547  0.3550 -0.5882  0.8307
 4466SOL    HW125034   0.129   3.239  16.462  2.7673 -0.2387 -0.3502
 4466SOL    HW225035   0.129   3.157  16.590 -2.5220  0.3922 -0.3676
 4467SOL     OW25036   4.250   2.406   5.012  0.3156  0.2548 -0.5271
 4467SOL    HW125037   4.223   2.388   4.922  0.4287 -1.2347 -0.2653
 4467SOL    HW225038   4.335   2.364   5.020 -0.2435 -0.4249  1.9033
 4468SOL     OW25039   4.610   4.674   0.248 -0.2607 -0.1431 -0.3614
 4468SOL    HW125040   4.588   0.023   0.217 -0.8002  0.0359  0.5279
 4468SOL    HW225041   4.702   4.676   0.274 -1.1133  1.5203  2.5506
 4469SOL     OW25042   0.972   2.172   7.003 -0.2344  0.4910  0.1569
 4469SOL    HW125043   0.961   2.240   6.937  0.1699  0.1248 -0.2811
 4469SOL    HW225044   1.043   2.214   7.050 -0.5945  1.6366 -0.3362
 4470SOL     OW25045   2.749   2.685  13.127 -0.2824  0.2457 -0.6757
 4470SOL    HW125046   2.735   2.632  13.206  1.0026  0.7684 -0.1024
 4470SOL    HW225047   2.823   2.740  13.154  0.9371 -1.5359 -0.3693
 4471SOL     OW25048   1.178   3.858   4.056 -0.3548 -0.0682  0.4976
 4471SOL    HW125049   1.106   3.814   4.011 -1.4958  0.3581  1.9003
 4471SOL    HW225050   1.251   3.822   4.007 -0.8033 -0.3013 -0.0070
 4472SOL     OW25051   3.881   0.507   9.013 -0.0492 -0.0067  0.4642
 4472SOL    HW125052   3.858   0.486   9.103  1.8267 -2.9826  0.2530
 4472SOL    HW225053   3.804   0.540   8.966 -1.6903 -1.3781  2.2225
 4473SOL     OW25054   0.836   0.017   6.169 -0.2036 -0.1401  0.7120
 4473SOL    HW125055   0.909   0.021   6.231  1.2955  0.4007 -1.1062
 4473SOL    HW225056   0.862   4.678   6.120  3.2025  0.7727  1.0488
 4474SOL     OW25057   4.192   1.595  12.690  0.4462 -0.4161 -0.4830
 4474SOL    HW125058   4.097   1.582  12.698  0.2556  0.7710 -0.8424
 4474SOL    HW225059   4.205   1.617  12.598 -1.9399 -1.7381 -1.1432
 4475SOL     OW25060   3.318   0.005  15.570 -0.6979  0.4550 -0.4571
 4475SOL    HW125061   3.408   0.021  15.539 -0.6939 -0.7354 -1.0790
 4475SOL    HW225062   3.322   0.058  15.649  0.1229 -0.8673  0.3957
 4476SOL     OW25063   3.578   2.189  17.363 -0.2412  0.8122 -0.3757
 4476SOL    HW125064   3.594   2.095  17.352  2.1561  1.2284 -0.2793
 4476SOL    HW225065   3.607   2.204  17.453  0.0752 -0.5005 -0.2610
 4477SOL     OW25066   1.063   0.247   0.296  0.1459  0.5824  0.1761
 4477SOL    HW125067   1.065   0.314   0.365  1.4380 -0.5293  1.2234
 4477SOL    HW225068   0.983   0.271   0.250  2.0808 -1.9346 -4.4381
 4478SOL     OW25069   0.294   3.125   7.881 -0.2871  0.4098 -0.3481
 4478SOL    HW125070   0.303   3.117   7.786  0.1479  2.2378 -0.4560
 4478SOL    HW225071   0.313   3.035   7.906 -0.2378  0.1845 -1.2082
 4479SOL     OW25072   2.166   1.887  14.628 -0.1127 -0.0910  0.5178
 4479SOL    HW125073   2.211   1.969  14.651 -0.7131  0.7677 -1.3864
 4479SOL    HW225074   2.207   1.864  14.545 -0.3156  0.7342  0.1832
 4480SOL     OW25075   3.297   0.596   6.122 -0.4457 -0.2322  0.0100
 4480SOL    HW125076   3.350   0.550   6.188  2.3521 -0.0398 -2.1031
 4480SOL    HW225077   3.214   0.549   6.130  0.2718 -1.6367 -0.9167
 4481SOL     OW25078   4.465   4.060   2.610 -0.3388  0.2764  0.9539
 4481SOL    HW125079   4.559   4.046   2.598 -0.5400 -0.7588  0.5571
 4481SOL    HW225080   4.446   4.141   2.563  0.1582 -0.8576 -1.2296
 4482SOL     OW25081   0.631   1.127   4.044 -0.6489  0.3181 -0.6642
 4482SOL    HW125082   0.666   1.161   4.127 -1.2955  0.3122 -0.3840
 4482SOL    HW225083   0.538   1.116   4.065 -0.6838  1.1797 -0.3738
 4483SOL     OW25084   3.348   2.016  12.702  0.3235 -0.0229  0.0347
 4483SOL    HW125085   3.415   1.974  12.757 -1.3421 -2.7200  0.0075
 4483SOL    HW225086   3.344   1.953  12.630  1.8374 -1.2542  1.0172
 4484SOL     OW25087   4.600   0.323   8.317  0.3477  0.4080  0.0738
 4484SOL    HW125088   4.649   0.244   8.298 -2.5975 -1.7459  1.3420
 4484SOL    HW225089   4.597   0.308   8.412 -1.7697 -0.4258 -0.1302
 4485SOL     OW25090   3.348   1.589   9.445 -0.3450 -0.4688  0.4308
 4485SOL    HW125091   3.415   1.552   9.387  2.2258  0.2916  2.9422
 4485SOL    HW225092   3.350   1.683   9.425 -3.7907 -0.4392  0.2196
 4486SOL     OW25093   4.506   4.208   8.969  0.1331  0.3609 -0.3387
 4486SOL    HW125094   4.525   4.213   8.875  1.1400 -2.5271 -0.2691
 4486SOL    HW225095   4.432   4.147   8.966  0.3717  0.0615 -0.0370
 4487SOL     OW25096   2.357   2.820   6.578  0.0231 -0.1330  0.0913
 4487SOL    HW125097   2.419   2.767   6.528  0.2842 -0.6190  0.9441
 4487SOL    HW225098   2.299   2.861   6.513  1.3766  0.5983 -0.6549
 4488SOL     OW25099   3.937   4.145   3.193 -0.2322  0.0019  0.2101
 4488SOL    HW125100   3.865   4.169   3.135  0.5243  2.0159  0.0955
 4488SOL    HW225101   3.998   4.104   3.131 -0.1523 -0.3058  0.4911
 4489SOL     OW25102   0.022   0.409   2.570  0.1518  0.4938 -0.1796
 4489SOL    HW125103   4.703   0.336   2.548  1.0242  0.3147 -1.9020
 4489SOL    HW225104   4.736   0.434   2.659  1.3033 -0.4278  0.4083
 4490SOL     OW25105   0.037   3.370   8.764  0.0663 -0.2678  0.0711
 4490SOL    HW125106   4.728   3.447   8.733  0.7275  0.1743  0.1273
 4490SOL    HW225107   0.016   3.364   8.857  1.3590  0.1309  0.3918
 4491SOL     OW25108   3.355   0.956  16.615 -0.5054 -0.4267  0.2786
 4491SOL    HW125109   3.352   0.906  16.697  1.8165  0.1132  0.6878
 4491SOL    HW225110   3.270   0.999  16.623 -0.2667 -0.3891  2.4788
 4492SOL     OW25111   4.577   4.071  15.642 -0.1865 -0.5196 -0.3204
 4492SOL    HW125112   4.639   4.027  15.583  1.0285 -0.6391  1.0368
 4492SOL    HW225113   4.559   4.158  15.607 -0.5217 -0.4313  0.0786
 4493SOL     OW25114   3.487   2.305   6.796 -1.0779  0.0039 -0.1958
 4493SOL    HW125115   3.499   2.242   6.725 -2.5149 -0.6234  0.1155
 4493SOL    HW225116   3.393   2.315   6.807 -1.1902 -2.0781  0.7456
 4494SOL     OW25117   1.228   4.682  14.359 -0.2561 -0.8213  0.5381
 4494SOL    HW125118   1.302   0.003  14.363  0.6606 -1.6973 -3.9527
 4494SOL    HW225119   1.216   4.667  14.453 -1.5342  1.4144  0.7251
 4495SOL     OW25120   0.299   2.227   6.346  0.3048  0.1556 -0.4766
 4495SOL    HW125121   0.357   2.286   6.296  2.5183 -0.3580  1.4847
 4495SOL    HW225122   0.280   2.282   6.421 -1.3686  1.0033 -1.5323
 4496SOL     OW25123   1.205   3.182  12.515  0.8246  0.3472  0.9643
 4496SOL    HW125124   1.176   3.259  12.564 -2.0630 -1.0701  1.4887
 4496SOL    HW225125   1.127   3.127  12.502  0.8288  0.4135  0.6558
 4497SOL     OW25126   3.307   1.111   3.784 -0.5152  0.1295  0.3557
 4497SOL    HW125127   3.291   1.199   3.817  1.9509  0.9502 -0.6507
 4497SOL    HW225128   3.263   1.125   3.700 -1.1504 -0.2714  0.6255
 4498SOL     OW25129   4.542   4.327   4.765 -0.3900 -0.0928  0.1896
 4498SOL    HW125130   4.633   4.336   4.737 -0.1231 -0.3527  0.9752
 4498SOL    HW225131   4.495   4.404   4.732  0.4059  0.2397 -0.1520
 4499SOL     OW25132   1.109   0.471   8.433 -0.8942 -0.0497 -0.2373
 4499SOL    HW125133   1.165   0.409   8.386 -1.1034  0.4618 -1.1694
 4499SOL    HW225134   1.098   0.430   8.519  3.1947 -1.6879 -0.4767
 4500SOL     OW25135   4.678   4.010   7.304 -0.3617  0.5201 -0.3372
 4500SOL    HW125136   4.599   4.039   7.349  0.1683  2.9622 -1.0240
 4500SOL    HW225137   4.729   4.090   7.312  0.8515 -0.2667 -0.3244
 4501SOL     OW25138   3.119   2.406   8.761 -0.6249  0.0616  1.0182
 4501SOL    HW125139   3.178   2.442   8.828  1.2625 -0.8039 -0.1776
 4501SOL    HW225140   3.103   2.320   8.800 -0.0914  0.0931  1.3136
 4502SOL     OW25141   2.218   0.326  11.191 -0.1622 -0.1391  0.0584
 4502SOL    HW125142   2.206   0.231  11.184 -1.3411 -0.1308  2.0191
 4502SOL    HW225143   2.281   0.318  11.262 -0.1370  1.3667  0.1926
 4503SOL     OW25144   1.828   0.323  11.801 -0.1720 -0.2800  0.6037
 4503SOL    HW125145   1.744   0.328  11.847 -1.1881  1.1875 -1.4042
 4503SOL    HW225146   1.836   0.409  11.760  0.9510 -1.2623 -1.2514
 4504SOL     OW25147   0.387   3.691   5.971  0.5775  0.1782  0.5878
 4504SOL    HW125148   0.295   3.685   5.944  0.7535 -0.2798  0.0832
 4504SOL    HW225149   0.379   3.740   6.053  0.3206  0.5282  0.3531
 4505SOL     OW25150   2.166   0.978   7.985 -0.0789  0.2807  0.1996
 4505SOL    HW125151   2.091   0.978   8.045  0.5626  0.4193  1.0146
 4505SOL    HW225152   2.179   0.885   7.966  1.7724  0.1482  2.0585
 4506SOL     OW25153   2.838   1.711   8.573 -0.2215 -0.1425  0.4107
 4506SOL    HW125154   2.834   1.626   8.530 -0.2520 -0.3311  0.7881
 4506SOL    HW225155   2.929   1.741   8.572 -1.2600  2.9864 -1.6315
 4507SOL     OW25156   2.679   0.235   2.552 -0.2976 -0.2285 -0.7537
 4507SOL    HW125157   2.646   0.158   2.506 -1.4659  0.8219 -1.6914
 4507SOL    HW225158   2.605   0.278   2.595  0.5628  1.4137 -0.8957
 4508SOL     OW25159   0.313   1.112  17.722  0.3616  0.3983 -0.4525
 4508SOL    HW125160   0.372   1.134  17.650 -0.3805  1.8692 -0.6161
 4508SOL    HW225161   0.339   1.176   0.034 -0.7912  1.4492 -1.0215
 4509SOL     OW25162   0.298   3.966  10.005  0.8780 -0.0007  0.1859
 4509SOL    HW125163   0.253   3.885   9.982 -1.4271  1.4423 -0.3559
 4509SOL    HW225164   0.316   3.925  10.090 -1.3944  1.0662  1.1807
 4510SOL     OW25165   1.918   0.007   8.578  0.7943  0.5332  0.2189
 4510SOL    HW125166   1.961   4.666   8.548  1.7292  0.4834  1.7409
 4510SOL    HW225167   1.897   4.719   8.667  2.5663 -1.1304  0.1138
 4511SOL     OW25168   2.941   1.984   4.243 -0.2724  0.4081 -0.2390
 4511SOL    HW125169   2.870   1.921   4.235 -1.5464  1.6931  0.7933
 4511SOL    HW225170   3.020   1.946   4.205  0.5258 -0.1121  1.9018
 4512SOL     OW25171   3.493   4.291  10.467 -0.0195 -0.1738  0.1246
 4512SOL    HW125172   3.464   4.203  10.491 -1.5142  0.5622  1.0512
 4512SOL    HW225173   3.413   4.336  10.496 -0.5222 -0.1366 -1.3083
 4513SOL     OW25174   1.653   4.483   4.312  0.0605 -0.2405 -0.0634
 4513SOL    HW125175   1.686   4.498   4.400  0.8200 -2.6013  0.0363
 4513SOL    HW225176   1.728   4.507   4.259 -1.1835  3.7790 -0.0053
 4514SOL     OW25177   1.766   3.576   6.679  0.0937 -0.8897 -0.4349
 4514SOL    HW125178   1.675   3.568   6.652  0.0009 -1.0251 -0.0756
 4514SOL    HW225179   1.754   3.597   6.771  1.1273 -1.3576 -0.1826
 4515SOL     OW25180   4.091   0.126  13.935 -0.5003 -0.3258  0.0075
 4515SOL    HW125181   4.006   0.136  13.892  0.1637  1.4020 -0.9094
 4515SOL    HW225182   4.137   0.203  13.900 -1.4189 -0.0567 -0.6058
 4516SOL     OW25183   3.509   0.154   2.689  0.2935 -0.0625 -0.4645
 4516SOL    HW125184   3.515   0.210   2.612  0.4718  1.4036  0.6302
 4516SOL    HW225185   3.424   0.113   2.677 -0.2010 -0.1152  3.1487
 4517SOL     OW25186   1.828   4.326   1.761 -0.6282 -0.0808  0.4813
 4517SOL    HW125187   1.779   4.367   1.833 -2.0024 -0.2612 -0.3454
 4517SOL    HW225188   1.797   4.362   1.678  1.5755 -0.0731 -0.3303
 4518SOL     OW25189   2.815   0.238  16.450 -0.1643  0.0427 -0.6487
 4518SOL    HW125190   2.768   0.259  16.369  0.3088  0.0652 -0.9222
 4518SOL    HW225191   2.797   0.145  16.461 -0.1647  0.1810  0.5121
 4519SOL     OW25192   1.640   1.188   7.135  0.6522  1.0387  0.4713
 4519SOL    HW125193   1.572   1.255   7.148 -0.1808  0.2022  0.4469
 4519SOL    HW225194   1.616   1.126   7.203 -0.4561 -1.2813 -2.0000
 4520SOL     OW25195   4.425   0.036   0.788 -0.4125  0.3228  0.0078
 4520SOL    HW125196   4.422   4.684   0.759 -1.4594  1.6011 -3.8739
 4520SOL    HW225197   4.421   0.026   0.883  2.0466  0.3898  0.1370
 4521SOL     OW25198   3.554   2.394   8.773  0.0723  0.0680 -0.5013
 4521SOL    HW125199   3.502   2.329   8.820 -1.7846  0.8265 -1.5284
 4521SOL    HW225200   3.571   2.345   8.692 -0.1976 -1.1695  0.1837
 4522SOL     OW25201   0.292   2.501  15.059 -0.5319 -0.1797 -0.3979
 4522SOL    HW125202   0.200   2.488  15.038 -1.2447 -0.2776  2.8043
 4522SOL    HW225203   0.285   2.597  15.066 -0.0095 -0.0062 -2.2584
 4523SOL     OW25204   0.880   4.106   7.484  0.1649 -0.3836 -0.1087
 4523SOL    HW125205   0.806   4.118   7.424 -0.5582  0.7929  1.0389
 4523SOL    HW225206   0.881   4.188   7.533 -0.1713 -0.0399 -0.6684
 4524SOL     OW25207   1.918   0.805   7.799 -1.1939 -0.2744 -0.3776
 4524SOL    HW125208   1.981   0.788   7.730  1.0259  0.6943  1.4300
 4524SOL    HW225209   1.834   0.817   7.755 -0.6510 -1.3013 -1.7103
 4525SOL     OW25210   1.967   1.945  13.613 -0.3027 -0.0974 -0.3340
 4525SOL    HW125211   2.015   2.026  13.596  0.6926 -1.0200 -1.8979
 4525SOL    HW225212   1.878   1.969  13.637  0.0806  0.9806  0.0095
 4526SOL     OW25213   4.440   1.215  12.696 -0.0928  0.6110 -0.1441
 4526SOL    HW125214   4.508   1.178  12.639 -0.4539 -0.8805  0.3685
 4526SOL    HW225215   4.479   1.300  12.715  3.4277 -1.3064  1.2743
 4527SOL     OW25216   1.849   3.245   0.239  0.0561  0.5493  0.5427
 4527SOL    HW125217   1.930   3.240   0.290  0.0164 -0.3266  0.5206
 4527SOL    HW225218   1.794   3.310   0.283 -1.0941  0.6987 -1.1026
 4528SOL     OW25219   1.185   4.606   5.098 -0.3293  0.3471 -0.3894
 4528SOL    HW125220   1.230   4.564   5.024  3.3806  0.2019  1.9680
 4528SOL    HW225221   1.252   4.606   5.166 -0.5372  3.0601 -0.1883
 4529SOL     OW25222   1.539   2.174   5.237  0.0339  0.0270  0.2309
 4529SOL    HW125223   1.608   2.168   5.303  0.5485  0.1284 -0.2944
 4529SOL    HW225224   1.579   2.217   5.161 -0.1147  0.0934  0.1912
 4530SOL     OW25225   3.316   3.684   3.424 -0.5465  0.4170  0.3773
 4530SOL    HW125226   3.294   3.703   3.515  0.1817  1.4640  0.3280
 4530SOL    HW225227   3.399   3.636   3.430 -0.1161  1.3998  2.2926
 4531SOL     OW25228   3.659   3.818   7.708  0.5144 -0.0272  0.0097
 4531SOL    HW125229   3.664   3.764   7.787  1.0937  1.5624  1.0590
 4531SOL    HW225230   3.657   3.908   7.739 -1.3660 -0.6803  1.7940
 4532SOL     OW25231   0.051   2.172   3.401  0.1108  0.9295 -0.1504
 4532SOL    HW125232   0.007   2.213   3.327  0.0203 -0.5655 -0.9345
 4532SOL    HW225233   0.059   2.081   3.373  0.9826  0.6864  0.9130
 4533SOL     OW25234   3.782   1.184   9.867 -0.7366  0.2239  0.0099
 4533SOL    HW125235   3.874   1.179   9.841 -0.5601  0.7397  0.5343
 4533SOL    HW225236   3.734   1.254   9.821 -1.0584 -1.1803 -1.8016
 4534SOL     OW25237   2.904   3.542   3.281  0.1445 -0.3853  0.1302
 4534SOL    HW125238   2.884   3.478   3.349 -0.4940 -1.7254 -1.3094
 4534SOL    HW225239   2.899   3.474   3.214  0.9064 -2.2933  2.0541
 4535SOL     OW25240   3.580   3.656   3.214  0.2314  0.7958  0.0803
 4535SOL    HW125241   3.561   3.622   3.302 -0.4784  2.3190  0.5058
 4535SOL    HW225242   3.602   3.747   3.233 -0.5370  0.7990  0.9488
 4536SOL     OW25243   3.340   0.005   6.021 -0.2450  0.0424 -0.4253
 4536SOL    HW125244   3.388   0.069   5.968  1.2486 -0.2747  0.5365
 4536SOL    HW225245   3.251   0.039   6.034 -0.1737  0.1266 -0.1519
 4537SOL     OW25246   1.291   2.913  15.731  0.4697 -0.5287  0.0517
 4537SOL    HW125247   1.202   2.935  15.758  0.4744  1.6377 -1.6775
 4537SOL    HW225248   1.333   2.974  15.791 -1.9249  2.1224 -0.9293
 4538SOL     OW25249   3.097   3.732   3.273 -0.1098 -0.2928 -0.2085
 4538SOL    HW125250   3.037   3.657   3.277  1.2704 -1.3693  0.2179
 4538SOL    HW225251   3.162   3.705   3.337  2.2680  2.6010 -1.4081
 4539SOL     OW25252   0.816   0.477   7.168  0.2263  0.5598 -0.4644
 4539SOL    HW125253   0.891   0.536   7.177  1.2620 -1.0993  1.8598
 4539SOL    HW225254   0.755   0.540   7.132 -0.1277  0.8248  0.5971
 4540SOL     OW25255   1.661   0.603  13.712 -0.3638  0.0989  0.4063
 4540SOL    HW125256   1.620   0.566  13.790  0.1230 -2.1735 -0.4034
 4540SOL    HW225257   1.707   0.524  13.683 -0.6853  0.2268 -0.4666
 4541SOL     OW25258   0.423   2.807   2.558 -0.4244 -0.6276 -0.8640
 4541SOL    HW125259   0.330   2.816   2.575 -0.3932  1.1654 -1.5709
 4541SOL    HW225260   0.442   2.898   2.583 -1.1810 -0.9463  0.8319
 4542SOL     OW25261   4.193   2.820   1.816  0.1892  0.2961 -0.1687
 4542SOL    HW125262   4.119   2.760   1.811 -0.0533  0.3230  3.0018
 4542SOL    HW225263   4.179   2.850   1.906  1.0296 -2.4862  0.8779
 4543SOL     OW25264   3.438   2.399   5.278  0.2535 -0.0383  0.4587
 4543SOL    HW125265   3.418   2.440   5.194  0.9517  1.7279  1.1408
 4543SOL    HW225266   3.421   2.474   5.335  0.6384  3.0527 -3.4697
 4544SOL     OW25267   2.879   2.709   7.057 -0.7175 -0.5701 -0.5405
 4544SOL    HW125268   2.787   2.703   7.080 -0.5734  0.5124  0.2629
 4544SOL    HW225269   2.882   2.754   6.973  1.5702 -0.5992 -0.4939
 4545SOL     OW25270   1.098   1.324   1.484 -0.4786  0.8156 -0.5762
 4545SOL    HW125271   1.088   1.395   1.421 -0.6735  0.9372 -0.4073
 4545SOL    HW225272   1.022   1.271   1.461  0.5360 -1.2339  0.7576
 4546SOL     OW25273   0.837   3.951   6.841  0.0129  0.1082 -0.6386
 4546SOL    HW125274   0.866   3.910   6.922 -2.0819  3.6305  1.8721
 4546SOL    HW225275   0.861   4.042   6.854 -0.2165 -0.0029  0.5526
 4547SOL     OW25276   4.448   2.891   7.859 -0.5575  0.1010 -0.4500
 4547SOL    HW125277   4.540   2.884   7.832 -0.6438  1.0171 -0.9793
 4547SOL    HW225278   4.393   2.831   7.809  0.6851 -1.2925 -0.1567
 4548SOL     OW25279   1.315   2.050   8.976 -0.3059 -0.4085  0.5561
 4548SOL    HW125280   1.225   2.022   8.962 -0.1637  0.1916 -1.4528
 4548SOL    HW225281   1.313   2.107   9.054  1.9637  2.1984 -1.2854
 4549SOL     OW25282   2.365   0.374   5.227 -0.5866 -0.3367 -0.3979
 4549SOL    HW125283   2.383   0.371   5.321  0.2047 -1.2801 -0.5754
 4549SOL    HW225284   2.421   0.302   5.197  1.5353  0.2938  2.0870
 4550SOL     OW25285   2.308   3.628   1.906 -0.0555 -0.0709  0.5021
 4550SOL    HW125286   2.346   3.596   1.988  0.5017  0.6995  0.5469
 4550SOL    HW225287   2.284   3.547   1.862  0.9523  0.1240 -0.3946
 4551SOL     OW25288   1.649   3.246   3.753 -0.1181 -0.0677 -0.2050
 4551SOL    HW125289   1.672   3.154   3.766  0.9773  0.3018  0.4476
 4551SOL    HW225290   1.692   3.283   3.830 -0.6024  1.3968 -0.6294
 4552SOL     OW25291   3.070   4.140   1.594  0.0499 -0.2033 -0.3146
 4552SOL    HW125292   3.134   4.085   1.638  0.2071  0.9700  0.9078
 4552SOL    HW225293   3.121   4.154   1.514  0.5338  1.9870  0.3894
 4553SOL     OW25294   0.060   0.157  13.364 -0.6474  0.1736 -0.4601
 4553SOL    HW125295   0.007   0.186  13.290 -2.3083 -0.6677  0.3997
 4553SOL    HW225296   0.009   0.187  13.440  0.1333 -0.5190  0.3430
 4554SOL     OW25297   0.478   1.205   7.745  0.2571  0.2554  0.5544
 4554SOL    HW125298   0.399   1.212   7.799 -0.0998 -0.2306  0.0996
 4554SOL    HW225299   0.468   1.292   7.706  1.8279  0.3880  0.4628
 4555SOL     OW25300   1.283   0.718   7.522 -0.3918 -0.6643 -0.3180
 4555SOL    HW125301   1.310   0.735   7.612 -0.4215 -0.0499 -0.4189
 4555SOL    HW225302   1.368   0.728   7.480 -1.1216  2.6656 -1.0358
 4556SOL     OW25303   3.319   3.548   7.699 -0.3931  0.1096  0.3283
 4556SOL    HW125304   3.296   3.504   7.781 -1.5754  1.9657  0.9884
 4556SOL    HW225305   3.272   3.630   7.713 -2.7107 -0.8988 -1.4073
 4557SOL     OW25306   0.648   2.513   1.688  0.0490 -0.8829  0.0884
 4557SOL    HW125307   0.565   2.475   1.718 -0.8290  0.8064 -0.1863
 4557SOL    HW225308   0.655   2.590   1.744  0.2883  0.2942 -1.5706
 4558SOL     OW25309   2.353   4.678   5.994  0.1388 -0.4436 -0.0279
 4558SOL    HW125310   2.337   0.008   5.930 -0.0932  1.7532  2.3606
 4558SOL    HW225311   2.397   4.610   5.943  1.8999  2.2258 -2.0385
 4559SOL     OW25312   3.682   0.970   7.749  0.3080 -0.0246 -0.5101
 4559SOL    HW125313   3.776   0.956   7.738  0.1979 -0.8447 -0.4065
 4559SOL    HW225314   3.688   1.066   7.754 -0.8324 -0.0708  1.8697
 4560SOL     OW25315   0.327   4.236   3.641 -0.4426 -0.3636 -0.2988
 4560SOL    HW125316   0.360   4.276   3.721 -2.6151 -0.3957  0.6125
 4560SOL    HW225317   0.234   4.220   3.657 -0.3423 -0.5652  0.0813
 4561SOL     OW25318   3.176   2.471   7.748 -0.5074 -0.0821 -0.2217
 4561SOL    HW125319   3.234   2.479   7.673  1.0996  0.0571  1.0386
 4561SOL    HW225320   3.193   2.556   7.789  0.0815 -0.4578  0.3298
 4562SOL     OW25321   4.541   0.349   3.778 -0.3146 -0.1887  0.1260
 4562SOL    HW125322   4.500   0.404   3.711 -0.1078 -1.0362 -0.7080
 4562SOL    HW225323   4.507   0.270   3.735 -1.5402  0.6346 -0.4282
 4563SOL     OW25324   1.477   0.393   8.248 -0.1070 -0.2337  0.0674
 4563SOL    HW125325   1.552   0.333   8.247  0.3820  0.3631  0.5246
 4563SOL    HW225326   1.417   0.353   8.311 -1.1429  0.8820 -0.2046
 4564SOL     OW25327   0.513   4.544  16.599  0.1631  0.6909 -0.2248
 4564SOL    HW125328   0.440   4.602  16.621 -1.8238 -1.7143 -0.5450
 4564SOL    HW225329   0.472   4.462  16.625 -2.2914  1.7437 -0.8549
 4565SOL     OW25330   2.842   1.041   2.746  0.8904 -0.2608  0.3056
 4565SOL    HW125331   2.816   1.112   2.688  0.3095  0.4930  1.5012
 4565SOL    HW225332   2.755   1.004   2.762  1.6683 -1.7222  1.2033
 4566SOL     OW25333   4.078   0.305   4.129 -0.2594 -0.4115 -0.1403
 4566SOL    HW125334   4.127   0.382   4.099 -1.4741  0.5748  0.3712
 4566SOL    HW225335   4.010   0.305   4.062 -0.9846 -0.7360  0.5869
 4567SOL     OW25336   2.998   4.422  14.363 -0.1138 -0.6930  0.9951
 4567SOL    HW125337   2.969   4.503  14.404 -2.3821 -1.6059  1.1946
 4567SOL    HW225338   2.919   4.370  14.376  0.3859 -2.1146 -1.5090
 4568SOL     OW25339   3.150   1.851   8.800 -0.2210  1.0482 -0.2549
 4568SOL    HW125340   3.142   1.806   8.716  1.8192 -0.5575  0.4087
 4568SOL    HW225341   3.207   1.784   8.839 -0.7443  1.3104  0.9560
 4569SOL     OW25342   1.082   4.151   8.061  0.5338  0.1371 -0.3308
 4569SOL    HW125343   1.076   4.238   8.102  0.9136 -0.0218  0.0614
 4569SOL    HW225344   0.993   4.129   8.033  0.3360 -2.5669  2.3952
 4570SOL     OW25345   3.826   1.319  17.706 -0.2138  0.0721  0.1434
 4570SOL    HW125346   3.916   1.352  17.708 -0.3964  0.4291  2.6366
 4570SOL    HW225347   3.783   1.404  17.695  0.6383  0.4857  0.0321
 4571SOL     OW25348   3.422   0.771   9.802 -0.4666 -0.3490  0.1827
 4571SOL    HW125349   3.369   0.764   9.723  0.1498 -0.9201 -0.1838
 4571SOL    HW225350   3.494   0.825   9.768 -0.8547  0.1881  0.2201
 4572SOL     OW25351   0.367   3.017   5.396 -0.0832  0.2373  0.4716
 4572SOL    HW125352   0.317   3.090   5.433 -0.7453  1.3312 -2.5278
 4572SOL    HW225353   0.396   3.050   5.311 -0.8997  0.3202  0.2285
 4573SOL     OW25354   3.490   3.028   7.221 -0.2946  0.0396 -0.7036
 4573SOL    HW125355   3.501   3.004   7.129  1.6163 -0.2394 -0.4029
 4573SOL    HW225356   3.408   3.077   7.212 -0.0602  0.1804 -2.1006
 4574SOL     OW25357   2.942   3.173   3.663  0.1743 -0.4142  0.1642
 4574SOL    HW125358   2.860   3.124   3.649 -0.6420 -0.0537  3.7368
 4574SOL    HW225359   2.991   3.093   3.680 -1.0532 -1.1915  0.0698
 4575SOL     OW25360   2.351   1.117   5.137 -0.0271 -0.3918 -0.4058
 4575SOL    HW125361   2.433   1.081   5.172  0.5833  0.5945 -0.8154
 4575SOL    HW225362   2.307   1.034   5.119  0.6218 -0.8514  0.1293
 4576SOL     OW25363   3.228   3.206   8.713  0.3529 -0.5801  0.0098
 4576SOL    HW125364   3.139   3.185   8.685 -0.3405  1.1384  0.9754
 4576SOL    HW225365   3.280   3.148   8.657  3.4342  0.5380  1.7303
 4577SOL     OW25366   2.608   0.103   4.908  0.2833  0.1526 -0.2813
 4577SOL    HW125367   2.657   0.140   4.834  0.1446 -0.9935 -0.9420
 4577SOL    HW225368   2.667   0.029   4.922 -1.5548 -1.5014 -1.3299
 4578SOL     OW25369   1.005   0.008   2.976  0.6763 -0.6136 -0.7491
 4578SOL    HW125370   0.933   4.694   3.008  1.6320 -0.8056  1.1345
 4578SOL    HW225371   1.013   4.733   2.882 -0.6199 -0.4842 -0.8802
 4579SOL     OW25372   3.880   2.323  11.326 -0.5162  0.3779 -0.5310
 4579SOL    HW125373   3.842   2.324  11.238 -0.8451 -1.6574 -0.4026
 4579SOL    HW225374   3.950   2.259  11.315 -1.0358 -0.1837 -0.5752
 4580SOL     OW25375   1.256   3.595  14.422  0.8136  0.0559  0.3315
 4580SOL    HW125376   1.203   3.666  14.386 -1.2874 -1.4564  0.4440
 4580SOL    HW225377   1.238   3.523  14.361  0.4759  1.0796 -0.7832
 4581SOL     OW25378   4.476   1.453   6.102  0.4271 -0.2088 -0.1045
 4581SOL    HW125379   4.471   1.371   6.150 -2.1209  0.7467  1.2496
 4581SOL    HW225380   4.383   1.475   6.090  1.0887  2.0114 -1.2850
 4582SOL     OW25381   2.743   2.232   3.195 -0.8000  0.0166  0.0125
 4582SOL    HW125382   2.807   2.263   3.259  0.7213 -1.7055 -0.6606
 4582SOL    HW225383   2.695   2.160   3.238  0.4684 -2.3123 -2.4829
 4583SOL     OW25384   3.910   1.622  12.680  0.3397 -0.3169 -0.8315
 4583SOL    HW125385   3.896   1.673  12.759 -0.4354 -1.3880 -0.2706
 4583SOL    HW225386   3.877   1.682  12.613  1.8453  1.4006 -0.0356
 4584SOL     OW25387   0.450   3.021   3.289  0.4423  0.0309 -0.0479
 4584SOL    HW125388   0.400   2.947   3.254 -1.2456  0.7968  0.7215
 4584SOL    HW225389   0.538   2.992   3.311 -0.2457 -0.7002  1.7276
 4585SOL     OW25390   4.360   1.261   7.882 -0.2177  0.3900  0.1367
 4585SOL    HW125391   4.413   1.285   7.807 -0.0468  0.0537  0.1500
 4585SOL    HW225392   4.282   1.316   7.869 -1.3980 -1.5163 -0.8711
 4586SOL     OW25393   3.597   3.977   8.003  0.7167 -0.3796  0.7591
 4586SOL    HW125394   3.521   3.919   8.003  0.4020  0.0278  0.2732
 4586SOL    HW225395   3.661   3.914   8.034 -0.1742 -0.5130  2.3401
 4587SOL     OW25396   3.862   4.110  12.555  0.0930  0.5180  0.4035
 4587SOL    HW125397   3.843   4.170  12.628  0.2944 -0.6949  1.4345
 4587SOL    HW225398   3.933   4.155  12.508  1.7672 -1.9376  0.6273
 4588SOL     OW25399   2.009   3.060   3.285  0.0467 -0.4808 -0.3449
 4588SOL    HW125400   1.996   3.018   3.370 -4.3443 -1.1431 -1.3196
 4588SOL    HW225401   1.994   2.987   3.224 -3.9924  0.1740 -0.1136
 4589SOL     OW25402   3.099   4.717  12.066 -0.6339  0.5399 -0.0977
 4589SOL    HW125403   3.129   0.069  12.064  0.6213  0.1201 -0.5208
 4589SOL    HW225404   3.082   4.691  11.975  0.4440  0.2538 -0.2215
 4590SOL     OW25405   0.564   3.366   7.251 -0.5721 -0.0179  0.3233
 4590SOL    HW125406   0.617   3.312   7.310 -2.4871 -1.9470  0.3168
 4590SOL    HW225407   0.492   3.311   7.220  0.0768 -1.3158  1.1180
 4591SOL     OW25408   0.305   3.291   1.276  0.2957  0.1475 -0.1378
 4591SOL    HW125409   0.362   3.358   1.238  2.4601 -0.3478  2.1869
 4591SOL    HW225410   0.366   3.217   1.274 -0.1008 -0.1053 -2.0652
 4592SOL     OW25411   1.975   0.106   8.106 -0.3139 -0.0107  0.2134
 4592SOL    HW125412   1.930   0.025   8.079  2.1529 -1.1995 -0.2837
 4592SOL    HW225413   1.974   0.109   8.202 -0.1921  1.2146  0.1782
 4593SOL     OW25414   4.289   0.770  15.748  0.1722  0.9540  0.5457
 4593SOL    HW125415   4.379   0.739  15.750  0.6759  2.3088 -0.5355
 4593SOL    HW225416   4.304   0.841  15.811 -1.6160  1.6565  0.1907
 4594SOL     OW25417   3.140   3.801   8.258  0.3961  0.3489 -0.4474
 4594SOL    HW125418   3.162   3.716   8.296 -1.5370  0.9110  1.9738
 4594SOL    HW225419   3.045   3.797   8.271  0.6138 -0.6180  0.8067
 4595SOL     OW25420   3.570   1.533  15.600 -0.6410 -0.0457  0.0220
 4595SOL    HW125421   3.515   1.537  15.521 -3.5011  0.2940  2.0326
 4595SOL    HW225422   3.639   1.591  15.569  0.2825 -0.5276  1.2011
 4596SOL     OW25423   2.078   2.059   9.721  0.1520 -0.2183 -0.1943
 4596SOL    HW125424   2.021   1.992   9.759  1.1710 -1.1391 -0.2628
 4596SOL    HW225425   2.066   2.129   9.785 -1.0951 -0.6347  0.0324
 4597SOL     OW25426   2.507   4.072   3.800 -0.2416  0.0227  0.3438
 4597SOL    HW125427   2.511   4.118   3.716  0.6040 -0.9982 -0.1859
 4597SOL    HW225428   2.599   4.068   3.825  0.0358 -3.0078 -1.1345
 4598SOL     OW25429   3.082   4.404   4.746 -0.1466  0.0681  0.3406
 4598SOL    HW125430   3.117   4.412   4.835 -0.2872 -2.2104  0.5991
 4598SOL    HW225431   3.054   4.313   4.740  1.8087 -0.6177  1.6976
 4599SOL     OW25432   1.267   1.384   4.071 -0.2373  0.0319 -0.1101
 4599SOL    HW125433   1.260   1.308   4.013 -0.5959 -0.0903  0.0968
 4599SOL    HW225434   1.356   1.376   4.107  0.3289  0.6275 -1.3712
 4600SOL     OW25435   1.837   2.053   2.998 -0.5642 -0.8268 -0.0941
 4600SOL    HW125436   1.905   1.987   2.981 -2.5096 -2.1381 -2.7296
 4600SOL    HW225437   1.789   2.053   2.915 -1.1377 -0.2023  0.2364
 4601SOL     OW25438   2.046   3.610   3.829 -0.3580  0.0434 -0.8048
 4601SOL    HW125439   2.087   3.620   3.743  2.6313 -1.9468  0.4181
 4601SOL    HW225440   2.009   3.522   3.820  0.5505 -0.4871  0.6636
 4602SOL     OW25441   3.327   3.051   0.552 -0.4525 -0.2070  0.1461
 4602SOL    HW125442   3.423   3.061   0.554 -0.3552 -1.3280  0.7345
 4602SOL    HW225443   3.303   3.074   0.462  0.3328 -0.9233 -0.2518
 4603SOL     OW25444   0.319   4.110   6.028 -0.5910  0.4773  0.3435
 4603SOL    HW125445   0.239   4.089   5.979 -1.0838  1.7937  0.5738
 4603SOL    HW225446   0.318   4.046   6.099 -2.7188  1.6858  1.4238
 4604SOL     OW25447   3.735   1.374   9.445  0.1961 -0.8094 -0.1130
 4604SOL    HW125448   3.680   1.440   9.489  1.3083 -0.0586  0.1733
 4604SOL    HW225449   3.808   1.368   9.506 -1.1238 -1.5020  1.4071
 4605SOL     OW25450   0.934   4.350  16.173 -0.1776 -0.0511 -0.0855
 4605SOL    HW125451   0.912   4.347  16.266  1.3641 -1.7081  0.2269
 4605SOL    HW225452   0.916   4.439  16.144  0.7501  0.8280  2.0617
 4606SOL     OW25453   2.783   3.690   6.753 -0.7674  0.3446  0.3214
 4606SOL    HW125454   2.838   3.723   6.825 -1.6260  3.7766 -0.6335
 4606SOL    HW225455   2.736   3.770   6.730  1.5448  0.6687 -3.2896
 4607SOL     OW25456   1.722   0.906  11.165  0.6021  0.3082  0.1415
 4607SOL    HW125457   1.809   0.899  11.204  1.4013  1.6422 -1.3998
 4607SOL    HW225458   1.670   0.871  11.238 -1.2086  0.1564 -1.2211
 4608SOL     OW25459   2.417   1.167   4.635  0.1101  0.1812 -0.6435
 4608SOL    HW125460   2.339   1.217   4.661  1.3069  0.3753  2.5683
 4608SOL    HW225461   2.402   1.081   4.673  0.3196  0.3780 -0.1127
 4609SOL     OW25462   1.205   3.890   2.196 -0.0706 -0.0283 -0.2395
 4609SOL    HW125463   1.259   3.905   2.273 -0.8217 -1.0007  0.4838
 4609SOL    HW225464   1.148   3.966   2.206 -0.2766  0.0482 -1.9417
 4610SOL     OW25465   1.891   4.020   1.040 -0.2726 -0.0945 -0.1620
 4610SOL    HW125466   1.879   3.977   1.125  0.0139  0.2965  0.0763
 4610SOL    HW225467   1.900   4.113   1.061  0.0402  0.2053 -1.6617
 4611SOL     OW25468   4.476   3.265  13.013 -0.7445 -0.8269 -0.4337
 4611SOL    HW125469   4.476   3.263  12.917  0.6019  0.4864 -0.4745
 4611SOL    HW225470   4.542   3.198  13.026 -0.2496 -0.8287 -2.8736
 4612SOL     OW25471   3.441   3.078   7.653 -0.2840  0.0800  0.3448
 4612SOL    HW125472   3.459   3.093   7.746  0.2070 -1.1514  0.4466
 4612SOL    HW225473   3.456   3.163   7.613  0.5148  0.5884  1.6984
 4613SOL     OW25474   3.902   1.022   4.291  0.7301  0.3818 -0.5532
 4613SOL    HW125475   3.889   1.027   4.196  3.0496  0.2849 -0.8683
 4613SOL    HW225476   3.920   1.112   4.317  1.6748 -0.0188  0.1799
 4614SOL     OW25477   1.616   2.858   6.982 -0.2335 -0.1347  0.4717
 4614SOL    HW125478   1.705   2.834   7.009 -1.5036 -1.7445  3.2768
 4614SOL    HW225479   1.637   2.933   6.926  1.2620  0.0878  1.3456
 4615SOL     OW25480   2.480   3.600  10.200 -0.4076  0.1208 -0.0328
 4615SOL    HW125481   2.555   3.556  10.240 -0.7857 -0.5578 -0.0615
 4615SOL    HW225482   2.485   3.555  10.115 -0.4551  0.0727 -0.0106
 4616SOL     OW25483   4.686   0.677   7.433 -0.4103 -0.4558 -0.9033
 4616SOL    HW125484   4.599   0.673   7.473  0.1979 -0.2641  0.4472
 4616SOL    HW225485   0.007   0.638   7.497 -0.3043  0.9733 -0.1278
 4617SOL     OW25486   1.671   0.668   7.267  0.3574  0.6816  0.0987
 4617SOL    HW125487   1.688   0.586   7.312 -1.0499 -1.9659 -4.1817
 4617SOL    HW225488   1.738   0.731   7.295  1.3101 -0.7404  1.0307
 4618SOL     OW25489   3.572   2.734  11.903 -0.1099  0.1018 -0.4192
 4618SOL    HW125490   3.488   2.711  11.864 -1.1513  1.2907  1.0949
 4618SOL    HW225491   3.547   2.776  11.985  0.6820 -1.4145  0.5950
 4619SOL     OW25492   0.836   0.890   2.008 -0.1453  0.7215 -0.2858
 4619SOL    HW125493   0.894   0.955   1.968 -0.3312  0.9463 -0.1859
 4619SOL    HW225494   0.763   0.896   1.947 -0.6162  0.9022  0.3051
 4620SOL     OW25495   2.777   0.526   9.266  0.1717 -0.6120  0.4518
 4620SOL    HW125496   2.719   0.596   9.237  0.9253  0.4760  1.5704
 4620SOL    HW225497   2.803   0.561   9.351  1.6430 -0.2182 -0.1547
 4621SOL     OW25498   1.936   3.283  11.927  0.0098  0.0398 -0.4541
 4621SOL    HW125499   1.972   3.247  11.845  2.4063 -1.1629  1.1336
 4621SOL    HW225500   1.852   3.317  11.896 -0.4120  0.2109  0.9180
 4622SOL     OW25501   1.482   3.997   4.160 -0.5636 -0.1229  0.7538
 4622SOL    HW125502   1.556   4.048   4.192  1.2910 -1.0858 -1.9560
 4622SOL    HW225503   1.411   4.046   4.200  1.0560  2.0150  1.0097
 4623SOL     OW25504   0.448   3.783   5.715  0.5939  0.1551  0.4860
 4623SOL    HW125505   0.369   3.760   5.665  1.8447  1.6067 -2.1390
 4623SOL    HW225506   0.422   3.751   5.801 -0.9112 -1.4816 -0.5740
 4624SOL     OW25507   0.555   0.801   8.405 -0.9609 -0.2599  0.0974
 4624SOL    HW125508   0.523   0.861   8.473  0.4270 -0.1959  0.7020
 4624SOL    HW225509   0.591   0.736   8.465 -0.0708 -1.3733 -1.6533
 4625SOL     OW25510   0.609   3.626   1.009  0.5415 -0.2741  0.1561
 4625SOL    HW125511   0.521   3.626   0.972  1.1648 -0.2429 -1.3104
 4625SOL    HW225512   0.659   3.618   0.928  1.2383 -1.3214  0.6732
 4626SOL     OW25513   0.643   3.286   2.661  0.0779 -0.3413 -0.2921
 4626SOL    HW125514   0.597   3.203   2.669 -0.0285 -0.3769 -1.3199
 4626SOL    HW225515   0.594   3.340   2.724 -0.6555 -2.2856  0.8220
 4627SOL     OW25516   3.907   1.345  15.377 -0.6733  0.3394  0.1764
 4627SOL    HW125517   3.967   1.323  15.448  0.2779 -0.2147 -0.7928
 4627SOL    HW225518   3.956   1.406  15.322  0.8513  0.5503  1.7790
 4628SOL     OW25519   4.733   3.835   2.003  0.1873 -0.3250 -0.0322
 4628SOL    HW125520   0.062   3.881   1.955 -1.2644  1.3602 -0.4810
 4628SOL    HW225521   4.656   3.834   1.946  1.5259 -0.6906 -1.7952
 4629SOL     OW25522   3.321   2.437   3.408 -0.7555 -0.2686 -0.7190
 4629SOL    HW125523   3.338   2.488   3.329 -0.2821  1.3183  0.4069
 4629SOL    HW225524   3.251   2.498   3.433 -0.5958 -0.4407  0.1477
 4630SOL     OW25525   4.687   1.935   6.798 -0.1293  0.3926  0.7340
 4630SOL    HW125526   4.737   2.006   6.759  1.6797 -0.1712  2.0475
 4630SOL    HW225527   0.003   1.867   6.837  0.2536 -0.2034 -0.8530
 4631SOL     OW25528   1.956   0.925   5.188  0.1342  0.1654  0.7958
 4631SOL    HW125529   1.881   0.896   5.241 -2.0793  2.5907 -0.9699
 4631SOL    HW225530   2.021   0.945   5.255  1.2831 -0.3158 -0.1705
 4632SOL     OW25531   1.766   2.844   0.219  0.1186 -0.3495 -0.8401
 4632SOL    HW125532   1.754   2.835   0.313 -1.5333  0.2965 -0.9826
 4632SOL    HW225533   1.741   2.758   0.185 -1.7391 -0.3311  0.5065
 4633SOL     OW25534   4.531   4.599  16.521  0.0035 -0.4336 -0.2661
 4633SOL    HW125535   4.554   4.683  16.560  1.5863 -0.7557 -0.5110
 4633SOL    HW225536   4.598   4.536  16.549  2.4872  2.4120  0.1057
 4634SOL     OW25537   4.028   4.029   5.176 -0.3017 -0.2371  0.3203
 4634SOL    HW125538   4.103   4.064   5.225 -0.5577  2.8959 -1.5961
 4634SOL    HW225539   4.084   3.964   5.133  0.3449  0.7145 -0.2601
 4635SOL     OW25540   2.064   0.479   2.610  0.4730 -0.1672  0.3494
 4635SOL    HW125541   1.989   0.494   2.669 -0.2399  1.2710 -0.9331
 4635SOL    HW225542   2.047   0.553   2.552  0.7168  0.8418  1.5490
 4636SOL     OW25543   3.405   4.017  10.913  0.0976  0.1245 -0.6662
 4636SOL    HW125544   3.359   3.959  10.974  1.9396 -1.1219 -0.4589
 4636SOL    HW225545   3.421   3.949  10.847  0.5221  0.9718 -1.4344
 4637SOL     OW25546   0.203   2.735   2.930  0.0968 -0.4140 -0.1729
 4637SOL    HW125547   0.218   2.786   2.849  2.8341  0.9608  1.2002
 4637SOL    HW225548   0.144   2.662   2.911  0.9648 -1.1528 -0.0083
 4638SOL     OW25549   2.487   0.715  15.390 -0.5011  0.1485  0.2813
 4638SOL    HW125550   2.582   0.717  15.407 -0.4566  0.0860  0.0397
 4638SOL    HW225551   2.476   0.628  15.428 -1.5900  0.3320  0.3858
 4639SOL     OW25552   3.410   1.694   3.815 -0.2870 -0.3072  0.1921
 4639SOL    HW125553   3.382   1.660   3.899 -3.3925 -1.1205 -1.1757
 4639SOL    HW225554   3.335   1.705   3.756  1.1581  0.3128 -1.5404
 4640SOL     OW25555   1.654   4.418   2.647  0.6315  0.1163  0.4228
 4640SOL    HW125556   1.599   4.366   2.589  2.0950 -0.6797 -0.2730
 4640SOL    HW225557   1.602   4.436   2.725  1.8608  0.7425  1.1086
 4641SOL     OW25558   4.079   3.492   4.792  0.1215  0.2246  0.0436
 4641SOL    HW125559   4.032   3.570   4.821  0.4811 -0.2737  2.0198
 4641SOL    HW225560   4.149   3.534   4.743 -1.7250  1.0830 -1.8230
 4642SOL     OW25561   2.794   3.995   5.324 -0.3167 -0.0719  0.2146
 4642SOL    HW125562   2.788   3.911   5.370  3.9797 -0.3748  0.1934
 4642SOL    HW225563   2.754   3.980   5.238 -1.4414 -1.7646  1.0216
 4643SOL     OW25564   0.283   2.820  10.325 -0.1147  0.5485  0.4454
 4643SOL    HW125565   0.351   2.806  10.391 -0.3750  1.5961  0.9326
 4643SOL    HW225566   0.209   2.848  10.378 -0.5904 -0.1855  0.1669
 4644SOL     OW25567   1.343   0.888   5.921 -0.0654 -0.0721  0.0720
 4644SOL    HW125568   1.323   0.794   5.921  0.3851 -0.1689  0.1427
 4644SOL    HW225569   1.257   0.921   5.896 -0.0036  1.6087  2.1314
 4645SOL     OW25570   2.260   4.291   6.020  0.2930 -0.3783  0.2672
 4645SOL    HW125571   2.246   4.205   6.060 -0.4025  0.0904  1.0347
 4645SOL    HW225572   2.214   4.294   5.937 -1.0267 -0.3638  0.9988
 4646SOL     OW25573   3.123   2.599   1.720  0.0345 -0.1094  0.4964
 4646SOL    HW125574   3.078   2.683   1.718 -0.1219 -0.2446 -2.1799
 4646SOL    HW225575   3.217   2.612   1.727  0.2929 -2.8320  2.3097
 4647SOL     OW25576   3.404   2.167   5.167  0.2935  0.7415 -0.3088
 4647SOL    HW125577   3.422   2.244   5.221  1.0011 -1.3018  2.3335
 4647SOL    HW225578   3.467   2.112   5.213  0.6572 -0.6588 -2.4832
 4648SOL     OW25579   3.533   2.903   8.620  0.4711  0.1657 -0.2245
 4648SOL    HW125580   3.616   2.921   8.576  1.1897  0.9632  1.4487
 4648SOL    HW225581   3.552   2.817   8.656  0.8936  0.8614  1.1983
 4649SOL     OW25582   1.294   3.579  11.572 -0.0727  0.0443 -0.1349
 4649SOL    HW125583   1.200   3.596  11.580  0.2403  1.5328  0.4545
 4649SOL    HW225584   1.332   3.625  11.647 -0.2669 -1.3268  0.8054
 4650SOL     OW25585   0.462   4.731  15.331  0.0619  0.1568 -0.2326
 4650SOL    HW125586   0.456   4.637  15.347 -0.4914  0.0952 -0.8100
 4650SOL    HW225587   0.534   0.006  15.270 -0.1394  0.3183 -0.4339
 4651SOL     OW25588   4.600   3.054   9.332  0.4157  0.0074 -0.7039
 4651SOL    HW125589   4.669   3.113   9.364  1.2185 -0.2920 -1.8728
 4651SOL    HW225590   4.529   3.115   9.315 -0.3538 -0.5116  0.6596
 4652SOL     OW25591   4.624   3.846  14.048  0.4954  0.4021 -0.5335
 4652SOL    HW125592   4.556   3.900  14.010 -0.6882 -1.6982 -1.3819
 4652SOL    HW225593   4.634   3.776  13.984  0.3216  0.2278 -0.3698
 4653SOL     OW25594   4.713   0.838  10.542 -0.9869  0.5035 -0.1375
 4653SOL    HW125595   4.707   0.754  10.495  0.0893 -0.0139  0.6491
 4653SOL    HW225596   4.650   0.821  10.613  0.0831  0.0270  0.7047
 4654SOL     OW25597   3.996   2.344  17.277  0.0723 -0.3115  0.4084
 4654SOL    HW125598   4.023   2.284  17.346  0.6368  1.3535  1.6293
 4654SOL    HW225599   3.901   2.356  17.273 -0.0059 -1.6635 -1.7779
 4655SOL     OW25600   1.350   1.724  13.377  0.1722 -0.4262  0.0029
 4655SOL    HW125601   1.344   1.642  13.426 -1.3219  0.1415  0.7797
 4655SOL    HW225602   1.319   1.700  13.290 -2.1246  1.9171  0.1773
 4656SOL     OW25603   3.759   3.725  16.397  0.6928  0.1009  0.2582
 4656SOL    HW125604   3.763   3.692  16.487  2.2407 -0.8198 -0.1551
 4656SOL    HW225605   3.714   3.652  16.354  2.4331 -1.2605  0.7506
 4657SOL     OW25606   4.194   0.166   6.622 -0.1565  0.6980  0.1469
 4657SOL    HW125607   4.165   0.110   6.694 -2.2848  0.0872 -1.1991
 4657SOL    HW225608   4.235   0.246   6.657  0.1742 -0.0334  1.4533
 4658SOL     OW25609   0.845   1.480   7.530  0.3033 -0.6253  0.3744
 4658SOL    HW125610   0.898   1.479   7.450  1.5517  0.4716  1.1816
 4658SOL    HW225611   0.784   1.554   7.523 -0.3934 -1.0153  2.4192
 4659SOL     OW25612   1.735   2.234   6.727 -0.0686  0.8409 -0.0598
 4659SOL    HW125613   1.795   2.178   6.775  0.7866  1.3850 -0.4990
 4659SOL    HW225614   1.663   2.237   6.790  1.1461  1.1784  1.3122
 4660SOL     OW25615   0.914   3.391  10.626 -0.2065 -0.5771  0.2084
 4660SOL    HW125616   0.927   3.477  10.587  1.0868 -0.3344  1.1623
 4660SOL    HW225617   0.935   3.403  10.718  0.1469  0.1983  0.0293
 4661SOL     OW25618   0.613   3.503   4.330  0.0137 -0.1775 -0.1341
 4661SOL    HW125619   0.586   3.541   4.413 -0.9530  0.4901 -0.7488
 4661SOL    HW225620   0.548   3.433   4.325 -0.6349  0.4489 -0.4977
 4662SOL     OW25621   1.011   2.170   4.035  0.2619  0.2462  0.3654
 4662SOL    HW125622   1.009   2.153   3.941 -1.9971 -0.3330  0.4979
 4662SOL    HW225623   0.936   2.112   4.051 -0.2408  1.2112  1.5216
 4663SOL     OW25624   2.327   2.412   7.649  0.0029  0.2375  0.1815
 4663SOL    HW125625   2.238   2.377   7.644  0.6607 -1.4827  0.5321
 4663SOL    HW225626   2.350   2.379   7.736  0.4017 -0.6518 -0.2712
 4664SOL     OW25627   3.620   3.417  13.318  0.0502 -0.0130 -0.4516
 4664SOL    HW125628   3.661   3.331  13.325  1.5467  0.9737  2.7229
 4664SOL    HW225629   3.570   3.427  13.399  0.6697 -0.0708 -0.0700
 4665SOL     OW25630   1.333   4.360  13.456 -0.2338 -0.3717 -0.1888
 4665SOL    HW125631   1.311   4.282  13.508 -1.2267 -0.6087 -0.9755
 4665SOL    HW225632   1.414   4.380  13.502  0.1211 -0.2787 -0.8565
 4666SOL     OW25633   0.894   2.850   9.217  0.0882 -0.0234 -0.3010
 4666SOL    HW125634   0.946   2.851   9.297  3.6945  1.6826 -2.6303
 4666SOL    HW225635   0.934   2.921   9.165  0.6135  0.7288  1.1429
 4667SOL     OW25636   3.337   0.894   6.479  0.4459  0.2483 -0.5890
 4667SOL    HW125637   3.251   0.852   6.475  0.8982 -0.6553 -0.7988
 4667SOL    HW225638   3.314   0.977   6.521 -0.0923  0.0442 -0.4814
 4668SOL     OW25639   3.390   0.223   6.264 -0.1578 -0.0385 -0.3230
 4668SOL    HW125640   3.443   0.302   6.267  3.1064 -2.2746  1.1233
 4668SOL    HW225641   3.387   0.187   6.353  0.5555  0.8874  0.0781
 4669SOL     OW25642   0.634   2.408   4.810  0.0388 -0.0444 -0.5633
 4669SOL    HW125643   0.687   2.430   4.733  0.9760 -1.1627 -0.2382
 4669SOL    HW225644   0.560   2.465   4.788  0.5956  0.2542 -1.6439
 4670SOL     OW25645   2.944   0.788  10.731  0.3391 -0.2777  0.4254
 4670SOL    HW125646   2.940   0.770  10.825 -2.4639 -2.8153 -0.1779
 4670SOL    HW225647   3.030   0.827  10.718 -0.0013 -0.4243 -2.3923
 4671SOL     OW25648   3.787   4.111   5.664 -0.2709 -0.1828  0.0849
 4671SOL    HW125649   3.787   4.103   5.760  2.2009  0.1376  0.1136
 4671SOL    HW225650   3.790   4.018   5.643 -2.5738 -0.4214  0.8565
 4672SOL     OW25651   0.169   0.535  13.252  0.1961  0.0434 -0.9409
 4672SOL    HW125652   0.120   0.454  13.270 -0.7916  1.0096  0.7699
 4672SOL    HW225653   0.123   0.573  13.178 -0.1911 -1.0552 -1.2662
 4673SOL     OW25654   3.497   4.584   7.220 -0.2503  0.3093  0.1118
 4673SOL    HW125655   3.573   4.535   7.189  1.2484  1.0717  2.5973
 4673SOL    HW225656   3.435   4.512   7.233 -0.5866  0.5351 -0.2184
 4674SOL     OW25657   3.072   1.372  12.447  0.5269  0.1413 -0.3824
 4674SOL    HW125658   3.020   1.305  12.491  2.2436 -1.3081 -0.5313
 4674SOL    HW225659   3.028   1.375  12.362 -0.7231 -2.7970  0.1588
 4675SOL     OW25660   4.041   0.765   6.361 -0.1207 -0.1155  0.2811
 4675SOL    HW125661   4.080   0.691   6.314  0.7884 -0.1105  1.0271
 4675SOL    HW225662   4.102   0.781   6.433 -0.1591  0.2004  0.2428
 4676SOL     OW25663   0.972   2.986  11.968 -0.5933 -0.0170  0.4778
 4676SOL    HW125664   0.932   3.016  12.049 -4.7134 -0.3405 -1.4173
 4676SOL    HW225665   1.039   3.055  11.963 -0.3769  0.0311  4.5792
 4677SOL     OW25666   2.236   2.829   8.480  0.3872  0.5087  0.1356
 4677SOL    HW125667   2.262   2.835   8.388  0.4480 -1.9253  0.0053
 4677SOL    HW225668   2.141   2.842   8.477  0.4982  1.3633  0.3787
 4678SOL     OW25669   4.623   1.311   0.315 -0.2840  0.1893 -0.1800
 4678SOL    HW125670   4.639   1.332   0.407 -2.2301 -3.3644  0.9498
 4678SOL    HW225671   4.615   1.216   0.319 -1.3914  0.2530 -0.9849
 4679SOL     OW25672   4.086   3.655   3.274  0.2081 -0.0455 -0.1230
 4679SOL    HW125673   4.131   3.739   3.274  1.2313 -0.5948  1.5137
 4679SOL    HW225674   4.088   3.628   3.182  1.5887 -3.4632  0.9046
 4680SOL     OW25675   3.990   4.025  10.879 -0.1579  0.1982  0.3184
 4680SOL    HW125676   3.902   4.013  10.915 -0.6230  1.8739 -0.2405
 4680SOL    HW225677   4.023   4.103  10.924  2.0381 -0.8803  0.6093
 4681SOL     OW25678   1.831   1.401   1.533  0.2638 -0.1998 -0.1385
 4681SOL    HW125679   1.861   1.419   1.444 -0.8004 -1.3972 -0.7300
 4681SOL    HW225680   1.773   1.476   1.549 -0.5982 -0.9769  0.3540
 4682SOL     OW25681   1.541   1.820   6.989 -0.3522  0.0105 -0.3740
 4682SOL    HW125682   1.596   1.814   7.068 -0.5870 -1.0798 -0.2991
 4682SOL    HW225683   1.476   1.882   7.021  0.0714 -0.2314  0.9671
 4683SOL     OW25684   3.699   2.904  10.328  0.5425  0.3898  0.2068
 4683SOL    HW125685   3.607   2.879  10.327  0.0080  2.3224  1.6793
 4683SOL    HW225686   3.729   2.836  10.268 -2.0296 -0.9574  0.4608
 4684SOL     OW25687   1.645   0.836   7.735  0.2712 -0.0703  0.1006
 4684SOL    HW125688   1.611   0.813   7.648  3.9568 -2.2051 -0.7753
 4684SOL    HW225689   1.568   0.871   7.780  0.6817 -0.4035  1.0463
 4685SOL     OW25690   2.484   1.468   7.474 -0.6028  0.2995 -0.1562
 4685SOL    HW125691   2.578   1.452   7.464 -0.7151 -1.7062  1.9651
 4685SOL    HW225692   2.452   1.432   7.391 -1.0132 -0.6173  0.4018
 4686SOL     OW25693   1.400   1.021   6.843 -0.3793 -0.8290  0.6746
 4686SOL    HW125694   1.441   0.951   6.894  2.1795 -1.1220 -1.7926
 4686SOL    HW225695   1.401   0.981   6.756  0.1684  1.0509 -0.1925
 4687SOL     OW25696   1.707   2.596   7.726 -0.4049 -0.4424 -0.4604
 4687SOL    HW125697   1.739   2.639   7.647  0.7472 -0.4559  0.0020
 4687SOL    HW225698   1.699   2.669   7.788 -0.8353 -0.3334 -0.6448
 4688SOL     OW25699   2.008   0.667   4.796  0.8152  0.4404  0.0572
 4688SOL    HW125700   1.976   0.586   4.834  2.4536 -0.3129 -0.1898
 4688SOL    HW225701   2.055   0.704   4.871  0.1528 -2.8671  2.0519
 4689SOL     OW25702   4.698   2.172   5.774 -0.7326  0.1400 -0.2078
 4689SOL    HW125703   4.612   2.135   5.788 -0.0788 -0.3046  2.6386
 4689SOL    HW225704   4.723   2.206   5.860  0.8414 -1.1365 -0.1588
 4690SOL     OW25705   3.652   3.777   4.835  0.2875 -0.2553  0.1826
 4690SOL    HW125706   3.661   3.871   4.847  0.9441 -0.2802 -0.1257
 4690SOL    HW225707   3.732   3.757   4.786  0.9276 -0.7793  1.4431
 4691SOL     OW25708   1.431   0.198   9.273  1.0994  0.2376  0.4036
 4691SOL    HW125709   1.422   0.109   9.308 -1.6338  1.2896  2.4696
 4691SOL    HW225710   1.430   0.249   9.355  0.2613 -0.0690  0.5884
 4692SOL     OW25711   2.401   3.351  12.770  1.0513  0.3306 -0.9786
 4692SOL    HW125712   2.405   3.278  12.831 -1.9531  0.9587  0.0078
 4692SOL    HW225713   2.463   3.408  12.815  0.3367 -0.3067  0.8122
 4693SOL     OW25714   3.294   2.598   4.373  0.5471 -0.3378 -0.2704
 4693SOL    HW125715   3.305   2.684   4.331  0.2025  0.8427  2.0759
 4693SOL    HW225716   3.338   2.612   4.457  2.9290  2.1219 -1.9241
 4694SOL     OW25717   0.037   0.813   8.225  0.1018  0.0247  0.1667
 4694SOL    HW125718   4.735   0.727   8.238  1.6295  0.0674  5.1345
 4694SOL    HW225719   0.036   0.817   8.129  0.7546 -0.5924  0.1362
 4695SOL     OW25720   1.278   2.902   8.072 -0.0515 -0.6593  0.2888
 4695SOL    HW125721   1.285   2.940   7.985 -1.6413 -0.8111  0.0801
 4695SOL    HW225722   1.366   2.897   8.108 -0.1838  1.6270  0.9126
 4696SOL     OW25723   0.369   4.235   4.793  0.8787  0.2581  0.1813
 4696SOL    HW125724   0.382   4.279   4.708  1.8251  0.9132  0.6581
 4696SOL    HW225725   0.462   4.215   4.806  0.9737  0.0181 -0.8203
 4697SOL     OW25726   0.475   2.650  13.227  0.6189  0.0723  0.5443
 4697SOL    HW125727   0.411   2.603  13.281 -0.9197  0.1994 -1.1537
 4697SOL    HW225728   0.413   2.707  13.182  2.2966  1.5127  0.0560
 4698SOL     OW25729   4.171   3.924   8.453 -0.5370  0.2568  0.1311
 4698SOL    HW125730   4.228   3.951   8.525 -2.5642  1.7301  1.1801
 4698SOL    HW225731   4.157   4.005   8.405  1.1051 -0.1768 -1.0592
 4699SOL     OW25732   1.178   0.984   7.448  0.1053  0.2046 -0.6066
 4699SOL    HW125733   1.219   0.901   7.473  1.1904  1.5520  2.0407
 4699SOL    HW225734   1.097   0.947   7.412 -0.4880 -0.0243  0.9553
 4700SOL     OW25735   0.096   0.635   3.484  0.2823  0.0848 -0.6887
 4700SOL    HW125736   0.109   0.621   3.390  0.0995  1.6894 -0.9460
 4700SOL    HW225737   0.154   0.567   3.518  2.7357  1.3844 -2.2681
 4701SOL     OW25738   2.404   2.229   3.333 -0.7426 -0.2070  0.0362
 4701SOL    HW125739   2.389   2.224   3.238  0.3755  0.8642 -0.1925
 4701SOL    HW225740   2.472   2.161   3.340 -0.5607 -0.2925 -2.3694
 4702SOL     OW25741   2.827   0.303  16.989  0.0088 -0.6794  0.0330
 4702SOL    HW125742   2.890   0.345  17.047  0.5280 -1.5514  0.1104
 4702SOL    HW225743   2.832   0.360  16.912 -0.2712 -0.1897  0.3769
 4703SOL     OW25744   0.096   0.497   8.432 -0.7115 -1.2998  0.0599
 4703SOL    HW125745   0.022   0.505   8.373  0.4831  1.6770 -1.0354
 4703SOL    HW225746   0.165   0.528   8.373  0.5734 -0.9985  1.7225
 4704SOL     OW25747   1.591   0.112   9.070 -0.0032 -0.2238  0.3448
 4704SOL    HW125748   1.530   0.129   9.141  1.8778  0.9209  1.7056
 4704SOL    HW225749   1.536   0.134   8.995 -1.0481  0.0754  1.2097
 4705SOL     OW25750   1.988   0.083  12.623  0.3204  0.4662  0.0425
 4705SOL    HW125751   2.068   0.030  12.616 -0.3098 -0.2830 -1.4179
 4705SOL    HW225752   2.009   0.154  12.562  2.1738  0.2440  0.3978
 4706SOL     OW25753   0.587   4.345   9.282  0.1960  0.3278  0.2226
 4706SOL    HW125754   0.627   4.356   9.369 -0.0274  0.1143  0.3527
 4706SOL    HW225755   0.497   4.371   9.303 -0.4204 -0.9031 -0.9492
 4707SOL     OW25756   4.531   4.550   4.162  0.0004  0.3780  0.6353
 4707SOL    HW125757   4.619   4.571   4.194  0.8070  0.5919 -1.7239
 4707SOL    HW225758   4.474   4.613   4.206 -2.2065 -1.1308 -0.0629
 4708SOL     OW25759   1.053   0.402   5.464 -0.7396 -0.0389 -0.0191
 4708SOL    HW125760   1.048   0.307   5.474 -2.4742  0.2233  1.5977
 4708SOL    HW225761   0.972   0.426   5.419 -0.3130  1.1781 -0.1551
 4709SOL     OW25762   3.544   1.965   3.811 -0.0822 -0.4722 -0.4872
 4709SOL    HW125763   3.601   1.978   3.734  2.6469 -0.4835  1.5314
 4709SOL    HW225764   3.491   1.890   3.787  0.7718 -1.0801 -0.4805
 4710SOL     OW25765   0.312   0.008  15.841  0.4215  0.0212 -0.3473
 4710SOL    HW125766   0.284   0.049  15.760  0.3968 -1.3926 -1.0492
 4710SOL    HW225767   0.388   0.062  15.862  0.3217  0.0528 -0.0708
 4711SOL     OW25768   0.744   3.248   1.130 -0.7187 -0.0805  0.4088
 4711SOL    HW125769   0.656   3.272   1.101 -1.6545 -1.5170  2.0334
 4711SOL    HW225770   0.753   3.162   1.089 -0.8087 -0.5516  1.3739
 4712SOL     OW25771   1.982   3.593   0.452 -0.1022  0.6699  0.2468
 4712SOL    HW125772   2.031   3.513   0.436  1.5713  1.4409  1.5688
 4712SOL    HW225773   2.052   3.656   0.434  0.1093  1.2281  3.1048
 4713SOL     OW25774   0.221   1.476   1.810 -0.1251 -0.3073 -0.6717
 4713SOL    HW125775   0.236   1.435   1.895 -0.5760  1.4164  0.2353
 4713SOL    HW225776   0.198   1.563   1.843  0.6054 -0.4141  0.1176
 4714SOL     OW25777   3.163   4.087  15.597  0.0917 -0.0436  0.0606
 4714SOL    HW125778   3.106   4.117  15.526  0.5653  0.5942 -0.0463
 4714SOL    HW225779   3.089   4.075  15.656  1.1009 -1.4051  1.0608
 4715SOL     OW25780   0.121   3.764  10.043  0.1288 -0.3560  0.3367
 4715SOL    HW125781   0.174   3.710   9.986 -0.9023 -0.7453 -0.2507
 4715SOL    HW225782   0.132   3.724  10.130  1.0673 -0.4994  0.1458
 4716SOL     OW25783   2.175   0.915   9.016  0.6152 -0.0358  0.1212
 4716SOL    HW125784   2.171   0.890   8.924  1.0482 -1.1754  0.4150
 4716SOL    HW225785   2.097   0.967   9.031 -0.0856 -0.1848 -2.9037
 4717SOL     OW25786   3.663   3.017   6.715 -0.1166 -0.4174 -0.2549
 4717SOL    HW125787   3.659   3.085   6.782 -0.8091 -2.6036  1.9142
 4717SOL    HW225788   3.744   3.034   6.668  0.0206  0.7106  0.3882
 4718SOL     OW25789   1.584   2.978  14.685  0.0961  0.1037  0.2406
 4718SOL    HW125790   1.489   2.973  14.681  0.2350 -2.8295  0.6496
 4718SOL    HW225791   1.610   3.007  14.598 -0.3668 -0.8057 -0.1985
 4719SOL     OW25792   0.084   1.843   6.029 -0.3067  0.1326 -0.1223
 4719SOL    HW125793   0.101   1.905   6.100 -0.9743  0.8860 -0.6249
 4719SOL    HW225794   4.728   1.852   6.031 -0.4515 -1.3954 -0.2261
 4720SOL     OW25795   1.408   0.332  16.099 -0.0928  0.0714 -0.0901
 4720SOL    HW125796   1.315   0.352  16.088 -0.1461  0.6032  1.3442
 4720SOL    HW225797   1.425   0.302  16.010  1.2242 -2.5332  1.0097
 4721SOL     OW25798   3.194   1.650  10.007 -0.4787 -0.1448  0.5551
 4721SOL    HW125799   3.221   1.633  10.097 -1.3226 -2.7971  0.3079
 4721SOL    HW225800   3.234   1.575   9.963  1.9421  1.2190  0.4453
 4722SOL     OW25801   1.356   4.405   7.317  0.0822  0.1983  0.6484
 4722SOL    HW125802   1.339   4.310   7.312  0.0689  0.1561  1.5699
 4722SOL    HW225803   1.451   4.401   7.318  0.0933  0.3830  0.0992
 4723SOL     OW25804   4.059   3.831   4.842 -0.1379  0.0105  0.6623
 4723SOL    HW125805   4.109   3.847   4.922  0.9410  1.3533 -0.2579
 4723SOL    HW225806   4.055   3.923   4.815  0.3309 -0.3035 -0.5119
 4724SOL     OW25807   4.487   0.426   0.967 -0.4191  0.3724  0.3434
 4724SOL    HW125808   4.453   0.419   0.877  1.5932  0.3439 -0.4075
 4724SOL    HW225809   4.560   0.487   0.962  0.0384 -0.3631 -1.8621
 4725SOL     OW25810   1.310   3.213   5.923  0.2040  0.0610 -0.1247
 4725SOL    HW125811   1.251   3.148   5.962  0.7337 -0.7098 -0.6068
 4725SOL    HW225812   1.386   3.159   5.904  0.2498  0.1114 -0.0844
 4726SOL     OW25813   3.643   2.225  16.042  0.1760 -0.0592  0.3815
 4726SOL    HW125814   3.643   2.320  16.033  0.5027 -0.0553  0.4286
 4726SOL    HW225815   3.569   2.201  15.987 -0.3157  1.1870  0.4967
 4727SOL     OW25816   1.990   2.441   4.261 -0.2495 -0.1530 -0.4291
 4727SOL    HW125817   1.900   2.427   4.229 -0.3984 -1.4466  0.5651
 4727SOL    HW225818   2.042   2.404   4.190 -1.7106 -2.8920 -0.0872
 4728SOL     OW25819   3.236   0.752   2.916 -0.3081 -0.0114  0.0024
 4728SOL    HW125820   3.306   0.793   2.866  0.3311 -0.8407  0.2125
 4728SOL    HW225821   3.165   0.789   2.862 -0.2027 -2.1129 -1.5867
 4729SOL     OW25822   4.106   0.545   5.547 -0.0551  0.7026 -0.1651
 4729SOL    HW125823   4.066   0.618   5.594 -1.3810 -0.6717  0.8228
 4729SOL    HW225824   4.194   0.581   5.540 -0.3323  1.2305 -0.9902
 4730SOL     OW25825   4.324   1.819   8.372 -0.6227 -0.0875  0.0410
 4730SOL    HW125826   4.319   1.741   8.317 -2.8601  1.3321 -1.7760
 4730SOL    HW225827   4.240   1.855   8.341 -0.0616  1.0852 -0.1278
 4731SOL     OW25828   1.938   0.722  15.004  0.6000  0.5588  0.4014
 4731SOL    HW125829   1.980   0.636  14.997 -0.0546  0.3062 -0.4622
 4731SOL    HW225830   1.933   0.735  15.098 -1.7317 -0.5951  0.4570
 4732SOL     OW25831   3.648   0.515   8.894 -0.6112  0.0160  0.0531
 4732SOL    HW125832   3.633   0.438   8.948  1.5668 -0.5265 -0.0967
 4732SOL    HW225833   3.568   0.563   8.914 -1.0173 -0.2860 -0.8605
 4733SOL     OW25834   2.147   0.660   2.092 -0.4032 -0.4499 -0.2420
 4733SOL    HW125835   2.062   0.674   2.135  0.5346  1.7580  0.8642
 4733SOL    HW225836   2.143   0.726   2.023 -1.6442  0.5740  0.8028
 4734SOL     OW25837   4.531   0.329   2.769 -1.1220  0.2499 -0.0296
 4734SOL    HW125838   4.586   0.262   2.809  1.2096  0.5191 -2.7653
 4734SOL    HW225839   4.477   0.276   2.709 -0.7988 -1.4237  1.1589
 4735SOL     OW25840   1.084   0.474   6.626  0.1358  0.2232 -0.0357
 4735SOL    HW125841   1.003   0.515   6.654 -0.7058 -1.3816 -0.1010
 4735SOL    HW225842   1.061   0.430   6.544 -0.6944 -0.4150  0.5378
 4736SOL     OW25843   2.510   2.504   5.517  0.4683  0.0798 -0.2043
 4736SOL    HW125844   2.598   2.511   5.481  0.8199  1.3377  0.8978
 4736SOL    HW225845   2.460   2.500   5.436 -0.0985  1.8510  0.0625
 4737SOL     OW25846   4.619   4.498   3.886 -0.0010 -0.4572 -0.0207
 4737SOL    HW125847   4.602   4.521   3.977 -1.4810 -0.2871 -0.3458
 4737SOL    HW225848   4.710   4.523   3.870 -0.4262  1.9139  1.2676
 4738SOL     OW25849   1.282   0.676   5.298  0.5228  0.0115 -0.3744
 4738SOL    HW125850   1.307   0.584   5.311  1.3321  0.2479 -0.2405
 4738SOL    HW225851   1.262   0.678   5.204 -0.8806 -1.5612 -0.1115
 4739SOL     OW25852   4.093   2.144   7.744  0.0018  0.4833  0.0427
 4739SOL    HW125853   4.023   2.088   7.775 -0.4445  0.2238 -1.4338
 4739SOL    HW225854   4.165   2.114   7.799 -1.6687 -0.0283  1.9278
 4740SOL     OW25855   3.172   2.869   7.130 -0.4039 -0.4896 -0.1953
 4740SOL    HW125856   3.198   2.949   7.176  1.0412 -2.0956  1.7696
 4740SOL    HW225857   3.160   2.910   7.044 -0.7392 -0.9256 -0.3534
 4741SOL     OW25858   0.900   3.872   5.750 -0.1136 -0.1084 -0.8823
 4741SOL    HW125859   0.849   3.796   5.721 -0.6750  1.1821 -3.2682
 4741SOL    HW225860   0.988   3.840   5.768  1.1049  2.5892 -2.0935
 4742SOL     OW25861   1.223   2.807   7.522 -0.5345  0.2922 -0.0661
 4742SOL    HW125862   1.145   2.768   7.561  0.6616 -0.9790  1.0286
 4742SOL    HW225863   1.294   2.784   7.582 -1.3378 -1.7573  0.1020
 4743SOL     OW25864   1.163   0.283   2.451 -0.5873 -0.1437  0.5861
 4743SOL    HW125865   1.209   0.258   2.531  2.2486 -0.2753 -1.0894
 4743SOL    HW225866   1.083   0.230   2.452 -0.0154 -1.0283 -0.7631
 4744SOL     OW25867   0.766   2.587   2.354  0.2096 -0.1518  0.0338
 4744SOL    HW125868   0.720   2.591   2.438  2.6003 -2.4389  1.4737
 4744SOL    HW225869   0.718   2.641   2.292 -0.5588  1.2268  1.8248
 4745SOL     OW25870   4.364   1.129   0.102  0.1280 -0.4788 -0.0243
 4745SOL    HW125871   4.393   1.156   0.189 -0.0575  1.7069 -0.6477
 4745SOL    HW225872   4.365   1.035   0.119 -0.0619 -0.7674 -1.5592
 4746SOL     OW25873   1.999   2.841   7.844  0.1483 -0.0658  0.0518
 4746SOL    HW125874   1.909   2.823   7.871  0.3655  0.3818  1.0793
 4746SOL    HW225875   2.004   2.927   7.886 -1.1000 -1.0319  2.1376
 4747SOL     OW25876   1.713   4.052   8.568  0.1880 -0.2943  0.0066
 4747SOL    HW125877   1.804   4.068   8.546 -0.5010  0.6752 -2.1528
 4747SOL    HW225878   1.707   4.131   8.622 -1.8037 -0.5234  0.1551
 4748SOL     OW25879   1.607   4.636   7.907  0.5352  0.1784  0.2415
 4748SOL    HW125880   1.695   4.673   7.904  0.1266  1.1479  0.1970
 4748SOL    HW225881   1.623   4.542   7.896 -1.4064 -0.3450  2.0149
 4749SOL     OW25882   3.654   2.996   9.214  0.1926 -0.4081  0.2040
 4749SOL    HW125883   3.590   2.928   9.233  1.1188 -2.0109 -2.2858
 4749SOL    HW225884   3.594   3.063   9.182  0.0337 -0.7125 -0.1390
 4750SOL     OW25885   1.511   1.553   8.696  0.1173 -0.5707 -0.8207
 4750SOL    HW125886   1.522   1.460   8.678  0.2129 -0.9119  1.0013
 4750SOL    HW225887   1.481   1.551   8.787  0.3257 -0.0743 -0.7386
 4751SOL     OW25888   0.289   0.969   0.201 -0.1025  0.1571  0.3381
 4751SOL    HW125889   0.254   1.031   0.265  0.0359  0.4603  0.1169
 4751SOL    HW225890   0.254   1.004   0.119  0.7286 -0.0067 -0.0837
 4752SOL     OW25891   3.117   3.667  15.497  0.6448  0.2833  0.1448
 4752SOL    HW125892   3.056   3.713  15.440  0.2334 -1.3089 -0.6969
 4752SOL    HW225893   3.054   3.616  15.548 -0.7908  2.1275  0.2353
 4753SOL     OW25894   4.056   2.828   5.329 -0.1665 -0.7974  0.2301
 4753SOL    HW125895   4.058   2.766   5.256  1.6429 -1.0341  0.5007
 4753SOL    HW225896   3.982   2.879   5.295 -1.3855 -2.2443  0.6858
 4754SOL     OW25897   0.704   1.935   7.927 -0.1265 -0.2736 -0.1368
 4754SOL    HW125898   0.708   2.010   7.867  2.1443 -0.5248 -0.3186
 4754SOL    HW225899   0.682   1.977   8.010 -0.4892 -1.2341  0.2474
 4755SOL     OW25900   2.330   2.158   8.104 -0.0120  0.5381 -0.4100
 4755SOL    HW125901   2.401   2.096   8.123  2.1822  2.0647 -3.5316
 4755SOL    HW225902   2.311   2.192   8.191  0.3611  0.1232 -0.1631
 4756SOL     OW25903   4.331   3.675  11.693 -0.0812  0.5575 -1.3306
 4756SOL    HW125904   4.421   3.683  11.724 -0.0541  2.0309 -1.7851
 4756SOL    HW225905   4.318   3.582  11.710 -2.1108  1.1390  0.3015
 4757SOL     OW25906   2.506   0.530   7.996  0.1935 -0.3059  0.2712
 4757SOL    HW125907   2.494   0.587   8.072 -0.8122  1.1146 -0.9439
 4757SOL    HW225908   2.600   0.537   7.983 -0.1746  2.3152 -0.9529
 4758SOL     OW25909   2.624   3.561   6.275  0.2549  0.5522 -0.1729
 4758SOL    HW125910   2.640   3.549   6.181  0.5141 -0.5078  0.0019
 4758SOL    HW225911   2.601   3.470   6.296  0.1912  0.7415  0.5758
 4759SOL     OW25912   3.862   2.704  17.108 -0.0575  0.0171 -0.3670
 4759SOL    HW125913   3.839   2.646  17.180 -0.5836 -0.5041 -0.9432
 4759SOL    HW225914   3.933   2.664  17.058  0.3311  0.2022  0.0429
 4760SOL     OW25915   4.384   3.329   3.884  0.6689  0.4214  0.6420
 4760SOL    HW125916   4.315   3.395   3.880  0.0754 -0.1899  0.7257
 4760SOL    HW225917   4.330   3.252   3.867 -0.0286  1.1770 -0.5652
 4761SOL     OW25918   1.353   4.608  15.589  0.7033 -0.1836  0.4424
 4761SOL    HW125919   1.336   4.514  15.579 -2.3577  0.4670 -0.4734
 4761SOL    HW225920   1.415   4.607  15.662  0.3534  0.8380  0.7541
 4762SOL     OW25921   1.309   4.088   5.152  0.0805  0.8284  0.2411
 4762SOL    HW125922   1.302   4.086   5.248  2.4242  1.0457  0.4087
 4762SOL    HW225923   1.396   4.126   5.141 -0.2061  0.7642 -2.2169
 4763SOL     OW25924   1.302   2.705  10.572  0.3727 -0.6522 -0.6410
 4763SOL    HW125925   1.337   2.769  10.635  0.4900 -0.0307 -1.3342
 4763SOL    HW225926   1.209   2.723  10.583  0.2247 -0.9404 -1.4597
 4764SOL     OW25927   0.144   3.637   4.246  0.1579 -0.4079  0.0247
 4764SOL    HW125928   0.134   3.732   4.252 -0.8869 -0.5746  0.8918
 4764SOL    HW225929   0.146   3.613   4.153 -0.2000 -0.9910  0.1706
 4765SOL     OW25930   3.226   3.227   3.509 -0.5302 -0.5954 -0.1702
 4765SOL    HW125931   3.254   3.314   3.538 -0.1308 -0.1501 -1.8696
 4765SOL    HW225932   3.144   3.211   3.555 -0.0958 -0.0136  0.7998
 4766SOL     OW25933   4.018   3.759   7.823 -0.5696  0.3262  0.2951
 4766SOL    HW125934   4.036   3.776   7.915 -1.4268 -0.0860  0.5374
 4766SOL    HW225935   4.021   3.664   7.820  0.4482  0.3964 -0.8462
 4767SOL     OW25936   2.824   2.272   3.911  0.2269 -0.2052  0.2471
 4767SOL    HW125937   2.779   2.213   3.850  2.6554 -0.4958 -1.2657
 4767SOL    HW225938   2.867   2.203   3.962 -1.4669 -1.4239  0.0220
 4768SOL     OW25939   1.340   0.435   7.307  0.1155 -0.8745 -0.0204
 4768SOL    HW125940   1.412   0.409   7.250 -1.2129  0.5679 -2.3488
 4768SOL    HW225941   1.361   0.529   7.309 -1.8523 -0.4636  1.1500
 4769SOL     OW25942   0.377   2.538  15.438  0.3979  0.1223 -0.4194
 4769SOL    HW125943   0.297   2.503  15.399 -0.4049  1.0598  0.3617
 4769SOL    HW225944   0.344   2.566  15.524 -1.1829  2.6219 -1.8196
 4770SOL     OW25945   1.946   3.677   5.997  0.3551 -0.8040  0.1809
 4770SOL    HW125946   1.862   3.712   6.028  1.2265  1.9901 -0.5832
 4770SOL    HW225947   1.924   3.594   5.956  0.9782 -0.5903 -0.5693
 4771SOL     OW25948   4.146   3.803   5.900 -0.1550  0.2185 -0.0757
 4771SOL    HW125949   4.144   3.755   5.817  3.4450 -0.4195  0.2015
 4771SOL    HW225950   4.195   3.740   5.954 -0.8465  1.3308  1.8303
 4772SOL     OW25951   1.173   3.807  14.279 -0.5589 -0.3314  0.3712
 4772SOL    HW125952   1.144   3.884  14.329 -0.4393 -0.9051  1.3339
 4772SOL    HW225953   1.210   3.848  14.201 -2.3699  1.6761  0.5627
 4773SOL     OW25954   4.717   2.604   4.093 -0.1381  0.2476  0.3301
 4773SOL    HW125955   4.731   2.551   4.014 -0.9478 -0.3495  0.5884
 4773SOL    HW225956   0.070   2.622   4.111  0.3489  0.4670 -2.3466
 4774SOL     OW25957   0.167   1.348  16.848  0.0442  0.0146  0.4019
 4774SOL    HW125958   0.219   1.311  16.777 -0.2226  2.4430 -1.0746
 4774SOL    HW225959   0.084   1.345  16.801 -0.8133  1.4558  1.8522
 4775SOL     OW25960   0.304   0.543   9.530  0.2524  0.0166 -0.6906
 4775SOL    HW125961   0.240   0.536   9.601  0.5900 -1.8641 -0.5765
 4775SOL    HW225962   0.355   0.618   9.559 -0.0149  1.0599 -2.8773
 4776SOL     OW25963   3.776   2.043   6.218 -0.3302  0.4573  0.3826
 4776SOL    HW125964   3.835   2.093   6.274  1.5193 -1.9618  0.5830
 4776SOL    HW225965   3.753   1.987   6.292  0.4842  1.4458  1.3943
 4777SOL     OW25966   2.750   2.114  15.348 -0.8334 -0.6000  0.4237
 4777SOL    HW125967   2.682   2.053  15.319  0.4988 -1.6489 -0.4998
 4777SOL    HW225968   2.696   2.190  15.369  0.1659  0.2434 -0.0649
 4778SOL     OW25969   3.217   3.618   2.463 -0.0280  0.7194 -0.3450
 4778SOL    HW125970   3.123   3.599   2.472 -0.2323  1.7910 -0.2119
 4778SOL    HW225971   3.230   3.558   2.390  1.0007  0.6408 -0.1015
 4779SOL     OW25972   3.209   4.290   6.194  0.4297 -0.5506 -0.1589
 4779SOL    HW125973   3.210   4.242   6.112  1.7492  0.1629 -0.5618
 4779SOL    HW225974   3.184   4.373   6.154  0.5843  0.1055  1.0855
 4780SOL     OW25975   3.071   2.336  12.486  0.5235  0.1301 -0.0365
 4780SOL    HW125976   3.164   2.334  12.510  0.5040 -3.1008 -0.2987
 4780SOL    HW225977   3.052   2.245  12.463  1.0353 -0.3785  1.5421
 4781SOL     OW25978   3.317   1.032  14.899  0.3729  0.2831  0.0125
 4781SOL    HW125979   3.398   1.082  14.908 -0.5606  1.6807  0.6813
 4781SOL    HW225980   3.270   1.092  14.840 -1.0406  0.7881  1.6601
 4782SOL     OW25981   4.537   4.026   0.475  0.2852  0.5630 -1.0751
 4782SOL    HW125982   4.508   4.006   0.386 -0.9899  1.7646 -0.9216
 4782SOL    HW225983   4.630   4.006   0.466  0.2619 -0.7520  1.4517
 4783SOL     OW25984   2.258   4.231   8.671  0.6456 -1.1688 -0.1107
 4783SOL    HW125985   2.262   4.326   8.660  1.9113 -1.2180 -0.1183
 4783SOL    HW225986   2.272   4.205   8.580  0.3846 -0.3158 -0.3970
 4784SOL     OW25987   0.103   1.567   7.631  0.2347  0.2194  0.1615
 4784SOL    HW125988   0.056   1.650   7.646  1.0889  0.8429 -0.5805
 4784SOL    HW225989   0.059   1.515   7.698  0.4757  1.7256  1.4799
 4785SOL     OW25990   1.615   1.807   8.641  0.8596 -0.2521  0.0411
 4785SOL    HW125991   1.613   1.805   8.545  1.6715 -1.1879  0.0365
 4785SOL    HW225992   1.573   1.723   8.663  0.3400  0.0114  0.0480
 4786SOL     OW25993   0.681   1.110   9.911  0.9809 -0.0786  0.4085
 4786SOL    HW125994   0.684   1.175   9.982 -0.2241 -0.4455  0.8035
 4786SOL    HW225995   0.741   1.045   9.946  1.3466 -0.3319 -0.6876
 4787SOL     OW25996   0.214   0.285  16.039 -0.2201  0.4832 -0.3970
 4787SOL    HW125997   0.206   0.357  16.102 -1.7699 -0.7565  0.8135
 4787SOL    HW225998   0.299   0.247  16.061  1.8948  4.3870 -1.7868
 4788SOL     OW25999   3.570   3.715   1.048  0.0550  0.9625  0.3905
 4788SOL    HW126000   3.528   3.772   0.983 -0.7502  0.1100  0.1616
 4788SOL    HW226001   3.535   3.762   1.123 -1.1568 -0.0094  0.4403
 4789SOL     OW26002   2.466   3.748   0.863 -0.5104  0.2595  0.4621
 4789SOL    HW126003   2.462   3.842   0.885 -0.5260  0.1730  0.8352
 4789SOL    HW226004   2.467   3.761   0.768  0.3551 -0.0478  0.4358
 4790SOL     OW26005   4.294   3.309   6.781  0.2232 -0.5016  0.2605
 4790SOL    HW126006   4.387   3.323   6.765  0.0377  1.2138  0.7187
 4790SOL    HW226007   4.298   3.225   6.827 -1.9659 -0.8628 -0.2376
 4791SOL     OW26008   4.033   1.378   4.931 -0.1350 -0.2373  0.2670
 4791SOL    HW126009   4.027   1.363   5.025 -0.8662 -1.6011  0.0107
 4791SOL    HW226010   4.014   1.288   4.904 -0.4646  0.0807 -0.5603
 4792SOL     OW26011   4.194   1.519  11.206 -0.0764  0.2853 -0.8369
 4792SOL    HW126012   4.282   1.558  11.203 -0.2144  0.6556 -0.0180
 4792SOL    HW226013   4.180   1.524  11.301 -3.0462 -0.2358 -1.2508
 4793SOL     OW26014   2.354   0.974   6.034 -0.1191 -0.6679  0.2265
 4793SOL    HW126015   2.364   1.006   5.944  1.8964  0.2766  0.7889
 4793SOL    HW226016   2.295   1.042   6.066 -1.5482 -1.1245 -1.3986
 4794SOL     OW26017   4.680   3.209   6.431 -0.3060 -0.0591 -0.0635
 4794SOL    HW126018   4.702   3.177   6.344  1.5665 -0.1493  0.4520
 4794SOL    HW226019   4.710   3.299   6.424  1.3549 -0.7879 -2.1271
 4795SOL     OW26020   2.916   4.434   8.488  0.1165  0.1766 -0.3672
 4795SOL    HW126021   2.978   4.410   8.557 -0.5117  1.1418  0.5297
 4795SOL    HW226022   2.880   4.518   8.516  4.0100  0.9923  2.2173
 4796SOL     OW26023   2.597   2.279   5.703  0.2059 -0.0591 -0.2227
 4796SOL    HW126024   2.587   2.367   5.666  3.0844 -0.1413 -1.1950
 4796SOL    HW226025   2.629   2.299   5.791  0.6329  1.4315 -0.7075
 4797SOL     OW26026   1.092   2.214   1.665 -0.3017  0.0248 -0.2962
 4797SOL    HW126027   1.016   2.270   1.680  1.5012  1.7951  2.4025
 4797SOL    HW226028   1.150   2.256   1.729 -0.4019  1.1926 -0.9826
 4798SOL     OW26029   4.092   3.656  15.822  0.2547  0.1340 -0.4242
 4798SOL    HW126030   4.003   3.665  15.854  0.1299 -2.1227 -0.1075
 4798SOL    HW226031   4.134   3.676  15.906 -0.2448 -1.6814  0.2575
 4799SOL     OW26032   0.392   3.405  13.891  0.6442 -0.3813  1.1931
 4799SOL    HW126033   0.307   3.436  13.861  1.0691 -0.3339  0.0140
 4799SOL    HW226034   0.451   3.481  13.887  0.0750  0.0034  0.0623
 4800SOL     OW26035   2.524   1.488   3.597  0.2370 -0.2958  0.5469
 4800SOL    HW126036   2.546   1.398   3.622 -0.7291 -0.4607  0.8180
 4800SOL    HW226037   2.434   1.481   3.564  0.4216 -0.5117  0.0771
 4801SOL     OW26038   1.781   1.839  12.653 -0.0158 -0.3146  0.3759
 4801SOL    HW126039   1.814   1.883  12.732  0.2326  2.8259 -1.4794
 4801SOL    HW226040   1.847   1.854  12.585 -3.1898 -0.6158 -2.7204
 4802SOL     OW26041   1.606   0.101   8.563  0.3630  0.2107  0.0859
 4802SOL    HW126042   1.577   0.042   8.494 -0.8494 -0.6088  1.3029
 4802SOL    HW226043   1.557   0.183   8.552 -1.1232 -0.7741 -0.6797
 4803SOL     OW26044   2.953   3.600   4.686 -0.2929 -0.8223  0.4819
 4803SOL    HW126045   2.978   3.638   4.602  3.1742 -1.2536  1.2999
 4803SOL    HW226046   2.871   3.648   4.698 -0.0005 -0.2083  0.0179
 4804SOL     OW26047   1.726   4.403  13.915  0.3093 -0.2567 -0.0333
 4804SOL    HW126048   1.740   4.493  13.943 -1.1299 -0.1059  0.2068
 4804SOL    HW226049   1.784   4.379  13.843  0.8175 -0.8352  0.5775
 4805SOL     OW26050   2.784   1.762  11.052 -0.3179  0.0298  0.4749
 4805SOL    HW126051   2.749   1.851  11.058  0.4447  0.3077  0.7767
 4805SOL    HW226052   2.875   1.789  11.058 -0.1295 -0.6521  0.6232
 4806SOL     OW26053   1.967   0.648   0.623 -0.1830  0.0792  0.3305
 4806SOL    HW126054   2.023   0.611   0.691  1.2187  1.1469 -0.2508
 4806SOL    HW226055   1.882   0.651   0.668  0.7969 -2.1613  2.2837
 4807SOL     OW26056   0.415   2.763  12.573 -0.0123 -0.3407  0.6222
 4807SOL    HW126057   0.367   2.839  12.540  0.5355 -0.2464  0.0362
 4807SOL    HW226058   0.348   2.720  12.626  1.6723 -1.8035  1.5663
 4808SOL     OW26059   3.378   0.551  17.207 -0.5698 -0.1139  0.6815
 4808SOL    HW126060   3.385   0.509  17.121  0.4924 -0.8254  1.1138
 4808SOL    HW226061   3.291   0.589  17.215 -0.6163  0.1121 -0.8602
 4809SOL     OW26062   2.033   4.585   9.110  0.0272 -0.0914  0.0035
 4809SOL    HW126063   2.019   4.577   9.016 -1.1591 -0.3197  0.2024
 4809SOL    HW226064   1.975   4.658   9.128 -0.8125 -0.7487 -0.0488
 4810SOL     OW26065   4.660   2.656   6.626 -0.7833  0.5619 -0.0529
 4810SOL    HW126066   4.595   2.636   6.559 -0.5277  1.1594 -0.4757
 4810SOL    HW226067   4.654   2.751   6.613  0.3354  0.5354 -0.7809
 4811SOL     OW26068   1.875   4.128  11.638  0.0489 -0.4578 -0.6905
 4811SOL    HW126069   1.818   4.102  11.566 -0.3216  1.6017 -1.1289
 4811SOL    HW226070   1.963   4.110  11.605  0.0620 -0.4388 -0.6658
 4812SOL     OW26071   0.217   0.761  11.314  0.3352  0.6008  0.0524
 4812SOL    HW126072   0.273   0.736  11.387 -0.4955 -3.1541 -0.5930
 4812SOL    HW226073   0.270   0.821  11.261  1.9767  0.8325  1.9824
 4813SOL     OW26074   1.343   3.946   6.629 -0.4620  0.0441 -0.4114
 4813SOL    HW126075   1.403   3.966   6.701  0.8969  1.3259 -1.9052
 4813SOL    HW226076   1.271   3.933   6.690 -0.1218  2.2638  0.4595
 4814SOL     OW26077   0.997   4.578  16.928 -0.1214  0.0940  0.2605
 4814SOL    HW126078   0.957   4.498  16.962  2.4380  0.2119  3.4969
 4814SOL    HW226079   1.084   4.546  16.905  0.3735  1.5851  0.0371
 4815SOL     OW26080   0.194   4.511   5.685  0.0610  0.0905 -0.7400
 4815SOL    HW126081   0.196   4.480   5.775  1.1481  0.6470 -0.5752
 4815SOL    HW226082   0.262   4.466   5.634  1.7455  0.8658  0.8215
 4816SOL     OW26083   3.879   3.968   4.101 -0.3033  0.4823 -0.6301
 4816SOL    HW126084   3.846   4.015   4.024  0.2984 -1.3741 -2.0440
 4816SOL    HW226085   3.961   3.933   4.067 -0.5449 -2.8678  2.2719
 4817SOL     OW26086   0.696   3.780   6.038  0.2579 -0.4399 -0.3268
 4817SOL    HW126087   0.700   3.720   5.963 -0.7719 -0.7333 -0.1479
 4817SOL    HW226088   0.685   3.869   6.007  2.9368  0.2965  0.7692
 4818SOL     OW26089   3.260   0.079   8.163 -0.1928  0.0788  0.4148
 4818SOL    HW126090   3.263   0.014   8.234  0.9863  1.9291  2.0676
 4818SOL    HW226091   3.181   0.124   8.192 -1.5818 -2.8102  1.0953
 4819SOL     OW26092   4.357   2.430   2.888 -0.0073  0.1951  0.2588
 4819SOL    HW126093   4.359   2.503   2.826 -1.3026 -0.3394 -0.4113
 4819SOL    HW226094   4.418   2.374   2.840  0.6930  0.1445  1.2081
 4820SOL     OW26095   1.411   0.142  15.537  0.5939  0.3585 -0.5177
 4820SOL    HW126096   1.376   0.058  15.566  3.6384 -0.9086 -0.5918
 4820SOL    HW226097   1.441   0.125  15.448 -2.5657  1.8891 -1.8823
 4821SOL     OW26098   1.866   2.755   7.039  0.5727 -0.3826 -0.0898
 4821SOL    HW126099   1.898   2.723   6.954 -2.1067 -0.4302 -1.0858
 4821SOL    HW226100   1.944   2.796   7.076 -0.3646  0.4788  0.9399
 4822SOL     OW26101   3.497   0.510  15.925  0.0434  0.4993  0.6992
 4822SOL    HW126102   3.445   0.515  15.844  0.9212 -2.1855 -0.0421
 4822SOL    HW226103   3.433   0.548  15.986 -1.1031  2.8059 -1.9401
 4823SOL     OW26104   0.154   3.500   4.689  0.3290  0.0202 -0.3952
 4823SOL    HW126105   0.123   3.528   4.775 -1.1104 -0.7782 -0.6512
 4823SOL    HW226106   0.139   3.586   4.649  0.0639 -0.1301 -0.6188
 4824SOL     OW26107   2.133   3.626   3.576 -0.7929 -0.2252 -0.2183
 4824SOL    HW126108   2.154   3.542   3.535  1.1684 -0.7848  1.9078
 4824SOL    HW226109   2.155   3.700   3.519 -0.8350  0.1417  0.2347
 4825SOL     OW26110   2.041   2.525   2.832  0.4632 -0.2484 -0.0875
 4825SOL    HW126111   1.998   2.448   2.795  2.2594 -0.9464 -0.7082
 4825SOL    HW226112   1.984   2.551   2.905  0.3881  1.0190 -0.5998
 4826SOL     OW26113   1.250   0.126   3.019  0.2576  0.5436  0.6308
 4826SOL    HW126114   1.164   0.105   2.983  0.7370  0.1905 -0.2990
 4826SOL    HW226115   1.312   0.077   2.966 -1.2786 -1.3595  0.5990
 4827SOL     OW26116   4.078   0.896  10.354  0.3692  0.1060  0.3453
 4827SOL    HW126117   4.161   0.856  10.382 -0.1032  0.3294  2.0748
 4827SOL    HW226118   4.033   0.914  10.436  1.0730  0.8809  0.5605
 4828SOL     OW26119   4.005   2.292   2.510  0.7186  0.7447  0.1470
 4828SOL    HW126120   3.938   2.341   2.557  0.1363 -1.6998  1.8515
 4828SOL    HW226121   4.047   2.242   2.580  0.6603 -0.4313 -0.6645
 4829SOL     OW26122   2.268   3.242   2.194  0.2301  0.4916 -0.3650
 4829SOL    HW126123   2.212   3.297   2.140 -1.2121 -1.3356 -0.7093
 4829SOL    HW226124   2.259   3.168   2.133  0.2861 -0.2370  0.5099
 4830SOL     OW26125   4.505   3.844   5.549  0.1139  0.2212  0.3285
 4830SOL    HW126126   4.419   3.828   5.511  0.3687  0.5322 -0.3711
 4830SOL    HW226127   4.504   3.939   5.563 -0.0522  0.6064 -2.2563
 4831SOL     OW26128   3.258   0.972   8.738  0.6136  0.6659 -0.1203
 4831SOL    HW126129   3.163   0.963   8.747  0.8700 -1.4643  0.5069
 4831SOL    HW226130   3.267   1.061   8.705  1.1001  1.0310  1.0388
 4832SOL     OW26131   2.606   4.605   1.862 -0.1965  0.4410  0.7451
 4832SOL    HW126132   2.599   4.574   1.772  1.4031  1.2338  0.3586
 4832SOL    HW226133   2.690   4.562   1.879 -0.9426 -2.2190 -2.2683
 4833SOL     OW26134   2.492   1.841  11.290 -0.9696  0.4804  0.1015
 4833SOL    HW126135   2.532   1.905  11.230  1.8567 -1.8214 -0.4559
 4833SOL    HW226136   2.520   1.757  11.253  0.0246  0.1951  1.5051
 4834SOL     OW26137   2.911   2.025   1.793  0.1348 -0.0331 -0.0579
 4834SOL    HW126138   2.968   2.064   1.859 -1.0654  0.4691  0.6741
 4834SOL    HW226139   2.878   1.943   1.831 -1.4053 -0.0171 -1.3683
 4835SOL     OW26140   0.065   3.652   7.802 -0.3688 -0.6084  0.0663
 4835SOL    HW126141   4.709   3.648   7.790 -0.2965 -1.0478 -0.3505
 4835SOL    HW226142   0.081   3.563   7.771 -0.5674 -0.5192 -0.3017
 4836SOL     OW26143   0.661   2.459   3.430 -0.0861 -0.4646 -0.0275
 4836SOL    HW126144   0.738   2.403   3.429 -0.9991 -1.7226  0.7277
 4836SOL    HW226145   0.606   2.421   3.361  1.3001 -0.6707 -1.0218
 4837SOL     OW26146   3.249   4.417  17.144  0.1570  0.3476  0.0892
 4837SOL    HW126147   3.328   4.384  17.186  0.6765 -0.1476 -1.2737
 4837SOL    HW226148   3.185   4.400  17.213 -1.3085 -1.6563 -1.7432
 4838SOL     OW26149   0.042   4.271   7.285  0.3331 -0.0093 -0.1021
 4838SOL    HW126150   0.036   4.348   7.342  0.5903 -1.2590  1.6013
 4838SOL    HW226151   0.090   4.303   7.208  2.1981 -1.3483  0.5110
 4839SOL     OW26152   0.152   1.080  14.663 -0.4212 -0.3471  0.1910
 4839SOL    HW126153   0.098   1.156  14.684 -1.0318 -0.6246 -0.3743
 4839SOL    HW226154   0.227   1.103  14.719 -1.6324  1.2848  1.1134
 4840SOL     OW26155   2.807   1.720   5.476 -0.0659  0.1645  0.2195
 4840SOL    HW126156   2.736   1.671   5.435  0.3848  0.1681 -0.5630
 4840SOL    HW226157   2.781   1.730   5.568  0.5190  1.1071  0.2910
 4841SOL     OW26158   1.331   0.451   9.956 -0.0050  0.1599 -0.5251
 4841SOL    HW126159   1.268   0.429  10.024  1.5379 -0.0752  0.8319
 4841SOL    HW226160   1.396   0.387   9.984  0.3208  0.3629 -0.8187
 4842SOL     OW26161   2.875   4.321   6.635  0.4127  0.7026  0.2151
 4842SOL    HW126162   2.840   4.398   6.681 -1.6580  1.5613 -2.7879
 4842SOL    HW226163   2.852   4.262   6.706  0.4467  0.9684  0.4492
 4843SOL     OW26164   1.859   2.621   6.110 -0.5505 -0.3952 -0.0955
 4843SOL    HW126165   1.855   2.526   6.111  1.0538 -0.4679 -0.7339
 4843SOL    HW226166   1.817   2.657   6.032 -2.1972 -0.7790  0.6120
 4844SOL     OW26167   0.687   0.994   9.253 -0.2599  0.0917  0.1329
 4844SOL    HW126168   0.688   0.986   9.158 -0.4935 -0.4466  0.1756
 4844SOL    HW226169   0.671   1.088   9.264 -1.2631  0.0302 -0.7831
 4845SOL     OW26170   1.937   1.671   2.698  0.0323  0.5679  0.2200
 4845SOL    HW126171   1.916   1.696   2.608  2.2369  0.8038 -0.2348
 4845SOL    HW226172   1.980   1.587   2.685  1.5255  1.2165  0.9524
 4846SOL     OW26173   0.070   0.004   5.611 -0.3034  0.1434 -0.0902
 4846SOL    HW126174   0.126   0.033   5.540 -1.0432  1.1948 -0.2515
 4846SOL    HW226175   0.124   4.672   5.646  0.4360  1.0349  0.5912
 4847SOL     OW26176   1.614   1.405  13.825  0.0692 -0.3199 -0.2332
 4847SOL    HW126177   1.607   1.500  13.833 -2.2844 -0.3916 -1.2472
 4847SOL    HW226178   1.702   1.395  13.788  0.7300  3.4628  0.4058
 4848SOL     OW26179   4.186   2.018   4.427  0.3072 -0.2778  0.5966
 4848SOL    HW126180   4.265   1.981   4.387 -0.1230 -2.7633  2.0619
 4848SOL    HW226181   4.131   2.026   4.349  0.5451 -1.0144  0.3528
 4849SOL     OW26182   2.318   3.798  12.072 -0.1324 -0.4570  0.1886
 4849SOL    HW126183   2.387   3.863  12.056  1.1121 -1.3972  1.6825
 4849SOL    HW226184   2.334   3.795  12.166 -0.7795 -0.3611  0.3014
 4850SOL     OW26185   1.289   1.279   6.280 -0.0040  0.3563 -0.3942
 4850SOL    HW126186   1.266   1.200   6.329  2.0434  0.6186  1.0222
 4850SOL    HW226187   1.385   1.270   6.276 -0.0497 -0.8873  0.9336
 4851SOL     OW26188   2.649   4.273  10.834 -0.7326 -0.2632 -0.0167
 4851SOL    HW126189   2.604   4.345  10.879  2.1733  1.7088 -0.2699
 4851SOL    HW226190   2.687   4.307  10.753  1.3175  0.9420  1.4453
 4852SOL     OW26191   4.084   1.253  10.109 -0.3173  0.3974 -0.2558
 4852SOL    HW126192   4.017   1.243  10.176 -1.6649  2.0115 -1.3664
 4852SOL    HW226193   4.081   1.166  10.070  0.9413 -0.3101  1.2054
 4853SOL     OW26194   4.325   0.468   3.068  0.6020 -0.3892 -0.2086
 4853SOL    HW126195   4.341   0.386   3.021 -2.2142 -2.5161  2.5596
 4853SOL    HW226196   4.379   0.516   3.004 -1.3738  1.8046 -0.2356
 4854SOL     OW26197   1.141   0.600   6.273 -0.4270  0.5943 -0.4029
 4854SOL    HW126198   1.206   0.564   6.213 -0.1658  0.1439  0.1438
 4854SOL    HW226199   1.116   0.519   6.318 -1.4365  1.3380  0.3646
 4855SOL     OW26200   0.831   4.115   7.990 -0.6403 -0.2701 -0.3208
 4855SOL    HW126201   0.778   4.192   7.967  0.1986  0.2012 -0.6705
 4855SOL    HW226202   0.828   4.071   7.905 -1.9607 -2.6866  0.9831
 4856SOL     OW26203   1.313   0.389   3.565 -0.0490  0.2577  0.1459
 4856SOL    HW126204   1.383   0.324   3.563  0.9506  1.3376 -0.0376
 4856SOL    HW226205   1.260   0.360   3.491  1.1781  0.6344 -0.8651
 4857SOL     OW26206   0.769   2.441   5.039 -0.1948 -0.1054  0.0844
 4857SOL    HW126207   0.856   2.443   5.001 -0.6338 -0.5625 -0.9454
 4857SOL    HW226208   0.721   2.410   4.962 -0.7823  2.4799 -0.5891
 4858SOL     OW26209   3.702   2.039  17.130 -0.2901 -0.0388  0.3383
 4858SOL    HW126210   3.688   1.978  17.204  0.2022 -0.4698  0.0730
 4858SOL    HW226211   3.613   2.039  17.093  0.0820  1.6112 -0.5379
 4859SOL     OW26212   4.475   2.469   9.311 -0.1763  0.1186  0.4939
 4859SOL    HW126213   4.515   2.395   9.357  1.6210  1.8428  1.6908
 4859SOL    HW226214   4.508   2.460   9.222 -1.7654 -2.0480  0.1192
 4860SOL     OW26215   4.640   4.277  11.488 -0.4320  0.0535  0.2869
 4860SOL    HW126216   4.685   4.199  11.522 -2.3479 -1.4206 -0.5907
 4860SOL    HW226217   4.552   4.252  11.517 -1.7220  2.6767 -1.3991
 4861SOL     OW26218   2.663   3.680   3.628  0.1580 -0.4334  0.1152
 4861SOL    HW126219   2.679   3.751   3.690 -1.4778  0.1194 -0.0988
 4861SOL    HW226220   2.716   3.707   3.552 -1.3989  1.3243 -0.3492
 4862SOL     OW26221   3.264   4.709   4.101 -0.6578 -0.5685  0.6652
 4862SOL    HW126222   3.234   4.703   4.010 -1.6924 -0.2585  0.9867
 4862SOL    HW226223   3.337   4.647   4.103 -1.0740 -1.0700  0.3461
 4863SOL     OW26224   0.460   0.297  16.187 -0.3975  0.1904 -0.0137
 4863SOL    HW126225   0.466   0.393  16.181 -5.6605  0.4930 -0.5426
 4863SOL    HW226226   0.522   0.286  16.259  0.8256  3.9577 -0.4420
 4864SOL     OW26227   2.979   1.161   7.690 -0.4249 -0.0890 -0.3264
 4864SOL    HW126228   2.950   1.071   7.675  1.7861 -0.5367 -1.9191
 4864SOL    HW226229   3.070   1.167   7.662 -0.3071 -1.1608 -0.1722
 4865SOL     OW26230   4.624   3.081   0.320 -1.4091  0.2301  0.2884
 4865SOL    HW126231   4.642   3.119   0.234  0.0364  0.3656  0.6459
 4865SOL    HW226232   4.550   3.135   0.346  0.2607  2.3879  0.5639
 4866SOL     OW26233   4.262   3.005   6.910 -0.1437 -0.2985 -0.0178
 4866SOL    HW126234   4.226   3.061   6.979  0.7239  0.4448 -0.1665
 4866SOL    HW226235   4.264   2.918   6.950  1.1650 -0.8803 -1.3602
 4867SOL     OW26236   1.032   2.919   8.757 -0.0350 -0.2434  0.0369
 4867SOL    HW126237   1.078   2.976   8.819  0.2395  0.0625 -0.4468
 4867SOL    HW226238   1.096   2.925   8.686 -1.5644  0.2700 -1.2985
 4868SOL     OW26239   2.039   2.839   3.754  0.0303 -0.1181  0.3647
 4868SOL    HW126240   1.990   2.893   3.692 -1.0305 -1.2169  0.2494
 4868SOL    HW226241   2.086   2.907   3.802  0.5015 -0.8254  0.9035
 4869SOL     OW26242   0.712   1.787   6.604 -0.4017 -0.0430 -0.1403
 4869SOL    HW126243   0.752   1.797   6.518 -2.2916  0.2006 -0.9836
 4869SOL    HW226244   0.620   1.792   6.577  0.0506 -0.5287 -1.7484
 4870SOL     OW26245   3.934   2.109  17.033  0.3782  0.2882  0.9918
 4870SOL    HW126246   3.861   2.097  17.094 -0.6341 -1.6076 -0.5857
 4870SOL    HW226247   3.929   2.034  16.975 -1.0508  0.7415  0.5253
 4871SOL     OW26248   0.146   1.705   7.178  0.2440 -0.3796  0.3696
 4871SOL    HW126249   0.086   1.752   7.236  0.2632 -0.1135  0.1725
 4871SOL    HW226250   0.143   1.617   7.217  0.7362 -0.6889 -0.2875
 4872SOL     OW26251   3.544   2.067   2.809  0.0789 -0.4454  0.0650
 4872SOL    HW126252   3.571   2.078   2.718 -0.6417  1.4782  0.0812
 4872SOL    HW226253   3.450   2.052   2.804 -0.3311  2.1345 -0.0901
 4873SOL     OW26254   0.011   0.117   3.398 -0.5772  0.0592 -1.1848
 4873SOL    HW126255   0.066   0.156   3.329  0.6982  0.1652 -0.0971
 4873SOL    HW226256   0.025   0.169   3.477 -0.4715  0.6277 -1.5755
 4874SOL     OW26257   0.977   3.010   3.364  0.1384 -0.1164 -0.5623
 4874SOL    HW126258   1.046   2.984   3.303 -0.0315  0.1912 -0.8878
 4874SOL    HW226259   1.032   3.034   3.438 -1.8163 -0.8987  1.1226
 4875SOL     OW26260   2.135   2.636   2.026  0.0184  0.5420 -0.0880
 4875SOL    HW126261   2.099   2.664   1.942  0.6292 -1.0311 -0.8791
 4875SOL    HW226262   2.227   2.661   2.016  0.1731 -0.5280 -1.3222
 4876SOL     OW26263   0.891   4.553   5.504  0.4802  0.4381  0.2409
 4876SOL    HW126264   0.936   4.475   5.472  0.1115  0.8436 -1.2499
 4876SOL    HW226265   0.868   4.587   5.418  0.5682  4.6280  1.8731
 4877SOL     OW26266   4.130   0.248   9.433  0.3977 -0.4562 -0.9248
 4877SOL    HW126267   4.167   0.221   9.517  0.3541 -0.3494 -0.8715
 4877SOL    HW226268   4.203   0.224   9.376  0.3508 -1.5715 -0.5233
 4878SOL     OW26269   3.729   3.265   5.420 -0.2898  0.2072  0.2689
 4878SOL    HW126270   3.727   3.261   5.324  0.1978  1.4992  0.2050
 4878SOL    HW226271   3.693   3.354   5.425 -0.2700  0.1450  1.5577
 4879SOL     OW26272   2.472   4.738   9.515 -0.7799  0.2730 -0.2685
 4879SOL    HW126273   2.476   0.060   9.588  2.5724  0.4030 -0.5371
 4879SOL    HW226274   2.382   4.706   9.515 -0.7575  0.1952 -1.5693
 4880SOL     OW26275   2.072   3.210   8.767  0.0082  0.4308  0.3715
 4880SOL    HW126276   2.103   3.226   8.856  0.1307  1.4206  0.1415
 4880SOL    HW226277   2.132   3.140   8.742 -1.6526 -0.5938 -0.7789
 4881SOL     OW26278   2.228   3.324   8.448  0.2382 -0.3858 -0.2001
 4881SOL    HW126279   2.147   3.291   8.408  1.0034 -0.7494 -1.4222
 4881SOL    HW226280   2.199   3.356   8.534  0.3350  0.5212 -0.5083
 4882SOL     OW26281   0.195   1.649   5.304  0.8751  0.4268 -0.4750
 4882SOL    HW126282   0.181   1.584   5.235  1.5407  1.1164 -1.2634
 4882SOL    HW226283   0.145   1.608   5.375  2.7833  2.2114  1.8826
 4883SOL     OW26284   2.783   4.516   6.867 -0.3860  0.5383 -0.1732
 4883SOL    HW126285   2.726   4.579   6.823 -0.1509 -1.1819 -2.9741
 4883SOL    HW226286   2.829   4.565   6.934 -2.1669  1.8349  0.1184
 4884SOL     OW26287   2.331   2.772  17.412 -0.3134  0.4538 -0.2289
 4884SOL    HW126288   2.355   2.854  17.456  0.6075  1.7632 -3.1656
 4884SOL    HW226289   2.239   2.771  17.437 -0.5124  1.6682 -0.8984
 4885SOL     OW26290   1.593   0.613  12.430  0.3260  0.0457 -0.3139
 4885SOL    HW126291   1.657   0.554  12.469  0.6400  1.1532  0.8797
 4885SOL    HW226292   1.648   0.672  12.378 -1.5664  0.8192 -1.4339
 4886SOL     OW26293   3.454   0.216   5.358 -0.4951 -0.1947 -0.1909
 4886SOL    HW126294   3.437   0.209   5.452  1.2663  0.3306  0.1632
 4886SOL    HW226295   3.534   0.165   5.345 -2.0420 -3.0636  1.2762
 4887SOL     OW26296   3.193   0.057  16.410 -0.4333  0.1531  0.0021
 4887SOL    HW126297   3.169   0.122  16.476 -0.8325  1.5119 -1.4688
 4887SOL    HW226298   3.191   4.719  16.467 -2.1797  0.2843  0.1279
 4888SOL     OW26299   2.574   4.169  13.612 -0.5628  0.1842 -0.4970
 4888SOL    HW126300   2.622   4.133  13.686 -1.1146  0.3683 -0.0489
 4888SOL    HW226301   2.510   4.225  13.657  0.3717  0.9507 -0.1364
 4889SOL     OW26302   4.673   1.585   5.971  0.0663  0.2529 -0.3757
 4889SOL    HW126303   4.606   1.549   6.029 -0.3102  0.3023 -0.7818
 4889SOL    HW226304   4.649   1.677   5.968 -0.3880  0.1331 -0.3305
 4890SOL     OW26305   2.337   1.817   8.414  0.2567 -0.2992 -0.3526
 4890SOL    HW126306   2.366   1.730   8.387  0.2754  0.5574 -3.1570
 4890SOL    HW226307   2.404   1.827   8.481  1.5230  0.1955 -1.6746
 4891SOL     OW26308   0.363   1.224   8.330  0.4732 -0.9584  0.0487
 4891SOL    HW126309   0.417   1.284   8.382 -0.5826  0.4835 -0.5139
 4891SOL    HW226310   0.348   1.151   8.390 -1.6305 -1.2620 -0.8368
 4892SOL     OW26311   2.321   0.495   6.551 -0.3071 -0.1861 -0.1579
 4892SOL    HW126312   2.237   0.541   6.560 -0.9285 -0.7202 -3.0764
 4892SOL    HW226313   2.386   0.563   6.533 -0.2176 -0.1469  0.3377
 4893SOL     OW26314   1.666   1.095  13.816 -0.3713 -0.7036 -0.2812
 4893SOL    HW126315   1.674   1.175  13.867 -2.8729 -0.8811  0.3841
 4893SOL    HW226316   1.573   1.083  13.796 -0.3273 -0.3817 -0.6877
 4894SOL     OW26317   4.066   0.111   3.620  0.1310  0.2252 -0.1996
 4894SOL    HW126318   4.047   0.202   3.595  0.0404  0.6829  1.4893
 4894SOL    HW226319   3.993   0.104   3.681  0.5555 -0.8496  0.1766
 4895SOL     OW26320   0.269   2.174   7.908  0.0843  0.1356 -0.4643
 4895SOL    HW126321   0.296   2.083   7.895 -1.5857 -0.6136  1.4261
 4895SOL    HW226322   0.352   2.213   7.935  0.2860 -0.3843 -0.3479
 4896SOL     OW26323   0.487   2.522   6.497  0.3143  0.0683 -0.4637
 4896SOL    HW126324   0.514   2.482   6.415 -3.1522  0.8440 -1.9598
 4896SOL    HW226325   0.564   2.562   6.538  0.0353  0.3139 -0.1692
 4897SOL     OW26326   1.651   3.497   6.224  0.0426  0.5401 -0.2641
 4897SOL    HW126327   1.594   3.532   6.155 -1.0027  0.8133  0.7239
 4897SOL    HW226328   1.633   3.403   6.223  1.2002  0.3148  0.0306
 4898SOL     OW26329   0.833   1.032   4.690 -0.4507  0.3817 -0.3285
 4898SOL    HW126330   0.901   0.968   4.672 -0.2108  0.1806  1.2831
 4898SOL    HW226331   0.875   1.086   4.758  1.4181  0.6150 -1.6650
 4899SOL     OW26332   2.793   4.686  14.688  0.4685 -0.2539  0.5458
 4899SOL    HW126333   2.873   4.709  14.736  1.3494  0.2464 -1.1478
 4899SOL    HW226334   2.844   4.651  14.615  0.3319 -1.3254  0.9691
 4900SOL     OW26335   3.570   0.320   4.795  0.0281  0.0507 -0.2880
 4900SOL    HW126336   3.598   0.304   4.885  0.6818 -0.6368 -0.6094
 4900SOL    HW226337   3.476   0.315   4.815 -0.0195  1.3767 -0.2065
 4901SOL     OW26338   2.357   2.835  13.341  0.1572  0.5802  0.3119
 4901SOL    HW126339   2.292   2.895  13.378 -0.7857  0.2805 -0.8565
 4901SOL    HW226340   2.434   2.842  13.398 -0.1280  2.4072  0.4790
 4902SOL     OW26341   0.049   0.574  13.740 -0.5613 -0.0238 -0.5526
 4902SOL    HW126342   0.028   0.658  13.700 -0.6786  0.0376 -0.3677
 4902SOL    HW226343   0.143   0.583  13.750 -0.4270 -1.9617  0.0722
 4903SOL     OW26344   1.885   2.306   2.254  0.2226 -0.1102 -0.0979
 4903SOL    HW126345   1.941   2.246   2.205 -0.2286 -2.9763  2.9475
 4903SOL    HW226346   1.902   2.391   2.212 -1.2903  1.3085  2.1285
 4904SOL     OW26347   2.352   2.153  14.098 -0.0280  0.0662  0.0878
 4904SOL    HW126348   2.391   2.229  14.141  0.8115  0.0699 -0.6722
 4904SOL    HW226349   2.426   2.113  14.053 -0.8353 -1.8343  0.4535
 4905SOL     OW26350   3.602   1.562   2.984 -0.7452  0.0054  0.4173
 4905SOL    HW126351   3.633   1.631   3.044 -1.7402 -0.4226  1.4365
 4905SOL    HW226352   3.513   1.595   2.970 -0.0730  1.1314 -1.2687
 4906SOL     OW26353   1.601   1.888   3.365 -0.2369  0.3647  0.1576
 4906SOL    HW126354   1.676   1.894   3.425 -0.8307 -0.0511  0.9401
 4906SOL    HW226355   1.595   1.976   3.328  2.1503  0.6271  0.3579
 4907SOL     OW26356   0.477   4.166  11.588  0.6504 -0.5184  0.0928
 4907SOL    HW126357   0.462   4.251  11.547  0.4714 -0.6892 -0.1910
 4907SOL    HW226358   0.453   4.187  11.679 -0.3842  2.0271 -0.7635
 4908SOL     OW26359   1.547   0.324   4.737  0.0698  0.4353 -0.3833
 4908SOL    HW126360   1.541   0.336   4.642  2.3251 -0.4539 -0.6226
 4908SOL    HW226361   1.452   0.312   4.748  0.0348  0.7384 -0.3333
 4909SOL     OW26362   2.813   1.935   7.309  0.8279 -0.5740 -0.3081
 4909SOL    HW126363   2.736   1.981   7.344  1.6410 -0.3591  1.1893
 4909SOL    HW226364   2.880   1.951   7.375  1.2787 -2.8420 -0.2338
 4910SOL     OW26365   0.482   2.516  16.530  0.3691  0.0034  0.2283
 4910SOL    HW126366   0.471   2.474  16.616  0.4519  2.1401  1.2782
 4910SOL    HW226367   0.393   2.549  16.517  0.6300  0.5713 -0.0941
 4911SOL     OW26368   0.928   2.112  16.164 -0.0478  0.2315  0.0274
 4911SOL    HW126369   0.873   2.153  16.096 -1.0682 -0.3013  0.5275
 4911SOL    HW226370   0.936   2.179  16.231  0.1353  0.4452 -0.2077
 4912SOL     OW26371   2.220   1.265  12.007  0.1892  0.4089 -0.1364
 4912SOL    HW126372   2.222   1.180  11.963 -1.0716  0.2252  0.1719
 4912SOL    HW226373   2.299   1.308  11.975  0.0843 -0.6797 -1.8831
 4913SOL     OW26374   2.806   1.143   0.307  0.2781  0.3162  0.0711
 4913SOL    HW126375   2.753   1.216   0.339  0.2434  0.2200  0.2322
 4913SOL    HW226376   2.737   1.086   0.274 -0.1300 -1.6585  4.2548
 4914SOL     OW26377   2.146   3.907  13.300  0.2252 -0.0486  0.5619
 4914SOL    HW126378   2.197   3.909  13.381 -1.8876 -0.3640  1.8932
 4914SOL    HW226379   2.209   3.951  13.243  0.0755 -2.2230 -1.2602
 4915SOL     OW26380   4.645   2.483   6.248 -0.4775  0.0650  0.8391
 4915SOL    HW126381   4.737   2.506   6.263 -0.5879 -0.8024  2.9140
 4915SOL    HW226382   4.651   2.424   6.173  0.3539  0.2179  0.7828
 4916SOL     OW26383   0.357   3.884   4.473  0.2939 -0.2991 -0.0152
 4916SOL    HW126384   0.375   3.977   4.461 -3.1007  0.0449 -2.4231
 4916SOL    HW226385   0.291   3.865   4.406 -1.6483  1.4626  1.4091
 4917SOL     OW26386   4.628   1.252   6.415  0.0307 -0.4308 -0.0887
 4917SOL    HW126387   4.710   1.297   6.432  0.2833 -0.7252 -0.5202
 4917SOL    HW226388   4.574   1.324   6.383  0.3550 -1.2976 -2.6084
 4918SOL     OW26389   4.429   2.288   3.248  0.1513  0.3357 -0.3125
 4918SOL    HW126390   4.461   2.318   3.163 -2.1006 -0.0006 -1.2725
 4918SOL    HW226391   4.428   2.193   3.236 -2.4696 -0.0133  2.8417
 4919SOL     OW26392   2.747   1.018   6.007  0.0759 -0.5122  0.0745
 4919SOL    HW126393   2.778   0.929   5.993 -1.9019 -1.0294 -1.1406
 4919SOL    HW226394   2.738   1.030   6.101  0.6799  0.2736  0.0302
 4920SOL     OW26395   1.829   2.708   7.504 -0.6576 -0.7764 -0.4523
 4920SOL    HW126396   1.906   2.652   7.491  0.7472  0.6064  1.8893
 4920SOL    HW226397   1.784   2.703   7.420  0.9140 -0.8257 -1.2964
 4921SOL     OW26398   4.168   2.807   3.275 -0.1598  0.3493  0.0394
 4921SOL    HW126399   4.246   2.797   3.330 -0.4991 -1.2187  0.2344
 4921SOL    HW226400   4.099   2.823   3.340  0.8213  1.7813  0.7319
 4922SOL     OW26401   2.985   4.661  16.257 -0.2038  0.3761  0.5005
 4922SOL    HW126402   2.933   4.719  16.200 -0.8372  0.5696  1.2634
 4922SOL    HW226403   3.027   4.719  16.320 -0.1602 -1.1266  1.8440
 4923SOL     OW26404   3.474   0.973  11.953 -0.2499 -0.5078  0.0762
 4923SOL    HW126405   3.563   0.951  11.926  0.0513  0.7690  0.0055
 4923SOL    HW226406   3.431   0.929  11.880 -2.3600  2.4269 -0.4644
 4924SOL     OW26407   4.179   1.476  10.233  0.1525 -0.1113 -0.4902
 4924SOL    HW126408   4.247   1.532  10.195 -0.2653  0.0633 -0.9868
 4924SOL    HW226409   4.158   1.412  10.165 -1.5843 -2.6267  2.4454
 4925SOL     OW26410   4.647   0.002   1.793 -0.1891 -0.1567 -0.2941
 4925SOL    HW126411   4.599   4.718   1.714  0.5111 -1.5951 -0.3124
 4925SOL    HW226412   4.627   0.095   1.803 -1.4526 -0.4519 -0.1612
 4926SOL     OW26413   2.181   2.766   9.621 -0.4204 -0.3379  0.1904
 4926SOL    HW126414   2.179   2.796   9.712  1.0764 -1.2691  0.5267
 4926SOL    HW226415   2.223   2.843   9.584 -2.3244  1.5465  1.9601
 4927SOL     OW26416   0.086   0.298  11.810 -0.3793 -0.6203 -0.4007
 4927SOL    HW126417   0.011   0.319  11.754 -1.4872 -2.1648  0.5269
 4927SOL    HW226418   0.084   0.381  11.857  1.1504 -0.9352  0.2213
 4928SOL     OW26419   2.702   3.239   2.494 -0.8869  0.0559  0.4159
 4928SOL    HW126420   2.644   3.187   2.438 -1.2474 -0.0835  0.9281
 4928SOL    HW226421   2.752   3.177   2.546  0.1804 -0.1021 -0.7767
 4929SOL     OW26422   1.667   2.727   5.934 -0.0834 -0.3308 -0.1742
 4929SOL    HW126423   1.576   2.730   5.964 -1.0969  1.3921 -3.3627
 4929SOL    HW226424   1.658   2.657   5.870 -0.7412 -2.6574  2.4819
 4930SOL     OW26425   2.078   2.913   9.849 -0.5924 -0.1312 -0.4795
 4930SOL    HW126426   2.001   2.864   9.822  0.5824 -1.5825 -1.1838
 4930SOL    HW226427   2.053   3.005   9.862  0.5293  0.2561 -1.0316
 4931SOL     OW26428   2.711   4.338   3.158  0.2499  0.0753 -0.0610
 4931SOL    HW126429   2.696   4.427   3.191  2.6468 -0.1794  1.7040
 4931SOL    HW226430   2.651   4.355   3.085  1.4926  0.7983 -0.9209
 4932SOL     OW26431   1.713   3.858   3.138 -0.2830 -0.3084  0.0859
 4932SOL    HW126432   1.671   3.866   3.052  2.2577  2.0891 -0.9337
 4932SOL    HW226433   1.764   3.777   3.132 -1.5047 -0.8889 -2.2611
 4933SOL     OW26434   0.973   2.653   8.764  0.3528  0.0208 -0.2944
 4933SOL    HW126435   0.878   2.664   8.773  0.2711 -2.0873  1.6692
 4933SOL    HW226436   0.989   2.747   8.776  0.2650  0.2189 -1.7653
 4934SOL     OW26437   3.956   3.649   5.233  0.1290  0.2245  0.1182
 4934SOL    HW126438   4.018   3.620   5.300  3.3581  0.6213 -2.7024
 4934SOL    HW226439   3.920   3.728   5.275 -0.0572  0.6275 -0.8074
 4935SOL     OW26440   0.458   4.711   6.611 -0.2488  0.0959 -0.6047
 4935SOL    HW126441   0.541   4.668   6.596  0.9481  1.8587  0.8825
 4935SOL    HW226442   0.430   0.005   6.525 -0.7652  4.3730  1.1864
 4936SOL     OW26443   0.128   2.792   2.162 -1.0593 -0.1720 -0.4566
 4936SOL    HW126444   0.214   2.835   2.162 -1.6398  1.0247 -2.3799
 4936SOL    HW226445   0.096   2.816   2.249  0.6456 -0.9776  0.4100
 4937SOL     OW26446   0.547   1.706  14.535  0.5188 -1.0088  0.2179
 4937SOL    HW126447   0.501   1.789  14.523  1.2738 -0.1238  3.4275
 4937SOL    HW226448   0.573   1.683  14.446 -1.3255 -0.8574 -0.3730
 4938SOL     OW26449   3.954   0.771   8.385 -0.3015  0.4554  0.2351
 4938SOL    HW126450   4.005   0.852   8.393  1.1794 -0.4893  0.4499
 4938SOL    HW226451   3.939   0.759   8.479 -0.1103 -1.8770 -0.0430
 4939SOL     OW26452   2.905   0.893  13.915 -0.2575 -0.1279  0.4489
 4939SOL    HW126453   2.990   0.868  13.953  0.8092  0.4378 -1.5606
 4939SOL    HW226454   2.851   0.818  13.940 -0.0020 -0.3835  0.2326
 4940SOL     OW26455   0.506   4.429   2.616 -0.3381 -0.0245  0.1478
 4940SOL    HW126456   0.417   4.395   2.625 -0.2919  0.6278  3.3418
 4940SOL    HW226457   0.536   4.342   2.588  1.3445 -0.3380  2.8956
 4941SOL     OW26458   1.175   3.332   4.879 -0.4145  0.7402  0.0717
 4941SOL    HW126459   1.114   3.290   4.818  2.8414 -1.8576 -1.3930
 4941SOL    HW226460   1.119   3.408   4.898 -1.5435  0.2050 -1.1559
 4942SOL     OW26461   2.330   2.189   5.885  0.5376  0.3441 -0.0424
 4942SOL    HW126462   2.287   2.273   5.870  1.0900  0.6665  0.1706
 4942SOL    HW226463   2.295   2.148   5.965  1.4032  0.4402  0.3871
 4943SOL     OW26464   0.248   4.331   6.180 -0.0571 -0.0942  0.2672
 4943SOL    HW126465   0.262   4.247   6.135  0.2951 -0.1826  0.5463
 4943SOL    HW226466   0.291   4.307   6.262  0.0479  1.9161  0.7969
 4944SOL     OW26467   4.216   1.736   7.293 -0.3562  0.5041 -0.3265
 4944SOL    HW126468   4.139   1.792   7.301  1.2036  2.4593  0.6781
 4944SOL    HW226469   4.213   1.711   7.201  0.1192  0.4188 -0.3186
 4945SOL     OW26470   2.867   4.439   5.211 -0.8204  0.3977 -0.2697
 4945SOL    HW126471   2.958   4.450   5.238 -0.5409  1.1284 -1.5058
 4945SOL    HW226472   2.889   4.360   5.161 -2.0903 -0.0717 -0.0905
 4946SOL     OW26473   0.911   3.803   8.098  0.7547 -0.1358 -0.1694
 4946SOL    HW126474   0.973   3.823   8.169 -0.0612 -0.8529  0.7485
 4946SOL    HW226475   0.895   3.889   8.058 -0.0985 -0.2222 -0.0200
 4947SOL     OW26476   3.813   1.648  10.373 -0.0191  0.1818  0.0473
 4947SOL    HW126477   3.824   1.553  10.365  0.9069  0.2005  1.1496
 4947SOL    HW226478   3.901   1.685  10.375 -0.6766  1.6946  1.0139
 4948SOL     OW26479   0.834   1.370   5.560 -0.3798 -0.5595  0.2555
 4948SOL    HW126480   0.827   1.463   5.581 -1.1036 -1.1205  2.5270
 4948SOL    HW226481   0.929   1.362   5.556 -0.1583  1.5924  1.1901
 4949SOL     OW26482   0.310   3.197   8.549  0.0624  0.0854 -0.1417
 4949SOL    HW126483   0.401   3.225   8.557 -0.1627  1.3645 -2.1353
 4949SOL    HW226484   0.281   3.194   8.640 -1.5385 -1.9967 -0.7193
 4950SOL     OW26485   3.646   1.755   3.194  0.2491  0.1101  0.3500
 4950SOL    HW126486   3.648   1.848   3.217  2.0513  0.3401 -0.7007
 4950SOL    HW226487   3.738   1.740   3.215  0.0521 -0.2889  0.9137
 4951SOL     OW26488   4.196   3.041   5.143 -0.1348  0.1568 -0.2418
 4951SOL    HW126489   4.166   3.127   5.173  0.0760  0.9877 -2.4167
 4951SOL    HW226490   4.200   2.990   5.223 -2.2640  0.7664  0.2484
 4952SOL     OW26491   1.036   0.638  14.762 -0.3442 -0.4192  0.1453
 4952SOL    HW126492   1.000   0.716  14.805 -1.3250  0.2815 -1.9224
 4952SOL    HW226493   1.107   0.628  14.825 -0.6895 -0.2027  0.5691
 4953SOL     OW26494   1.757   2.230   7.920  0.0707 -0.0740  0.4606
 4953SOL    HW126495   1.748   2.192   8.008  0.3473 -1.0296  0.0790
 4953SOL    HW226496   1.852   2.242   7.918 -0.0372  0.6133 -0.5111
 4954SOL     OW26497   2.883   3.285   6.220  0.0186 -0.1149 -0.1698
 4954SOL    HW126498   2.893   3.190   6.215  1.6426  0.1240 -1.5293
 4954SOL    HW226499   2.891   3.296   6.315 -0.9341 -3.0846  0.2672
 4955SOL     OW26500   3.805   2.756   5.625  0.4802  0.0725  0.3914
 4955SOL    HW126501   3.834   2.695   5.692  1.5184 -1.1972 -1.2051
 4955SOL    HW226502   3.810   2.704   5.544 -0.8708 -2.8079  2.1537
 4956SOL     OW26503   4.636   0.840   8.491 -0.3128 -0.4368  0.4290
 4956SOL    HW126504   4.649   0.797   8.407 -0.8001 -0.6549  0.4686
 4956SOL    HW226505   4.727   0.869   8.503  0.1843 -1.4111 -1.0272
 4957SOL     OW26506   0.802   0.630   8.891  0.2844  0.2883 -0.4956
 4957SOL    HW126507   0.893   0.649   8.869  0.7917  1.8268  2.9030
 4957SOL    HW226508   0.814   0.602   8.982 -1.3337  4.2845  0.9493
 4958SOL     OW26509   3.905   3.931   6.997 -0.0947  0.6096  0.4287
 4958SOL    HW126510   3.835   3.963   6.940  0.1949 -2.2604 -1.5423
 4958SOL    HW226511   3.925   3.997   7.063  0.2355 -0.2786  1.2215
 4959SOL     OW26512   1.598   1.402   4.696  0.3065  0.6352  0.2933
 4959SOL    HW126513   1.568   1.408   4.786 -0.3813 -1.5356  0.1958
 4959SOL    HW226514   1.627   1.311   4.691  0.6057  0.7515 -0.1909
 4960SOL     OW26515   0.163   2.334  17.274  0.0797  0.9191 -0.5152
 4960SOL    HW126516   0.256   2.324  17.294  0.1910 -1.5711 -2.2948
 4960SOL    HW226517   0.137   2.400  17.339 -1.2890 -0.4153  0.3199
 4961SOL     OW26518   0.132   4.111  10.267  0.0338  0.6168 -0.2637
 4961SOL    HW126519   0.088   4.105  10.351  1.7820  1.9549  0.7363
 4961SOL    HW226520   0.204   4.167  10.298  0.1730  0.9355 -1.1562
 4962SOL     OW26521   0.157   4.335   9.003 -0.5324  0.3088 -0.0719
 4962SOL    HW126522   0.162   4.430   9.003  2.0471  0.1527 -0.2190
 4962SOL    HW226523   0.066   4.312   9.023 -1.1460  1.0090 -2.0376
 4963SOL     OW26524   2.081   0.369   1.200  0.1765 -0.1810  0.3789
 4963SOL    HW126525   1.988   0.392   1.204  0.4762  0.6987  2.5409
 4963SOL    HW226526   2.105   0.405   1.285  0.2013 -2.6264  1.4193
 4964SOL     OW26527   3.923   3.053   9.268  0.4518 -0.2929  0.0506
 4964SOL    HW126528   3.833   3.037   9.241 -0.0323  2.5539  0.0262
 4964SOL    HW226529   3.905   3.046   9.362  0.0480 -5.4386 -0.4140
 4965SOL     OW26530   3.005   2.060   6.426 -0.0707 -0.7506 -0.1432
 4965SOL    HW126531   3.058   2.139   6.415  0.0199 -0.8918 -0.6927
 4965SOL    HW226532   2.920   2.090   6.393  1.6962 -0.1984 -4.1677
 4966SOL     OW26533   1.060   0.712   2.582 -0.1331  0.2108 -0.0428
 4966SOL    HW126534   1.133   0.651   2.574 -2.2666 -2.2391 -0.5313
 4966SOL    HW226535   0.993   0.648   2.559  0.2051 -0.0054 -0.4224
 4967SOL     OW26536   1.133   0.982  11.865 -0.0156  0.1812  0.5380
 4967SOL    HW126537   1.092   0.952  11.784 -1.1882  0.6375  0.9604
 4967SOL    HW226538   1.223   0.992  11.835  0.0178  1.9412  1.2413
 4968SOL     OW26539   0.774   2.897   5.349  0.1271 -0.2571 -0.3544
 4968SOL    HW126540   0.870   2.901   5.347 -0.0279  2.3698 -3.0155
 4968SOL    HW226541   0.765   2.829   5.283  2.1374 -0.9068  0.0240
 4969SOL     OW26542   2.064   0.877  14.782  0.0255 -0.1288 -0.9127
 4969SOL    HW126543   2.048   0.820  14.707 -0.1472 -1.1352 -0.1171
 4969SOL    HW226544   2.013   0.835  14.852 -0.7638  0.8191 -0.9190
 4970SOL     OW26545   3.227   1.230  10.640 -0.1398 -0.1505  0.0338
 4970SOL    HW126546   3.180   1.289  10.581  0.9782  0.8163  0.0985
 4970SOL    HW226547   3.292   1.197  10.578  1.2834 -1.5228  2.2611
 4971SOL     OW26548   2.123   2.372  10.181  0.4430  0.3091 -0.2502
 4971SOL    HW126549   2.125   2.436  10.110  1.6181  1.3929  0.7676
 4971SOL    HW226550   2.054   2.311  10.156 -0.0910  1.2079 -0.9498
 4972SOL     OW26551   3.659   1.991   4.552 -0.2016  0.0843  0.1963
 4972SOL    HW126552   3.582   2.014   4.500  0.4757  2.0015  0.0561
 4972SOL    HW226553   3.708   1.939   4.489  0.4309 -1.1931  1.7432
 4973SOL     OW26554   3.734   2.242   9.287 -0.3658 -0.0943 -0.4501
 4973SOL    HW126555   3.737   2.204   9.200  3.2536 -0.0524 -0.3201
 4973SOL    HW226556   3.669   2.312   9.273  1.7725  1.8276 -0.7127
 4974SOL     OW26557   3.824   3.125  17.213 -0.1617 -0.6870 -0.2250
 4974SOL    HW126558   3.813   3.045  17.264 -0.2306 -1.7418 -1.8727
 4974SOL    HW226559   3.732   3.144  17.195 -0.2113  0.0516  0.8143
 4975SOL     OW26560   0.976   3.550   7.147 -0.8329  0.0473  0.1541
 4975SOL    HW126561   1.039   3.478   7.154 -0.8989 -0.2181 -2.0552
 4975SOL    HW226562   0.902   3.505   7.105 -0.8533 -2.0396  2.4362
 4976SOL     OW26563   1.862   1.397   7.556  0.3897  0.3828  0.0548
 4976SOL    HW126564   1.771   1.410   7.530  1.0644  0.0333 -2.4722
 4976SOL    HW226565   1.907   1.374   7.475  1.4989  0.9732  0.4979
 4977SOL     OW26566   0.378   1.006  10.935  0.0172 -0.7513 -0.2088
 4977SOL    HW126567   0.329   1.055  10.869  0.1511  0.6511  0.7272
 4977SOL    HW226568   0.462   1.006  10.889 -1.1777  0.4760 -2.4359
 4978SOL     OW26569   1.327   2.264   4.434 -0.1751  0.0497  0.5327
 4978SOL    HW126570   1.292   2.237   4.350  2.7999 -0.7585 -0.4519
 4978SOL    HW226571   1.263   2.221   4.491  0.3621 -2.6634 -0.9312
 4979SOL     OW26572   2.749   1.180  16.633 -0.2343 -0.3561 -0.2054
 4979SOL    HW126573   2.800   1.244  16.684  0.7474  1.0672 -2.9466
 4979SOL    HW226574   2.723   1.113  16.696 -0.2553 -1.1228 -1.0388
 4980SOL     OW26575   1.811   3.820  14.577  0.0763  0.2730  0.6739
 4980SOL    HW126576   1.827   3.814  14.483 -1.1090  1.2654  0.4067
 4980SOL    HW226577   1.895   3.815  14.622 -0.4678 -0.2240  1.6386
 4981SOL     OW26578   1.946   0.356  15.234 -0.3827  0.0059 -0.1154
 4981SOL    HW126579   2.008   0.406  15.288 -1.4052 -0.8206  1.8466
 4981SOL    HW226580   1.976   0.384  15.148 -0.3084  1.1050  0.2683
 4982SOL     OW26581   0.991   4.563  13.151  0.0624 -0.5063 -0.4073
 4982SOL    HW126582   0.912   4.567  13.205  1.2191 -2.2248  1.3877
 4982SOL    HW226583   1.056   4.562  13.221  0.2274  2.4312 -0.5122
 4983SOL     OW26584   2.042   3.002   5.897  0.2871  0.0019 -0.2056
 4983SOL    HW126585   2.040   2.984   5.803  1.8553  0.1003 -0.2428
 4983SOL    HW226586   1.948   2.996   5.915  0.1293  0.1295 -0.9477
 4984SOL     OW26587   4.324   2.654   7.740  0.4232  0.0651 -0.5372
 4984SOL    HW126588   4.373   2.618   7.667 -0.3547  0.2360 -1.1444
 4984SOL    HW226589   4.275   2.573   7.751  1.4282 -0.5228 -0.4045
 4985SOL     OW26590   0.486   1.675   8.159 -0.4118  0.1605  0.3504
 4985SOL    HW126591   0.578   1.677   8.134 -0.1026  1.2577  1.5940
 4985SOL    HW226592   0.451   1.615   8.093 -0.0739  0.9945 -0.5929
 4986SOL     OW26593   4.277   0.862   2.941  0.0558 -0.1323  0.3258
 4986SOL    HW126594   4.275   0.861   2.846  0.4815 -0.1170  0.3189
 4986SOL    HW226595   4.237   0.779   2.969  0.1942  0.3265  1.8889
 4987SOL     OW26596   2.035   4.496   0.234  0.0875 -0.0848 -0.3999
 4987SOL    HW126597   2.048   4.568   0.296  0.7888 -1.8218  1.4637
 4987SOL    HW226598   2.121   4.503   0.193 -0.3269  0.2135 -1.2167
 4988SOL     OW26599   1.963   3.098   7.872 -0.3124 -0.2014  0.0774
 4988SOL    HW126600   1.993   3.183   7.839  0.0244 -0.7375 -0.9962
 4988SOL    HW226601   1.880   3.085   7.827 -0.4949  0.1786  0.3100
 4989SOL     OW26602   0.546   2.678   6.177 -0.0530  0.6872 -0.8399
 4989SOL    HW126603   0.624   2.706   6.226 -0.0900  0.7651 -0.8259
 4989SOL    HW226604   0.542   2.738   6.103  2.1772 -1.1608 -2.4291
 4990SOL     OW26605   1.713   4.682   0.369  0.6944  0.4987 -0.1405
 4990SOL    HW126606   1.652   4.631   0.315  0.6049  0.0219  0.4208
 4990SOL    HW226607   1.650   0.010   0.395  1.0574  0.6503  0.3319
 4991SOL     OW26608   4.723   4.386  17.316 -0.1628  0.2506 -0.8481
 4991SOL    HW126609   4.631   4.372  17.294 -0.8323 -1.7665  3.1939
 4991SOL    HW226610   0.002   4.466  17.267 -1.4539 -0.5044 -2.5619
 4992SOL     OW26611   2.360   0.443   5.556  0.1390 -0.3438 -0.6586
 4992SOL    HW126612   2.282   0.427   5.609  0.4544 -0.0946 -0.1100
 4992SOL    HW226613   2.382   0.356   5.525 -1.3787 -0.4174 -1.5542
 4993SOL     OW26614   3.884   1.316  10.615  0.1633 -0.3063  0.2129
 4993SOL    HW126615   3.897   1.360  10.699  0.7685 -0.9449  0.4484
 4993SOL    HW226616   3.807   1.260  10.626  0.3434 -0.6841 -0.4760
 4994SOL     OW26617   3.012   3.126   5.300 -0.0646 -0.0332 -0.1428
 4994SOL    HW126618   3.001   3.146   5.207  0.1227 -0.3989 -0.2443
 4994SOL    HW226619   2.955   3.193   5.337 -0.7286  0.3104 -1.7826
 4995SOL     OW26620   3.752   3.111   4.100  0.3688 -0.4734 -0.4429
 4995SOL    HW126621   3.682   3.175   4.109  0.8893  0.2060 -1.2964
 4995SOL    HW226622   3.772   3.100   4.193  0.7791  1.1705 -0.3407
 4996SOL     OW26623   4.190   3.540   7.251  0.2443  0.3100  0.4909
 4996SOL    HW126624   4.125   3.471   7.268 -0.4673  0.7500 -0.3903
 4996SOL    HW226625   4.184   3.540   7.155 -1.9964  1.5867  0.6271
 4997SOL     OW26626   3.023   4.240   3.558 -0.2335  0.5278  0.0076
 4997SOL    HW126627   3.019   4.299   3.483  0.5517  2.2323  1.3028
 4997SOL    HW226628   3.050   4.162   3.511  1.2511  1.7914 -1.2384
 4998SOL     OW26629   3.240   0.552   3.092 -0.5272 -0.0057 -0.1729
 4998SOL    HW126630   3.242   0.614   3.019  1.3300 -0.5250 -0.5460
 4998SOL    HW226631   3.279   0.473   3.054  0.0381 -0.0676  0.5426
 4999SOL     OW26632   2.911   4.153   3.178 -0.1188  0.1833  0.0277
 4999SOL    HW126633   2.893   4.074   3.127 -0.0461  0.1475  0.0576
 4999SOL    HW226634   2.833   4.208   3.173 -0.0208  0.3350  0.1520
 5000SOL     OW26635   4.714   1.404   7.830  0.1588 -0.6274 -0.3403
 5000SOL    HW126636   4.642   1.450   7.873  0.0922 -1.3874  0.3581
 5000SOL    HW226637   0.000   1.346   7.901 -1.7550 -1.8093 -0.6241
 5001SOL     OW26638   2.509   3.942   6.200  0.3213  0.2294 -0.0329
 5001SOL    HW126639   2.507   3.882   6.274  0.6063  1.1028  0.6759
 5001SOL    HW226640   2.474   4.021   6.240  0.3412  1.3625 -2.2304
 5002SOL     OW26641   0.348   1.492   6.225  0.0732  0.3916 -0.0340
 5002SOL    HW126642   0.296   1.560   6.181  0.8724  0.4057 -0.9473
 5002SOL    HW226643   0.310   1.497   6.313  1.5911  1.9270  0.5423
 5003SOL     OW26644   0.593   3.535  11.491  0.7275 -0.5698 -0.2886
 5003SOL    HW126645   0.645   3.469  11.538  0.9609 -0.0792  0.1433
 5003SOL    HW226646   0.549   3.579  11.564 -0.1224  1.5980 -2.1055
 5004SOL     OW26647   0.415   3.354   8.180  0.0933  0.2213  0.2059
 5004SOL    HW126648   0.434   3.261   8.176  0.5877  0.2477  2.1199
 5004SOL    HW226649   0.335   3.359   8.128  0.8210 -0.1943 -0.9672
 5005SOL     OW26650   1.450   2.066   3.974 -0.7914  0.0735  0.2777
 5005SOL    HW126651   1.383   2.004   3.945  0.6711 -2.5162  2.3366
 5005SOL    HW226652   1.402   2.147   3.958 -1.6776 -0.3609  0.7447
 5006SOL     OW26653   1.748   2.064   2.743  0.1502  0.8248 -0.2525
 5006SOL    HW126654   1.745   2.040   2.650 -0.3489 -0.2571  0.0486
 5006SOL    HW226655   1.658   2.046   2.768  0.5420  1.4873  1.6141
 5007SOL     OW26656   2.548   3.845  13.108  0.5155  0.3026  0.2412
 5007SOL    HW126657   2.496   3.767  13.093 -0.2908  1.1640 -1.5131
 5007SOL    HW226658   2.570   3.828  13.199  0.5079 -0.6767  0.0591
 5008SOL     OW26659   0.867   3.268   2.319 -0.5664 -0.5217  0.4470
 5008SOL    HW126660   0.854   3.203   2.249 -0.1984 -1.4453  1.2341
 5008SOL    HW226661   0.924   3.330   2.274  0.2857 -2.5211 -1.2692
 5009SOL     OW26662   0.224   0.295   9.484 -0.4868  0.0804  0.5458
 5009SOL    HW126663   0.195   0.276   9.395  0.8706 -2.5556  0.6444
 5009SOL    HW226664   0.230   0.390   9.477  1.4274 -0.1444 -0.8802
 5010SOL     OW26665   2.716   1.235  16.970 -0.1929 -0.2464  0.1426
 5010SOL    HW126666   2.751   1.197  17.051 -0.1945  0.8168  0.6484
 5010SOL    HW226667   2.627   1.200  16.960 -0.0530 -0.5673  0.0053
 5011SOL     OW26668   1.325   1.945   7.097 -0.0221 -0.0829  0.0554
 5011SOL    HW126669   1.277   1.880   7.149  2.9753 -1.5711  0.9198
 5011SOL    HW226670   1.252   1.994   7.058  1.0801  0.6812 -1.0463
 5012SOL     OW26671   1.686   4.007   7.087 -0.4820 -0.1287 -0.4564
 5012SOL    HW126672   1.768   4.051   7.066 -0.6882  0.3992 -0.1654
 5012SOL    HW226673   1.684   4.010   7.183 -1.9122  2.2695 -0.5578
 5013SOL     OW26674   2.971   1.712   0.818  0.0856  0.0448 -0.2451
 5013SOL    HW126675   2.961   1.801   0.853  4.2098  0.7731 -0.9313
 5013SOL    HW226676   3.010   1.665   0.892  0.5655  1.8944  0.6807
 5014SOL     OW26677   2.866   1.555   1.947 -0.0303 -0.0694  0.1008
 5014SOL    HW126678   2.945   1.547   2.002  1.5945 -0.1253 -2.2603
 5014SOL    HW226679   2.815   1.483   1.985  0.6780 -0.3413  0.5412
 5015SOL     OW26680   2.372   0.174  17.229 -0.0096 -0.1418  0.5265
 5015SOL    HW126681   2.450   0.123  17.251 -0.0418  0.3631  1.8062
 5015SOL    HW226682   2.332   0.106  17.175 -2.4359  1.2505  0.5720
 5016SOL     OW26683   0.273   4.211   3.189  0.1168  0.0931 -0.4171
 5016SOL    HW126684   0.235   4.284   3.238  2.8134  0.5709  0.9486
 5016SOL    HW226685   0.327   4.172   3.258 -1.6256 -0.8166  0.4366
 5017SOL     OW26686   0.336   0.768   6.821 -0.5268 -0.1755 -0.2259
 5017SOL    HW126687   0.341   0.771   6.726  1.9788  0.7192 -0.0628
 5017SOL    HW226688   0.416   0.814   6.845 -0.3610 -0.2945 -0.5634
 5018SOL     OW26689   1.858   4.359   5.450  0.0728 -0.0943 -0.8115
 5018SOL    HW126690   1.877   4.451   5.470 -0.7671 -0.1660  0.3295
 5018SOL    HW226691   1.834   4.321   5.534  1.5434 -0.0589 -0.3786
 5019SOL     OW26692   1.517   3.843   7.748  0.2691  0.0773  0.0606
 5019SOL    HW126693   1.555   3.756   7.760  2.9550  1.6099  2.6111
 5019SOL    HW226694   1.425   3.821   7.735  0.1799 -0.3351  1.3255
 5020SOL     OW26695   3.118   1.401   6.774  0.4827 -0.1506  0.3175
 5020SOL    HW126696   3.195   1.458   6.769  0.9466 -0.7041  1.0118
 5020SOL    HW226697   3.048   1.457   6.742  0.6427 -0.2247 -0.1643
 5021SOL     OW26698   0.024   0.839   0.068 -0.7467 -0.4148  0.3515
 5021SOL    HW126699   0.065   0.849   0.154  0.3757  1.3599 -0.3913
 5021SOL    HW226700   4.732   0.748   0.078 -2.5523  0.1676  0.1644
 5022SOL     OW26701   3.125   0.351   7.235  0.2572 -0.0045  0.1078
 5022SOL    HW126702   3.096   0.358   7.144 -0.4570 -1.4210  0.2266
 5022SOL    HW226703   3.044   0.310   7.265 -0.5188 -0.1660 -2.1777
 5023SOL     OW26704   1.568   2.540   5.736  0.2277  0.4188 -0.2966
 5023SOL    HW126705   1.481   2.511   5.763  0.6681  0.8749  1.6315
 5023SOL    HW226706   1.595   2.458   5.695 -1.1898 -0.7548  1.1217
 5024SOL     OW26707   2.110   0.126   7.803 -0.3429  0.2485 -0.4276
 5024SOL    HW126708   2.163   0.205   7.817 -0.3722  0.5667 -2.1885
 5024SOL    HW226709   2.127   0.112   7.710  1.2829 -0.2182 -0.0743
 5025SOL     OW26710   1.108   4.330   5.740 -0.3555  0.6696  0.0365
 5025SOL    HW126711   1.067   4.245   5.752 -1.8158  1.4301  0.4447
 5025SOL    HW226712   1.177   4.333   5.807 -1.1354  1.1983  0.8169
 5026SOL     OW26713   0.730   4.654   2.999  0.2786 -0.3471 -0.2162
 5026SOL    HW126714   0.639   4.641   2.971  0.1977  0.2247 -0.2142
 5026SOL    HW226715   0.773   4.598   2.934  3.9227  2.2637 -0.0358
 5027SOL     OW26716   2.637   1.519   6.754 -0.2342 -0.1395 -0.2420
 5027SOL    HW126717   2.690   1.472   6.690 -0.4217  0.8310 -1.1015
 5027SOL    HW226718   2.681   1.603   6.763  1.0005 -0.8830  0.6141
 5028SOL     OW26719   2.267   2.728   5.951  0.3787  0.2637 -0.6713
 5028SOL    HW126720   2.272   2.746   5.857 -0.6299 -0.7484 -0.9167
 5028SOL    HW226721   2.361   2.726   5.971  0.1116 -1.3285  0.3862
 5029SOL     OW26722   0.935   1.410   7.774 -0.2112 -0.2653  0.2887
 5029SOL    HW126723   0.907   1.399   7.683  1.1252  2.1371 -0.4028
 5029SOL    HW226724   0.987   1.330   7.785 -1.0538 -0.7885  0.5140
 5030SOL     OW26725   2.266   2.198   7.308 -0.3676  0.6565  0.1203
 5030SOL    HW126726   2.249   2.241   7.392  1.5345 -0.2406  0.9683
 5030SOL    HW226727   2.342   2.143   7.326 -0.3796 -0.3779 -2.9511
 5031SOL     OW26728   0.039   3.279   9.453 -0.0671 -0.6862  0.1259
 5031SOL    HW126729   0.133   3.277   9.434 -0.9160  0.1607 -4.0940
 5031SOL    HW226730   0.021   3.373   9.460 -3.8409 -1.3000 -1.5626
 5032SOL     OW26731   1.667   1.603  16.965 -0.3438  0.2748  0.2496
 5032SOL    HW126732   1.750   1.607  16.917 -0.4758 -0.0963 -0.0011
 5032SOL    HW226733   1.657   1.698  16.972  0.5504  0.4890 -1.3642
 5033SOL     OW26734   4.198   3.543   3.669 -0.3949  0.4839  0.5432
 5033SOL    HW126735   4.263   3.610   3.650 -0.2199  0.4597  1.0599
 5033SOL    HW226736   4.196   3.566   3.761 -2.0944 -0.8095  0.8343
 5034SOL     OW26737   1.927   3.966   8.376 -0.1538 -0.2214 -0.3904
 5034SOL    HW126738   1.989   3.924   8.316  0.1996 -0.9397  0.4736
 5034SOL    HW226739   1.967   3.931   8.455  0.2443  2.7427  0.7323
 5035SOL     OW26740   4.025   0.498   3.088  0.2281 -0.1695  0.0645
 5035SOL    HW126741   3.993   0.460   3.006 -0.7681 -0.7734  0.7366
 5035SOL    HW226742   4.120   0.503   3.079  0.3488  0.0538  1.4642
 5036SOL     OW26743   4.058   0.864   7.048 -0.6084  0.3692  0.1958
 5036SOL    HW126744   4.050   0.870   6.953 -0.6581 -2.3314  0.0542
 5036SOL    HW226745   3.970   0.881   7.083 -1.3476 -1.8501 -0.5970
 5037SOL     OW26746   2.560   1.626   5.380  0.2091 -0.5509 -0.0670
 5037SOL    HW126747   2.496   1.694   5.404  1.6209  0.8292 -0.1746
 5037SOL    HW226748   2.533   1.608   5.290  0.4040  2.0700 -0.6691
 5038SOL     OW26749   4.687   4.062   6.083  0.1014 -0.4491  0.1648
 5038SOL    HW126750   4.734   4.089   6.004  0.4091 -1.1554  0.1038
 5038SOL    HW226751   4.598   4.094   6.067  0.3999 -1.3690 -3.3349
 5039SOL     OW26752   2.773   3.292   4.477 -0.3400 -0.7124 -0.7130
 5039SOL    HW126753   2.744   3.383   4.467  0.6731  0.0499  3.3219
 5039SOL    HW226754   2.815   3.297   4.562 -0.4906  0.1029 -0.6887
 5040SOL     OW26755   0.609   4.394   3.625 -0.7172 -0.0273 -0.2229
 5040SOL    HW126756   0.534   4.340   3.649 -2.0202  1.8096 -0.1507
 5040SOL    HW226757   0.642   4.354   3.545  0.2687 -1.2653  0.7976
 5041SOL     OW26758   2.170   0.390   5.751 -0.1142 -0.5410 -0.1979
 5041SOL    HW126759   2.243   0.380   5.813 -0.6888  0.6617  0.6611
 5041SOL    HW226760   2.099   0.393   5.815 -1.2710  0.4085 -1.5498
 5042SOL     OW26761   0.818   2.101  14.497 -0.1908  0.4122 -0.7147
 5042SOL    HW126762   0.841   2.015  14.462  0.6231 -0.1556  1.1831
 5042SOL    HW226763   0.754   2.119  14.428 -0.6878 -2.3710 -0.9654
 5043SOL     OW26764   1.403   3.889   4.471 -0.7255 -0.2630 -0.5144
 5043SOL    HW126765   1.365   3.818   4.418 -0.7855 -1.4759  1.1585
 5043SOL    HW226766   1.368   3.965   4.425 -1.7107 -0.0298  0.6394
 5044SOL     OW26767   4.152   0.541   6.749  0.2275  0.1086 -0.3928
 5044SOL    HW126768   4.201   0.469   6.788 -0.3956 -0.6738 -1.0553
 5044SOL    HW226769   4.073   0.542   6.803 -1.5137 -0.2760 -2.9474
 5045SOL     OW26770   1.315   4.344   5.909  0.4896 -0.5218 -0.3915
 5045SOL    HW126771   1.320   4.289   5.987  0.2477 -1.6586 -1.1724
 5045SOL    HW226772   1.406   4.354   5.881  0.3736  0.5589 -0.3670
 5046SOL     OW26773   3.489   0.977   5.809  0.5006 -0.4803 -0.2941
 5046SOL    HW126774   3.461   0.939   5.726 -0.4835 -1.8222  0.6661
 5046SOL    HW226775   3.406   1.002   5.848 -0.8242 -2.7362 -1.6622
 5047SOL     OW26776   2.627   3.678   7.690 -0.3931  0.1371 -0.1906
 5047SOL    HW126777   2.569   3.627   7.634 -3.0868  2.2759  0.6359
 5047SOL    HW226778   2.597   3.767   7.671  1.8794  0.6873 -1.2438
 5048SOL     OW26779   1.074   3.803   2.521 -0.1287  0.1347 -0.0445
 5048SOL    HW126780   1.167   3.794   2.505 -0.4913 -1.1505 -1.4347
 5048SOL    HW226781   1.040   3.747   2.451  1.9345 -0.2281 -0.7489
 5049SOL     OW26782   0.471   1.605   5.693  0.1795 -0.2884 -0.5805
 5049SOL    HW126783   0.492   1.551   5.617 -2.4803 -2.1908  0.0377
 5049SOL    HW226784   0.382   1.572   5.703  0.6825 -1.8174 -1.1930
 5050SOL     OW26785   4.444   2.289   7.536  0.2676  0.1926 -0.2921
 5050SOL    HW126786   4.362   2.336   7.523  0.7982  1.5560  1.2722
 5050SOL    HW226787   4.450   2.295   7.632 -1.7174 -1.1130 -0.0573
 5051SOL     OW26788   0.645   4.655   7.954 -0.0589  0.1432  0.2870
 5051SOL    HW126789   0.573   4.609   7.911  0.9041 -0.3134 -0.8583
 5051SOL    HW226790   0.641   0.001   7.910  1.5311  1.4618  2.6879
 5052SOL     OW26791   1.372   3.257   3.093  0.8618 -0.2040  0.2504
 5052SOL    HW126792   1.279   3.281   3.089  0.4305 -2.1435 -2.0091
 5052SOL    HW226793   1.398   3.244   3.002  0.9356 -0.2627  0.2796
 5053SOL     OW26794   1.612   0.725   3.083  0.4449 -0.7911  0.2170
 5053SOL    HW126795   1.546   0.656   3.079 -0.1630 -0.2284  0.4533
 5053SOL    HW226796   1.698   0.685   3.068  0.7955  0.2413 -0.5991
 5054SOL     OW26797   3.504   2.321  11.144  0.0858  0.1078  0.3960
 5054SOL    HW126798   3.558   2.392  11.109 -0.8558 -0.5651 -2.4650
 5054SOL    HW226799   3.506   2.333  11.239 -2.5247  0.8828  0.3556
 5055SOL     OW26800   3.149   2.042  13.221  0.2808 -0.0485  0.0035
 5055SOL    HW126801   3.213   2.111  13.236  0.6901 -0.4302  0.0175
 5055SOL    HW226802   3.130   2.032  13.315 -1.4516  1.5530 -0.1650
 5056SOL     OW26803   3.338   2.615   4.021  0.3288  0.0147 -0.0608
 5056SOL    HW126804   3.282   2.670   3.966  1.3323 -1.0762 -2.1713
 5056SOL    HW226805   3.377   2.682   4.077 -1.3971  0.2201  0.8923
 5057SOL     OW26806   2.199   3.218   3.147 -0.1159 -0.3835  0.6918
 5057SOL    HW126807   2.148   3.252   3.073  1.8153  1.8379  0.3872
 5057SOL    HW226808   2.139   3.150   3.181  0.1798 -0.3067  1.3562
 5058SOL     OW26809   4.365   0.218   9.237 -0.3058  0.2128  0.2856
 5058SOL    HW126810   4.392   0.281   9.170 -2.2491  0.0910 -0.6157
 5058SOL    HW226811   4.434   0.229   9.303  0.0968 -1.0883  0.0688
 5059SOL     OW26812   3.619   3.468  14.810 -0.0631  0.3791 -0.0899
 5059SOL    HW126813   3.622   3.520  14.730  0.3868  0.0973 -0.2595
 5059SOL    HW226814   3.684   3.398  14.797  0.4699  0.6999  0.8042
 5060SOL     OW26815   0.928   4.314  13.023  0.4489 -0.0536  0.0131
 5060SOL    HW126816   0.866   4.295  13.093  0.9087  0.0509  0.4476
 5060SOL    HW226817   0.956   4.403  13.046 -2.1261  1.0846 -1.2407
 5061SOL     OW26818   4.226   4.067   5.357 -0.3041  0.7112 -0.6136
 5061SOL    HW126819   4.183   4.096   5.438 -0.3993  1.1395 -0.8186
 5061SOL    HW226820   4.263   3.987   5.394 -0.7095 -0.2972 -2.3989
 5062SOL     OW26821   0.918   2.501   8.516 -0.1218 -0.0419 -0.1236
 5062SOL    HW126822   0.955   2.539   8.596  0.2776  0.4349 -0.5326
 5062SOL    HW226823   0.992   2.490   8.457  1.9754  5.0186  1.5462
 5063SOL     OW26824   0.048   0.697   6.487 -0.1407  0.1818  0.3696
 5063SOL    HW126825   0.078   0.664   6.402  1.4048  0.5238  0.7866
 5063SOL    HW226826   0.127   0.678   6.537 -0.8811 -1.6140  0.8452
 5064SOL     OW26827   2.213   3.505  15.052 -0.1673  0.1191 -0.6176
 5064SOL    HW126828   2.149   3.453  15.003 -2.2869  2.8339 -0.6695
 5064SOL    HW226829   2.165   3.583  15.078 -0.1546 -0.8546  2.3312
 5065SOL     OW26830   0.274   2.197   3.156 -0.4455  0.8770  0.3311
 5065SOL    HW126831   0.236   2.121   3.110 -2.6543  1.9211  0.4497
 5065SOL    HW226832   0.193   2.244   3.173 -0.2550  1.5248 -0.5677
 5066SOL     OW26833   0.666   4.716   8.237 -0.2532 -0.1718 -0.6680
 5066SOL    HW126834   0.665   0.073   8.237  0.5840 -0.1636 -1.3549
 5066SOL    HW226835   0.666   4.708   8.141  0.8808  0.0115 -0.6911
 5067SOL     OW26836   2.282   4.506  10.570 -0.4630 -0.4472 -0.1359
 5067SOL    HW126837   2.271   4.447  10.645  0.4635 -0.4829 -0.0259
 5067SOL    HW226838   2.245   4.461  10.494 -1.1776  0.1313 -0.1240
 5068SOL     OW26839   3.198   4.228   8.090  0.2046 -0.4308 -0.2609
 5068SOL    HW126840   3.155   4.282   8.157  2.5602  0.6468  0.3983
 5068SOL    HW226841   3.290   4.256   8.092 -0.1068  0.5513  0.7361
 5069SOL     OW26842   3.369   2.036  14.838 -0.2309 -0.0249  0.8874
 5069SOL    HW126843   3.313   2.113  14.827 -0.8948 -0.2389  2.8138
 5069SOL    HW226844   3.458   2.070  14.827 -0.0292 -1.5809 -2.2263
 5070SOL     OW26845   4.364   2.364   6.128  0.0273  0.4824  0.0836
 5070SOL    HW126846   4.277   2.361   6.168  0.2350  1.5147  0.6158
 5070SOL    HW226847   4.370   2.459   6.123 -0.0194  0.2958 -3.2988
 5071SOL     OW26848   2.491   3.556   8.115 -0.7297  0.0849  0.9395
 5071SOL    HW126849   2.478   3.543   8.021  0.8745  0.2243  0.7030
 5071SOL    HW226850   2.479   3.651   8.105 -0.9376 -0.2263 -1.8482
 5072SOL     OW26851   2.515   1.930  12.290  0.3611  0.1438 -0.0916
 5072SOL    HW126852   2.440   1.900  12.237  0.2843 -0.7472  0.5267
 5072SOL    HW226853   2.576   1.862  12.261 -1.3709 -0.5197 -2.2134
 5073SOL     OW26854   1.854   2.117  12.739  1.3502 -0.2348  0.2533
 5073SOL    HW126855   1.873   2.053  12.807  1.0758  0.5103  1.0356
 5073SOL    HW226856   1.939   2.146  12.706  1.6049  0.8561  1.8581
 5074SOL     OW26857   2.335   1.523   4.829  0.4880 -0.1946  0.0202
 5074SOL    HW126858   2.242   1.503   4.832  0.4558  0.5085  2.8324
 5074SOL    HW226859   2.332   1.609   4.870  0.1072  0.0074 -0.4260
 5075SOL     OW26860   2.535   1.566   2.776 -0.4144 -0.6830  0.4329
 5075SOL    HW126861   2.567   1.656   2.772  1.3037 -1.2379  2.1648
 5075SOL    HW226862   2.447   1.573   2.738 -0.4244  0.9453  0.7728
 5076SOL     OW26863   0.938   3.585   5.327 -0.5087 -0.6805  0.3116
 5076SOL    HW126864   0.978   3.620   5.407  0.5372 -2.2079  0.4735
 5076SOL    HW226865   0.868   3.529   5.361 -0.8031 -0.4673  0.0560
 5077SOL     OW26866   3.766   1.821   7.438  0.3935 -0.8311  0.1619
 5077SOL    HW126867   3.761   1.911   7.471 -0.0940 -0.6405 -0.4394
 5077SOL    HW226868   3.789   1.777   7.520 -0.1384 -0.1737  0.6647
 5078SOL     OW26869   1.974   3.175  14.284  0.1171  0.1869 -0.9402
 5078SOL    HW126870   2.065   3.202  14.275 -0.1976  2.0336  1.3397
 5078SOL    HW226871   1.995   3.095  14.332  2.1802  0.6315 -1.1276
 5079SOL     OW26872   1.731   2.315   2.515  0.4262 -0.5843 -0.0180
 5079SOL    HW126873   1.750   2.296   2.423  0.1168  0.8170 -0.3629
 5079SOL    HW226874   1.685   2.236   2.545 -0.6409  0.1051  0.1626
 5080SOL     OW26875   2.084   3.857  11.981  0.2666 -0.1734  0.2301
 5080SOL    HW126876   2.038   3.864  12.065  0.4946 -1.4545  0.4650
 5080SOL    HW226877   2.170   3.829  12.010  0.4195 -0.7267 -0.7862
 5081SOL     OW26878   2.844   1.284   8.698  0.0056  0.1157 -0.7496
 5081SOL    HW126879   2.879   1.216   8.756 -1.7346  0.5553  0.7964
 5081SOL    HW226880   2.808   1.347   8.760  0.4307  0.5816 -0.9731
 5082SOL     OW26881   3.829   1.521  12.113  0.5870  0.6044 -0.5584
 5082SOL    HW126882   3.784   1.481  12.039  0.0567  1.3721 -0.6535
 5082SOL    HW226883   3.786   1.607  12.110 -3.2052 -1.2279  1.1468
 5083SOL     OW26884   1.848   3.476  12.535  0.1584  0.3430 -0.6869
 5083SOL    HW126885   1.859   3.403  12.596  0.8974  0.5798 -0.5295
 5083SOL    HW226886   1.938   3.490  12.505  1.2022 -1.8424  1.4069
 5084SOL     OW26887   0.055   2.532  17.466  0.3444  0.0877  0.2958
 5084SOL    HW126888   0.012   2.466  17.520 -0.0018  0.2863  0.2624
 5084SOL    HW226889   4.735   2.546  17.392 -0.4281 -1.1006  0.6939
 5085SOL     OW26890   2.311   0.623   7.278 -0.4082 -0.4056 -0.1686
 5085SOL    HW126891   2.405   0.611   7.288 -0.2494  1.4761  0.5152
 5085SOL    HW226892   2.305   0.639   7.184 -1.6322 -2.3500 -0.4413
 5086SOL     OW26893   2.097   3.485   3.274  0.9849  0.0558 -0.9870
 5086SOL    HW126894   2.168   3.503   3.213  0.4091  1.9799 -1.0755
 5086SOL    HW226895   2.135   3.407   3.317  0.5639  0.9988  1.0942
 5087SOL     OW26896   4.490   1.726  13.778 -0.2571  0.4946  0.5522
 5087SOL    HW126897   4.569   1.777  13.797  0.9441 -2.0502  2.4090
 5087SOL    HW226898   4.521   1.640  13.804 -1.6701  0.5756  2.5178
 5088SOL     OW26899   3.940   0.070   7.581  0.0973 -0.2860 -0.8239
 5088SOL    HW126900   3.848   0.089   7.599  0.1360 -1.5814  0.7566
 5088SOL    HW226901   3.935   4.721   7.619  1.1469  0.4028  0.8981
 5089SOL     OW26902   4.065   4.371   1.089  0.0042  0.4309 -0.6526
 5089SOL    HW126903   4.049   4.380   0.995 -1.9984  0.7439 -0.2891
 5089SOL    HW226904   4.091   4.462   1.103 -0.6354  0.2715  1.6665
 5090SOL     OW26905   2.277   4.540   1.093 -0.2174  0.0849 -0.2231
 5090SOL    HW126906   2.346   4.605   1.084  0.4513 -0.6792 -0.6025
 5090SOL    HW226907   2.328   4.461   1.112 -0.5548 -0.2999 -0.8954
 5091SOL     OW26908   2.413   3.462   0.411 -0.2515  0.1000  0.5313
 5091SOL    HW126909   2.445   3.408   0.339 -2.8989 -0.7989  0.0213
 5091SOL    HW226910   2.446   3.550   0.398  0.6389 -0.2973  0.1227
 5092SOL     OW26911   2.547   1.184   8.457  0.3414 -0.0706 -0.4893
 5092SOL    HW126912   2.490   1.123   8.410  1.2926 -1.0152 -0.4242
 5092SOL    HW226913   2.614   1.123   8.488 -0.0888  0.1128  0.8143
 5093SOL     OW26914   3.618   4.449   7.677 -0.4816 -0.0141 -0.0560
 5093SOL    HW126915   3.562   4.459   7.754  1.5254  0.3947  1.3487
 5093SOL    HW226916   3.701   4.418   7.714 -0.0624  1.7746  0.4827
 5094SOL     OW26917   2.888   4.174   5.507 -0.0719 -0.0388  0.1080
 5094SOL    HW126918   2.853   4.119   5.437 -0.2391  0.4948 -0.2310
 5094SOL    HW226919   2.854   4.144   5.591  2.9847  1.4334  1.8502
 5095SOL     OW26920   2.689   3.834   5.078  0.0462  0.2531 -0.0904
 5095SOL    HW126921   2.643   3.752   5.096  2.1831 -0.8283  0.3982
 5095SOL    HW226922   2.753   3.802   5.014  0.1039 -2.1059  1.1574
 5096SOL     OW26923   1.697   0.909  15.018 -0.0483 -0.3942  0.4833
 5096SOL    HW126924   1.640   0.838  14.986 -0.2684 -0.1677  0.3734
 5096SOL    HW226925   1.772   0.849  15.018 -0.1026 -0.4722  2.7648
 5097SOL     OW26926   4.233   0.973   9.344  0.3966 -0.4345  0.6424
 5097SOL    HW126927   4.175   0.954   9.417 -2.1728 -0.1769 -1.3470
 5097SOL    HW226928   4.248   0.889   9.299  0.1671  1.7267 -3.4099
 5098SOL     OW26929   3.444   0.827   4.727  0.2351  0.1875  0.0629
 5098SOL    HW126930   3.494   0.763   4.778 -0.7998 -1.1839 -0.6243
 5098SOL    HW226931   3.461   0.800   4.637  0.2759 -0.6442  0.3221
 5099SOL     OW26932   2.647   4.442   2.405 -0.1024  0.2347 -0.1638
 5099SOL    HW126933   2.587   4.401   2.468  0.1772 -2.3844 -1.5911
 5099SOL    HW226934   2.685   4.364   2.365 -0.2300 -0.3031  0.7656
 5100SOL     OW26935   4.291   0.532   1.994  0.2599 -0.2160 -0.0155
 5100SOL    HW126936   4.353   0.602   1.974 -1.6310  1.0336 -1.5080
 5100SOL    HW226937   4.347   0.457   2.008  2.4445  1.8638  2.3732
 5101SOL     OW26938   0.666   3.221   6.266 -0.0868  0.1522 -0.6680
 5101SOL    HW126939   0.669   3.165   6.344  1.3789  1.0641 -0.0679
 5101SOL    HW226940   0.726   3.174   6.209  1.2444  0.2788  0.6379
 5102SOL     OW26941   1.736   2.478  11.836 -0.1134 -0.1657 -0.0932
 5102SOL    HW126942   1.707   2.567  11.855 -0.6333 -0.0652 -1.3676
 5102SOL    HW226943   1.813   2.501  11.782 -0.4209  0.9811 -0.0405
 5103SOL     OW26944   3.384   2.697   1.848  1.1642 -0.2879 -0.0515
 5103SOL    HW126945   3.357   2.626   1.906 -1.2372 -0.8772 -1.8887
 5103SOL    HW226946   3.466   2.667   1.807  0.3578 -1.7684 -0.5803
 5104SOL     OW26947   1.388   3.077   3.703 -0.6104  0.0322  0.0324
 5104SOL    HW126948   1.384   3.163   3.747  1.1331 -0.1611  0.5649
 5104SOL    HW226949   1.474   3.054   3.738 -0.3029  0.9874 -0.0722
 5105SOL     OW26950   0.614   4.222   7.887  0.6401  0.4635 -0.5440
 5105SOL    HW126951   0.557   4.286   7.929  2.3893  1.4202  0.3717
 5105SOL    HW226952   0.600   4.247   7.795  1.1624 -0.9259 -0.9999
 5106SOL     OW26953   2.616   3.836   2.639 -0.0889  0.4458  0.2716
 5106SOL    HW126954   2.551   3.779   2.598  0.7356 -0.5329  0.3431
 5106SOL    HW226955   2.650   3.781   2.709  3.3587  0.9790 -0.9624
 5107SOL     OW26956   2.651   3.727   4.083 -0.1111  0.6946 -0.7494
 5107SOL    HW126957   2.601   3.802   4.115  0.0638 -0.4102  2.1685
 5107SOL    HW226958   2.600   3.649   4.104 -0.4755  1.8466  2.7485
 5108SOL     OW26959   3.889   1.452  14.004 -0.8587 -0.2173  0.0803
 5108SOL    HW126960   3.843   1.442  13.921  0.1040 -2.8208 -0.1231
 5108SOL    HW226961   3.838   1.393  14.059 -0.1945 -0.1418  0.7759
 5109SOL     OW26962   2.853   2.737   5.412 -0.2363 -0.3401  0.5526
 5109SOL    HW126963   2.761   2.757   5.426  0.1766  0.7504  1.7631
 5109SOL    HW226964   2.852   2.642   5.412 -0.1259 -0.3420  0.0603
 5110SOL     OW26965   0.964   0.799   3.323  0.3007 -0.0966 -0.1581
 5110SOL    HW126966   0.878   0.769   3.295  0.8072  0.0459 -1.8707
 5110SOL    HW226967   1.027   0.737   3.287  1.8868  0.7163  1.2003
 5111SOL     OW26968   4.166   2.849   8.613 -0.1625  0.3476 -0.0272
 5111SOL    HW126969   4.182   2.775   8.672  0.0004  0.4909  0.1089
 5111SOL    HW226970   4.188   2.809   8.529 -1.7720 -0.4338 -0.0742
 5112SOL     OW26971   1.693   1.092   5.508 -0.3148  0.1609  0.4646
 5112SOL    HW126972   1.747   1.163   5.474  2.0597 -2.5844 -1.5128
 5112SOL    HW226973   1.735   1.085   5.595  0.4690  0.0992  0.0833
 5113SOL     OW26974   3.102   2.474   5.612 -0.4430 -0.6480  1.1198
 5113SOL    HW126975   3.108   2.549   5.553 -0.2579 -0.6808  1.0982
 5113SOL    HW226976   3.025   2.430   5.577  1.7081 -0.8694 -3.3169
 5114SOL     OW26977   3.387   0.208   5.682 -0.7679  0.2958  0.8698
 5114SOL    HW126978   3.381   0.255   5.766 -2.0651 -0.2684  1.0859
 5114SOL    HW226979   3.481   0.215   5.664 -1.1570  0.3239 -1.0896
 5115SOL     OW26980   1.997   4.726   2.166  0.4288 -0.2795 -0.1911
 5115SOL    HW126981   2.092   4.734   2.180  0.4868 -2.7491  0.8755
 5115SOL    HW226982   1.975   0.061   2.223  0.4705 -0.0224 -0.5096
 5116SOL     OW26983   2.905   0.198   3.949 -0.2587 -0.2560  1.1742
 5116SOL    HW126984   2.916   0.117   3.998 -4.7697 -0.7456  1.3049
 5116SOL    HW226985   2.929   0.265   4.013 -2.1759  0.6660  0.9185
 5117SOL     OW26986   1.741   2.175   5.480 -0.0313 -0.1478 -0.1126
 5117SOL    HW126987   1.745   2.223   5.563 -3.1511 -1.3021  0.7344
 5117SOL    HW226988   1.815   2.119   5.501 -0.6724 -1.2831 -0.9145
 5118SOL     OW26989   4.414   0.865   0.199 -0.1440 -0.2715 -0.0144
 5118SOL    HW126990   4.379   0.776   0.202 -0.8976  0.0571  0.7078
 5118SOL    HW226991   4.489   0.852   0.140  1.7422 -1.0704  2.5814
 5119SOL     OW26992   4.342   1.809   6.634  0.0244 -0.2530  0.1208
 5119SOL    HW126993   4.362   1.723   6.671  0.9820 -0.7063 -1.4354
 5119SOL    HW226994   4.351   1.792   6.540 -1.0132 -0.5139  0.0658
 5120SOL     OW26995   2.831   2.905   7.415  0.0205 -0.1528  0.1814
 5120SOL    HW126996   2.744   2.877   7.386  1.4290 -0.5584 -3.6305
 5120SOL    HW226997   2.886   2.847   7.363  0.6724  1.9871 -1.5136
 5121SOL     OW26998   0.406   4.320   3.900 -0.3480  0.1931 -0.0602
 5121SOL    HW126999   0.481   4.336   3.958 -0.6822  0.8787  0.1836
 5121SOL    HW227000   0.390   4.239   3.948  0.4624  0.7927  1.2193
 5122SOL     OW27001   0.114   2.357   2.841 -0.2877  0.2149  0.0180
 5122SOL    HW127002   0.088   2.327   2.754 -0.6484 -3.0616  1.2547
 5122SOL    HW227003   0.050   2.427   2.855 -1.7397 -0.6636 -2.2175
 5123SOL     OW27004   2.418   3.004  14.151 -0.0980  0.4273 -0.3968
 5123SOL    HW127005   2.470   2.959  14.085 -1.0883  0.3749 -1.1314
 5123SOL    HW227006   2.479   3.068  14.188 -0.4241  0.9619 -0.8017
 5124SOL     OW27007   1.306   0.972   8.589 -0.0109  0.8844 -0.1848
 5124SOL    HW127008   1.280   0.969   8.497 -1.0364  1.8625  0.0836
 5124SOL    HW227009   1.380   0.911   8.594 -1.4456 -0.7439  0.9663
 5125SOL     OW27010   3.542   3.594   4.579 -0.6487  0.2046  0.2618
 5125SOL    HW127011   3.614   3.538   4.606  0.2937 -0.4483 -3.6446
 5125SOL    HW227012   3.578   3.682   4.586  0.8804 -0.2999 -1.1840
 5126SOL     OW27013   0.332   0.884   8.119 -0.1664 -0.7769 -0.8406
 5126SOL    HW127014   0.287   0.897   8.202  1.5178  0.6733 -0.1833
 5126SOL    HW227015   0.273   0.847   8.053 -1.1990  0.0916 -0.3962
 5127SOL     OW27016   0.625   1.249   9.261  0.0844  0.0928  0.4787
 5127SOL    HW127017   0.659   1.339   9.252  4.4085 -1.3412  2.2880
 5127SOL    HW227018   0.613   1.242   9.356  1.8940 -0.8834  0.6558
 5128SOL     OW27019   3.433   1.024   2.490 -0.4901  0.4208  0.1516
 5128SOL    HW127020   3.509   0.980   2.453 -1.6696 -1.8306  0.3997
 5128SOL    HW227021   3.477   1.096   2.535  0.6289 -0.0416 -0.2036
 5129SOL     OW27022   4.339   2.169   7.252  0.2130  0.0661  0.1685
 5129SOL    HW127023   4.370   2.196   7.338  1.8066 -0.6196 -0.1955
 5129SOL    HW227024   4.252   2.208   7.247 -0.0187 -0.4597  0.0765
 5130SOL     OW27025   3.355   3.819   6.776 -0.2138 -0.4492  0.3239
 5130SOL    HW127026   3.268   3.832   6.738 -1.0946 -0.6179  2.2516
 5130SOL    HW227027   3.337   3.884   6.845  1.5711 -0.2842  0.6352
 5131SOL     OW27028   3.496   3.487   5.951 -0.4778  0.2063  0.5417
 5131SOL    HW127029   3.480   3.423   6.021  3.4628 -2.0176 -0.5761
 5131SOL    HW227030   3.478   3.572   5.991  0.8748  1.5960 -1.8209
 5132SOL     OW27031   4.414   4.395   3.086  0.3473  0.9295  0.2733
 5132SOL    HW127032   4.490   4.437   3.124  2.0817 -1.5010 -0.5043
 5132SOL    HW227033   4.360   4.473   3.073 -1.5237 -0.5987 -1.1396
 5133SOL     OW27034   4.109   4.155  13.292  0.1851 -0.1199 -0.1473
 5133SOL    HW127035   4.120   4.097  13.216 -1.8623  0.1841 -0.6857
 5133SOL    HW227036   4.125   4.244  13.260  0.1034 -0.3642 -0.8843
 5134SOL     OW27037   2.040   0.100   1.200 -0.4274 -0.0941 -0.1371
 5134SOL    HW127038   2.066   0.186   1.167  1.7078 -0.0099  1.7428
 5134SOL    HW227039   2.073   0.118   1.288 -2.3971  1.7320  0.2435
 5135SOL     OW27040   1.338   0.315   0.527  0.0514 -0.5153 -0.1072
 5135SOL    HW127041   1.267   0.294   0.589 -1.3248  0.0639 -1.5084
 5135SOL    HW227042   1.342   0.409   0.540 -2.2650 -0.7057  2.1694
 5136SOL     OW27043   1.054   0.620   4.173  0.3251 -0.0995 -0.1233
 5136SOL    HW127044   0.999   0.563   4.227 -0.6766  0.5833 -0.4217
 5136SOL    HW227045   1.139   0.628   4.216 -0.2968  0.4960  0.9961
 5137SOL     OW27046   2.343   1.497   6.391 -0.7191  0.0566  0.1661
 5137SOL    HW127047   2.428   1.509   6.433  0.6582 -0.7718 -2.4383
 5137SOL    HW227048   2.290   1.544   6.456 -0.0864  1.8804 -0.6429
 5138SOL     OW27049   1.112   2.603   0.683 -0.1601 -0.2156  0.5475
 5138SOL    HW127050   1.171   2.540   0.724 -1.0994 -0.1014  2.0641
 5138SOL    HW227051   1.176   2.646   0.626  0.9976 -1.0527  1.2034
 5139SOL     OW27052   2.481   3.176   7.450  0.6348  0.2422  0.2867
 5139SOL    HW127053   2.562   3.160   7.401 -0.0724 -1.4588 -0.3246
 5139SOL    HW227054   2.434   3.093   7.448 -0.6316  0.9395  1.0340
 5140SOL     OW27055   4.421   2.860   9.556 -0.7060  0.3649 -0.7852
 5140SOL    HW127056   4.414   2.921   9.629  2.1422  1.0675 -1.1171
 5140SOL    HW227057   4.326   2.859   9.538 -0.5291  1.6844 -1.8061
 5141SOL     OW27058   2.325   0.638  12.420  0.2134 -0.5875  0.4763
 5141SOL    HW127059   2.310   0.703  12.352  1.3792 -1.9539 -1.0947
 5141SOL    HW227060   2.320   0.684  12.504 -0.6215 -0.7883  0.5391
 5142SOL     OW27061   1.401   2.106   6.565 -0.0368 -0.2706 -0.5190
 5142SOL    HW127062   1.359   2.177   6.516 -2.0926 -1.4330 -0.4833
 5142SOL    HW227063   1.366   2.029   6.518 -0.7744 -0.0540 -0.3272
 5143SOL     OW27064   3.853   0.717  17.378  0.2327 -0.7976 -0.8939
 5143SOL    HW127065   3.916   0.648  17.359  0.8382  0.1384 -2.3278
 5143SOL    HW227066   3.766   0.676  17.374  0.7618 -1.9112 -0.9187
 5144SOL     OW27067   1.719   3.059  10.803  0.3013  0.1088  0.4771
 5144SOL    HW127068   1.708   3.009  10.722 -1.1246 -1.2663  1.5133
 5144SOL    HW227069   1.803   3.024  10.832 -0.9365 -2.9507  0.4204
 5145SOL     OW27070   3.491   0.915  12.225  0.4519 -0.0551  0.5139
 5145SOL    HW127071   3.476   1.005  12.255  2.2341  0.0235  1.2067
 5145SOL    HW227072   3.499   0.938  12.132 -0.8385 -1.2054  0.1320
 5146SOL     OW27073   0.107   0.000   5.053 -0.0677  0.1838 -0.1438
 5146SOL    HW127074   0.145   4.707   5.134 -0.5333 -1.9633 -0.7695
 5146SOL    HW227075   0.050   4.666   5.030 -2.2288  1.5445  0.8395
 5147SOL     OW27076   0.098   4.139   5.876  0.3733 -0.3757  0.4484
 5147SOL    HW127077   0.085   4.229   5.847 -1.2017 -0.5327  0.6630
 5147SOL    HW227078   0.084   4.086   5.797  1.1096  1.1272 -0.6986
 5148SOL     OW27079   0.440   1.418  15.106 -0.1481  0.1672  0.7911
 5148SOL    HW127080   0.506   1.416  15.175  1.1892  0.8062 -0.4685
 5148SOL    HW227081   0.435   1.324  15.089 -0.7597  0.5475 -1.1243
 5149SOL     OW27082   1.289   1.721   4.601  0.1512  0.7401 -0.3504
 5149SOL    HW127083   1.300   1.799   4.548 -1.2882  0.0923 -1.5881
 5149SOL    HW227084   1.378   1.686   4.596 -0.6464 -1.4357  0.5728
 5150SOL     OW27085   4.340   2.399  12.964 -0.1278  0.5411 -0.0226
 5150SOL    HW127086   4.400   2.451  12.910  1.1892 -1.0805 -0.1462
 5150SOL    HW227087   4.256   2.444  12.953 -0.4517 -0.3527 -1.2638
 5151SOL     OW27088   1.786   2.757   2.454  0.2387 -0.5540  0.5587
 5151SOL    HW127089   1.874   2.718   2.460  0.5829  0.0134 -0.7013
 5151SOL    HW227090   1.770   2.794   2.541  0.3742  1.6312 -0.3472
 5152SOL     OW27091   4.036   1.568   6.575  0.4052 -0.0740 -0.2155
 5152SOL    HW127092   4.081   1.485   6.593 -1.3735 -1.2310 -1.1757
 5152SOL    HW227093   3.947   1.546   6.602 -0.0642  0.7465 -1.1008
 5153SOL     OW27094   3.828   2.232   0.237  0.9113 -0.1445 -0.2287
 5153SOL    HW127095   3.853   2.215   0.146  0.9928 -1.6934  0.0786
 5153SOL    HW227096   3.873   2.316   0.246  0.6453 -0.2192  1.6410
 5154SOL     OW27097   4.359   2.790  12.718 -0.0751  0.1512 -0.3047
 5154SOL    HW127098   4.370   2.850  12.791  0.7157  2.1942 -2.0895
 5154SOL    HW227099   4.417   2.829  12.653 -0.6588 -0.3629 -1.1482
 5155SOL     OW27100   2.947   3.465   2.691  0.4152 -0.7283 -0.5859
 5155SOL    HW127101   2.936   3.372   2.713 -1.8230 -0.4277 -0.4631
 5155SOL    HW227102   2.940   3.475   2.597  2.6105  2.5155 -0.4037
 5156SOL     OW27103   0.555   3.927   2.081 -0.7025  0.0853 -0.3151
 5156SOL    HW127104   0.480   3.902   2.027 -0.2205 -0.7799 -0.5853
 5156SOL    HW227105   0.605   3.845   2.078 -1.0508 -0.1064 -0.9210
 5157SOL     OW27106   2.484   0.369  12.722  0.4448 -0.1989  0.2233
 5157SOL    HW127107   2.510   0.454  12.685  3.0216 -1.4072 -0.8055
 5157SOL    HW227108   2.558   0.317  12.689 -0.6666 -2.6236  1.6514
 5158SOL     OW27109   3.720   4.583   3.917 -0.5596  0.2508 -0.6045
 5158SOL    HW127110   3.749   4.637   3.989  0.9918  0.2893 -1.2548
 5158SOL    HW227111   3.711   4.497   3.959 -2.3256  0.2752 -0.9276
 5159SOL     OW27112   1.077   3.621   2.334  0.4782 -0.5151 -0.1020
 5159SOL    HW127113   1.123   3.543   2.304 -0.5152 -0.6642 -1.2014
 5159SOL    HW227114   1.025   3.640   2.257 -0.8876  1.6024  1.3271
 5160SOL     OW27115   3.955   3.860  15.523 -0.1927  0.2553 -0.6618
 5160SOL    HW127116   3.966   3.955  15.534  2.3513 -0.3208  1.6898
 5160SOL    HW227117   4.045   3.829  15.531 -0.4798 -0.7351 -1.2977
 5161SOL     OW27118   0.214   3.471  14.995  0.2972 -0.4290  0.7333
 5161SOL    HW127119   0.191   3.495  15.085 -1.5883 -3.4204  1.0451
 5161SOL    HW227120   0.302   3.509  14.997  0.2799 -0.3150 -0.7105
 5162SOL     OW27121   4.316   0.774   5.393 -0.2420  0.2452 -0.5004
 5162SOL    HW127122   4.266   0.855   5.399  1.3418  1.2323 -0.7077
 5162SOL    HW227123   4.353   0.773   5.305  0.5812 -2.6511 -0.1069
 5163SOL     OW27124   0.888   1.772   4.868  0.2011  0.0270 -0.7286
 5163SOL    HW127125   0.928   1.852   4.904 -1.7968  0.2268  1.0047
 5163SOL    HW227126   0.813   1.784   4.926 -0.3812  1.8545 -1.8501
 5164SOL     OW27127   1.156   2.815  13.266  0.3295  0.4081  0.2223
 5164SOL    HW127128   1.110   2.824  13.183 -0.5225 -1.3917  0.5035
 5164SOL    HW227129   1.084   2.849  13.318 -0.3258 -0.2527 -0.2680
 5165SOL     OW27130   0.455   1.417   6.931 -0.1212  0.2866  0.4319
 5165SOL    HW127131   0.479   1.509   6.923 -0.7281  0.2754 -1.5907
 5165SOL    HW227132   0.369   1.425   6.973  0.3857  2.4198  1.0973
 5166SOL     OW27133   1.707   0.991   6.682 -0.1089 -0.5491 -0.1791
 5166SOL    HW127134   1.715   0.998   6.777  0.5446 -2.1820 -0.1193
 5166SOL    HW227135   1.733   0.899   6.676 -0.8460 -0.8049  0.5993
 5167SOL     OW27136   0.293   1.757   5.893  0.1845 -0.8229  0.1460
 5167SOL    HW127137   0.213   1.777   5.943  0.1692  1.0102 -0.5942
 5167SOL    HW227138   0.271   1.681   5.840  0.8534  0.0731 -1.4031
 5168SOL     OW27139   4.276   3.797   5.414 -1.0257  0.2010  0.3140
 5168SOL    HW127140   4.267   3.704   5.394  2.6438  0.1586 -1.1094
 5168SOL    HW227141   4.183   3.818   5.424 -0.3590  2.3419  2.0835
 5169SOL     OW27142   4.383   3.568   2.025 -0.1654  0.7748  0.2729
 5169SOL    HW127143   4.362   3.476   2.041 -1.7001  0.5338 -3.1740
 5169SOL    HW227144   4.479   3.563   2.033 -0.0718  2.0113 -0.0433
 5170SOL     OW27145   4.535   2.809   4.068 -0.6229  0.0023  0.3294
 5170SOL    HW127146   4.504   2.809   3.977  1.3413  0.6119 -0.3203
 5170SOL    HW227147   4.608   2.748   4.064 -0.8091 -0.1359 -1.0736
 5171SOL     OW27148   0.773   3.167   4.617 -0.2233 -0.1363 -0.4521
 5171SOL    HW127149   0.742   3.162   4.526  0.5657  2.7832 -0.8928
 5171SOL    HW227150   0.755   3.082   4.657  2.3826 -0.0859  0.8266
 5172SOL     OW27151   3.025   0.446  13.349 -0.5318 -0.4005 -0.5649
 5172SOL    HW127152   3.108   0.483  13.379 -0.7844 -2.4129  2.5746
 5172SOL    HW227153   2.982   0.531  13.339  0.9361  0.2357 -1.4628
 5173SOL     OW27154   0.861   0.615   6.040 -0.4724  0.2930  0.1960
 5173SOL    HW127155   0.825   0.622   5.951  1.1121 -2.0722 -0.6162
 5173SOL    HW227156   0.824   0.533   6.073 -0.8958  1.7691  3.3242
 5174SOL     OW27157   4.298   4.624   8.899  0.1941 -0.2950 -0.2948
 5174SOL    HW127158   4.240   4.699   8.886  0.4299  0.1744  1.2843
 5174SOL    HW227159   4.356   4.644   8.972 -1.9031  1.5540  0.8903
 5175SOL     OW27160   4.289   1.080   1.770  0.0954 -0.1356 -0.3778
 5175SOL    HW127161   4.214   1.112   1.819 -0.4108 -0.6930 -0.7877
 5175SOL    HW227162   4.335   1.158   1.741 -0.2516 -0.0116 -0.5956
 5176SOL     OW27163   1.030   3.401  11.706 -0.1247  0.2537  0.4725
 5176SOL    HW127164   0.943   3.442  11.710 -0.8110 -1.3306  2.2320
 5176SOL    HW227165   1.053   3.382  11.797  0.8945  0.2427  0.2114
 5177SOL     OW27166   2.923   1.082   8.188  0.5884 -0.1273 -0.4315
 5177SOL    HW127167   3.000   1.038   8.224  1.8757  2.0963 -0.4621
 5177SOL    HW227168   2.879   1.113   8.267  0.1248 -0.9336 -0.3694
 5178SOL     OW27169   2.321   2.988  10.364 -0.2479 -0.4810  0.0970
 5178SOL    HW127170   2.242   2.984  10.417  0.2277 -1.4319  0.7342
 5178SOL    HW227171   2.382   2.923  10.400  2.4172  2.5603  1.0038
 5179SOL     OW27172   1.912   4.425   8.204  0.1174  0.0057 -0.1092
 5179SOL    HW127173   1.946   4.386   8.285  1.5318  1.1740 -0.1453
 5179SOL    HW227174   1.879   4.351   8.153  2.0755 -0.6464 -0.4378
 5180SOL     OW27175   2.776   4.333   3.988 -0.7116  0.4031 -0.0149
 5180SOL    HW127176   2.840   4.358   3.921 -0.1592  0.6570  0.6170
 5180SOL    HW227177   2.820   4.353   4.070 -0.3816  0.6750 -0.2572
 5181SOL     OW27178   2.521   0.955  11.164 -0.3853 -0.5433 -0.0780
 5181SOL    HW127179   2.473   0.996  11.093 -2.3240 -0.0724  1.5080
 5181SOL    HW227180   2.477   0.981  11.245  0.3405  2.7620 -0.7462
 5182SOL     OW27181   3.709   3.111  13.323  0.5479  0.7888  0.3551
 5182SOL    HW127182   3.692   3.100  13.229 -2.6455 -1.0039  1.1559
 5182SOL    HW227183   3.786   3.055  13.335  0.5956  0.6793 -0.4441
 5183SOL     OW27184   0.828   1.070   1.649 -0.5036 -0.2428  0.0352
 5183SOL    HW127185   0.767   1.027   1.591 -1.2491  0.2098  0.4823
 5183SOL    HW227186   0.864   1.127   1.581 -1.8373  0.1372 -0.3423
 5184SOL     OW27187   3.806   2.812   6.215  0.1536 -0.0268  0.4835
 5184SOL    HW127188   3.723   2.827   6.170 -0.0668  1.4019  1.3795
 5184SOL    HW227189   3.806   2.863   6.295 -1.1114  1.7540 -0.6593
 5185SOL     OW27190   4.691   2.334   4.586 -0.4501 -0.6437  0.4039
 5185SOL    HW127191   0.014   2.296   4.649  0.2963  0.2730  0.2262
 5185SOL    HW227192   4.643   2.397   4.640 -2.1089  0.4256 -2.3249
 5186SOL     OW27193   0.948   3.500   8.135 -0.1280  0.3165 -0.2132
 5186SOL    HW127194   0.927   3.583   8.092 -2.5619 -1.1469 -1.8393
 5186SOL    HW227195   0.991   3.536   8.212 -0.6968 -1.0703  0.7602
 5187SOL     OW27196   1.754   0.685   1.331  0.1186  0.4442  0.4929
 5187SOL    HW127197   1.660   0.670   1.336 -0.1044  1.5720 -0.1951
 5187SOL    HW227198   1.780   0.681   1.423  1.8818  2.8252  0.0944
 5188SOL     OW27199   1.638   2.631   2.869 -0.1852 -0.3870 -0.1277
 5188SOL    HW127200   1.701   2.620   2.940  2.3083 -1.0820 -2.4776
 5188SOL    HW227201   1.568   2.682   2.911  0.6898  0.1723  0.6474
 5189SOL     OW27202   2.143   1.705   8.999 -0.0725  0.0986  0.4116
 5189SOL    HW127203   2.122   1.741   9.085  2.6673  1.1251  0.6544
 5189SOL    HW227204   2.191   1.779   8.963 -0.6323  0.8311  1.1541
 5190SOL     OW27205   0.255   0.818   3.158  0.3140  0.0579  0.3049
 5190SOL    HW127206   0.324   0.838   3.094 -0.2327  2.3051  0.3942
 5190SOL    HW227207   0.180   0.868   3.125  0.6403  0.1991 -0.2256
 5191SOL     OW27208   4.406   3.671   6.732 -0.1994 -0.9498  0.3301
 5191SOL    HW127209   4.330   3.681   6.790  0.2886  0.8727  0.6561
 5191SOL    HW227210   4.452   3.754   6.745 -2.0199  0.3121 -1.1899
 5192SOL     OW27211   2.670   1.563   7.800 -0.7348 -0.1098  0.2254
 5192SOL    HW127212   2.681   1.515   7.717 -0.3565  0.8773 -0.2940
 5192SOL    HW227213   2.706   1.493   7.855  1.0052 -0.3756 -1.2436
 5193SOL     OW27214   4.510   2.422   9.038 -0.6968  0.7781  0.2141
 5193SOL    HW127215   4.434   2.364   9.036  0.1351 -0.2607 -1.4657
 5193SOL    HW227216   4.582   2.359   9.032 -0.0769  1.6934 -2.2257
 5194SOL     OW27217   1.345   0.436   9.084 -0.0574  0.0639  0.6797
 5194SOL    HW127218   1.256   0.466   9.101 -0.1523 -1.1712  2.3567
 5194SOL    HW227219   1.362   0.386   9.164  0.3490 -1.3219 -0.2863
 5195SOL     OW27220   4.072   1.879   8.277 -0.3540 -0.5048  0.0017
 5195SOL    HW127221   4.034   1.851   8.360  3.2122  0.9747  2.1696
 5195SOL    HW227222   4.040   1.808   8.222  0.4909 -0.6547 -0.2955
 5196SOL     OW27223   4.206   2.195  17.584 -0.2921 -0.2889  0.3484
 5196SOL    HW127224   4.139   2.203  17.517 -0.5573  0.8434  0.7521
 5196SOL    HW227225   4.205   2.099  17.592  0.1719 -0.3937 -0.7821
 5197SOL     OW27226   0.231   0.742   5.034 -0.4033  0.3130  0.2477
 5197SOL    HW127227   0.296   0.746   4.965  0.8727  0.6820  1.4559
 5197SOL    HW227228   0.253   0.820   5.085  0.2291  0.0433  0.3899
 5198SOL     OW27229   3.909   3.801   0.659  0.3346  0.1384 -0.1727
 5198SOL    HW127230   3.905   3.724   0.716  4.0161 -0.4824 -0.7416
 5198SOL    HW227231   3.948   3.762   0.581  1.1750 -0.6260  0.6360
 5199SOL     OW27232   0.452   3.531   9.153  0.2507 -0.2063 -0.1779
 5199SOL    HW127233   0.442   3.604   9.092  1.1605  0.9407  1.0666
 5199SOL    HW227234   0.388   3.463   9.131  0.1050 -0.3606  0.7369
 5200SOL     OW27235   3.648   2.381   4.694  0.0923 -0.1548  0.0700
 5200SOL    HW127236   3.695   2.298   4.686 -1.1436 -0.9430  1.0073
 5200SOL    HW227237   3.657   2.410   4.785 -0.2569  2.0988 -0.6267
 5201SOL     OW27238   4.414   2.336   4.165  0.3011 -0.2278  0.3448
 5201SOL    HW127239   4.331   2.340   4.118  0.5868 -2.5646 -0.3805
 5201SOL    HW227240   4.407   2.252   4.210 -1.0368 -1.6908 -2.5272
 5202SOL     OW27241   3.301   0.616   7.346 -0.0354 -0.1215 -0.3760
 5202SOL    HW127242   3.282   0.680   7.414 -1.1871 -1.8217  0.8777
 5202SOL    HW227243   3.244   0.542   7.367 -1.1054  0.9077  0.3193
 5203SOL     OW27244   3.280   4.391   2.283 -0.2345 -0.1752  0.5664
 5203SOL    HW127245   3.209   4.332   2.257 -1.7085  1.6114  0.5149
 5203SOL    HW227246   3.259   4.475   2.244 -0.0873  0.0838  1.0501
 5204SOL     OW27247   2.685   1.039   3.180 -0.0093  0.2352  0.0442
 5204SOL    HW127248   2.667   1.014   3.271  0.6063  0.9695  0.3586
 5204SOL    HW227249   2.739   0.966   3.148  0.9915  1.0832 -0.1764
 5205SOL     OW27250   0.924   4.113   5.817 -0.6708  0.4280 -0.4384
 5205SOL    HW127251   1.002   4.105   5.873 -0.2675 -0.3412 -1.1129
 5205SOL    HW227252   0.920   4.025   5.781 -0.8030 -0.5791  2.0686
 5206SOL     OW27253   2.300   2.169   5.555 -0.1387 -0.2201  0.0276
 5206SOL    HW127254   2.229   2.125   5.509 -0.3959  0.4188 -0.1745
 5206SOL    HW227255   2.283   2.260   5.532 -0.3438 -0.5133 -0.9604
 5207SOL     OW27256   3.673   3.163  12.681 -0.3504 -0.2240 -0.0325
 5207SOL    HW127257   3.731   3.219  12.629 -1.4851  1.7760  0.8614
 5207SOL    HW227258   3.672   3.220  12.757  1.9086 -0.8061  0.4454
 5208SOL     OW27259   2.577   3.629  17.058 -0.4671 -0.3756  0.0432
 5208SOL    HW127260   2.635   3.698  17.026  0.1314 -1.4040 -1.0910
 5208SOL    HW227261   2.641   3.576  17.105  0.3133  1.8626  1.5089
 5209SOL     OW27262   2.113   2.664   4.355 -0.1143  0.4724  0.9829
 5209SOL    HW127263   2.058   2.588   4.337  0.2697  1.0705 -2.6974
 5209SOL    HW227264   2.194   2.617   4.376 -0.1759 -0.4976 -0.9796
 5210SOL     OW27265   0.833   0.231   9.280 -0.0692 -0.4195 -0.4940
 5210SOL    HW127266   0.759   0.240   9.340  2.4162  0.6720  2.3877
 5210SOL    HW227267   0.868   0.144   9.296 -0.5642 -0.6841 -0.8348
 5211SOL     OW27268   4.001   2.348   3.233 -0.4996 -0.4947 -0.6158
 5211SOL    HW127269   3.915   2.388   3.220 -0.5421 -0.3101  0.1937
 5211SOL    HW227270   4.041   2.353   3.146  1.5767  0.5931  0.3966
 5212SOL     OW27271   1.494   1.937  13.253  0.4378  0.5843 -0.3920
 5212SOL    HW127272   1.459   1.869  13.310  1.2889 -0.4628 -1.1176
 5212SOL    HW227273   1.459   2.017  13.292  1.5179 -0.3514  2.4703
 5213SOL     OW27274   3.000   4.183   6.310  0.5796 -0.5140 -0.5201
 5213SOL    HW127275   3.077   4.230   6.280 -0.1189  0.7851 -0.2536
 5213SOL    HW227276   3.038   4.099   6.338 -0.2946 -0.8490 -0.3085
 5214SOL     OW27277   2.360   4.132   5.516  0.3426  0.0777  0.3241
 5214SOL    HW127278   2.414   4.091   5.583  0.8841 -0.0759 -0.2089
 5214SOL    HW227279   2.293   4.066   5.496 -1.5323  2.6558 -1.9155
 5215SOL     OW27280   2.483   1.172   3.024 -0.4293  0.2507 -0.3409
 5215SOL    HW127281   2.551   1.155   3.090 -3.5659 -0.2590  2.7627
 5215SOL    HW227282   2.429   1.093   3.030  3.2037 -2.2817 -0.4503
 5216SOL     OW27283   3.607   0.051   6.609  0.5688  0.3454 -0.2202
 5216SOL    HW127284   3.683   0.094   6.648  1.1996  0.9444 -2.0965
 5216SOL    HW227285   3.605   0.091   6.522  0.5256  1.5122  0.3187
 5217SOL     OW27286   0.899   4.454   3.832 -0.2607  0.0082 -0.0922
 5217SOL    HW127287   0.810   4.424   3.851 -0.4319  0.5033 -0.1097
 5217SOL    HW227288   0.918   4.400   3.755 -1.7006  1.6342 -1.6014
 5218SOL     OW27289   3.189   3.755   4.289  0.7383  0.4885 -0.3211
 5218SOL    HW127290   3.111   3.800   4.256  0.2071 -0.5371 -0.4609
 5218SOL    HW227291   3.256   3.820   4.265  3.1908 -2.6731 -1.9689
 5219SOL     OW27292   2.374   0.329   3.422 -0.2178 -0.0039 -0.5548
 5219SOL    HW127293   2.427   0.332   3.342  0.1229 -2.6242 -0.4210
 5219SOL    HW227294   2.424   0.386   3.481  0.3239 -1.3426  0.2791
 5220SOL     OW27295   3.377   0.211   3.232  0.1414 -0.1320  0.5989
 5220SOL    HW127296   3.367   0.155   3.154 -0.6049  0.0049  0.5970
 5220SOL    HW227297   3.472   0.201   3.240  0.1399  0.2636  1.0755
 5221SOL     OW27298   3.331   1.975   2.332 -0.4475  0.3586 -0.0528
 5221SOL    HW127299   3.314   1.919   2.408 -2.0930 -1.8765 -2.1048
 5221SOL    HW227300   3.354   2.054   2.382  2.6805 -0.7749  0.3105
 5222SOL     OW27301   1.582   4.378  13.597 -0.1654 -1.0299  0.0368
 5222SOL    HW127302   1.675   4.356  13.592  0.1229  0.1600  0.1445
 5222SOL    HW227303   1.560   4.405  13.686  1.5993 -2.0640  0.7768
 5223SOL     OW27304   2.618   1.024   5.179 -0.5064 -0.2509  0.4894
 5223SOL    HW127305   2.660   1.057   5.100 -0.4596 -0.4561  0.4277
 5223SOL    HW227306   2.612   0.930   5.164  0.3945 -0.6669  2.8090
 5224SOL     OW27307   1.223   3.016  14.035  0.1180  0.1192  0.1696
 5224SOL    HW127308   1.187   3.096  13.997  2.8316  0.1999 -2.2268
 5224SOL    HW227309   1.215   3.031  14.129 -0.1963  1.3633 -0.0590
 5225SOL     OW27310   2.504   3.046  13.166 -0.0099  0.0427  0.2525
 5225SOL    HW127311   2.461   2.980  13.219 -0.3832  0.9621  1.1027
 5225SOL    HW227312   2.445   3.118  13.188  0.9879  0.3876  1.7915
 5226SOL     OW27313   2.850   1.818   1.961 -0.5116  0.5537  0.0627
 5226SOL    HW127314   2.855   1.723   1.964 -0.1238  0.6703  2.7757
 5226SOL    HW227315   2.906   1.841   2.035  1.8100 -0.0584 -1.5224
 5227SOL     OW27316   0.934   3.667  14.143 -0.0680 -0.1122 -0.4394
 5227SOL    HW127317   1.003   3.628  14.091  0.2265  0.1251 -0.2259
 5227SOL    HW227318   0.987   3.724  14.199 -1.9752  0.2670  0.9789
 5228SOL     OW27319   4.526   0.736   7.633  0.1934 -0.0085 -0.1055
 5228SOL    HW127320   4.509   0.826   7.660  1.9614  0.4343 -0.4239
 5228SOL    HW227321   4.618   0.728   7.660  0.7582 -1.8390 -2.4740
 5229SOL     OW27322   2.635   4.647  13.241 -0.1876  0.3541  0.4075
 5229SOL    HW127323   2.685   4.725  13.218  0.6149  0.3771  2.2703
 5229SOL    HW227324   2.680   4.603  13.312 -0.1994  1.1082  0.8876
 5230SOL     OW27325   4.000   2.261  10.006  0.0751  0.6475  0.4742
 5230SOL    HW127326   3.988   2.312   9.927  0.4738  3.6769  2.3774
 5230SOL    HW227327   3.962   2.175   9.985  0.3281  1.0938 -1.7712
 5231SOL     OW27328   3.263   3.069   6.208 -0.0594  0.4549  0.2024
 5231SOL    HW127329   3.232   3.084   6.297 -1.6206  4.8711 -1.1353
 5231SOL    HW227330   3.201   3.000   6.184  0.5159 -0.5875  1.7111
 5232SOL     OW27331   1.465   3.371   4.965  0.1423 -0.3673 -0.2341
 5232SOL    HW127332   1.512   3.381   4.882  0.7695 -1.6327 -0.0240
 5232SOL    HW227333   1.377   3.349   4.937 -0.2370  0.1966  0.5158
 5233SOL     OW27334   4.625   0.977   3.855 -0.2935 -0.0796 -0.4772
 5233SOL    HW127335   4.574   1.056   3.840 -0.2543  0.0639  0.1612
 5233SOL    HW227336   4.690   0.972   3.785 -0.6518 -1.9440 -0.6867
 5234SOL     OW27337   3.594   1.056   3.822  0.0788 -0.1630 -0.1412
 5234SOL    HW127338   3.631   1.144   3.826  0.0976 -0.2373  1.2781
 5234SOL    HW227339   3.503   1.083   3.810 -0.1294 -0.4794  0.7478
 5235SOL     OW27340   2.298   3.926   2.839  0.3250  0.1461  0.5254
 5235SOL    HW127341   2.241   3.986   2.886 -0.9230  0.2316 -1.1168
 5235SOL    HW227342   2.245   3.900   2.763 -0.7075 -0.7406  1.5453
 5236SOL     OW27343   4.119   3.217   7.895 -0.0470 -0.2606  0.7220
 5236SOL    HW127344   4.102   3.235   7.803  2.1778  1.6633  0.6990
 5236SOL    HW227345   4.214   3.203   7.902  0.4229  1.9518 -1.4138
 5237SOL     OW27346   1.032   4.119  11.296  0.4877  0.2456 -0.2838
 5237SOL    HW127347   1.063   4.078  11.215  1.9098 -2.2515  1.5402
 5237SOL    HW227348   0.959   4.060  11.315  1.7810 -1.5564 -0.8425
 5238SOL     OW27349   4.072   3.592   2.518 -0.1039  0.0975 -0.6172
 5238SOL    HW127350   4.029   3.523   2.568  1.8875 -0.4558  0.3298
 5238SOL    HW227351   4.046   3.575   2.427  0.3400 -0.6633 -0.5962
 5239SOL     OW27352   1.574   1.825   4.051  0.0981  0.8832  0.0384
 5239SOL    HW127353   1.582   1.839   4.145 -0.4977  2.1409 -0.0903
 5239SOL    HW227354   1.521   1.902   4.031  0.0991  0.9970  0.4902
 5240SOL     OW27355   0.648   3.726  14.194 -0.0831  0.6620  0.6524
 5240SOL    HW127356   0.741   3.704  14.200 -0.0578  0.9140  1.1709
 5240SOL    HW227357   0.624   3.700  14.283  0.4695 -1.5603  0.1472
 5241SOL     OW27358   1.052   2.067  12.516  0.0622  0.3061  0.0101
 5241SOL    HW127359   1.066   1.977  12.545 -2.9329 -0.0245  0.4291
 5241SOL    HW227360   1.051   2.106  12.604 -0.3642  0.1374  0.0802
 5242SOL     OW27361   2.726   1.786   6.836  0.1205  0.3977  0.2519
 5242SOL    HW127362   2.819   1.803   6.818 -0.0659  0.7849 -0.3595
 5242SOL    HW227363   2.729   1.784   6.932 -1.0151 -1.3395  0.2366
 5243SOL     OW27364   2.861   0.010   2.635  0.0852 -0.7658  0.5525
 5243SOL    HW127365   2.884   0.102   2.623 -0.8207 -0.5559  0.4467
 5243SOL    HW227366   2.841   4.731   2.543  2.0862 -2.0526  0.3590
 5244SOL     OW27367   1.448   3.390   7.401  0.1148 -0.3171  0.4092
 5244SOL    HW127368   1.517   3.427   7.345 -0.7796 -2.0029 -1.7848
 5244SOL    HW227369   1.509   3.350   7.463  1.6031  2.4316  0.7431
 5245SOL     OW27370   0.995   2.681   6.901 -0.2158  0.3837  0.4877
 5245SOL    HW127371   0.938   2.757   6.909 -0.8670  0.1679 -2.0435
 5245SOL    HW227372   1.030   2.721   6.821  1.7107 -1.6971  0.2869
 5246SOL     OW27373   2.090   3.469  10.933  0.3917 -0.0689 -0.7396
 5246SOL    HW127374   2.029   3.511  10.873  0.9725 -0.0033 -1.2808
 5246SOL    HW227375   2.057   3.470  11.023 -1.2857  0.4878 -1.3561
 5247SOL     OW27376   2.868   1.875  11.356 -0.0123  0.5591 -0.2824
 5247SOL    HW127377   2.818   1.793  11.361  0.5436  0.1822 -0.9856
 5247SOL    HW227378   2.821   1.940  11.409  1.5380  0.0537  1.7145
 5248SOL     OW27379   1.950   4.282   5.951  0.1388 -0.1508  0.6058
 5248SOL    HW127380   2.017   4.214   5.942  1.3357  1.0979  0.1264
 5248SOL    HW227381   1.968   4.301   6.044 -1.1859 -2.9510  1.4412
 5249SOL     OW27382   1.207   3.878   6.425 -0.1876 -0.0481 -0.0227
 5249SOL    HW127383   1.120   3.904   6.457  0.7510  0.0567  2.4973
 5249SOL    HW227384   1.264   3.898   6.500 -0.5139  2.3867 -0.4347
 5250SOL     OW27385   0.361   0.566  12.657 -0.1706 -0.0824  0.4137
 5250SOL    HW127386   0.363   0.542  12.565 -0.0940 -2.5101  1.0448
 5250SOL    HW227387   0.452   0.589  12.674 -0.0401 -0.8618  0.7601
 5251SOL     OW27388   4.352   1.286   2.666 -0.3071 -0.8441 -1.0711
 5251SOL    HW127389   4.353   1.278   2.761  0.0306  0.3018 -0.9736
 5251SOL    HW227390   4.441   1.318   2.653  0.1480 -1.6834 -0.0308
 5252SOL     OW27391   4.635   3.471   6.286 -0.4695 -0.7074  0.2006
 5252SOL    HW127392   4.607   3.423   6.208 -1.6618  2.1799 -1.1473
 5252SOL    HW227393   4.715   3.514   6.253  0.6612 -2.9583 -0.0130
 5253SOL     OW27394   2.227   2.460   3.272 -0.2174 -0.2438  0.4345
 5253SOL    HW127395   2.316   2.482   3.299  0.0396  0.5777 -1.0433
 5253SOL    HW227396   2.235   2.365   3.280 -3.3412 -0.6835 -1.6775
 5254SOL     OW27397   3.191   4.583  16.594  0.3818 -0.1274  0.0883
 5254SOL    HW127398   3.103   4.550  16.572  0.3787 -0.8257  1.1657
 5254SOL    HW227399   3.191   4.554  16.685  0.0548 -1.7630 -0.4189
 5255SOL     OW27400   2.430   3.655   4.643  0.7015  0.0473  0.0145
 5255SOL    HW127401   2.335   3.665   4.634  0.9671  0.5422 -2.2156
 5255SOL    HW227402   2.440   3.570   4.686  1.0243  0.3964  0.6228
 5256SOL     OW27403   0.198   0.194  16.992 -0.4656  0.2180 -0.4567
 5256SOL    HW127404   0.263   0.220  17.057 -1.3877  1.4241 -0.0251
 5256SOL    HW227405   0.237   0.226  16.911  0.9479 -2.7074 -0.9318
 5257SOL     OW27406   0.661   4.318   9.014  0.6406  0.0664  0.2657
 5257SOL    HW127407   0.651   4.309   9.109 -1.0733  3.2024  0.3478
 5257SOL    HW227408   0.650   4.225   8.993 -0.3516  0.0766  0.7600
 5258SOL     OW27409   2.193   3.342   6.658  0.4422 -0.9222  0.5466
 5258SOL    HW127410   2.108   3.365   6.622  0.1222 -2.9111  0.0184
 5258SOL    HW227411   2.178   3.248   6.647  0.5332 -0.9605  0.7402
 5259SOL     OW27412   4.319   3.755   9.795 -0.1204 -0.5919  0.1401
 5259SOL    HW127413   4.333   3.765   9.701 -4.3058 -2.4300 -0.6437
 5259SOL    HW227414   4.409   3.768   9.826 -0.0535 -1.2168  0.1978
 5260SOL     OW27415   0.552   2.628   5.057  0.1751  0.3710 -0.6282
 5260SOL    HW127416   0.623   2.566   5.072 -0.6522 -0.8883 -1.7912
 5260SOL    HW227417   0.485   2.592   5.115  0.6505  0.1776 -0.1969
 5261SOL     OW27418   3.921   2.285  10.810 -0.3328  0.7168  0.1595
 5261SOL    HW127419   3.952   2.302  10.721 -2.0074 -0.3644 -0.6548
 5261SOL    HW227420   3.998   2.247  10.851 -0.4889  0.5964  0.3380
 5262SOL     OW27421   0.933   3.152  12.497  0.3653 -0.2672  0.0333
 5262SOL    HW127422   0.922   3.239  12.535 -1.7661 -0.8628  0.7577
 5262SOL    HW227423   0.881   3.095  12.554 -1.7981  0.7624 -0.9215
 5263SOL     OW27424   2.848   4.478   1.877  0.0895 -0.2944 -0.0113
 5263SOL    HW127425   2.938   4.507   1.860  0.0434  1.2509  2.3966
 5263SOL    HW227426   2.851   4.392   1.834 -0.4851 -0.6965  0.7429
 5264SOL     OW27427   1.324   0.925   8.224  0.5362 -0.7223 -0.0927
 5264SOL    HW127428   1.246   0.975   8.249 -0.5243 -0.6328 -3.4772
 5264SOL    HW227429   1.295   0.836   8.245 -0.5711 -0.5155 -0.6981
 5265SOL     OW27430   1.771   0.366   1.705 -0.6554 -0.1461 -0.0753
 5265SOL    HW127431   1.729   0.448   1.733 -1.6857 -0.8879  0.5276
 5265SOL    HW227432   1.787   0.337   1.795  2.5349  1.6332 -0.0760
 5266SOL     OW27433   0.885   4.127   0.749 -0.6034  0.8479 -0.6190
 5266SOL    HW127434   0.841   4.167   0.825  1.5109  0.2640  0.9136
 5266SOL    HW227435   0.862   4.037   0.774  3.7168 -0.6147 -1.9574
 5267SOL     OW27436   2.749   0.112  15.511  0.3064  0.0191 -0.3800
 5267SOL    HW127437   2.736   0.023  15.545  0.5761  0.2608  0.3512
 5267SOL    HW227438   2.841   0.127  15.533 -0.5079  1.5235  2.0113
 5268SOL     OW27439   2.943   3.436   8.655  0.4610  0.3495  0.1234
 5268SOL    HW127440   3.026   3.459   8.614 -0.0580 -0.0254 -1.1181
 5268SOL    HW227441   2.872   3.483   8.611  0.8216  1.3543  0.6283
 5269SOL     OW27442   2.843   4.062   4.512 -0.5265 -0.2991 -0.5253
 5269SOL    HW127443   2.863   4.086   4.602  3.6235  0.7299 -1.7188
 5269SOL    HW227444   2.748   4.054   4.523 -0.5101  0.6821  0.3260
 5270SOL     OW27445   0.566   1.158   5.671 -0.5661 -0.4213 -0.7013
 5270SOL    HW127446   0.600   1.237   5.711  1.0621 -1.2586 -0.4276
 5270SOL    HW227447   0.553   1.180   5.578  3.3385  1.2450 -0.8496
 5271SOL     OW27448   4.656   1.115   7.266 -0.8789 -0.4706  0.8241
 5271SOL    HW127449   4.619   1.133   7.180  0.4388 -1.9442 -0.0408
 5271SOL    HW227450   4.581   1.071   7.307 -2.0189  0.2628 -0.5038
 5272SOL     OW27451   2.243   0.112   6.284  0.2272 -0.5544 -0.6370
 5272SOL    HW127452   2.255   0.082   6.374 -0.3819  0.0327 -0.3658
 5272SOL    HW227453   2.332   0.126   6.252  0.4960 -0.7923 -0.0006
 5273SOL     OW27454   0.131   0.223  17.698 -0.0124  0.3687 -0.4952
 5273SOL    HW127455   0.154   0.145  17.749  0.3484 -0.3120 -1.7073
 5273SOL    HW227456   0.194   0.233  17.627 -1.5749  0.0924 -1.9173
 5274SOL     OW27457   1.550   0.839   8.585  0.1056 -0.2096  0.0865
 5274SOL    HW127458   1.606   0.767   8.611  0.2442 -0.1547 -0.0602
 5274SOL    HW227459   1.591   0.856   8.500 -1.1095 -0.2281 -0.5116
 5275SOL     OW27460   1.489   3.660   6.852 -0.6819 -0.2825 -0.0390
 5275SOL    HW127461   1.465   3.752   6.859  1.0678  0.2191 -0.6579
 5275SOL    HW227462   1.475   3.640   6.760 -2.9008  1.3954 -0.0378
 5276SOL     OW27463   0.688   4.107   2.242  0.4369  0.0512  0.0746
 5276SOL    HW127464   0.603   4.080   2.208 -0.0327  1.1974  0.3248
 5276SOL    HW227465   0.714   4.018   2.265  1.3838  0.0729 -0.9221
 5277SOL     OW27466   0.933   2.397   9.926  0.0298 -0.3182  0.1567
 5277SOL    HW127467   0.909   2.327   9.988  0.6106 -0.3134  0.3814
 5277SOL    HW227468   1.027   2.412   9.917 -0.5048  2.7901 -0.1430
 5278SOL     OW27469   3.298   0.313  16.687 -0.0102 -0.1084 -0.0308
 5278SOL    HW127470   3.341   0.227  16.685 -3.0263 -1.5620 -1.0659
 5278SOL    HW227471   3.210   0.285  16.664 -2.3119  2.6638  5.4605
 5279SOL     OW27472   0.068   1.862  10.906  0.1005  0.1154  0.1167
 5279SOL    HW127473   0.064   1.877  11.001 -1.7579  0.3715 -0.0079
 5279SOL    HW227474   4.713   1.844  10.903 -0.1804  2.2572 -3.1276
 5280SOL     OW27475   1.221   4.509  10.043 -0.5830  0.5466 -0.1853
 5280SOL    HW127476   1.307   4.543  10.066 -0.9877  1.0583  0.5991
 5280SOL    HW227477   1.212   4.444  10.113 -1.7639  1.6820  0.7312
 5281SOL     OW27478   3.201   3.075   3.272 -0.3572 -0.1319  0.1621
 5281SOL    HW127479   3.223   3.128   3.348  0.1088  0.0881 -0.1276
 5281SOL    HW227480   3.259   3.000   3.288 -1.1862 -0.7511  0.2741
 5282SOL     OW27481   3.684   1.145   6.313 -0.4347 -0.2419  0.0606
 5282SOL    HW127482   3.687   1.185   6.227  0.6258 -0.2540  0.0902
 5282SOL    HW227483   3.764   1.094   6.324 -1.9161 -2.4721  0.4356
 5283SOL     OW27484   0.451   3.958   9.576  0.0397  0.3806 -0.0175
 5283SOL    HW127485   0.377   3.993   9.526 -0.9279 -1.6733 -0.0383
 5283SOL    HW227486   0.524   4.020   9.569  0.1325  0.6598  3.3815
 5284SOL     OW27487   1.054   4.419   8.156  0.3196  0.4334  0.9908
 5284SOL    HW127488   0.975   4.409   8.104  0.0688  1.0410  1.2669
 5284SOL    HW227489   1.061   4.514   8.159 -1.0594  0.5813 -0.6751
 5285SOL     OW27490   1.568   3.775   2.240  0.0276 -0.0336  0.0288
 5285SOL    HW127491   1.604   3.692   2.273 -0.7105  1.4035  4.4002
 5285SOL    HW227492   1.626   3.788   2.165 -0.5245 -1.3014 -0.6102
 5286SOL     OW27493   2.210   0.341  10.260  0.3951 -0.5077 -0.4618
 5286SOL    HW127494   2.286   0.292  10.289  0.5075 -0.1022 -0.0716
 5286SOL    HW227495   2.213   0.410  10.326 -2.2613  0.0842 -0.9548
 5287SOL     OW27496   3.224   0.013  10.990 -0.0951 -0.1612 -0.0864
 5287SOL    HW127497   3.174   0.094  10.981  2.0057  0.9257 -2.0598
 5287SOL    HW227498   3.296   0.043  11.045 -1.6238  2.8239  0.2177
 5288SOL     OW27499   1.731   1.170  14.983  0.1062 -0.4937 -0.1042
 5288SOL    HW127500   1.791   1.154  14.910 -1.2311  2.2093 -1.8086
 5288SOL    HW227501   1.706   1.078  14.991  1.5778 -1.0114 -1.3850
 5289SOL     OW27502   3.309   3.025  16.439  0.0163  0.0493  0.0466
 5289SOL    HW127503   3.383   2.967  16.458 -1.0205 -1.6168 -0.9433
 5289SOL    HW227504   3.322   3.031  16.344 -1.1419 -0.6786 -0.1561
 5290SOL     OW27505   1.708   4.607   1.420 -0.7374  0.5222  0.2851
 5290SOL    HW127506   1.715   4.671   1.349  1.0212  1.0896  0.9759
 5290SOL    HW227507   1.675   4.679   1.474 -0.9768  1.5028 -1.1762
 5291SOL     OW27508   2.197   1.512   7.229 -0.0658  0.3242 -0.4299
 5291SOL    HW127509   2.245   1.572   7.286  0.0338 -0.8617  0.7439
 5291SOL    HW227510   2.263   1.483   7.165 -0.3984 -0.0131 -0.6211
 5292SOL     OW27511   4.446   1.983   4.948  0.5150 -0.0337  0.3739
 5292SOL    HW127512   4.465   2.074   4.969  0.8511 -0.3631  1.5399
 5292SOL    HW227513   4.510   1.943   5.008  2.2992  0.9703 -0.8528
 5293SOL     OW27514   0.916   2.132   1.386  0.2192  0.1975  0.0023
 5293SOL    HW127515   0.964   2.214   1.379  0.7570 -0.1968 -0.9758
 5293SOL    HW227516   0.833   2.163   1.350 -0.4697 -2.4580 -0.7370
 5294SOL     OW27517   2.415   3.167   3.301  0.7980 -0.1732 -0.9293
 5294SOL    HW127518   2.413   3.072   3.296  1.3863 -0.2348  0.1136
 5294SOL    HW227519   2.344   3.191   3.241 -1.8353  2.5622  3.2846
 5295SOL     OW27520   2.866   4.369   8.833  0.5058 -0.3505 -0.5902
 5295SOL    HW127521   2.890   4.406   8.918  2.8462  0.4081 -1.6007
 5295SOL    HW227522   2.821   4.444   8.793  0.1637  0.2353  0.9016
 5296SOL     OW27523   2.387   3.558   3.919 -0.5322 -0.2920  0.2759
 5296SOL    HW127524   2.395   3.652   3.904 -2.1761  0.0502  1.5170
 5296SOL    HW227525   2.316   3.540   3.858 -0.1014  2.8029 -1.1191
 5297SOL     OW27526   0.673   1.086   8.412  0.3381 -0.1246 -0.7815
 5297SOL    HW127527   0.647   1.015   8.354  0.2421 -1.0781  0.4349
 5297SOL    HW227528   0.706   1.045   8.492 -0.8046  3.2060  1.4164
 5298SOL     OW27529   0.821   1.243   3.237  0.1690  0.0166 -0.7113
 5298SOL    HW127530   0.874   1.321   3.258 -1.8017  1.2785 -0.3862
 5298SOL    HW227531   0.752   1.247   3.304  1.1712 -2.6104  0.4781
 5299SOL     OW27532   1.357   2.206   8.506 -0.6174  0.3046  0.4992
 5299SOL    HW127533   1.412   2.160   8.569 -1.2949  1.6810  2.0846
 5299SOL    HW227534   1.382   2.291   8.542 -2.1239  1.8311 -2.0268
 5300SOL     OW27535   1.283   0.754   5.568  0.8142  0.0891  0.7134
 5300SOL    HW127536   1.331   0.835   5.554 -0.1241  0.7455  1.3278
 5300SOL    HW227537   1.278   0.721   5.478 -2.5902  1.4252  0.3938
 5301SOL     OW27538   2.737   4.510   8.300  0.0420  0.5454 -0.0273
 5301SOL    HW127539   2.715   4.434   8.245  0.3558  0.1883  0.3402
 5301SOL    HW227540   2.775   4.467   8.376 -0.5244 -0.9118 -0.5614
 5302SOL     OW27541   1.296   3.818   3.595 -1.0337  0.0149 -0.2242
 5302SOL    HW127542   1.294   3.880   3.522 -0.8220 -0.5127 -0.6680
 5302SOL    HW227543   1.257   3.741   3.554 -1.3093  1.0928 -1.9819
 5303SOL     OW27544   2.009   1.155  17.738 -0.0414 -0.1647  0.5240
 5303SOL    HW127545   1.966   1.105   0.053 -1.5807  0.2455 -0.1431
 5303SOL    HW227546   2.083   1.097  17.722  0.7535  0.1184  3.1397
 5304SOL     OW27547   3.417   1.312  10.138  0.1024  0.1128 -0.1032
 5304SOL    HW127548   3.463   1.333  10.219 -1.4447  0.6296  0.6484
 5304SOL    HW227549   3.330   1.332  10.173 -0.0073 -0.6846  0.0925
 5305SOL     OW27550   0.709   1.844   3.239  0.0640 -0.0644 -0.2132
 5305SOL    HW127551   0.801   1.836   3.215  0.2448  0.9325  0.1705
 5305SOL    HW227552   0.677   1.887   3.160 -2.3454 -2.8141 -0.7166
 5306SOL     OW27553   2.510   1.889   7.130 -0.3277  0.1336 -1.0050
 5306SOL    HW127554   2.415   1.891   7.127 -0.3970  0.8492  1.4250
 5306SOL    HW227555   2.522   1.918   7.221 -2.4541  0.5777 -0.8757
 5307SOL     OW27556   1.548   4.493   3.366 -0.0997  0.0676  0.1750
 5307SOL    HW127557   1.607   4.539   3.306 -0.8844 -0.1165 -0.7381
 5307SOL    HW227558   1.569   4.404   3.339  0.6740  0.6856 -1.2333
 5308SOL     OW27559   2.283   2.668  13.145 -0.2826 -0.3050  0.4404
 5308SOL    HW127560   2.320   2.589  13.183 -0.4581 -0.6232 -0.0431
 5308SOL    HW227561   2.290   2.726  13.221  0.2386 -0.9287  0.8589
 5309SOL     OW27562   4.165   0.452   6.494  0.1706 -0.0653  0.1589
 5309SOL    HW127563   4.153   0.513   6.422  0.0340  1.5166  1.5319
 5309SOL    HW227564   4.147   0.499   6.575 -0.9383 -0.9687  0.4272
 5310SOL     OW27565   2.473   3.034   5.138 -0.2914  0.3181  0.3411
 5310SOL    HW127566   2.446   3.065   5.225  1.1781 -1.3568  1.3706
 5310SOL    HW227567   2.409   3.083   5.086  1.1038 -0.3743 -2.0223
 5311SOL     OW27568   4.494   1.274   4.832  0.1679  0.0955  0.2368
 5311SOL    HW127569   4.433   1.346   4.815 -1.1782 -0.7393  1.4753
 5311SOL    HW227570   4.432   1.201   4.832  0.3830 -0.0894 -0.6200
 5312SOL     OW27571   3.768   3.670   7.167 -0.2674  0.4938  0.2141
 5312SOL    HW127572   3.842   3.716   7.128  0.2444 -1.3767 -1.0100
 5312SOL    HW227573   3.771   3.721   7.248  2.8870 -0.8811  0.9751
 5313SOL     OW27574   1.617   4.628   1.012 -0.2060  0.4132  0.0675
 5313SOL    HW127575   1.682   4.590   0.953 -0.6609 -0.5885  0.2149
 5313SOL    HW227576   1.653   4.605   1.098  0.6706  0.0596 -0.3891
 5314SOL     OW27577   0.940   2.695  16.047 -0.4984  0.1529 -0.3483
 5314SOL    HW127578   0.864   2.660  16.001 -2.4024  3.6059  0.2124
 5314SOL    HW227579   0.920   2.676  16.139 -0.6420  1.8213 -0.0508
 5315SOL     OW27580   2.120   0.978   7.244  0.3283  0.6334  0.1432
 5315SOL    HW127581   2.189   0.915   7.222 -1.7611 -0.8178 -2.2702
 5315SOL    HW227582   2.168   1.048   7.288 -0.3639  0.3191  1.4222
 5316SOL     OW27583   2.806   0.884   7.825  0.2177  0.3888  0.0639
 5316SOL    HW127584   2.771   0.966   7.857 -0.5409 -0.5445  1.6168
 5316SOL    HW227585   2.771   0.821   7.888  1.7186  0.8895  1.3795
 5317SOL     OW27586   2.192   0.626   4.329 -0.0507  0.3667 -0.3535
 5317SOL    HW127587   2.177   0.714   4.365 -0.7917  0.6575 -1.3831
 5317SOL    HW227588   2.164   0.565   4.398  0.5489  3.2754  2.4889
 5318SOL     OW27589   3.456   3.031  12.559 -0.1118 -0.3247  0.0999
 5318SOL    HW127590   3.485   3.029  12.467  1.8163  1.1136  0.6887
 5318SOL    HW227591   3.529   3.074  12.602 -1.9073  2.5142  0.3036
 5319SOL     OW27592   4.496   3.375   0.173 -0.0189  0.6816 -0.0765
 5319SOL    HW127593   4.503   3.327   0.255 -0.3133 -2.0920 -1.6604
 5319SOL    HW227594   4.403   3.389   0.157  0.3012  1.1602 -1.5910
 5320SOL     OW27595   3.822   2.838  13.148 -0.4287  0.6562 -0.1241
 5320SOL    HW127596   3.756   2.777  13.181 -1.6164  2.2479  0.4744
 5320SOL    HW227597   3.862   2.783  13.081 -0.5919  0.4829 -0.0795
 5321SOL     OW27598   3.168   1.049   2.479 -0.2623  0.0251 -0.0551
 5321SOL    HW127599   3.158   0.973   2.421 -0.7779  0.7308 -0.8993
 5321SOL    HW227600   3.261   1.065   2.492 -0.9655  3.4705  0.6187
 5322SOL     OW27601   0.504   1.659   7.556 -0.4679  0.7264  0.5621
 5322SOL    HW127602   0.445   1.735   7.544 -0.0976  0.8906 -0.2332
 5322SOL    HW227603   0.560   1.685   7.629 -0.4515  0.1838  0.7370
 5323SOL     OW27604   2.091   0.946   5.811 -0.0470 -0.3476 -0.0104
 5323SOL    HW127605   2.112   0.867   5.762  1.1654  0.1192 -0.2535
 5323SOL    HW227606   2.015   0.916   5.862  1.2908 -2.2598  0.8485
 5324SOL     OW27607   2.589   2.090   2.710 -0.2580  0.1611  0.2105
 5324SOL    HW127608   2.585   2.129   2.797  1.8973  0.6809  0.0792
 5324SOL    HW227609   2.545   2.165   2.670 -0.6204  0.6358  1.5110
 5325SOL     OW27610   3.719   2.943  16.134  0.9159  0.3011  0.2520
 5325SOL    HW127611   3.776   3.005  16.088 -1.2126  1.7097 -0.4842
 5325SOL    HW227612   3.760   2.948  16.220 -0.7374  2.0112  0.9519
 5326SOL     OW27613   4.367   0.261   7.317  0.3471  0.1053  0.3026
 5326SOL    HW127614   4.295   0.306   7.361  0.9622  1.6282 -0.2706
 5326SOL    HW227615   4.449   0.290   7.355  1.6163  0.1691 -2.5161
 5327SOL     OW27616   4.346   1.592   6.928  0.1892 -0.7836 -0.2574
 5327SOL    HW127617   4.267   1.643   6.946  2.1008  1.5041  1.6722
 5327SOL    HW227618   4.313   1.503   6.919  0.2995 -0.8318 -0.1803
 5328SOL     OW27619   0.077   2.987  16.346 -0.4739 -0.4342 -0.1639
 5328SOL    HW127620   0.077   3.021  16.257  3.3962 -0.5348 -0.1898
 5328SOL    HW227621   0.017   2.914  16.329 -0.7939 -0.8656  2.8201
 5329SOL     OW27622   1.174   0.037   9.495  0.5394  0.3533  0.0307
 5329SOL    HW127623   1.266   0.037   9.469  0.3852  0.7971 -0.5385
 5329SOL    HW227624   1.155   4.683   9.501  0.8356  0.1041 -2.9179
 5330SOL     OW27625   0.120   1.996   3.038 -0.1657  0.4322  0.1305
 5330SOL    HW127626   0.043   2.025   2.990 -0.6590 -1.1428 -0.0566
 5330SOL    HW227627   0.100   1.905   3.062 -0.6926  0.2824 -0.8511
 5331SOL     OW27628   4.174   1.516  13.009  0.1828 -0.0207  0.1009
 5331SOL    HW127629   4.253   1.543  12.962 -0.9786  1.2803 -1.1265
 5331SOL    HW227630   4.134   1.465  12.939 -0.9368 -0.5615  1.1362
 5332SOL     OW27631   2.132   1.418   8.471  0.6009  0.2693  0.2536
 5332SOL    HW127632   2.104   1.476   8.542  1.1974  1.4012 -0.4466
 5332SOL    HW227633   2.132   1.481   8.400 -0.4641  0.1265  0.1212
 5333SOL     OW27634   1.190   0.176   1.183  0.5041 -0.6245  0.0600
 5333SOL    HW127635   1.100   0.182   1.150  0.3116  0.2247  0.7361
 5333SOL    HW227636   1.243   0.186   1.104 -0.2607 -2.3867 -0.6815
 5334SOL     OW27637   0.175   4.623   8.383  0.4891 -0.3114 -0.7038
 5334SOL    HW127638   0.237   4.596   8.451 -0.1031 -0.9314 -0.4073
 5334SOL    HW227639   0.237   4.667   8.325  0.1177  2.2344  0.7983
 5335SOL     OW27640   4.019   3.856   3.673 -0.4642 -0.2281  0.2630
 5335SOL    HW127641   4.029   3.838   3.766  1.1453 -0.4730  0.0343
 5335SOL    HW227642   3.991   3.772   3.637 -0.9641  0.2722 -0.5227
 5336SOL     OW27643   4.238   2.630   2.618 -0.7462 -0.4389 -0.0569
 5336SOL    HW127644   4.213   2.703   2.561  0.5642  1.1170  1.3638
 5336SOL    HW227645   4.287   2.562   2.571  1.2360  0.0407  1.3273
 5337SOL     OW27646   0.979   1.413  10.428  0.8529 -0.4787  0.2051
 5337SOL    HW127647   0.931   1.470  10.488  0.7400 -2.7905  2.3082
 5337SOL    HW227648   1.024   1.357  10.491  1.7855 -1.8326 -1.6722
 5338SOL     OW27649   1.281   0.393   6.117  0.1115 -0.0102 -0.0274
 5338SOL    HW127650   1.305   0.306   6.084 -1.0952 -0.6459  0.7956
 5338SOL    HW227651   1.212   0.419   6.056  0.5458 -1.1956 -1.0294
 5339SOL     OW27652   4.068   2.274   6.912 -0.4569  0.1152 -0.3957
 5339SOL    HW127653   4.126   2.348   6.898 -2.7168  1.8759 -0.3777
 5339SOL    HW227654   4.128   2.213   6.955 -0.5994 -0.7003 -1.3427
 5340SOL     OW27655   2.206   2.463   6.649 -0.0894 -0.5459 -0.4147
 5340SOL    HW127656   2.198   2.550   6.611  2.5300 -1.5000 -3.1854
 5340SOL    HW227657   2.153   2.414   6.586 -1.6610  0.5608  0.0644
 5341SOL     OW27658   4.474   0.658   6.461  0.7269  0.1954  0.4836
 5341SOL    HW127659   4.452   0.635   6.371  0.8384 -0.5342  0.6430
 5341SOL    HW227660   4.557   0.612   6.471  1.2722  0.9427 -0.5866
 5342SOL     OW27661   1.591   0.780   3.671  0.5792  0.2246 -0.1923
 5342SOL    HW127662   1.512   0.731   3.650  0.8774 -0.6708  0.7468
 5342SOL    HW227663   1.579   0.782   3.766 -0.0774  0.9376 -0.2920
 5343SOL     OW27664   0.772   3.805   7.409  0.1989  0.3143  0.3166
 5343SOL    HW127665   0.705   3.737   7.409  0.7428 -0.2123 -0.4091
 5343SOL    HW227666   0.774   3.836   7.500 -2.9712 -1.6309  1.0487
 5344SOL     OW27667   1.865   3.883  11.060 -0.0251 -0.2547  0.4549
 5344SOL    HW127668   1.866   3.852  10.969  0.6747 -0.5448  0.5614
 5344SOL    HW227669   1.848   3.798  11.102  1.0794 -1.1663 -0.9336
 5345SOL     OW27670   2.213   0.446   3.629 -0.9373 -0.1809 -0.3526
 5345SOL    HW127671   2.241   0.355   3.634  2.6523  0.9276 -0.6264
 5345SOL    HW227672   2.209   0.459   3.534 -2.0860  3.4799  0.1586
 5346SOL     OW27673   4.371   2.037   6.787 -0.6742  0.1520  0.1201
 5346SOL    HW127674   4.366   1.949   6.748 -1.2084 -0.4017  1.4341
 5346SOL    HW227675   4.431   2.083   6.729 -0.2353 -1.9495 -1.1074
 5347SOL     OW27676   1.342   0.003  17.676 -0.1187  0.0702 -0.2077
 5347SOL    HW127677   1.256   4.704  17.689  0.6846 -1.6586  0.0613
 5347SOL    HW227678   1.390   4.711  17.753 -0.0581 -2.2374 -1.1811
 5348SOL     OW27679   0.474   2.333   2.287 -0.0517  0.2812 -0.2237
 5348SOL    HW127680   0.408   2.378   2.236 -0.7202 -1.8929 -1.2719
 5348SOL    HW227681   0.437   2.347   2.374  1.1889  3.2550 -0.1863
 5349SOL     OW27682   3.709   1.718   0.766  0.6966 -0.2168  0.2887
 5349SOL    HW127683   3.662   1.698   0.847 -0.8744  2.1814 -0.0494
 5349SOL    HW227684   3.640   1.762   0.717 -0.3239 -1.1202  0.9017
 5350SOL     OW27685   1.858   0.041   6.100 -0.1729 -0.2510 -0.0533
 5350SOL    HW127686   1.858   4.716   6.029 -1.7821  0.3319 -0.5720
 5350SOL    HW227687   1.804   0.108   6.059  1.7073 -0.1263 -2.3195
 5351SOL     OW27688   2.939   2.566   8.927 -0.4061 -0.6268 -0.6257
 5351SOL    HW127689   2.993   2.531   8.856  1.7337 -0.9112  1.1286
 5351SOL    HW227690   2.868   2.606   8.878 -0.4714 -4.0090 -3.2874
 5352SOL     OW27691   1.862   1.789   9.149  0.0847  0.2278 -0.3018
 5352SOL    HW127692   1.795   1.778   9.081  1.8164 -2.3857 -1.5614
 5352SOL    HW227693   1.806   1.756   9.220 -0.2783  0.7889 -0.3342
 5353SOL     OW27694   2.087   1.443   4.080  0.4250 -0.0359 -0.2040
 5353SOL    HW127695   2.152   1.409   4.140  0.3419  1.8224  0.9504
 5353SOL    HW227696   2.125   1.419   3.995 -0.6664 -1.9299 -0.1664
 5354SOL     OW27697   1.523   4.217  11.650  0.1642 -0.7183 -0.3254
 5354SOL    HW127698   1.482   4.162  11.717  0.8977  0.8326  1.3765
 5354SOL    HW227699   1.513   4.166  11.569  0.6072 -0.6404 -0.4311
 5355SOL     OW27700   0.417   2.813  12.202 -0.2765 -0.4484  0.7856
 5355SOL    HW127701   0.510   2.824  12.183 -1.1441  0.6720 -2.8342
 5355SOL    HW227702   0.415   2.720  12.221 -0.4960 -0.3147  1.4254
 5356SOL     OW27703   0.423   4.152   7.539 -0.0377 -0.0059  0.5721
 5356SOL    HW127704   0.388   4.100   7.612 -2.1960 -2.5496 -2.2549
 5356SOL    HW227705   0.427   4.080   7.475  1.5681 -1.7292  2.5962
 5357SOL     OW27706   1.241   0.538   2.536  0.4916 -0.1751 -0.1583
 5357SOL    HW127707   1.213   0.462   2.485 -0.2930  0.4798 -0.6916
 5357SOL    HW227708   1.311   0.507   2.594 -0.5503 -0.7088  0.8206
 5358SOL     OW27709   1.518   3.399   7.075 -0.7286  0.0391  0.3740
 5358SOL    HW127710   1.550   3.447   7.151  1.3750 -1.0866  0.2131
 5358SOL    HW227711   1.593   3.340   7.068 -0.2886  0.9188 -2.1661
 5359SOL     OW27712   3.861   2.943   9.884 -0.0328 -0.3145  0.2062
 5359SOL    HW127713   3.794   2.993   9.837  0.2975 -1.9587 -2.0342
 5359SOL    HW227714   3.804   2.879   9.926  0.6903 -0.7104  0.5848
 5360SOL     OW27715   1.026   3.864   5.203 -0.1180 -0.0874  0.6200
 5360SOL    HW127716   0.943   3.890   5.242 -0.9882 -0.4309 -1.0061
 5360SOL    HW227717   1.003   3.796   5.139  0.1162  1.5270 -1.1977
 5361SOL     OW27718   2.040   3.210   4.715  0.1959  0.1023 -0.3971
 5361SOL    HW127719   2.077   3.297   4.732 -0.6085  0.3402  0.1679
 5361SOL    HW227720   2.077   3.191   4.629 -1.1555 -2.5078 -0.3983
 5362SOL     OW27721   0.917   4.464   5.144  0.6241  0.2618 -0.3120
 5362SOL    HW127722   0.940   4.393   5.084  0.5487 -0.0550  0.0316
 5362SOL    HW227723   0.993   4.466   5.203  1.7954  1.5916 -1.8740
 5363SOL     OW27724   2.058   4.000   7.742  0.1876  0.5933  0.1953
 5363SOL    HW127725   1.985   4.016   7.682  2.9321 -0.3378 -3.3673
 5363SOL    HW227726   2.106   3.933   7.693  2.4462 -0.7986  4.2734
 5364SOL     OW27727   4.543   4.621  12.811  0.0823  0.5526  0.1883
 5364SOL    HW127728   4.474   4.576  12.763 -1.1818  0.6544  1.8986
 5364SOL    HW227729   4.620   4.575  12.779 -1.2752  0.3297 -2.6738
 5365SOL     OW27730   0.488   1.313   3.078  0.6443 -0.4524 -0.1284
 5365SOL    HW127731   0.505   1.380   3.012  2.2660 -2.0798 -1.3736
 5365SOL    HW227732   0.493   1.377   3.149 -2.0024 -1.5899  1.0891
 5366SOL     OW27733   2.050   2.347   9.324 -1.0019  0.7212  0.0878
 5366SOL    HW127734   2.004   2.415   9.374 -0.1297  0.1886  1.6186
 5366SOL    HW227735   1.982   2.279   9.324  0.9057 -1.2103  0.4719
 5367SOL     OW27736   0.865   1.875   7.403 -0.2453 -0.1649  0.2254
 5367SOL    HW127737   0.858   1.899   7.311 -3.4750  3.9638  1.5788
 5367SOL    HW227738   0.810   1.796   7.407  0.9250 -0.9356  1.2189
 5368SOL     OW27739   3.211   4.622   2.177 -0.5884  0.4726 -0.2985
 5368SOL    HW127740   3.131   4.657   2.137 -2.7575 -0.8727  2.8741
 5368SOL    HW227741   3.272   4.691   2.153  2.3526 -1.0537  2.7820
 5369SOL     OW27742   0.673   2.949   4.748  0.2150  0.0663 -0.0975
 5369SOL    HW127743   0.601   2.888   4.732  0.3075  0.0217 -0.3424
 5369SOL    HW227744   0.670   2.946   4.844 -1.3058 -1.5032 -0.1929
 5370SOL     OW27745   1.729   0.481  16.665 -0.1234 -0.6285  0.0008
 5370SOL    HW127746   1.655   0.421  16.658  0.8946 -1.9065  0.2158
 5370SOL    HW227747   1.708   0.542  16.736  1.2455 -0.0469 -0.0996
 5371SOL     OW27748   0.214   4.375   0.014 -0.1429  0.0940  0.1651
 5371SOL    HW127749   0.146   4.336   0.069 -0.3444 -1.0001 -0.8565
 5371SOL    HW227750   0.190   4.347  17.679  1.4480  0.7435 -0.4790
 5372SOL     OW27751   1.953   1.756   4.406 -0.0612  0.1752  0.4390
 5372SOL    HW127752   1.957   1.797   4.320 -0.6152 -2.3386 -0.7925
 5372SOL    HW227753   2.023   1.690   4.406 -0.3938 -0.1766 -2.1327
 5373SOL     OW27754   0.786   2.377   8.729  0.4437 -0.2610  0.4080
 5373SOL    HW127755   0.860   2.318   8.715 -0.2328 -1.0648  0.2083
 5373SOL    HW227756   0.789   2.439   8.657 -0.6460 -1.0319 -0.2946
 5374SOL     OW27757   1.535   1.425   4.155 -0.2252 -0.2472  0.0982
 5374SOL    HW127758   1.590   1.490   4.199 -0.7393  1.8739 -2.3949
 5374SOL    HW227759   1.589   1.348   4.175 -1.5702 -1.4939 -1.0610
 5375SOL     OW27760   3.098   4.211  12.030 -0.5723 -0.2959  0.2397
 5375SOL    HW127761   3.060   4.186  12.115 -1.0360  1.5966  0.5985
 5375SOL    HW227762   3.153   4.133  12.021 -1.7837 -1.1687  0.4397
 5376SOL     OW27763   4.667   0.030   3.080  0.1144 -0.2336 -0.5601
 5376SOL    HW127764   4.690   4.676   3.087 -1.3775 -0.5064  1.0057
 5376SOL    HW227765   4.723   0.074   3.144  0.8050 -1.6781 -0.1512
 5377SOL     OW27766   0.108   2.188   6.696 -0.3339  0.5108  0.3388
 5377SOL    HW127767   0.139   2.114   6.644  1.7019  0.5647  1.4842
 5377SOL    HW227768   0.119   2.264   6.638  0.8505 -0.1234 -0.2588
 5378SOL     OW27769   4.408   3.833   1.998  0.1031 -0.3263 -0.2812
 5378SOL    HW127770   4.410   3.873   2.086  0.0804  1.5555 -1.1318
 5378SOL    HW227771   4.411   3.740   2.019  0.3835 -0.2498  0.0325
 5379SOL     OW27772   0.361   1.428   7.614  0.5895 -0.2331  0.2072
 5379SOL    HW127773   0.410   1.506   7.587 -3.6517  3.0742  2.0356
 5379SOL    HW227774   0.277   1.474   7.624 -0.2644 -1.4348 -1.4818
 5380SOL     OW27775   4.195   3.809   8.758 -0.0826 -0.4646  0.5913
 5380SOL    HW127776   4.255   3.775   8.692  0.3405  1.1917  0.1117
 5380SOL    HW227777   4.245   3.887   8.781  0.2535 -0.2833 -0.7573
 5381SOL     OW27778   4.642   2.357   1.621 -0.1273 -0.1493 -0.1352
 5381SOL    HW127779   4.589   2.307   1.559  0.7473 -1.8923  0.5354
 5381SOL    HW227780   4.673   2.303   1.694  1.4052  1.5680  0.4994
 5382SOL     OW27781   4.612   4.575  17.040  0.0342  0.1170 -0.2987
 5382SOL    HW127782   4.698   4.564  17.081 -0.5356  0.4715  0.9927
 5382SOL    HW227783   4.638   4.658  17.000  1.7980 -1.1877 -1.8704
 5383SOL     OW27784   3.518   2.874   7.997 -0.4818  0.5456 -0.2167
 5383SOL    HW127785   3.599   2.848   8.041  0.2472  0.4042 -1.6375
 5383SOL    HW227786   3.489   2.944   8.056 -1.1687  1.9571 -2.2315
 5384SOL     OW27787   3.862   4.121   7.526  0.3363 -0.1649  0.1288
 5384SOL    HW127788   3.872   4.104   7.619  1.2694  1.4156  0.3104
 5384SOL    HW227789   3.880   4.036   7.485  2.3068  0.6936 -0.8043
 5385SOL     OW27790   4.125   4.595   0.334  0.8457  0.1166  0.2515
 5385SOL    HW127791   4.221   4.598   0.331  0.9313 -1.7073  1.2677
 5385SOL    HW227792   4.114   4.517   0.281  2.7636 -1.4342  2.1318
 5386SOL     OW27793   3.610   2.507   5.960 -0.5917  0.8601  0.3198
 5386SOL    HW127794   3.564   2.427   5.933  0.1332  0.6389 -0.2805
 5386SOL    HW227795   3.557   2.576   5.920 -0.5360  2.6970  3.4655
 5387SOL     OW27796   2.570   2.866   0.327  0.3274 -0.3342  0.5810
 5387SOL    HW127797   2.555   2.815   0.247 -1.4205 -0.2683  0.8848
 5387SOL    HW227798   2.521   2.942   0.295 -1.8685 -2.3473 -0.8031
 5388SOL     OW27799   0.799   2.415   5.349  0.5775  0.3722  1.1780
 5388SOL    HW127800   0.879   2.382   5.308 -0.2641  1.3197 -1.2470
 5388SOL    HW227801   0.787   2.493   5.294 -0.7141 -0.3694  0.4179
 5389SOL     OW27802   0.811   0.326  16.539 -0.1997  0.3704 -0.0064
 5389SOL    HW127803   0.871   0.348  16.468 -1.8656  1.0701 -1.2061
 5389SOL    HW227804   0.757   0.272  16.481  1.1132 -1.9366  0.9559
 5390SOL     OW27805   3.467   1.919   9.685 -0.4051  0.0248  0.2059
 5390SOL    HW127806   3.480   1.947   9.595  0.1523  0.0823  0.3061
 5390SOL    HW227807   3.554   1.888   9.710 -1.1869 -2.0388  0.3472
 5391SOL     OW27808   2.053   0.066   3.088 -0.1461  0.1250 -0.3044
 5391SOL    HW127809   2.049   4.732   3.026  1.0678 -0.3636  0.1914
 5391SOL    HW227810   2.024   0.138   3.032  0.7874  0.8510  0.1484
 5392SOL     OW27811   3.926   1.399  15.964 -0.3476  0.7557 -0.3384
 5392SOL    HW127812   3.839   1.364  15.983 -0.3936  0.0457 -1.8003
 5392SOL    HW227813   3.904   1.432  15.876  0.0018  0.4525 -0.5399
 5393SOL     OW27814   3.904   1.200   6.608 -0.2907 -1.0180  0.3884
 5393SOL    HW127815   3.930   1.126   6.553  1.9892 -1.6349  2.2886
 5393SOL    HW227816   3.840   1.250   6.557  0.4232 -0.3567  0.1253
 5394SOL     OW27817   0.222   3.186  13.987 -0.3789 -0.2102 -0.4758
 5394SOL    HW127818   0.280   3.261  13.975 -0.9832  0.5659  1.5034
 5394SOL    HW227819   0.133   3.219  13.982  0.1839  1.2841 -0.4970
 5395SOL     OW27820   0.047   0.833  15.499 -0.2570 -0.0610  0.0956
 5395SOL    HW127821   0.077   0.819  15.409  2.9354  0.3744  1.0984
 5395SOL    HW227822   4.724   0.762  15.513  0.6080 -1.1582 -1.7204
 5396SOL     OW27823   2.139   1.590   6.213  0.2458 -0.4687  0.5219
 5396SOL    HW127824   2.170   1.594   6.304 -1.4659 -0.5578  1.1063
 5396SOL    HW227825   2.047   1.615   6.218  0.2955  0.2969 -2.9890
 5397SOL     OW27826   0.707   4.734   4.374 -0.5572 -0.1244 -0.0254
 5397SOL    HW127827   0.785   4.729   4.319 -1.2741 -2.4870 -0.8581
 5397SOL    HW227828   0.747   4.694   4.451  0.1474 -2.5615 -1.6757
 5398SOL     OW27829   0.524   0.398   4.023  0.4229 -0.4712 -0.2242
 5398SOL    HW127830   0.583   0.417   3.950  0.1615  2.4151  0.3141
 5398SOL    HW227831   0.483   0.313   4.009 -1.0663 -0.1766  2.2263
 5399SOL     OW27832   0.679   0.335   3.301  0.1821 -0.5223  0.2223
 5399SOL    HW127833   0.696   0.241   3.309  1.5459 -0.3562 -0.7010
 5399SOL    HW227834   0.641   0.347   3.388  1.2622  5.9987 -0.2369
 5400SOL     OW27835   2.619   1.910   1.913  0.1400  0.0787 -0.2337
 5400SOL    HW127836   2.591   1.819   1.909  1.0863 -0.2356  0.3097
 5400SOL    HW227837   2.712   1.891   1.928  0.2451  2.4639  2.0893
 5401SOL     OW27838   1.160   3.612   3.485 -0.2550 -0.2250 -0.3191
 5401SOL    HW127839   1.066   3.594   3.481  0.1108 -1.5561 -3.1279
 5401SOL    HW227840   1.181   3.552   3.556 -3.3492 -0.7841  0.1349
 5402SOL     OW27841   3.810   1.284  14.769 -0.4377 -0.1344 -0.0719
 5402SOL    HW127842   3.834   1.376  14.780  2.4321 -0.7168 -1.4786
 5402SOL    HW227843   3.883   1.257  14.826 -1.9430 -0.3318  1.7622
 5403SOL     OW27844   4.701   1.598   3.221  0.1532 -0.0357 -0.4628
 5403SOL    HW127845   4.631   1.656   3.252  0.3584  0.3049 -0.6414
 5403SOL    HW227846   4.655   1.529   3.173 -1.4348  0.5051  0.2838
 5404SOL     OW27847   2.446   3.260   6.113  0.1762 -0.9897  0.5662
 5404SOL    HW127848   2.498   3.185   6.085  1.6761  0.0757  0.5003
 5404SOL    HW227849   2.367   3.207   6.120 -1.2990  0.8560 -2.2067
 5405SOL     OW27850   2.546   0.626  16.680  0.0711 -0.3489  0.6495
 5405SOL    HW127851   2.575   0.639  16.589  1.3206 -0.9328  0.9730
 5405SOL    HW227852   2.575   0.710  16.716 -1.2094  0.3609  0.0347
 5406SOL     OW27853   0.506   0.081  15.578  1.0662 -0.2717  0.3021
 5406SOL    HW127854   0.455   0.162  15.574  0.6842 -0.5459 -0.4681
 5406SOL    HW227855   0.515   0.055  15.486 -1.1143 -2.6963  0.7859
 5407SOL     OW27856   1.234   1.858   5.310 -0.8123  0.2764 -0.4671
 5407SOL    HW127857   1.252   1.950   5.290  0.2838 -0.1502 -1.4658
 5407SOL    HW227858   1.179   1.866   5.387 -0.5476 -2.5869  0.0302
 5408SOL     OW27859   1.046   2.738   3.994  0.3540  0.5273 -0.2547
 5408SOL    HW127860   1.035   2.646   3.970 -1.3486  0.4657  0.7803
 5408SOL    HW227861   1.001   2.726   4.078  0.6902  0.0380 -0.1408
 5409SOL     OW27862   2.852   4.727  17.010 -0.5096  0.4269 -0.2707
 5409SOL    HW127863   2.904   0.017  17.085  0.7645 -0.8147 -0.6902
 5409SOL    HW227864   2.908   4.662  16.967 -2.0826  0.0599 -1.7848
 5410SOL     OW27865   2.054   1.288  12.231 -0.3332  0.0869  0.6838
 5410SOL    HW127866   2.112   1.273  12.156 -1.3977  0.8011 -0.2953
 5410SOL    HW227867   1.992   1.353  12.196  1.0290  1.7829  1.3902
 5411SOL     OW27868   0.906   4.527   0.192 -0.2833  0.3253 -0.1057
 5411SOL    HW127869   0.828   4.476   0.169 -0.4452  0.7302 -0.4736
 5411SOL    HW227870   0.968   4.462   0.223  2.1235  1.5094 -2.4851
 5412SOL     OW27871   3.831   2.588   2.664  0.3291 -0.5213  0.2398
 5412SOL    HW127872   3.747   2.633   2.668  0.2536 -0.6958  0.6352
 5412SOL    HW227873   3.820   2.551   2.577  1.7549  1.0994 -0.6423
 5413SOL     OW27874   2.203   2.059  17.273 -0.2620 -0.2942 -0.0458
 5413SOL    HW127875   2.171   2.149  17.276 -0.2993 -0.3129  0.0996
 5413SOL    HW227876   2.297   2.067  17.254 -0.3530  2.3557  0.6463
 5414SOL     OW27877   2.548   3.434   5.398  0.3008 -0.6722 -0.5513
 5414SOL    HW127878   2.527   3.343   5.378 -0.1334 -0.6262 -0.3025
 5414SOL    HW227879   2.600   3.453   5.319  2.1181 -2.9914  0.0852
 5415SOL     OW27880   2.275   0.861   7.693  0.6221  0.1304  0.4001
 5415SOL    HW127881   2.353   0.823   7.652  0.7408  2.1745 -1.2537
 5415SOL    HW227882   2.310   0.942   7.728  1.8471 -0.1873 -0.0915
 5416SOL     OW27883   2.112   1.780  17.070  0.1441 -0.1005 -0.1216
 5416SOL    HW127884   2.072   1.749  16.988  1.0773 -2.9725  0.4917
 5416SOL    HW227885   2.040   1.769  17.133  0.3454  1.3637  0.3528
 5417SOL     OW27886   2.675   3.933   6.669 -0.2609  0.6341 -0.7556
 5417SOL    HW127887   2.735   3.968   6.603  1.4026  1.4110  1.1866
 5417SOL    HW227888   2.625   4.012   6.688 -3.5266 -1.4837 -0.4653
 5418SOL     OW27889   0.216   3.351   0.426  0.3067  0.0247  0.6545
 5418SOL    HW127890   0.141   3.342   0.485  2.1931 -0.1746  3.0333
 5418SOL    HW227891   0.176   3.409   0.361  1.5776  1.5504  1.2177
 5419SOL     OW27892   1.808   0.490   8.090 -0.0773 -0.0762  0.3257
 5419SOL    HW127893   1.875   0.425   8.069  2.1045  3.0170 -2.4111
 5419SOL    HW227894   1.726   0.442   8.095 -0.3766  0.3683 -0.2463
 5420SOL     OW27895   2.825   1.142   9.725  0.2519 -0.3831  0.1710
 5420SOL    HW127896   2.836   1.237   9.717  2.9603 -0.7758 -0.7347
 5420SOL    HW227897   2.754   1.137   9.789  0.3142  2.6142  0.4888
 5421SOL     OW27898   1.693   3.777   4.230  0.2147  0.2373  0.0089
 5421SOL    HW127899   1.760   3.747   4.168  1.7112 -0.2582  1.8756
 5421SOL    HW227900   1.618   3.784   4.171  0.6503 -3.3978 -0.9735
 5422SOL     OW27901   1.545   0.777   1.589  0.3945  0.5455  0.4528
 5422SOL    HW127902   1.532   0.863   1.630  0.1563 -0.2626  2.0399
 5422SOL    HW227903   1.498   0.792   1.507 -1.1905 -0.5148  1.1864
 5423SOL     OW27904   1.861   4.453   2.092 -0.9315  0.6691 -0.2373
 5423SOL    HW127905   1.874   4.546   2.112 -1.4132  0.3614  1.4651
 5423SOL    HW227906   1.921   4.412   2.154 -0.1955  1.4664 -0.4169
 5424SOL     OW27907   2.942   0.574   5.659 -0.5141 -0.3172  0.5298
 5424SOL    HW127908   3.029   0.613   5.653 -0.2210 -0.8905  1.0540
 5424SOL    HW227909   2.884   0.646   5.685  1.3292  1.2482  0.3525
 5425SOL     OW27910   0.611   3.599   2.807 -0.1040  0.3657 -0.7967
 5425SOL    HW127911   0.626   3.670   2.869  0.3259  0.8798 -1.5037
 5425SOL    HW227912   0.517   3.605   2.785  0.3587  0.9321 -2.6156
 5426SOL     OW27913   1.977   0.214   9.290  0.1240 -0.3217  0.1709
 5426SOL    HW127914   1.906   0.278   9.297  0.1400 -0.4064  1.0914
 5426SOL    HW227915   2.051   0.247   9.341  0.5228 -0.2163 -0.4836
 5427SOL     OW27916   4.165   2.497   0.493  0.1875 -0.5782 -0.5945
 5427SOL    HW127917   4.082   2.537   0.465 -0.4125 -0.9114  0.7054
 5427SOL    HW227918   4.182   2.418   0.441  1.1368  0.6456 -2.1399
 5428SOL     OW27919   1.145   1.373   3.123  0.3898  0.0814 -0.0168
 5428SOL    HW127920   1.202   1.321   3.179 -1.0469  0.2538  1.5979
 5428SOL    HW227921   1.090   1.417   3.188 -0.9137 -2.9024  0.8741
 5429SOL     OW27922   0.314   0.435   8.736  0.4196 -0.3379 -0.0910
 5429SOL    HW127923   0.330   0.360   8.679  0.3750  0.1552 -0.7528
 5429SOL    HW227924   0.257   0.500   8.695  2.4458  0.9820 -0.8534
 5430SOL     OW27925   4.200   2.720  14.551 -0.6784 -0.0833  1.0704
 5430SOL    HW127926   4.207   2.705  14.645 -0.6986 -2.6321  0.6618
 5430SOL    HW227927   4.269   2.663  14.519 -0.0098  1.0988  0.3982
 5431SOL     OW27928   1.260   1.910   3.859 -0.1767 -0.0217 -0.2760
 5431SOL    HW127929   1.279   1.933   3.768 -1.8336  0.6791 -0.4485
 5431SOL    HW227930   1.174   1.950   3.873  1.1649  1.7312  2.9290
 5432SOL     OW27931   2.014   0.349   7.971 -0.2057 -0.7856  0.0862
 5432SOL    HW127932   2.065   0.341   7.890  0.0547  2.4376 -0.0710
 5432SOL    HW227933   2.004   0.261   8.007  4.3445 -1.1657  0.4201
 5433SOL     OW27934   1.911   2.025  16.922  0.0678 -0.2774 -0.2304
 5433SOL    HW127935   1.966   1.946  16.926 -2.5205 -1.9711  1.7344
 5433SOL    HW227936   1.852   2.018  16.847  2.0589 -1.3107 -1.7010
 5434SOL     OW27937   0.584   3.224   7.827  0.0629  0.1635 -0.5197
 5434SOL    HW127938   0.498   3.254   7.857  0.7476 -0.0795  1.6857
 5434SOL    HW227939   0.546   3.161   7.765  0.3607  0.4618 -1.0058
 5435SOL     OW27940   2.323   1.025   9.843 -0.4693 -0.9017  0.2606
 5435SOL    HW127941   2.295   0.943   9.804 -0.6522  0.2094 -1.9301
 5435SOL    HW227942   2.268   1.088   9.795 -0.8359 -1.2428  0.2387
 5436SOL     OW27943   3.075   2.664   5.195 -0.5246  0.3121  0.7688
 5436SOL    HW127944   3.095   2.628   5.108 -0.2712  0.4889  0.7526
 5436SOL    HW227945   3.004   2.604   5.217 -1.8119  1.5917  0.0349
 5437SOL     OW27946   0.215   2.666  11.545 -0.4787  0.6165 -0.0380
 5437SOL    HW127947   0.211   2.676  11.450  1.5533 -0.2883 -0.2068
 5437SOL    HW227948   0.135   2.715  11.566 -1.6993 -0.8925 -1.1585
 5438SOL     OW27949   3.103   1.152  14.749 -0.6063 -0.0735  0.0414
 5438SOL    HW127950   3.079   1.244  14.758  0.8517  0.3999 -0.8625
 5438SOL    HW227951   3.037   1.114  14.691  1.3384 -1.2511 -1.3885
 5439SOL     OW27952   1.096   1.031  13.052  0.3220  0.6980 -0.2587
 5439SOL    HW127953   1.144   1.056  12.973  1.4886  1.5926  0.7220
 5439SOL    HW227954   1.117   0.938  13.054  0.4962  0.7446  0.2008
 5440SOL     OW27955   4.330   0.799   7.927 -0.2245 -0.3521  0.2132
 5440SOL    HW127956   4.334   0.709   7.958  2.1429 -0.6196 -0.9075
 5440SOL    HW227957   4.402   0.844   7.972  0.1788 -1.2224  0.4325
 5441SOL     OW27958   2.106   4.725  14.335  0.3359 -0.0179 -0.0055
 5441SOL    HW127959   2.031   4.681  14.376  1.2825  0.0030  1.7818
 5441SOL    HW227960   2.158   0.007  14.413  1.0531  1.8506 -0.9984
 5442SOL     OW27961   1.692   4.541  11.134 -0.7033 -0.3932 -0.1065
 5442SOL    HW127962   1.751   4.597  11.184  0.2463 -2.9438  1.6408
 5442SOL    HW227963   1.606   4.574  11.159 -0.3497 -0.9487  1.8327
 5443SOL     OW27964   1.952   4.493   6.609  0.1460  0.2473  0.2127
 5443SOL    HW127965   1.951   4.573   6.661 -0.8266 -0.8617  1.8944
 5443SOL    HW227966   1.983   4.532   6.527  2.0017 -1.0881  0.2848
 5444SOL     OW27967   2.494   0.578   1.400 -0.6780  0.7826  0.5839
 5444SOL    HW127968   2.529   0.490   1.384 -0.4111  1.0272 -0.1496
 5444SOL    HW227969   2.578   0.624   1.400 -0.7248  0.8600 -2.3787
 5445SOL     OW27970   3.068   0.841  16.015 -0.1665 -0.0313  0.5927
 5445SOL    HW127971   3.145   0.784  16.011 -0.1708  0.0077 -0.0036
 5445SOL    HW227972   3.021   0.797  16.086 -1.7982  1.0616  0.1858
 5446SOL     OW27973   1.127   1.371   5.565  0.1784  0.3204  0.6601
 5446SOL    HW127974   1.191   1.356   5.635  1.2695  1.2360 -0.1424
 5446SOL    HW227975   1.167   1.316   5.498  3.8278 -0.0877  3.1229
 5447SOL     OW27976   0.348   1.672  15.571  0.4800  0.0430  0.3263
 5447SOL    HW127977   0.378   1.590  15.610  0.5069 -0.8830 -1.6211
 5447SOL    HW227978   0.417   1.697  15.510 -0.9218 -0.3731 -1.4364
 5448SOL     OW27979   1.259   1.024   7.835 -0.0129 -0.2842  0.7059
 5448SOL    HW127980   1.330   1.072   7.792 -1.7793  1.9462  0.2380
 5448SOL    HW227981   1.297   0.937   7.828  1.8871  0.7218 -1.4882
 5449SOL     OW27982   1.154   0.169   4.264 -0.2441 -0.2956 -0.1186
 5449SOL    HW127983   1.195   0.217   4.336 -0.6176 -0.8260  0.4536
 5449SOL    HW227984   1.204   0.189   4.185  1.3220  0.2629  1.0321
 5450SOL     OW27985   2.994   0.871   8.690 -0.7462  0.3633 -0.0367
 5450SOL    HW127986   2.978   0.857   8.596 -1.7015 -0.3210  0.2293
 5450SOL    HW227987   2.957   0.789   8.722  0.2783  0.7721  2.1278
 5451SOL     OW27988   2.787   2.040   8.361 -0.2991  0.4583  0.5925
 5451SOL    HW127989   2.842   2.104   8.405 -0.3719  1.1591 -0.3354
 5451SOL    HW227990   2.849   1.975   8.326 -0.9389  0.4753 -0.6014
 5452SOL     OW27991   3.657   0.483   4.575 -0.0605 -0.1825 -0.0791
 5452SOL    HW127992   3.610   0.566   4.560  1.3359  1.2820  3.7797
 5452SOL    HW227993   3.616   0.438   4.649 -1.0597 -1.5619 -1.4780
 5453SOL     OW27994   1.278   1.218   4.763 -0.8190 -0.0261 -0.0554
 5453SOL    HW127995   1.318   1.273   4.831  0.2161 -0.7791 -0.0569
 5453SOL    HW227996   1.187   1.209   4.790 -0.9041  3.3472  0.8987
 5454SOL     OW27997   0.403   0.124   3.294  0.3116 -0.8383  0.4049
 5454SOL    HW127998   0.394   0.213   3.326 -2.3296 -1.0421  0.2731
 5454SOL    HW227999   0.495   0.126   3.268 -0.1966  0.5882 -1.2471
 5455SOL     OW28000   0.927   4.259   3.655  0.5087 -0.9263 -0.0464
 5455SOL    HW128001   0.901   4.273   3.564  0.9153 -0.3460 -0.0683
 5455SOL    HW228002   0.984   4.183   3.641  0.7449 -1.2404  2.5712
 5456SOL     OW28003   0.733   1.729   8.105 -0.1656 -0.1194 -0.2728
 5456SOL    HW128004   0.780   1.796   8.055 -2.6037  2.7048  1.1520
 5456SOL    HW228005   0.798   1.659   8.103 -0.4873 -0.5208  2.4910
 5457SOL     OW28006   3.802   1.247   9.174 -0.0323 -0.0690 -0.2571
 5457SOL    HW128007   3.784   1.324   9.227 -0.5827 -0.4337  0.0875
 5457SOL    HW228008   3.726   1.253   9.116 -0.2289 -1.9415 -0.2089
 5458SOL     OW28009   4.668   3.444   4.308  0.0240  0.0694  0.2250
 5458SOL    HW128010   4.649   3.416   4.219  0.7794  1.1285 -0.2808
 5458SOL    HW228011   0.005   3.502   4.301 -0.2720  0.6861  2.2054
 5459SOL     OW28012   2.406   4.381   5.635  0.3071 -0.0500  0.6299
 5459SOL    HW128013   2.482   4.376   5.577  1.3300 -2.7995  2.2016
 5459SOL    HW228014   2.370   4.296   5.611  0.7805  0.5074 -2.0976
 5460SOL     OW28015   0.440   1.524   3.307  0.5669  0.1105 -0.5541
 5460SOL    HW128016   0.518   1.490   3.351  0.1320 -0.8677 -0.5172
 5460SOL    HW228017   0.376   1.483   3.366  0.4547  0.0296 -0.7316
 5461SOL     OW28018   3.517   3.273  16.909 -0.0679  0.1827 -0.5730
 5461SOL    HW128019   3.457   3.339  16.874  2.2792  3.4746  1.6053
 5461SOL    HW228020   3.509   3.202  16.845  0.6208 -0.8390  0.4662
 5462SOL     OW28021   2.944   2.582   7.515  0.7070 -0.7006  0.0329
 5462SOL    HW128022   2.986   2.626   7.441  0.1605  0.3087  0.3338
 5462SOL    HW228023   2.932   2.645   7.585 -0.3494 -0.2799 -0.5279
 5463SOL     OW28024   0.253   0.540   2.326 -0.2792 -0.0759  0.0731
 5463SOL    HW128025   0.334   0.495   2.303 -0.6416 -1.4220  1.4086
 5463SOL    HW228026   0.236   0.492   2.407 -2.9168  0.8525  0.0668
 5464SOL     OW28027   3.941   4.316   2.163 -1.0414  0.2582 -0.4338
 5464SOL    HW128028   3.984   4.304   2.079  1.1407 -2.5764  1.0762
 5464SOL    HW228029   3.855   4.273   2.159 -0.7915 -0.0471 -2.4254
 5465SOL     OW28030   0.481   3.563   7.828 -0.0087  0.4299  0.3139
 5465SOL    HW128031   0.573   3.590   7.825  0.3573 -0.7787  0.7996
 5465SOL    HW228032   0.468   3.545   7.735  0.2403  0.3823  0.2879
 5466SOL     OW28033   0.326   3.304   2.631 -0.0604 -0.3730  0.4256
 5466SOL    HW128034   0.281   3.329   2.712  1.1473  1.3556  0.5644
 5466SOL    HW228035   0.275   3.226   2.609  0.3433 -0.4004 -0.4003
 5467SOL     OW28036   2.719   4.631  13.779  0.3023  0.0834  0.1512
 5467SOL    HW128037   2.810   4.661  13.769  1.0836 -2.4468 -0.4887
 5467SOL    HW228038   2.733   4.542  13.746 -0.6785 -0.3094  0.8092
 5468SOL     OW28039   0.507   0.513   7.876  0.0926  0.3928  0.0435
 5468SOL    HW128040   0.413   0.498   7.885  0.1285  1.0703  1.4696
 5468SOL    HW228041   0.534   0.506   7.968  0.9156  1.6155 -0.1095
 5469SOL     OW28042   0.091   4.340   4.028 -0.0766  0.8249  0.4216
 5469SOL    HW128043   0.115   4.393   4.104 -0.8170  2.1719 -0.2831
 5469SOL    HW228044   0.111   4.400   3.956 -0.1794 -0.4273 -0.6407
 5470SOL     OW28045   1.731   4.577   4.002  0.1456 -0.1541 -0.4214
 5470SOL    HW128046   1.676   4.654   4.012  0.4170 -0.1573  1.1555
 5470SOL    HW228047   1.673   4.516   3.956 -0.2854  0.3847 -0.5905
 5471SOL     OW28048   0.010   2.326   3.137  0.0226  0.1537  0.0199
 5471SOL    HW128049   4.688   2.265   3.096  0.5493 -1.3407  1.4736
 5471SOL    HW228050   0.030   2.375   3.057 -0.1431 -1.7928 -1.2124
 5472SOL     OW28051   3.574   2.785   2.662 -0.6297 -0.0770 -0.1304
 5472SOL    HW128052   3.519   2.862   2.678 -1.9166 -1.4589  2.0896
 5472SOL    HW228053   3.510   2.725   2.623 -1.8869  1.0400  0.1883
 5473SOL     OW28054   1.246   1.906   9.470  0.2280 -0.2997  0.0387
 5473SOL    HW128055   1.256   1.959   9.391  3.3925  0.3739  0.8847
 5473SOL    HW228056   1.312   1.841   9.446  0.4280 -0.6059  1.3922
 5474SOL     OW28057   2.429   4.020   0.904 -0.1019  0.1138  0.5303
 5474SOL    HW128058   2.343   4.026   0.944 -0.6453  0.1809 -0.6387
 5474SOL    HW228059   2.474   4.084   0.958  0.2606  1.3935 -1.3083
 5475SOL     OW28060   1.179   4.465   1.329  0.4006  0.2269  0.2919
 5475SOL    HW128061   1.201   4.537   1.388  1.7186 -0.6147  0.8209
 5475SOL    HW228062   1.190   4.510   1.245 -0.7685 -0.0678 -0.0160
 5476SOL     OW28063   2.000   2.336  17.736  0.5909 -0.5748 -0.8332
 5476SOL    HW128064   2.023   2.367  17.648  3.6107  1.1990  0.6153
 5476SOL    HW228065   2.080   2.290   0.004  0.9447  0.8078  0.7592
 5477SOL     OW28066   1.536   2.259  11.797  0.5138 -0.2004  0.4093
 5477SOL    HW128067   1.539   2.274  11.892 -0.2338  0.0184  0.3965
 5477SOL    HW228068   1.625   2.293  11.789 -0.0922  0.9117 -1.4709
 5478SOL     OW28069   1.580   3.556   0.987  0.2322 -0.2480  0.3370
 5478SOL    HW128070   1.557   3.473   0.945 -0.2679  0.0407  0.0458
 5478SOL    HW228071   1.601   3.531   1.077 -1.0546 -0.8159  0.4804
 5479SOL     OW28072   1.105   1.807  12.575  0.2275 -0.1794 -0.0709
 5479SOL    HW128073   1.036   1.765  12.524 -2.1953  3.7987 -0.1020
 5479SOL    HW228074   1.077   1.793  12.665 -0.7539 -3.5153 -0.8972
 5480SOL     OW28075   3.590   2.116   0.260 -0.2842 -0.0713  0.3923
 5480SOL    HW128076   3.545   2.197   0.236 -1.2111 -0.2630  1.4714
 5480SOL    HW228077   3.678   2.154   0.262 -0.9637  1.5107  0.3817
 5481SOL     OW28078   0.331   1.165  14.858 -0.4027  0.5388  0.4599
 5481SOL    HW128079   0.397   1.097  14.840 -1.3850 -0.7782  1.8761
 5481SOL    HW228080   0.370   1.244  14.820  2.8500  0.5355  3.8855
 5482SOL     OW28081   4.029   0.762   3.068 -0.0523 -0.5675 -0.4298
 5482SOL    HW128082   3.953   0.771   3.010  0.3453 -0.5784 -0.9590
 5482SOL    HW228083   4.001   0.677   3.101 -0.2260 -1.0385 -1.7957
 5483SOL     OW28084   0.923   2.711   8.164  0.4946 -0.1516 -0.4352
 5483SOL    HW128085   0.962   2.678   8.082  0.3762 -2.2828  0.3506
 5483SOL    HW228086   1.003   2.707   8.217  0.1500  1.2329  0.1623
 5484SOL     OW28087   0.837   1.988   9.251 -0.1588  0.0104 -0.4773
 5484SOL    HW128088   0.868   2.078   9.237  1.2090 -0.6070 -1.4113
 5484SOL    HW228089   0.904   1.958   9.312 -0.6886 -0.0513  0.0806
 5485SOL     OW28090   2.491   3.805   5.387  0.1351 -0.1458 -0.1475
 5485SOL    HW128091   2.462   3.723   5.427  0.0279 -0.2720 -0.4820
 5485SOL    HW228092   2.583   3.806   5.413  0.3920 -2.3929 -0.9530
 5486SOL     OW28093   2.911   1.259  17.308  0.1048 -0.1114  0.2578
 5486SOL    HW128094   2.822   1.230  17.291 -0.2334  0.5614  0.8804
 5486SOL    HW228095   2.934   1.196  17.377 -0.9755  0.8957  1.5334
 5487SOL     OW28096   3.372   2.768   2.250 -0.2507 -0.4311 -0.0363
 5487SOL    HW128097   3.347   2.860   2.241  0.1911 -0.2384  0.6562
 5487SOL    HW228098   3.297   2.721   2.216 -0.0565 -0.5820 -0.2575
 5488SOL     OW28099   3.774   2.173   5.695  0.4134 -0.2831  0.0715
 5488SOL    HW128100   3.769   2.207   5.784  0.2742  1.2896 -0.5382
 5488SOL    HW228101   3.757   2.258   5.656 -3.9262 -0.5910  1.2793
 5489SOL     OW28102   4.390   3.292   2.138  0.5376  0.0446  0.6149
 5489SOL    HW128103   4.402   3.231   2.065 -0.2299  1.6277 -0.8137
 5489SOL    HW228104   4.314   3.260   2.187  0.6626 -0.5161  0.4431
 5490SOL     OW28105   3.057   0.874  16.449  0.0407  0.4626 -0.0718
 5490SOL    HW128106   3.079   0.967  16.444  1.9892 -0.0138 -0.2140
 5490SOL    HW228107   2.970   0.872  16.489 -0.4784  0.1671 -1.2286
 5491SOL     OW28108   2.417   4.226  13.080 -0.1479  0.5485 -0.2425
 5491SOL    HW128109   2.462   4.217  13.164  0.1691  1.9889 -0.2575
 5491SOL    HW228110   2.480   4.277  13.030  1.7852 -0.6960  0.9042
 5492SOL     OW28111   0.466   1.447  15.715 -0.1283  1.0920  0.0322
 5492SOL    HW128112   0.384   1.398  15.722  0.5520 -0.3314 -1.6781
 5492SOL    HW228113   0.530   1.376  15.712 -0.5032  0.7305  0.4621
 5493SOL     OW28114   1.384   2.121  14.178  0.0340  0.4825 -0.0440
 5493SOL    HW128115   1.386   2.191  14.114  0.5187  0.7734  0.2893
 5493SOL    HW228116   1.443   2.053  14.144  0.3297  0.1159  1.1934
 5494SOL     OW28117   0.674   2.735   4.462  0.2687 -0.3744  0.4408
 5494SOL    HW128118   0.696   2.644   4.442 -1.3796 -1.3380  2.9953
 5494SOL    HW228119   0.730   2.753   4.537 -0.4921 -2.1158  1.4315
 5495SOL     OW28120   3.263   2.318   1.586 -0.0313  0.4814 -0.5527
 5495SOL    HW128121   3.279   2.345   1.677 -3.7216  0.2050  0.1762
 5495SOL    HW228122   3.173   2.349   1.571 -0.4287 -1.1029 -1.4163
 5496SOL     OW28123   2.191   4.601   3.230 -0.0163  0.8968  0.3206
 5496SOL    HW128124   2.137   4.658   3.175  0.2160 -0.8037 -1.7146
 5496SOL    HW228125   2.136   4.530   3.262  0.1325  0.5860 -0.1037
 5497SOL     OW28126   3.055   1.889   2.178 -0.2762  0.0624  0.2362
 5497SOL    HW128127   3.081   1.798   2.187  2.3748  1.0906  2.8101
 5497SOL    HW228128   3.123   1.935   2.128 -0.8060  0.5898 -0.0049
 5498SOL     OW28129   1.610   1.795   5.419 -0.4016  0.8133  0.1701
 5498SOL    HW128130   1.610   1.706   5.384  0.6439  1.1283 -0.6226
 5498SOL    HW228131   1.536   1.794   5.479 -0.4705  3.3949  0.1448
 5499SOL     OW28132   1.703   1.989  11.793  0.6441 -0.1917 -0.1001
 5499SOL    HW128133   1.649   1.911  11.811  0.5871 -0.5225 -1.7405
 5499SOL    HW228134   1.730   2.023  11.878 -2.0934 -0.4316  0.8854
 5500SOL     OW28135   0.050   1.101  10.551  0.2382  0.4948  0.2688
 5500SOL    HW128136   4.695   1.117  10.540 -0.0529 -2.2093 -1.1626
 5500SOL    HW228137   0.048   1.006  10.535  1.6857  0.7643 -1.4278
 5501SOL     OW28138   4.410   0.780   4.771 -0.1321 -0.3424  0.5644
 5501SOL    HW128139   4.496   0.822   4.764 -1.0857  1.2770 -1.3030
 5501SOL    HW228140   4.405   0.739   4.858 -0.8129  0.4834  0.9079
 5502SOL     OW28141   2.528   4.038   1.570 -0.0691  0.2923  0.0024
 5502SOL    HW128142   2.464   4.093   1.614 -0.8660 -1.2013  0.7314
 5502SOL    HW228143   2.523   4.063   1.478  2.5973 -0.6637 -0.4050
 5503SOL     OW28144   1.217   4.081   5.403  0.1598  0.2950  0.2524
 5503SOL    HW128145   1.213   4.060   5.497 -0.8342 -1.5577 -0.2093
 5503SOL    HW228146   1.166   4.161   5.397 -0.5689 -0.1080  1.0070
 5504SOL     OW28147   2.787   4.608   6.133 -0.1006 -0.1539 -0.6877
 5504SOL    HW128148   2.781   4.545   6.062 -0.0239 -2.5151  1.3775
 5504SOL    HW228149   2.847   4.673   6.096  1.6831 -1.1185  0.5262
 5505SOL     OW28150   0.033   3.807   6.414  0.6221 -0.1650  0.1692
 5505SOL    HW128151   0.006   3.857   6.491  0.7871  0.7458 -0.3663
 5505SOL    HW228152   4.718   3.728   6.424  1.3660 -0.8914 -1.5528
 5506SOL     OW28153   4.686   3.174   5.044  0.2680  0.0613 -0.0773
 5506SOL    HW128154   4.664   3.151   4.954 -0.8566 -1.1095  0.5047
 5506SOL    HW228155   0.043   3.179   5.050  0.0832  0.6055  2.7537
 5507SOL     OW28156   1.671   0.634  16.867 -0.1830  0.3374  0.3765
 5507SOL    HW128157   1.625   0.604  16.945  0.3827  0.8120  0.8853
 5507SOL    HW228158   1.612   0.701  16.832 -1.5385 -1.2821 -0.4617
 5508SOL     OW28159   0.511   0.341   2.335 -0.3841 -0.0335  0.5108
 5508SOL    HW128160   0.538   0.405   2.270 -1.4208 -2.0740 -1.9429
 5508SOL    HW228161   0.559   0.370   2.413 -1.3328  0.9482  0.7244
 5509SOL     OW28162   0.935   2.581   5.998  0.2337 -0.8194 -0.0327
 5509SOL    HW128163   0.959   2.568   5.906 -0.0662 -0.6378 -0.1364
 5509SOL    HW228164   0.850   2.619   5.976  0.7517 -0.3401 -1.2403
 5510SOL     OW28165   0.151   2.826  12.190  0.4152 -0.2949 -0.5050
 5510SOL    HW128166   0.155   2.836  12.095 -3.0450 -0.2179 -0.6561
 5510SOL    HW228167   0.242   2.841  12.216  0.4003 -0.1804 -0.5230
 5511SOL     OW28168   4.001   4.345   6.281 -0.4427  0.6036 -0.0528
 5511SOL    HW128169   3.940   4.288   6.327  0.1979  0.4634  0.6250
 5511SOL    HW228170   3.962   4.428   6.310 -1.1024 -0.5724  2.4005
 5512SOL     OW28171   2.201   2.442   5.863 -0.4717 -0.3545  0.1852
 5512SOL    HW128172   2.240   2.472   5.945 -0.2835  1.0406 -0.4122
 5512SOL    HW228173   2.231   2.504   5.797 -0.6553 -1.8401 -1.2862
 5513SOL     OW28174   4.087   3.596  12.747  0.6190 -0.3205 -0.2404
 5513SOL    HW128175   4.112   3.638  12.830 -1.1205 -0.2231  0.2407
 5513SOL    HW228176   4.062   3.668  12.690 -0.9117 -0.9585 -0.3674
 5514SOL     OW28177   4.224   0.101   9.642  0.3842 -0.8738 -0.0414
 5514SOL    HW128178   4.311   0.096   9.680  0.5653  3.2930  0.0706
 5514SOL    HW228179   4.170   0.083   9.720  1.7967 -1.3010  0.8340
 5515SOL     OW28180   3.226   0.541  16.371  0.0468  0.1683  0.9821
 5515SOL    HW128181   3.259   0.624  16.334  0.0755 -0.6764 -0.8908
 5515SOL    HW228182   3.264   0.472  16.316  0.9118  2.7531 -1.6951
 5516SOL     OW28183   2.010   4.289  14.807  0.6316  0.3071 -0.0659
 5516SOL    HW128184   1.998   4.194  14.802 -0.1098  0.4435 -1.0907
 5516SOL    HW228185   2.013   4.297  14.902 -0.1904  1.2446 -0.1187
 5517SOL     OW28186   0.879   1.619  15.009 -0.1341 -0.0833 -0.1001
 5517SOL    HW128187   0.936   1.672  15.064  0.9395 -0.8040 -0.5242
 5517SOL    HW228188   0.883   1.526  15.032 -0.2692  0.3564  1.6838
 5518SOL     OW28189   1.336   0.423   5.392 -0.4059 -0.3589 -0.5121
 5518SOL    HW128190   1.355   0.357   5.459  0.1807 -2.0516 -2.3660
 5518SOL    HW228191   1.240   0.431   5.395 -0.1786  1.1763  2.3764
 5519SOL     OW28192   1.186   3.500   6.060  0.1195  0.6233  0.0873
 5519SOL    HW128193   1.115   3.558   6.032 -0.5198  0.3045  1.0726
 5519SOL    HW228194   1.232   3.488   5.977  1.1722  2.2020  0.4509
 5520SOL     OW28195   2.276   1.719   6.015 -0.6073 -0.6822 -1.0284
 5520SOL    HW128196   2.227   1.693   5.937 -0.8763 -2.5395 -0.2330
 5520SOL    HW228197   2.222   1.692   6.089 -0.0883 -2.3266 -1.2648
 5521SOL     OW28198   1.028   0.408   5.189 -0.9295  0.5072  0.0736
 5521SOL    HW128199   1.013   0.315   5.206  1.9411  0.2301  1.1487
 5521SOL    HW228200   1.112   0.400   5.144 -0.1692  1.9021  1.2239
 5522SOL     OW28201   0.951   0.881   7.349 -0.2879  0.7123  0.0003
 5522SOL    HW128202   0.877   0.939   7.329 -0.3822 -0.3888 -2.8683
 5522SOL    HW228203   0.913   0.817   7.410  0.8739 -1.0429 -1.1159
 5523SOL     OW28204   3.609   2.367   2.196  0.5590  0.3117 -0.0995
 5523SOL    HW128205   3.690   2.342   2.153 -0.1054 -1.4005 -0.3825
 5523SOL    HW228206   3.614   2.462   2.190  1.8331  0.2588  0.3169
 5524SOL     OW28207   4.710   0.380  14.535  0.4138 -0.3107 -0.3060
 5524SOL    HW128208   4.622   0.368  14.499  1.5374 -1.4192 -2.6421
 5524SOL    HW228209   4.687   0.453  14.594  1.8566  0.5171 -0.7823
 5525SOL     OW28210   4.067   1.218   1.486  0.6186  0.3429 -0.1031
 5525SOL    HW128211   4.038   1.214   1.395  3.2248 -1.6483 -0.8514
 5525SOL    HW228212   3.999   1.269   1.530  0.4392 -0.4292  0.5326
 5526SOL     OW28213   4.345   2.145  12.505 -0.0700 -0.4592  0.1152
 5526SOL    HW128214   4.353   2.109  12.416  2.1926 -2.6280  1.1769
 5526SOL    HW228215   4.405   2.083  12.548  0.4456 -0.0391  0.0021
 5527SOL     OW28216   1.221   1.622   5.892 -0.5519 -0.4933  0.3180
 5527SOL    HW128217   1.229   1.561   5.965 -2.1331 -1.4255 -0.2945
 5527SOL    HW228218   1.126   1.623   5.888 -0.4953  2.7956  0.4229
 5528SOL     OW28219   2.874   4.411   9.108 -0.5398 -0.1242 -0.1843
 5528SOL    HW128220   2.781   4.411   9.132 -0.9585 -0.3187 -1.8624
 5528SOL    HW228221   2.897   4.498   9.139 -1.5174  0.3589 -0.8317
 5529SOL     OW28222   2.333   4.161   1.712 -0.0710  0.0844 -0.1283
 5529SOL    HW128223   2.348   4.086   1.770  0.1777  0.5326  0.3912
 5529SOL    HW228224   2.240   4.147   1.699 -0.2755  0.7780  0.6240
 5530SOL     OW28225   0.480   3.463   8.436  0.0671  0.1994  0.0768
 5530SOL    HW128226   0.564   3.425   8.460 -0.4608 -1.9743 -1.5386
 5530SOL    HW228227   0.473   3.433   8.345  1.1100 -0.7057  0.2993
 5531SOL     OW28228   2.126   4.124   9.085  0.3860 -0.2385  0.2063
 5531SOL    HW128229   2.214   4.151   9.061  0.6210 -1.0159  0.2049
 5531SOL    HW228230   2.094   4.203   9.130  1.9677  0.6244 -0.1906
 5532SOL     OW28231   0.799   4.166   3.877 -0.0772 -0.0722  0.2419
 5532SOL    HW128232   0.837   4.194   3.793 -0.1006 -0.9906 -0.0821
 5532SOL    HW228233   0.748   4.096   3.835  3.4595 -1.4270 -1.8040
 5533SOL     OW28234   2.525   1.221   4.378 -0.1748 -0.6150 -0.4706
 5533SOL    HW128235   2.529   1.130   4.349 -0.3275 -0.6824 -0.2795
 5533SOL    HW228236   2.496   1.219   4.469 -0.1726 -0.5119 -0.4680
 5534SOL     OW28237   4.726   0.433   1.734 -0.3638  0.0352  0.1022
 5534SOL    HW128238   4.693   0.522   1.719  0.5398  0.5280  1.0288
 5534SOL    HW228239   0.045   0.451   1.808 -0.1459 -3.9138  0.8803
 5535SOL     OW28240   0.636   3.110  11.093  0.0995  0.2286  0.4740
 5535SOL    HW128241   0.592   3.176  11.147 -2.2405 -0.5403 -0.5306
 5535SOL    HW228242   0.731   3.123  11.100 -0.1551  2.7749 -0.5028
 5536SOL     OW28243   4.702   0.247  13.118 -0.0398 -0.2684  0.1274
 5536SOL    HW128244   4.630   0.185  13.106  1.5548 -2.3263  1.1753
 5536SOL    HW228245   4.657   0.323  13.080 -0.8672 -0.0566  1.5395
 5537SOL     OW28246   3.149   0.230   9.271  0.8121 -0.4816 -0.0394
 5537SOL    HW128247   3.147   0.159   9.336 -0.2592 -2.3068 -2.0560
 5537SOL    HW228248   3.130   0.184   9.189  2.8661 -0.9929 -0.2288
 5538SOL     OW28249   0.139   0.002   6.698 -0.8405  0.0476 -0.3225
 5538SOL    HW128250   0.113   0.088   6.664  1.5516  0.2047 -1.7826
 5538SOL    HW228251   0.077   4.727   6.769 -1.4241  1.2645 -0.5874
 5539SOL     OW28252   3.451   0.707   5.425  0.3918 -0.0116 -0.5093
 5539SOL    HW128253   3.519   0.669   5.482 -0.3125  2.3094  1.8916
 5539SOL    HW228254   3.503   0.775   5.382  0.5586  1.5172  2.0597
 5540SOL     OW28255   1.399   0.222   7.589 -0.1991 -0.6210 -0.8117
 5540SOL    HW128256   1.488   0.217   7.554  0.6718  0.6793  1.2313
 5540SOL    HW228257   1.413   0.147   7.648 -0.8602 -1.5527 -1.8402
 5541SOL     OW28258   2.582   3.651   1.794 -0.5536  0.0695  0.1654
 5541SOL    HW128259   2.632   3.610   1.864  0.6937 -0.4232 -1.0184
 5541SOL    HW228260   2.498   3.681   1.830 -0.3892 -0.1208  0.7105
 5542SOL     OW28261   0.115   0.211   7.495  0.5295  0.4582  0.4951
 5542SOL    HW128262   0.097   0.137   7.437  1.3542  0.5722  0.0908
 5542SOL    HW228263   0.135   0.283   7.435 -0.5115  1.1078  0.9359
 5543SOL     OW28264   2.484   1.155   2.645  0.0102 -0.2076 -0.6397
 5543SOL    HW128265   2.573   1.190   2.642 -0.3373  0.8677  2.6283
 5543SOL    HW228266   2.470   1.130   2.553  1.8523 -1.4498 -0.5897
 5544SOL     OW28267   2.894   0.072  11.142  0.0912 -0.5376  0.3541
 5544SOL    HW128268   2.856   0.089  11.228  2.1620 -2.1916  1.5957
 5544SOL    HW228269   2.863   4.723  11.120  1.8377 -1.3980  1.3543
 5545SOL     OW28270   3.451   1.725  13.184 -0.4715 -0.4163 -0.3271
 5545SOL    HW128271   3.388   1.682  13.127 -1.5881 -0.0763  0.6462
 5545SOL    HW228272   3.427   1.815  13.165  2.2432  0.5461  0.6708
 5546SOL     OW28273   0.805   2.554   4.058  0.1475  0.2249  0.1819
 5546SOL    HW128274   0.760   2.476   4.024  2.4607 -0.4308 -1.3084
 5546SOL    HW228275   0.797   2.548   4.153  1.0160  1.3966  0.3249
 5547SOL     OW28276   2.360   2.280  10.778  0.1910  0.3589  0.4903
 5547SOL    HW128277   2.403   2.353  10.823  1.9744 -0.5666  0.2833
 5547SOL    HW228278   2.277   2.284  10.826 -0.4033 -1.9502 -0.3244
 5548SOL     OW28279   1.417   1.021  11.772  0.0103  0.2044 -0.5595
 5548SOL    HW128280   1.473   1.094  11.746  1.1725 -0.0869  1.1241
 5548SOL    HW228281   1.416   1.029  11.867  0.4887 -0.8631 -0.4594
 5549SOL     OW28282   0.108   1.301   8.560 -0.0594 -0.5429 -0.3811
 5549SOL    HW128283   0.030   1.353   8.576  0.8603  1.3845 -2.0926
 5549SOL    HW228284   0.125   1.325   8.469  0.0617  0.5377 -0.0737
 5550SOL     OW28285   1.871   4.030   7.558 -0.2097 -0.0110  0.7911
 5550SOL    HW128286   1.879   4.045   7.464  0.3899 -0.1914  0.8123
 5550SOL    HW228287   1.789   4.079   7.566 -0.3235 -0.2155  0.8616
 5551SOL     OW28288   3.595   1.654   5.796  0.2777  0.1314  1.0235
 5551SOL    HW128289   3.640   1.730   5.758 -1.9128  0.3903 -1.0324
 5551SOL    HW228290   3.669   1.593   5.790 -0.8388 -1.0111 -1.1992
 5552SOL     OW28291   4.117   1.426   5.655 -0.0247  0.5966  0.1935
 5552SOL    HW128292   4.121   1.347   5.710 -1.1818  0.9470  0.7624
 5552SOL    HW228293   4.101   1.493   5.721 -0.7101  0.7744 -0.1549
 5553SOL     OW28294   1.944   1.776   0.390  0.0656  0.2234  0.4669
 5553SOL    HW128295   1.992   1.732   0.320 -0.1227 -1.2007  1.2436
 5553SOL    HW228296   1.853   1.771   0.360  0.0471 -1.7109  0.8683
 5554SOL     OW28297   3.318   0.041   8.592 -0.4783  0.8243 -0.0478
 5554SOL    HW128298   3.317   4.703   8.534 -0.5555  1.3328 -0.7232
 5554SOL    HW228299   3.410   0.063   8.582 -0.1424 -0.8712 -0.7467
 5555SOL     OW28300   4.450   3.443   6.078 -0.1922 -0.1550  0.2414
 5555SOL    HW128301   4.383   3.510   6.067  1.1478  1.2574  0.6811
 5555SOL    HW228302   4.407   3.365   6.042 -1.3269  0.0842  1.0972
 5556SOL     OW28303   3.570   3.873   4.522 -0.5083 -0.4359  0.3360
 5556SOL    HW128304   3.574   3.968   4.533  3.3337 -0.7874  1.8961
 5556SOL    HW228305   3.643   3.860   4.461 -1.8286 -0.6046 -1.2294
 5557SOL     OW28306   3.903   2.988  16.321  0.0888  0.4040  0.1815
 5557SOL    HW128307   3.919   2.929  16.395 -0.5754  0.4135  0.3377
 5557SOL    HW228308   3.992   2.990  16.285 -0.2837  1.5264 -0.6710
 5558SOL     OW28309   3.349   1.344   7.267  0.0374 -0.3003  0.6373
 5558SOL    HW128310   3.440   1.341   7.236 -0.3037  0.5670 -0.4583
 5558SOL    HW228311   3.353   1.293   7.347 -1.2864  0.6348  1.3029
 5559SOL     OW28312   1.366   1.839  16.498  0.1317  0.0380  0.0705
 5559SOL    HW128313   1.314   1.766  16.466  2.5062 -1.1929 -1.0340
 5559SOL    HW228314   1.390   1.812  16.587  0.3812  0.1839  0.0486
 5560SOL     OW28315   2.342   4.093   2.096  0.0843 -0.3912 -0.1946
 5560SOL    HW128316   2.384   4.099   2.182 -2.2704 -3.6072  1.1753
 5560SOL    HW228317   2.386   4.020   2.052 -0.2215  0.7959 -2.4791
 5561SOL     OW28318   2.672   2.839  11.198 -0.0470  0.2336 -0.1122
 5561SOL    HW128319   2.630   2.753  11.191 -0.4601  0.6065 -2.3192
 5561SOL    HW228320   2.766   2.825  11.203 -0.2522 -1.3103 -0.4928
 5562SOL     OW28321   0.923   1.375   9.481  0.1607  0.0996 -0.2650
 5562SOL    HW128322   0.987   1.446   9.489 -2.6139  2.4677  1.1065
 5562SOL    HW228323   0.947   1.311   9.548  3.9434  1.4384 -0.3683
 5563SOL     OW28324   0.666   2.592   5.883  0.4711 -0.6736 -0.2838
 5563SOL    HW128325   0.616   2.669   5.910  0.4396 -0.3942 -1.1211
 5563SOL    HW228326   0.697   2.620   5.796  5.4099 -0.7871  1.4706
 5564SOL     OW28327   4.440   2.918   3.385 -0.2928 -0.0600  0.5911
 5564SOL    HW128328   4.442   2.830   3.424  1.2392 -1.4883 -2.7537
 5564SOL    HW228329   4.450   2.968   3.466 -0.5715  1.0717 -0.0813
 5565SOL     OW28330   1.628   1.260   3.423 -0.5645 -0.0692 -0.1472
 5565SOL    HW128331   1.652   1.180   3.470  2.5089  0.8789 -0.0817
 5565SOL    HW228332   1.609   1.235   3.333 -0.1032 -0.9168 -0.0080
 5566SOL     OW28333   1.839   1.114   5.731  0.1570  0.0411 -0.3530
 5566SOL    HW128334   1.836   1.036   5.787 -1.2598  0.5981  0.3618
 5566SOL    HW228335   1.879   1.180   5.788  1.0572 -2.0176  1.4130
 5567SOL     OW28336   4.033   4.051   6.161 -0.5784 -0.2074 -0.0211
 5567SOL    HW128337   4.076   4.011   6.237  0.9767  0.1563 -0.7065
 5567SOL    HW228338   4.029   4.141   6.195  1.0230 -0.4766  0.8779
 5568SOL     OW28339   4.672   2.529   7.271  0.0724 -0.0881 -0.2912
 5568SOL    HW128340   4.603   2.510   7.208 -0.2568 -0.3617  0.1586
 5568SOL    HW228341   4.734   2.459   7.252  0.4389  0.0152  0.4974
 5569SOL     OW28342   4.344   3.127  13.764 -0.3837 -0.0643 -0.4873
 5569SOL    HW128343   4.400   3.203  13.754 -0.5698  0.5278  2.8650
 5569SOL    HW228344   4.358   3.113  13.858  0.3778  1.3626 -0.3855
 5570SOL     OW28345   4.420   3.894   6.508  0.0499  0.4273  0.8905
 5570SOL    HW128346   4.460   3.811   6.484 -0.1437 -0.1621  2.6512
 5570SOL    HW228347   4.420   3.882   6.603 -0.9922 -0.6638  0.7471
 5571SOL     OW28348   1.114   2.158   9.691 -0.3162  0.0718  0.7156
 5571SOL    HW128349   1.039   2.099   9.688  0.5663 -0.9650 -0.8154
 5571SOL    HW228350   1.071   2.244   9.687  0.5817  0.5997  2.3560
 5572SOL     OW28351   1.655   0.296   6.062 -0.0605  0.2346 -0.6325
 5572SOL    HW128352   1.657   0.391   6.050  1.0583  0.0320 -2.0036
 5572SOL    HW228353   1.579   0.271   6.008 -0.3049 -0.3834  0.0029
 5573SOL     OW28354   1.897   1.724  15.202  0.3700 -0.0843 -0.1141
 5573SOL    HW128355   1.952   1.706  15.125  0.9237 -0.3583  0.3492
 5573SOL    HW228356   1.887   1.638  15.242  1.4262  0.2439  0.8300
 5574SOL     OW28357   2.762   2.476   5.415  0.3279 -0.6741  0.3404
 5574SOL    HW128358   2.783   2.487   5.322  2.7962 -2.6011  0.6621
 5574SOL    HW228359   2.788   2.384   5.421  1.7572 -0.3332 -0.5461
 5575SOL     OW28360   3.548   1.035   7.265 -0.8870  0.3367 -0.1544
 5575SOL    HW128361   3.569   1.084   7.345  0.7653 -0.2380 -0.2249
 5575SOL    HW228362   3.537   1.105   7.201 -1.0613 -1.5124 -2.1274
 5576SOL     OW28363   0.901   3.422  12.577 -0.0957 -0.2995  0.1174
 5576SOL    HW128364   0.866   3.506  12.547  2.2053  0.3637 -0.6453
 5576SOL    HW228365   0.993   3.442  12.592  0.0575 -1.0062  0.1264
 5577SOL     OW28366   0.027   4.181  10.814  1.0962  0.2099 -0.2903
 5577SOL    HW128367   4.690   4.143  10.859  0.8925 -2.5650 -2.9668
 5577SOL    HW228368   0.048   4.242  10.884 -2.0339  2.3526 -1.1844
 5578SOL     OW28369   1.772   4.009   5.099 -0.1492 -0.0990  0.2775
 5578SOL    HW128370   1.712   4.079   5.075 -1.1160 -0.5552  1.3898
 5578SOL    HW228371   1.703   3.952   5.133 -0.8454  1.1658  0.9897
 5579SOL     OW28372   0.030   3.895   3.306  0.2067 -0.3774 -0.2881
 5579SOL    HW128373   4.712   3.824   3.336  1.9685 -2.0476 -0.8510
 5579SOL    HW228374   0.107   3.871   3.359  0.4109 -0.4282 -0.6102
 5580SOL     OW28375   1.320   0.318   0.917 -0.2665  0.0704 -0.5662
 5580SOL    HW128376   1.292   0.287   0.831 -0.8799 -0.9190 -0.0086
 5580SOL    HW228377   1.366   0.240   0.948 -1.3294 -0.2737  0.1132
 5581SOL     OW28378   1.487   1.715   2.395  0.2144 -0.3008 -0.1449
 5581SOL    HW128379   1.479   1.781   2.326  0.7876  1.0140  1.0498
 5581SOL    HW228380   1.538   1.647   2.352  2.4373  1.3471 -0.1343
 5582SOL     OW28381   3.723   0.397  15.821 -0.2183  0.5369  0.5764
 5582SOL    HW128382   3.707   0.310  15.856 -1.9748  0.1116 -1.3006
 5582SOL    HW228383   3.669   0.447  15.883 -0.0178  1.6748 -0.1511
 5583SOL     OW28384   2.010   0.207   2.587 -0.5125 -0.4194 -0.3197
 5583SOL    HW128385   2.021   0.302   2.578  1.1269 -0.4706  1.1061
 5583SOL    HW228386   2.002   0.185   2.495  2.2015 -0.5614 -0.5038
 5584SOL     OW28387   2.026   2.842   2.805  0.0121 -0.4059 -0.2266
 5584SOL    HW128388   1.969   2.867   2.732 -0.2770 -2.1600 -0.5812
 5584SOL    HW228389   2.046   2.750   2.791 -0.6433 -0.2390 -2.3464
 5585SOL     OW28390   0.871   0.644   5.223  0.4653 -0.1348 -0.0350
 5585SOL    HW128391   0.908   0.699   5.154  2.1178 -2.0499 -0.6607
 5585SOL    HW228392   0.923   0.564   5.223  0.5835 -0.0489 -1.5512
 5586SOL     OW28393   3.371   4.732   3.059  0.3155 -0.4854  0.2361
 5586SOL    HW128394   3.323   4.649   3.061 -0.2003 -0.1757  0.6075
 5586SOL    HW228395   3.464   4.709   3.055 -0.0004 -1.9328  1.1577
 5587SOL     OW28396   0.356   1.879   7.537  0.1259  0.0294 -0.1569
 5587SOL    HW128397   0.271   1.915   7.563  0.2595 -1.0557  1.8140
 5587SOL    HW228398   0.391   1.956   7.491 -1.6728  1.0160  0.0934
 5588SOL     OW28399   0.711   4.028  11.264  0.0348  0.0576 -0.0494
 5588SOL    HW128400   0.671   4.104  11.306  0.8229  0.9402 -0.9114
 5588SOL    HW228401   0.664   3.960  11.313  0.3474  0.3403  0.6426
 5589SOL     OW28402   0.436   2.313   2.951  0.1337 -0.0439 -0.1206
 5589SOL    HW128403   0.368   2.350   2.896  1.0331  0.4538 -0.8999
 5589SOL    HW228404   0.384   2.253   3.004  2.3421  1.6827  3.9892
 5590SOL     OW28405   4.576   3.310  13.307  0.2548 -0.2873 -0.2458
 5590SOL    HW128406   4.594   3.229  13.259  0.0885 -0.5119  0.0732
 5590SOL    HW228407   4.581   3.268  13.392  0.5193 -0.5516 -0.3896
 5591SOL     OW28408   3.933   0.130   2.969 -0.0835 -0.4696 -0.3510
 5591SOL    HW128409   3.981   0.086   2.900  0.7347 -0.2897  0.1089
 5591SOL    HW228410   3.927   0.063   3.037 -1.9072 -1.3886 -1.4088
 5592SOL     OW28411   2.249   1.887   7.035  0.4772 -0.5346 -0.4208
 5592SOL    HW128412   2.211   1.953   6.978 -1.6294 -1.8457 -0.5339
 5592SOL    HW228413   2.311   1.838   6.981 -0.3900 -1.5220 -0.5297
 5593SOL     OW28414   0.477   4.347   4.577 -0.5355  0.3131  0.2126
 5593SOL    HW128415   0.543   4.368   4.511  1.4415  0.3221  2.2280
 5593SOL    HW228416   0.460   4.434   4.613 -0.4478  0.0954  0.7766
 5594SOL     OW28417   3.250   3.056   1.349  0.3154 -0.1225  0.8727
 5594SOL    HW128418   3.331   3.091   1.385  0.3447  0.9514 -0.2643
 5594SOL    HW228419   3.258   3.089   1.260 -1.5609 -1.0060  0.3706
 5595SOL     OW28420   3.795   2.229   6.911  0.2679  0.7288  0.1009
 5595SOL    HW128421   3.885   2.228   6.943  0.1551  0.5484  0.4031
 5595SOL    HW228422   3.762   2.316   6.932  0.7548  0.8660  0.2928
 5596SOL     OW28423   3.336   0.559  12.073  0.1740  0.1147 -0.2649
 5596SOL    HW128424   3.242   0.576  12.084  0.6639  3.5050 -1.2652
 5596SOL    HW228425   3.343   0.551  11.978 -2.5636 -0.1919 -0.4353
 5597SOL     OW28426   2.985   4.520   3.081  0.4182  0.3840  0.3841
 5597SOL    HW128427   3.027   4.580   3.019 -0.1441  0.8390  0.4549
 5597SOL    HW228428   2.896   4.524   3.046  0.9694 -2.8142 -1.3864
 5598SOL     OW28429   4.528   0.658   4.456  0.4072 -0.0550 -0.3370
 5598SOL    HW128430   4.467   0.640   4.385 -0.2446 -0.4520  0.3304
 5598SOL    HW228431   4.602   0.608   4.421 -0.4050 -1.0998 -0.5612
 5599SOL     OW28432   1.613   1.010  15.377 -0.3676 -0.2277 -0.0713
 5599SOL    HW128433   1.657   1.087  15.339  0.3077 -0.8343 -0.5131
 5599SOL    HW228434   1.530   1.056  15.387 -0.8570 -1.5458  1.7947
 5600SOL     OW28435   1.924   0.913   6.961  0.4677 -0.4048 -0.5499
 5600SOL    HW128436   1.834   0.941   6.977  1.0358  1.6141 -0.8697
 5600SOL    HW228437   1.979   0.972   7.014  1.6987 -2.5642  0.5570
 5601SOL     OW28438   1.800   0.356   0.755  0.7929 -0.0584 -0.3775
 5601SOL    HW128439   1.741   0.425   0.786  0.1480 -0.8737  0.1997
 5601SOL    HW228440   1.793   0.364   0.660  0.3699 -0.5942 -0.3914
 5602SOL     OW28441   3.139   3.566  13.862 -0.4189  0.2874  0.0454
 5602SOL    HW128442   3.068   3.502  13.854 -0.8569  1.0849 -2.2066
 5602SOL    HW228443   3.091   3.640  13.898  0.0302  0.5410  0.1299
 5603SOL     OW28444   0.993   3.847   1.772 -0.1318  0.1058 -0.6560
 5603SOL    HW128445   0.966   3.939   1.765 -0.5562 -0.0929 -1.6787
 5603SOL    HW228446   1.078   3.854   1.730 -0.5140  0.4725 -1.3737
 5604SOL     OW28447   1.625   3.526   1.896 -0.3718 -0.1206  0.0700
 5604SOL    HW128448   1.535   3.556   1.907 -0.7338 -1.5729  1.1198
 5604SOL    HW228449   1.668   3.581   1.961 -0.4479  1.4512 -1.2274
 5605SOL     OW28450   3.387   0.701   3.810 -0.4607 -0.5363  0.2486
 5605SOL    HW128451   3.348   0.621   3.774 -1.0053 -1.3045  2.5795
 5605SOL    HW228452   3.433   0.739   3.735 -3.4683  1.2491 -0.7216
 5606SOL     OW28453   1.593   0.895   0.498 -0.4738  0.3277 -0.3894
 5606SOL    HW128454   1.623   0.804   0.496  1.7272  1.0535 -1.2128
 5606SOL    HW228455   1.500   0.888   0.477  0.3659 -4.8132 -2.2815
 5607SOL     OW28456   3.191   3.640  15.847  0.1959 -0.4432 -0.4842
 5607SOL    HW128457   3.117   3.700  15.855 -0.1524 -0.9706  0.2478
 5607SOL    HW228458   3.253   3.692  15.796 -1.0004  0.0481 -1.4588
 5608SOL     OW28459   3.041   2.876   5.761  0.5347  0.3551 -0.1019
 5608SOL    HW128460   3.067   2.958   5.803  0.5077  0.1192  0.3769
 5608SOL    HW228461   3.042   2.901   5.669 -3.1700  0.4738 -0.1085
 5609SOL     OW28462   3.977   3.626  16.174  0.3052  0.4565  0.0377
 5609SOL    HW128463   3.898   3.573  16.164  0.3039  0.1372  1.7409
 5609SOL    HW228464   3.942   3.708  16.208 -1.7621  0.7038 -2.6961
 5610SOL     OW28465   1.845   1.922   7.066  0.0987  0.0009 -0.3742
 5610SOL    HW128466   1.887   1.877   7.140  0.4688 -1.5994 -1.5597
 5610SOL    HW228467   1.770   1.958   7.113 -1.6392 -3.6158 -0.4073
 5611SOL     OW28468   2.464   1.630  14.250  0.3541 -0.6743  0.1247
 5611SOL    HW128469   2.557   1.628  14.274  0.3093  0.3659  0.4008
 5611SOL    HW228470   2.467   1.620  14.155 -1.3034  0.9250 -0.0918
 5612SOL     OW28471   3.911   3.250   5.620 -0.7904 -0.4798  0.0081
 5612SOL    HW128472   3.902   3.157   5.643  0.5539 -0.8924 -1.0923
 5612SOL    HW228473   3.834   3.259   5.563  0.1789  0.6848 -1.1271
 5613SOL     OW28474   4.186   1.495   6.018 -0.3969 -0.9782 -0.0131
 5613SOL    HW128475   4.140   1.412   6.011 -1.3785 -0.5932  1.8552
 5613SOL    HW228476   4.150   1.546   5.946 -0.5035 -1.0757 -0.0289
 5614SOL     OW28477   3.536   4.061   7.058  0.0453 -0.1398  0.3287
 5614SOL    HW128478   3.455   4.065   7.109  0.5280  0.5965  1.0278
 5614SOL    HW228479   3.609   4.043   7.117 -0.6276 -0.3240  1.1117
 5615SOL     OW28480   4.133   0.122   9.102  0.1083 -0.4296 -0.3806
 5615SOL    HW128481   4.108   0.205   9.142 -0.6113 -1.2575  0.8578
 5615SOL    HW228482   4.227   0.127   9.120 -0.2411 -1.1017  1.5894
 5616SOL     OW28483   1.822   0.883   3.357  0.1194 -0.2333  0.4801
 5616SOL    HW128484   1.851   0.900   3.447 -0.6766  1.3272  0.4450
 5616SOL    HW228485   1.835   0.788   3.352 -1.5338 -0.5287  1.6395
 5617SOL     OW28486   3.549   0.962   3.280  0.3170 -0.0355 -0.3259
 5617SOL    HW128487   3.517   0.880   3.244 -0.5148 -0.0193  0.3640
 5617SOL    HW228488   3.498   1.022   3.226 -2.2907 -1.1370  0.9064
 5618SOL     OW28489   2.859   0.983  14.280 -0.2359  0.3767  0.1711
 5618SOL    HW128490   2.858   0.891  14.252  0.0873  0.9847 -1.8317
 5618SOL    HW228491   2.950   1.007  14.264 -0.6585  0.2134 -2.4777
 5619SOL     OW28492   0.188   2.950   8.925 -0.9311 -0.0132 -0.3906
 5619SOL    HW128493   0.251   2.914   8.863 -1.5928  0.8786 -1.5755
 5619SOL    HW228494   0.189   2.894   9.003  0.3626  0.3029 -0.1816
 5620SOL     OW28495   4.505   1.068   2.960 -0.4421 -0.1310  0.0273
 5620SOL    HW128496   4.492   1.051   2.866  2.9868  1.3591 -0.7492
 5620SOL    HW228497   4.530   0.979   2.986  0.6919  0.2366  0.1992
 5621SOL     OW28498   4.278   1.229  11.892  0.0753  0.3320  0.5790
 5621SOL    HW128499   4.285   1.217  11.986 -1.0592  1.9000  0.8568
 5621SOL    HW228500   4.189   1.264  11.891 -0.0803 -0.1217 -3.2277
 5622SOL     OW28501   1.547   0.991   3.866  0.1671  0.2525  0.0070
 5622SOL    HW128502   1.460   0.983   3.905 -1.4312 -0.1957 -3.6936
 5622SOL    HW228503   1.557   1.085   3.852  0.4948  0.1693 -0.3077
 5623SOL     OW28504   3.383   4.252   3.743  0.3759  0.1702  0.5925
 5623SOL    HW128505   3.326   4.196   3.796  0.0614  0.4635  0.5632
 5623SOL    HW228506   3.471   4.219   3.760  0.2677 -1.3766 -1.8289
 5624SOL     OW28507   4.336   1.205  11.354 -0.2471 -0.1671  0.0589
 5624SOL    HW128508   4.255   1.251  11.376 -0.4595  1.0370 -3.3957
 5624SOL    HW228509   4.323   1.199  11.260  1.1554  1.2488 -0.2086
 5625SOL     OW28510   2.651   2.332  13.330  0.0013  0.1489  0.0318
 5625SOL    HW128511   2.700   2.337  13.412  1.1920  0.1727 -0.6959
 5625SOL    HW228512   2.688   2.408  13.286  0.5082 -0.0411  0.1394
 5626SOL     OW28513   4.652   0.190   5.016 -0.4099  0.0046  0.4915
 5626SOL    HW128514   4.628   0.180   5.109  0.6812 -0.8590  0.6809
 5626SOL    HW228515   4.729   0.134   5.010 -0.2341  0.2171  0.7966
 5627SOL     OW28516   0.851   2.102   8.928  0.7065 -0.2409  0.1144
 5627SOL    HW128517   0.823   2.188   8.959  0.2115 -0.0332 -0.8911
 5627SOL    HW228518   0.800   2.042   8.983  0.6668  0.5228  0.9017
 5628SOL     OW28519   0.677   0.077   5.004  0.2321  0.4401  0.6843
 5628SOL    HW128520   0.741   0.125   4.951 -0.4037  0.6180  0.0753
 5628SOL    HW228521   0.732   0.057   5.080  1.0255 -0.2745 -0.0866
 5629SOL     OW28522   4.634   1.629   3.795  0.3275 -0.3467 -0.1141
 5629SOL    HW128523   4.639   1.724   3.786 -1.0114 -0.5359 -2.7853
 5629SOL    HW228524   4.556   1.625   3.850 -0.2193 -0.4331 -0.9035
 5630SOL     OW28525   0.081   4.688   0.681  0.4150  0.0857  0.1760
 5630SOL    HW128526   0.098   4.610   0.733  1.2785 -0.8641 -1.5296
 5630SOL    HW228527   0.150   0.003   0.719  0.6951  0.5480 -0.9824
 5631SOL     OW28528   1.173   1.265  10.586 -0.1384 -0.3147  0.1716
 5631SOL    HW128529   1.164   1.255  10.681  0.9746  1.8100  0.4951
 5631SOL    HW228530   1.259   1.221  10.584 -0.8200 -1.6549  0.3166
 5632SOL     OW28531   3.851   0.082  11.419  0.4289 -0.0205  0.0950
 5632SOL    HW128532   3.849   4.729  11.446 -0.7876  0.3935  1.4518
 5632SOL    HW228533   3.894   0.130  11.490  2.0904 -0.4990 -0.5840
 5633SOL     OW28534   4.071   0.279  16.232  0.1696 -0.5604 -0.1741
 5633SOL    HW128535   4.092   0.224  16.157 -2.1346 -3.0236  0.9819
 5633SOL    HW228536   4.134   0.349  16.215 -0.9871  0.1218 -1.6857
 5634SOL     OW28537   0.152   2.564   5.690  0.0989  0.7645  0.2869
 5634SOL    HW128538   0.120   2.636   5.745 -2.4133 -0.6562  0.6807
 5634SOL    HW228539   0.150   2.489   5.748 -2.5011  1.1639  0.7228
 5635SOL     OW28540   3.890   3.124   4.737 -0.3654  0.6720  0.2155
 5635SOL    HW128541   3.810   3.071   4.741 -0.4422  0.7398 -0.5646
 5635SOL    HW228542   3.951   3.061   4.776 -2.3307 -0.1698  1.9672
 5636SOL     OW28543   1.314   4.647   7.466 -0.7380 -0.1634  0.4527
 5636SOL    HW128544   1.304   4.575   7.404  0.5582 -1.3416  1.5992
 5636SOL    HW228545   1.397   4.625   7.508 -0.5804 -0.9819 -0.2848
 5637SOL     OW28546   2.118   0.449   6.952  0.3168  0.0233  0.2627
 5637SOL    HW128547   2.120   0.405   7.037  0.6248  1.7997  1.1593
 5637SOL    HW228548   2.118   0.373   6.893 -2.1768  0.1525  0.0931
 5638SOL     OW28549   0.175   2.590   6.750 -0.0903  0.3851 -0.1602
 5638SOL    HW128550   0.091   2.596   6.704 -0.3218  0.9304  0.3400
 5638SOL    HW228551   0.157   2.632   6.834  0.1188  0.4721 -0.1612
 5639SOL     OW28552   2.397   0.919   2.099  0.0158 -0.1843 -0.7092
 5639SOL    HW128553   2.403   0.882   2.011  0.1481  0.6352 -1.0413
 5639SOL    HW228554   2.432   0.848   2.153  0.2655 -0.0496 -0.6926
 5640SOL     OW28555   2.304   2.058   6.387  0.1842  0.0513  0.4882
 5640SOL    HW128556   2.372   1.999   6.354  0.5823 -0.2151  1.7843
 5640SOL    HW228557   2.363   2.129   6.415 -0.0338  0.8719 -1.0844
 5641SOL     OW28558   3.551   4.002   2.216 -0.0081 -0.5209 -0.1543
 5641SOL    HW128559   3.608   3.964   2.284 -0.5390  0.2646  0.7187
 5641SOL    HW228560   3.465   3.962   2.231 -0.0664 -0.5561 -0.5861
 5642SOL     OW28561   3.933   0.301   8.842 -0.2847  0.1103  0.0265
 5642SOL    HW128562   3.967   0.349   8.766 -2.7171  1.1660 -0.3889
 5642SOL    HW228563   3.930   0.366   8.912  0.1999  0.7927 -0.5876
 5643SOL     OW28564   0.884   0.859   8.363 -0.1540  0.5566  0.4162
 5643SOL    HW128565   0.832   0.856   8.282  0.7104 -1.9232 -0.0504
 5643SOL    HW228566   0.892   0.765   8.380 -0.6159  0.2515 -1.0277
 5644SOL     OW28567   4.238   0.101  14.679 -0.3236  0.4890  0.0416
 5644SOL    HW128568   4.179   0.032  14.710  0.1627 -0.6721 -1.6452
 5644SOL    HW228569   4.282   0.127  14.760 -0.0397  1.2424 -0.3570
 5645SOL     OW28570   3.304   1.732   2.172 -0.9122  0.2461 -0.2158
 5645SOL    HW128571   3.319   1.816   2.215  3.2865 -0.6859  0.0726
 5645SOL    HW228572   3.366   1.733   2.099  1.1779  0.0029  1.5835
 5646SOL     OW28573   2.354   4.708   1.897 -0.6934  0.0680  0.2596
 5646SOL    HW128574   2.437   4.662   1.912  0.0786  1.8501  1.3804
 5646SOL    HW228575   2.307   4.624   1.897 -1.6102  0.5885 -1.4006
 5647SOL     OW28576   2.635   4.104   8.983  0.7021 -0.0307  0.5132
 5647SOL    HW128577   2.585   4.025   8.961  1.1872 -0.4187  0.7976
 5647SOL    HW228578   2.686   4.107   8.902 -1.1162 -2.6228 -0.7215
 5648SOL     OW28579   4.220   4.733  14.429 -0.5774 -0.4529 -0.5254
 5648SOL    HW128580   4.234   4.720  14.523  2.3174 -1.8683 -1.1498
 5648SOL    HW228581   4.265   4.661  14.385  0.1578  0.5066 -1.3424
 5649SOL     OW28582   2.821   0.249  14.992 -0.6031  0.4504  0.6219
 5649SOL    HW128583   2.861   0.249  14.905 -1.0303 -1.6507  0.4395
 5649SOL    HW228584   2.792   0.158  14.996 -3.0475  1.1209 -1.5250
 5650SOL     OW28585   2.609   0.618   8.926  0.1372  0.7820 -0.1893
 5650SOL    HW128586   2.672   0.586   8.862  0.7499  1.0841  0.2623
 5650SOL    HW228587   2.543   0.549   8.920  0.7915  0.0999  0.4072
 5651SOL     OW28588   0.327   0.341  17.176 -0.0133 -0.3673  0.3767
 5651SOL    HW128589   0.237   0.357  17.201  0.1282 -1.3777  1.5201
 5651SOL    HW228590   0.369   0.399  17.239  2.0115  0.1208 -1.3830
 5652SOL     OW28591   3.526   0.746   7.714 -0.2375 -0.1892 -0.1250
 5652SOL    HW128592   3.587   0.679   7.745 -0.1222  1.2424  2.7122
 5652SOL    HW228593   3.580   0.826   7.720 -1.2965  0.4309  1.1530
 5653SOL     OW28594   4.453   4.630   9.128 -0.0837  0.5002 -0.4297
 5653SOL    HW128595   4.453   4.657   9.220  0.9008 -2.0635  0.3287
 5653SOL    HW228596   4.490   4.542   9.137 -1.1324  0.0050 -0.8999
 5654SOL     OW28597   1.915   0.539   7.675 -0.4790  0.4755  0.1964
 5654SOL    HW128598   1.825   0.524   7.705 -0.3428 -0.7848 -0.0257
 5654SOL    HW228599   1.954   0.557   7.761  3.6975  1.5725 -1.9547
 5655SOL     OW28600   2.158   2.909  12.611  0.1893 -0.0958 -0.3598
 5655SOL    HW128601   2.092   2.883  12.675  2.4151 -0.4315  1.8041
 5655SOL    HW228602   2.104   2.917  12.532 -0.7424 -0.1708  0.2701
 5656SOL     OW28603   1.143   2.695   7.947  0.2429  0.0548 -0.0131
 5656SOL    HW128604   1.162   2.773   7.999 -0.1310 -0.7976  1.3779
 5656SOL    HW228605   1.230   2.658   7.930  0.9219  0.6105  2.3253
 5657SOL     OW28606   2.613   3.153   6.735  0.5972  0.4705 -0.0886
 5657SOL    HW128607   2.539   3.141   6.675  0.5269 -1.5267  0.3825
 5657SOL    HW228608   2.582   3.171   6.824 -0.3833 -0.1155 -0.3103
 5658SOL     OW28609   0.750   4.404  15.193 -0.5464  0.4088 -0.6072
 5658SOL    HW128610   0.721   4.495  15.199  0.4382  0.5553  2.2451
 5658SOL    HW228611   0.716   4.368  15.275  1.7996 -0.8719 -0.1755
 5659SOL     OW28612   0.973   0.928   2.412 -0.1198 -0.2285 -0.5729
 5659SOL    HW128613   0.882   0.898   2.414 -0.7406  1.6333 -0.6147
 5659SOL    HW228614   1.016   0.886   2.486  0.5544  0.3887 -0.6177
 5660SOL     OW28615   4.192   3.560   5.722 -0.1548  0.3391  0.2404
 5660SOL    HW128616   4.281   3.595   5.716  1.0682 -3.1385 -1.8212
 5660SOL    HW228617   4.202   3.473   5.685 -2.0199  0.2106  0.0080
 5661SOL     OW28618   3.994   4.680   7.069  0.1084 -0.2424 -0.2440
 5661SOL    HW128619   3.971   4.699   7.160  1.3210  1.8166 -0.3502
 5661SOL    HW228620   3.920   4.624   7.047 -0.2975  0.2179 -0.0305
 5662SOL     OW28621   3.465   0.573   4.189 -0.2260 -0.8342 -0.4791
 5662SOL    HW128622   3.376   0.551   4.218  0.1805  0.0417  1.4455
 5662SOL    HW228623   3.521   0.505   4.224  3.1310  1.7323 -0.8659
 5663SOL     OW28624   3.662   3.089   0.243 -0.1113  0.5786 -0.1174
 5663SOL    HW128625   3.623   3.105   0.329  0.6962  1.3681  0.1027
 5663SOL    HW228626   3.659   3.176   0.203 -1.2991  0.1273 -1.0057
 5664SOL     OW28627   2.844   2.005   1.052  0.2354 -0.5416  0.8150
 5664SOL    HW128628   2.937   1.991   1.037  0.3430  3.0290 -1.8281
 5664SOL    HW228629   2.818   2.058   0.977 -1.5719 -0.3042  1.6027
 5665SOL     OW28630   2.320   1.706   7.349 -0.4277  0.4593 -0.2527
 5665SOL    HW128631   2.407   1.673   7.372 -0.2325  0.9497 -0.2721
 5665SOL    HW228632   2.309   1.758   7.429  2.6697 -0.9224  1.0660
 5666SOL     OW28633   1.649   4.356   7.320 -0.0019  0.1026 -0.1396
 5666SOL    HW128634   1.635   4.442   7.361  0.8926 -0.1832  0.7829
 5666SOL    HW228635   1.709   4.393   7.256  1.4141 -0.5521  0.7982
 5667SOL     OW28636   4.508   0.549  14.999 -0.4390 -0.7124  0.0840
 5667SOL    HW128637   4.435   0.490  14.981 -2.9459  2.3464  0.2342
 5667SOL    HW228638   4.475   0.632  14.967  0.4945 -0.4107 -0.1035
 5668SOL     OW28639   2.650   3.141   8.629 -0.4474  0.4625 -0.6619
 5668SOL    HW128640   2.556   3.156   8.638 -0.3367  0.6170  0.2383
 5668SOL    HW228641   2.665   3.050   8.656 -0.0279  0.7209 -0.0196
 5669SOL     OW28642   4.045   2.492  14.874 -0.3245 -0.3657  0.3081
 5669SOL    HW128643   3.992   2.496  14.794  0.7080  2.1977 -0.2439
 5669SOL    HW228644   4.095   2.571  14.853 -1.3725  0.0395 -0.6571
 5670SOL     OW28645   1.112   0.494   9.181  0.0082 -0.2647 -0.2333
 5670SOL    HW128646   1.136   0.447   9.261  1.7786  0.9966 -0.0401
 5670SOL    HW228647   1.112   0.582   9.218 -1.3469  0.2654 -1.4891
 5671SOL     OW28648   4.128   4.437   3.543  0.1723 -0.5042  0.2821
 5671SOL    HW128649   4.082   4.367   3.496 -0.5791  0.5351 -0.5128
 5671SOL    HW228650   4.122   4.407   3.633 -0.9324  0.3865  0.4981
 5672SOL     OW28651   2.824   0.822   8.142 -0.3228  0.4057  0.5193
 5672SOL    HW128652   2.887   0.892   8.162  0.4509  0.3358 -1.6589
 5672SOL    HW228653   2.757   0.833   8.209 -0.4344 -3.5096  1.0589
 5673SOL     OW28654   2.469   1.633   1.911  0.2127  0.2411 -0.4898
 5673SOL    HW128655   2.438   1.667   1.827  1.2729  2.1979 -0.0804
 5673SOL    HW228656   2.386   1.628   1.958  0.1620 -0.9391 -0.7150
 5674SOL     OW28657   2.589   2.553   2.507  0.0336  0.6290 -0.1565
 5674SOL    HW128658   2.539   2.508   2.575  0.6348 -1.6472 -1.2375
 5674SOL    HW228659   2.680   2.545   2.535 -0.0076 -2.4773 -0.9689
 5675SOL     OW28660   1.400   2.564   7.903  0.0513  0.4428 -0.1712
 5675SOL    HW128661   1.470   2.517   7.949  0.9139  2.0290  0.1485
 5675SOL    HW228662   1.389   2.514   7.822 -1.2759 -0.6610  0.6977
 5676SOL     OW28663   0.483   4.143   6.904 -0.4215 -0.4695  0.1514
 5676SOL    HW128664   0.485   4.200   6.827 -0.9473 -1.2628 -0.4462
 5676SOL    HW228665   0.517   4.199   6.974 -2.1781 -0.3588  0.9130
 5677SOL     OW28666   4.215   0.806   2.686  0.1176  0.5987  0.5373
 5677SOL    HW128667   4.188   0.833   2.599  0.2147  0.3061  0.4161
 5677SOL    HW228668   4.133   0.767   2.715 -0.4568  0.8257 -0.8001
 5678SOL     OW28669   4.269   3.051   7.583 -0.4575 -0.5482  0.1035
 5678SOL    HW128670   4.322   2.971   7.581 -0.7736 -0.6992 -1.5996
 5678SOL    HW228671   4.326   3.114   7.539 -0.6395 -0.8530 -0.5698
 5679SOL     OW28672   1.609   0.289   1.194 -0.5394  0.3867 -0.1963
 5679SOL    HW128673   1.635   0.202   1.165  0.6951  0.4302  0.7705
 5679SOL    HW228674   1.538   0.269   1.253  0.1094  0.2074  0.5182
 5680SOL     OW28675   2.733   4.339  10.571 -0.1356 -0.0883  1.1899
 5680SOL    HW128676   2.733   4.434  10.581  0.3423  0.0375 -0.0121
 5680SOL    HW228677   2.695   4.337  10.483 -1.7183  0.7094  1.8648
 5681SOL     OW28678   3.119   0.722   1.214  0.4228  0.1616 -0.5463
 5681SOL    HW128679   3.133   0.813   1.237  1.1396 -0.3618  1.0532
 5681SOL    HW228680   3.030   0.706   1.246  0.7891  0.9683  0.8380
 5682SOL     OW28681   1.136   3.483  16.322  0.5137 -0.1753 -0.0406
 5682SOL    HW128682   1.073   3.431  16.372 -1.0213  1.2720 -0.4630
 5682SOL    HW228683   1.074   3.546  16.285 -2.4744 -3.9711 -1.5569
 5683SOL     OW28684   2.530   3.682   0.302 -0.1797  0.2263 -0.1370
 5683SOL    HW128685   2.624   3.692   0.312 -0.0334 -1.1671 -0.1473
 5683SOL    HW228686   2.545   3.611   0.240 -0.1343 -0.7838  1.0377
 5684SOL     OW28687   0.538   4.385   5.076 -0.0594  0.3744  0.4223
 5684SOL    HW128688   0.592   4.307   5.066 -0.5360 -0.1762  2.1050
 5684SOL    HW228689   0.591   4.438   5.136  0.2769 -0.2520  0.6773
 5685SOL     OW28690   3.801   2.418  10.201  0.3295  0.2309 -0.1695
 5685SOL    HW128691   3.767   2.331  10.223 -0.5906  0.1672 -1.8684
 5685SOL    HW228692   3.881   2.389  10.157  0.1749  0.9642 -0.9239
 5686SOL     OW28693   3.343   0.037  10.420  0.1137 -0.4562 -0.3862
 5686SOL    HW128694   3.355   4.684  10.443 -0.4633 -0.4498 -0.0716
 5686SOL    HW228695   3.309   0.087  10.493  2.4821 -1.1558  1.2169
 5687SOL     OW28696   0.484   4.156  10.198  0.1139  0.2849 -0.0222
 5687SOL    HW128697   0.578   4.156  10.181 -0.0067 -1.5086 -0.6733
 5687SOL    HW228698   0.437   4.123  10.122  0.9193 -1.3134  0.1872
 5688SOL     OW28699   0.543   3.941  17.735  0.4471  0.2558 -0.3582
 5688SOL    HW128700   0.479   3.991  17.685  0.8994 -1.2264 -2.4369
 5688SOL    HW228701   0.585   3.901  17.658 -0.3075  0.1468 -0.7167
 5689SOL     OW28702   4.397   0.090   0.522 -0.3197  0.2770  0.0206
 5689SOL    HW128703   4.450   0.017   0.490 -1.9623  0.3816 -3.0208
 5689SOL    HW228704   4.410   0.082   0.616  1.5932 -1.3717 -0.3861
 5690SOL     OW28705   1.120   1.093   8.212  0.0943 -0.2460 -0.0717
 5690SOL    HW128706   1.182   1.153   8.172 -0.6376  0.4102 -0.2194
 5690SOL    HW228707   1.047   1.090   8.151 -0.2796  2.3495  0.2366
 5691SOL     OW28708   1.667   3.559   4.373  0.3798  0.0229  0.2036
 5691SOL    HW128709   1.733   3.577   4.440  0.0957 -1.2072  0.8153
 5691SOL    HW228710   1.687   3.628   4.310  3.2530 -3.0775 -2.3044
 5692SOL     OW28711   0.257   0.217   2.912 -0.1457  0.3738  0.3466
 5692SOL    HW128712   0.210   0.300   2.897  0.7006  0.7494 -0.1842
 5692SOL    HW228713   0.334   0.232   2.858 -1.3292  0.9840 -1.1820
 5693SOL     OW28714   2.447   3.623  15.201 -0.2927  0.4556 -0.5992
 5693SOL    HW128715   2.399   3.552  15.244  0.7297  0.9748  1.4451
 5693SOL    HW228716   2.442   3.593  15.111 -1.6450  0.7490 -0.6267
 5694SOL     OW28717   3.069   1.785   6.441 -0.1586 -0.6185  0.0500
 5694SOL    HW128718   3.097   1.804   6.351 -0.7417 -3.0299 -0.6555
 5694SOL    HW228719   3.048   1.876   6.459  0.0821 -0.2140 -1.7117
 5695SOL     OW28720   1.503   4.706   0.161 -0.3482 -0.5767 -0.4906
 5695SOL    HW128721   1.434   0.023   0.197  1.5937  2.5015 -1.6141
 5695SOL    HW228722   1.485   4.628   0.213 -0.4116 -1.0341 -1.1992
 5696SOL     OW28723   0.080   1.329   5.958  0.1865  0.3278 -0.3757
 5696SOL    HW128724   4.728   1.305   5.943  0.3138  0.6675 -1.7308
 5696SOL    HW228725   0.069   1.424   5.951 -0.1294  0.0757 -3.4275
 5697SOL     OW28726   1.635   4.633   6.891  0.2868  0.1396  0.6345
 5697SOL    HW128727   1.582   4.686   6.831 -1.5157 -0.6906  1.5042
 5697SOL    HW228728   1.601   4.662   6.976  1.3613 -1.7459  1.7048
 5698SOL     OW28729   3.046   3.171   7.393  0.5823 -0.5441 -0.3577
 5698SOL    HW128730   3.041   3.267   7.396  1.5939 -0.5001  0.2066
 5698SOL    HW228731   3.011   3.145   7.478 -3.0704  3.9970 -0.4673
 5699SOL     OW28732   1.957   2.673   9.492 -0.1682  0.4355 -0.3637
 5699SOL    HW128733   2.027   2.701   9.551 -0.6651  0.1425  0.3765
 5699SOL    HW228734   2.003   2.671   9.408 -0.6904  3.1262 -0.7131
 5700SOL     OW28735   0.333   2.737   5.898 -0.6175  0.0831 -0.0239
 5700SOL    HW128736   0.300   2.784   5.975  1.3266 -2.0580  2.0870
 5700SOL    HW228737   0.404   2.800   5.885 -0.0227 -0.6175 -0.1202
 5701SOL     OW28738   1.487   2.621   6.955  0.0808  0.7582 -0.5602
 5701SOL    HW128739   1.422   2.688   6.933 -1.5084 -0.0801  1.6065
 5701SOL    HW228740   1.558   2.686   6.955 -0.2674  1.1225  2.5800
 5702SOL     OW28741   3.105   0.385   8.222 -0.3070  0.2132 -0.5551
 5702SOL    HW128742   3.088   0.337   8.303 -2.2788  2.6340  0.4588
 5702SOL    HW228743   3.021   0.365   8.181 -1.6290  1.1947  1.6676
 5703SOL     OW28744   0.214   4.319   8.162  0.0374 -0.0126 -0.0002
 5703SOL    HW128745   0.301   4.281   8.165 -0.1794 -0.4491  0.9064
 5703SOL    HW228746   0.195   4.345   8.072 -1.9001  2.3607  1.0851
 5704SOL     OW28747   1.509   0.112   0.457  0.1707  0.2868  0.0528
 5704SOL    HW128748   1.438   0.172   0.436  0.0209  0.3932  0.8574
 5704SOL    HW228749   1.472   0.072   0.536 -0.9275 -0.5083 -0.8633
 5705SOL     OW28750   1.652   2.060   9.304 -0.6081 -0.7087 -0.0516
 5705SOL    HW128751   1.578   2.118   9.288 -1.3741 -0.8865  2.7206
 5705SOL    HW228752   1.624   1.982   9.257 -0.5656 -1.2575  0.8244
 5706SOL     OW28753   1.181   3.423   7.452 -0.1732 -0.4479 -0.2365
 5706SOL    HW128754   1.198   3.515   7.433  3.2488 -1.2310 -1.0314
 5706SOL    HW228755   1.271   3.396   7.471 -0.5811 -1.4620  0.2646
 5707SOL     OW28756   2.474   4.174   6.362  0.1416 -0.1187  0.0065
 5707SOL    HW128757   2.461   4.264   6.332 -1.1830  0.1020  1.2310
 5707SOL    HW228758   2.563   4.183   6.396  0.2401  0.1829 -0.3313
 5708SOL     OW28759   4.001   2.134  11.883 -0.1907  0.8001  0.1245
 5708SOL    HW128760   3.928   2.125  11.822  1.3884  0.6777 -1.7203
 5708SOL    HW228761   3.996   2.049  11.927 -2.3926  0.7248 -0.2418
 5709SOL     OW28762   3.424   0.336   6.592  0.4354 -0.2643 -0.0301
 5709SOL    HW128763   3.459   0.410   6.642 -0.0493 -1.0082  1.4112
 5709SOL    HW228764   3.440   0.258   6.646 -1.0699 -0.7235 -0.2621
 5710SOL     OW28765   2.586   1.042   9.927  0.0881 -0.4646  0.1225
 5710SOL    HW128766   2.515   1.091   9.886  1.0058  1.1869  0.5274
 5710SOL    HW228767   2.595   0.972   9.863  0.5919 -2.7901  2.7481
 5711SOL     OW28768   1.272   2.636   4.117  0.3428 -0.0069  0.5243
 5711SOL    HW128769   1.213   2.650   4.044  0.1247 -1.8217  0.3364
 5711SOL    HW228770   1.318   2.720   4.122 -1.3049  0.8457  1.1809
 5712SOL     OW28771   3.000   3.096   5.926 -0.1767 -0.0759  0.2353
 5712SOL    HW128772   3.079   3.146   5.948 -0.8897  0.1604  2.2874
 5712SOL    HW228773   2.962   3.136   5.848 -0.6243  0.7957  0.9014
 5713SOL     OW28774   3.964   0.302   3.867 -0.0752  0.2723 -0.1369
 5713SOL    HW128775   3.921   0.375   3.824 -2.1704 -0.4340  0.7405
 5713SOL    HW228776   3.910   0.227   3.844 -1.7320  1.0091  1.3288
 5714SOL     OW28777   1.145   2.555   4.709  0.0350  0.0164 -0.8304
 5714SOL    HW128778   1.171   2.522   4.623  0.2359 -0.5589 -0.5479
 5714SOL    HW228779   1.172   2.647   4.706  0.6926 -0.1833 -1.0094
 5715SOL     OW28780   4.344   1.060   5.165 -0.1567 -0.2759 -0.1560
 5715SOL    HW128781   4.356   1.059   5.070  0.4246  2.6517 -0.1157
 5715SOL    HW228782   4.281   0.989   5.179 -0.4190 -0.0352 -0.1308
 5716SOL     OW28783   4.168   3.308   4.111 -0.6646  0.4236  0.7283
 5716SOL    HW128784   4.132   3.306   4.200 -0.3675  1.3063  0.8651
 5716SOL    HW228785   4.108   3.247   4.067 -1.1727  0.5509  1.2409
 5717SOL     OW28786   3.704   0.458   4.302  0.0522  0.1777 -0.2992
 5717SOL    HW128787   3.797   0.434   4.310  0.4885  1.9486  0.0448
 5717SOL    HW228788   3.680   0.466   4.394  0.7653  2.9815 -0.3522
 5718SOL     OW28789   3.104   3.424  15.224 -0.2972  0.2486  0.1194
 5718SOL    HW128790   3.025   3.445  15.274  0.3669  2.4795  0.2301
 5718SOL    HW228791   3.154   3.505  15.227  0.6698 -0.2818 -1.6441
 5719SOL     OW28792   1.666   4.614   0.646  0.1522 -0.0713 -1.0622
 5719SOL    HW128793   1.748   4.615   0.695 -1.2893  1.1725  1.2962
 5719SOL    HW228794   1.702   4.616   0.557  0.3504  2.1574 -0.9216
 5720SOL     OW28795   2.331   3.476   2.867  0.4476  0.5437 -0.0414
 5720SOL    HW128796   2.262   3.421   2.829 -0.0365  1.6012 -0.6811
 5720SOL    HW228797   2.341   3.538   2.795  1.8362  0.5245  0.1369
 5721SOL     OW28798   1.703   2.618   8.193  0.2995  0.2399  0.0039
 5721SOL    HW128799   1.798   2.622   8.184  0.2751  1.2272  0.1729
 5721SOL    HW228800   1.681   2.543   8.138  1.6036  0.5482 -0.9263
 5722SOL     OW28801   2.045   2.903   7.527 -0.5774  0.1779  0.5427
 5722SOL    HW128802   1.977   2.838   7.512  1.3067 -1.3440 -1.3963
 5722SOL    HW228803   2.045   2.908   7.623 -0.8246 -0.9136  0.5965
 5723SOL     OW28804   0.983   1.031   9.932  0.0316  0.2681 -0.2184
 5723SOL    HW128805   1.012   0.940   9.918  1.5417  0.7900 -0.5258
 5723SOL    HW228806   1.005   1.029  10.025  0.0274 -0.0603 -0.2235
 5724SOL     OW28807   3.340   3.446   4.995  0.5215  0.0428 -0.3986
 5724SOL    HW128808   3.327   3.536   5.027  2.4170 -0.8969  3.0152
 5724SOL    HW228809   3.289   3.446   4.914 -1.2525  0.2450  0.7338
 5725SOL     OW28810   2.031   3.385  11.688 -0.1696  0.2530 -0.7567
 5725SOL    HW128811   2.096   3.378  11.619  0.2651  3.4752 -0.7034
 5725SOL    HW228812   2.016   3.480  11.697 -0.9086  0.0492  0.1666
 5726SOL     OW28813   1.520   4.642   8.345  0.1207  0.0235  0.1373
 5726SOL    HW128814   1.427   4.657   8.362 -0.4023 -1.9584 -0.9977
 5726SOL    HW228815   1.512   4.559   8.298 -0.3589 -0.5051  1.1320
 5727SOL     OW28816   0.208   1.999  10.717 -0.4554  0.0545 -0.0817
 5727SOL    HW128817   0.165   1.943  10.781 -1.5396 -0.9127 -1.6649
 5727SOL    HW228818   0.133   2.032  10.668 -0.2182 -0.3142 -0.6951
 5728SOL     OW28819   0.877   1.969   8.533 -0.3486 -0.1329  0.4019
 5728SOL    HW128820   0.920   1.996   8.452  1.7064 -0.5126  1.3548
 5728SOL    HW228821   0.784   1.990   8.520 -0.1699 -0.1160 -0.7814
 5729SOL     OW28822   1.863   1.365   0.994 -0.1251 -0.0411 -0.4064
 5729SOL    HW128823   1.846   1.308   1.069 -1.1521 -0.2804 -0.8115
 5729SOL    HW228824   1.783   1.417   1.003 -0.0130 -0.0980  0.8830
 5730SOL     OW28825   3.636   1.071  10.086 -0.0686 -0.5078 -0.3713
 5730SOL    HW128826   3.691   1.123  10.027  0.6391 -0.5603  0.2468
 5730SOL    HW228827   3.548   1.101  10.064  1.0940  3.0767 -0.2510
 5731SOL     OW28828   4.462   3.543   4.910 -0.5437 -0.1394 -0.3448
 5731SOL    HW128829   4.433   3.460   4.948 -0.0557  0.2961  0.9897
 5731SOL    HW228830   4.433   3.530   4.820  1.7410  1.2126 -1.2584
 5732SOL     OW28831   1.119   0.191   9.733 -0.1645  0.2836 -0.1005
 5732SOL    HW128832   1.124   0.130   9.659  2.3010 -0.3860  0.6023
 5732SOL    HW228833   1.168   0.154   9.807  0.1525 -0.6595 -0.7757
 5733SOL     OW28834   0.740   4.006   4.388 -0.3789  0.2097  0.1614
 5733SOL    HW128835   0.672   3.975   4.328  1.0240 -1.7283 -0.4443
 5733SOL    HW228836   0.786   4.060   4.324 -0.0582 -1.4639 -1.0548
 5734SOL     OW28837   0.729   2.981  13.234  0.4320  0.3365 -0.1735
 5734SOL    HW128838   0.654   3.033  13.207  0.9776  2.1085  1.7464
 5734SOL    HW228839   0.793   3.005  13.168 -1.2382  1.3066 -1.4358
 5735SOL     OW28840   1.875   2.481   8.845 -0.4972  0.2297 -0.2621
 5735SOL    HW128841   1.968   2.498   8.864  0.1056 -2.3039 -0.9247
 5735SOL    HW228842   1.847   2.406   8.896  0.0742  0.2569  0.1008
 5736SOL     OW28843   2.969   1.659  13.975  0.3074 -0.0946  0.4726
 5736SOL    HW128844   3.033   1.725  13.948 -0.8394 -0.5962 -3.4189
 5736SOL    HW228845   2.989   1.588  13.914  0.4435 -0.4260  0.9032
 5737SOL     OW28846   3.302   3.440  14.464 -0.3775 -0.1783  0.0081
 5737SOL    HW128847   3.309   3.472  14.554 -0.8111 -3.5059  1.2153
 5737SOL    HW228848   3.315   3.347  14.479 -0.6213 -0.3488 -0.8493
 5738SOL     OW28849   0.118   4.317  11.023 -0.1957  0.1001 -0.0690
 5738SOL    HW128850   0.048   4.332  11.087 -0.7959 -0.8007 -0.5194
 5738SOL    HW228851   0.189   4.306  11.087 -1.0978 -0.3047  0.8647
 5739SOL     OW28852   2.889   4.123   4.764  0.8786  0.1994  0.6794
 5739SOL    HW128853   2.978   4.088   4.753  0.5490 -0.4394  0.0548
 5739SOL    HW228854   2.885   4.143   4.858 -1.1398 -1.9285  1.0254
 5740SOL     OW28855   2.966   3.645  17.167 -0.1104 -0.0255  0.4533
 5740SOL    HW128856   3.011   3.588  17.104  0.8282  2.1288 -0.8019
 5740SOL    HW228857   2.876   3.643  17.135  0.2611 -1.1538 -0.5168
 5741SOL     OW28858   3.164   3.557   8.358  0.0945  0.2020 -0.0607
 5741SOL    HW128859   3.122   3.478   8.324  0.0005  0.8490 -1.4444
 5741SOL    HW228860   3.183   3.529   8.448 -0.4909  0.3932  0.1165
 5742SOL     OW28861   0.782   3.983   5.316 -0.2064 -0.1900 -0.2770
 5742SOL    HW128862   0.713   3.940   5.367 -0.3419 -0.5868 -0.7926
 5742SOL    HW228863   0.737   4.017   5.238  0.1905 -1.8346 -1.2118
 5743SOL     OW28864   0.320   0.661  14.341 -0.4132 -0.2595  0.0565
 5743SOL    HW128865   0.314   0.666  14.246  0.3492  1.6047  0.1004
 5743SOL    HW228866   0.261   0.731  14.371  0.8230  0.6561  0.3442
 5744SOL     OW28867   3.180   1.028   1.990  0.3582  0.2980 -0.3013
 5744SOL    HW128868   3.226   0.959   2.038  0.1861  0.2407 -0.2205
 5744SOL    HW228869   3.127   1.065   2.060  0.3767 -0.2553  0.0118
 5745SOL     OW28870   2.796   0.207   8.471  0.5102 -0.9244  0.2487
 5745SOL    HW128871   2.716   0.247   8.437  0.4721 -0.7576  0.5328
 5745SOL    HW228872   2.846   0.285   8.496 -0.9651 -0.3229  1.3750
 5746SOL     OW28873   3.649   2.242   2.970 -0.6387 -0.4552 -0.1883
 5746SOL    HW128874   3.588   2.240   3.044 -0.0365  0.4973  0.3391
 5746SOL    HW228875   3.603   2.182   2.911  0.0930 -0.5806 -0.6215
 5747SOL     OW28876   3.573   3.087   4.734  0.0542 -0.5821 -0.1135
 5747SOL    HW128877   3.582   3.178   4.763 -0.7469  0.4744 -3.1618
 5747SOL    HW228878   3.482   3.086   4.706 -0.1090  1.8832  0.3191
 5748SOL     OW28879   4.106   3.005   3.690 -0.0548 -0.4768 -0.0371
 5748SOL    HW128880   4.081   2.975   3.603  0.1382  0.1332 -0.3060
 5748SOL    HW228881   4.038   2.967   3.745 -0.0680  0.9085  0.9052
 5749SOL     OW28882   0.931   3.038  17.256 -0.4897  0.2665 -0.4971
 5749SOL    HW128883   0.871   3.009  17.325  0.0063  0.1837 -0.0959
 5749SOL    HW228884   0.868   3.057  17.187  0.6546  3.0380 -0.7580
 5750SOL     OW28885   4.157   0.407   4.639 -0.4921  0.1505  0.4907
 5750SOL    HW128886   4.103   0.486   4.644 -0.1238  0.5631 -2.3798
 5750SOL    HW228887   4.239   0.450   4.662 -1.8677  3.1247 -0.1098
 5751SOL     OW28888   3.910   3.960   8.637 -0.0773 -0.1439 -0.7589
 5751SOL    HW128889   3.917   3.964   8.733  2.3775  1.5343 -1.0283
 5751SOL    HW228890   3.989   3.912   8.615 -1.2092 -0.5892 -3.8372
 5752SOL     OW28891   0.167   0.093   5.849 -0.0866  0.1240  0.1431
 5752SOL    HW128892   0.119   0.089   5.766 -0.0217  1.3334  0.0434
 5752SOL    HW228893   0.099   0.047   5.898 -1.9602  1.0571 -1.5747
 5753SOL     OW28894   2.225   4.299  11.656 -0.4188 -0.7284  0.0896
 5753SOL    HW128895   2.180   4.233  11.604 -0.8162 -1.2035  1.0345
 5753SOL    HW228896   2.227   4.252  11.739 -0.8821 -1.1596 -0.1441
 5754SOL     OW28897   3.862   2.749   4.846 -0.7719 -0.1806 -0.1332
 5754SOL    HW128898   3.943   2.798   4.861 -1.0073  0.5986 -1.3942
 5754SOL    HW228899   3.895   2.667   4.810 -0.6637 -0.1658 -0.0658
 5755SOL     OW28900   3.541   1.225   5.609 -1.3350  0.3832  0.2460
 5755SOL    HW128901   3.526   1.318   5.592  0.1778  0.5781 -0.0937
 5755SOL    HW228902   3.455   1.185   5.613 -0.4040 -1.9651 -3.3492
 5756SOL     OW28903   1.145   4.381   3.205  0.0636  0.2508  0.3000
 5756SOL    HW128904   1.196   4.302   3.223  0.9091  0.0617 -3.0077
 5756SOL    HW228905   1.070   4.349   3.156 -0.2897  0.0033  1.0061
 5757SOL     OW28906   3.190   0.171  13.146 -0.4927 -0.2556 -0.6543
 5757SOL    HW128907   3.137   0.230  13.092  0.0787  0.6291 -0.2493
 5757SOL    HW228908   3.170   0.093  13.096 -0.5678 -0.9805  0.5028
 5758SOL     OW28909   0.727   3.482   6.146 -0.1793 -0.3913 -0.7428
 5758SOL    HW128910   0.685   3.445   6.068 -1.5014  0.8632 -0.6256
 5758SOL    HW228911   0.732   3.405   6.202 -0.9844  0.2995  0.2746
 5759SOL     OW28912   2.282   2.725  16.697 -0.4806 -0.0200 -0.5144
 5759SOL    HW128913   2.307   2.706  16.606  0.4210 -0.4151 -0.1833
 5759SOL    HW228914   2.198   2.770  16.690 -1.2017 -1.2267  0.3822
 5760SOL     OW28915   2.284   3.733   2.279  0.9195 -0.2758 -0.2276
 5760SOL    HW128916   2.315   3.703   2.364 -0.3143  0.9589  0.6635
 5760SOL    HW228917   2.296   3.646   2.240 -1.3766 -0.7944  0.1811
 5761SOL     OW28918   2.704   0.879   1.677  0.2667  0.0272 -0.2234
 5761SOL    HW128919   2.785   0.930   1.687  0.5413 -0.1885 -1.2858
 5761SOL    HW228920   2.635   0.944   1.685  1.1426  0.8420  0.7369
 5762SOL     OW28921   2.288   4.349   2.102  0.4742 -0.1755 -0.0032
 5762SOL    HW128922   2.240   4.376   2.024 -2.9696 -1.1340  1.7651
 5762SOL    HW228923   2.311   4.257   2.089  0.5364 -0.3757  1.4635
 5763SOL     OW28924   1.045   3.935   2.826  0.1017  0.1445  0.2970
 5763SOL    HW128925   0.988   3.976   2.760 -0.2344 -0.6311  0.1104
 5763SOL    HW228926   1.025   3.842   2.821  0.8102 -0.1852  3.3502
 5764SOL     OW28927   3.775   2.051   7.636 -0.3943  0.0154  0.1838
 5764SOL    HW128928   3.710   2.094   7.692  0.4362  0.8000  0.5355
 5764SOL    HW228929   3.835   2.010   7.698  0.1913  1.5450  0.6289
 5765SOL     OW28930   1.394   3.154   5.389 -0.0818  0.3817 -0.2038
 5765SOL    HW128931   1.320   3.114   5.435 -0.5722 -0.8489 -2.0734
 5765SOL    HW228932   1.463   3.153   5.455  0.5402  0.8026 -0.8460
 5766SOL     OW28933   3.307   1.291   3.078 -0.0567  0.1891  0.1304
 5766SOL    HW128934   3.353   1.319   3.157 -1.4969 -0.3717  1.1757
 5766SOL    HW228935   3.317   1.196   3.085 -2.4974  0.0152  1.5098
 5767SOL     OW28936   1.413   0.601   8.561 -0.4110 -0.5263 -0.0683
 5767SOL    HW128937   1.367   0.549   8.626 -0.0381 -0.6586  0.0885
 5767SOL    HW228938   1.446   0.671   8.617  2.3896  0.3217 -2.7611
 5768SOL     OW28939   2.993   0.432  16.200  0.1693 -0.5061  0.3867
 5768SOL    HW128940   2.973   0.525  16.212 -0.1864 -1.0496  4.1325
 5768SOL    HW228941   3.073   0.423  16.252  0.3851  1.0079  0.3021
 5769SOL     OW28942   1.024   2.012   2.032 -0.2864 -0.2586  0.4810
 5769SOL    HW128943   1.034   2.070   2.107 -1.6038  0.6153 -0.0275
 5769SOL    HW228944   1.100   2.042   1.980  0.7999  0.1480  2.3076
 5770SOL     OW28945   3.634   3.921   6.855 -0.0094  0.0578  0.0416
 5770SOL    HW128946   3.620   3.828   6.874 -0.9758  1.0577  4.1765
 5770SOL    HW228947   3.567   3.957   6.913  2.9256  2.6221  1.8495
 5771SOL     OW28948   4.137   1.285  14.492 -0.1515  0.7255  0.4307
 5771SOL    HW128949   4.079   1.361  14.490 -0.3147  0.5603 -0.9486
 5771SOL    HW228950   4.066   1.223  14.503 -1.2162  1.8929  0.0909
 5772SOL     OW28951   3.951   4.226   8.587 -0.3281  0.0142 -0.1290
 5772SOL    HW128952   3.927   4.134   8.583  1.7722 -0.4309 -2.5231
 5772SOL    HW228953   3.910   4.259   8.668 -2.3405  1.0589 -1.5657
 5773SOL     OW28954   3.726   3.169  13.601  0.4925 -0.3086  0.4445
 5773SOL    HW128955   3.735   3.264  13.609 -0.4063 -0.1611 -0.2390
 5773SOL    HW228956   3.717   3.172  13.506  0.1265 -0.2383  0.4797
 5774SOL     OW28957   4.515   0.005   1.072  0.0132 -0.0315  0.0631
 5774SOL    HW128958   4.490   0.087   1.113 -2.7121  0.1933 -2.0329
 5774SOL    HW228959   4.604   0.010   1.035  0.6167  0.8012  1.6526
 5775SOL     OW28960   0.364   1.752   5.013  0.4491 -0.1171  0.3369
 5775SOL    HW128961   0.379   1.697   5.089 -2.0931  0.3042  1.1509
 5775SOL    HW228962   0.383   1.840   5.046 -0.2218  0.7571 -1.5758
 5776SOL     OW28963   0.468   3.150  10.351  0.2014  0.3805 -0.1057
 5776SOL    HW128964   0.402   3.216  10.330 -1.1209 -0.6777  0.6981
 5776SOL    HW228965   0.480   3.169  10.444 -1.4062 -0.0704  0.1826
 5777SOL     OW28966   2.388   3.132   8.524 -0.6229 -0.3014  0.4398
 5777SOL    HW128967   2.425   3.093   8.445  0.2953 -0.1877  0.8193
 5777SOL    HW228968   2.335   3.202   8.487 -0.6250 -1.4513 -1.7395
 5778SOL     OW28969   3.169   1.211   4.391 -0.8448  0.1803  0.1736
 5778SOL    HW128970   3.151   1.123   4.358  2.3284  0.0538 -1.3089
 5778SOL    HW228971   3.100   1.238   4.451  0.3577  2.8947  0.3333
 5779SOL     OW28972   1.609   2.259   6.492  0.0789  0.2035 -0.0212
 5779SOL    HW128973   1.643   2.257   6.581  0.4309 -1.0787 -0.1858
 5779SOL    HW228974   1.538   2.196   6.503 -1.1536  1.3577 -1.3353
 5780SOL     OW28975   3.807   0.057   8.731  0.4864 -0.5582  0.2511
 5780SOL    HW128976   3.857   0.133   8.758 -0.5875 -0.4066  1.8264
 5780SOL    HW228977   3.865   0.005   8.676 -0.2935  0.2344 -1.3249
 5781SOL     OW28978   3.537   1.534   9.263  0.4609 -0.1636 -0.1156
 5781SOL    HW128979   3.625   1.569   9.270  0.5144 -0.1511 -0.8782
 5781SOL    HW228980   3.545   1.458   9.204  0.6665 -1.2874  1.3549
 5782SOL     OW28981   3.497   4.357   3.149  0.0575  0.1377 -0.7038
 5782SOL    HW128982   3.472   4.279   3.198  0.6788 -0.7559 -1.8205
 5782SOL    HW228983   3.411   4.399   3.144  0.4160  1.1668  1.7806
 5783SOL     OW28984   2.366   1.491   8.752  1.0667  0.2084  0.0362
 5783SOL    HW128985   2.417   1.457   8.679  1.2295 -1.6176  0.9848
 5783SOL    HW228986   2.369   1.586   8.743 -2.5181  0.1887 -1.0431
 5784SOL     OW28987   0.926   3.852  13.195 -0.1899 -0.1939  0.0535
 5784SOL    HW128988   0.918   3.757  13.184 -0.6930 -0.2056  0.5323
 5784SOL    HW228989   0.984   3.875  13.122  2.4507  0.0057  2.2319
 5785SOL     OW28990   2.287   0.355   8.120 -0.0273 -0.4373  0.2866
 5785SOL    HW128991   2.243   0.288   8.173 -1.4502 -0.5878 -1.0975
 5785SOL    HW228992   2.296   0.434   8.175 -1.6110 -1.2072  1.6472
 5786SOL     OW28993   2.814   0.279   2.296 -0.2305  0.3325  0.6895
 5786SOL    HW128994   2.759   0.284   2.374 -0.2397  0.5988  0.6665
 5786SOL    HW228995   2.896   0.244   2.332  0.7678  0.7239 -1.1534
 5787SOL     OW28996   4.415   3.162  14.046 -0.0651  0.0521 -0.0234
 5787SOL    HW128997   4.367   3.229  14.094 -0.5540 -0.0874 -0.3226
 5787SOL    HW228998   4.403   3.088  14.105  1.9726 -0.4906 -0.2905
 5788SOL     OW28999   4.148   4.064   4.335 -0.1247  0.3305  0.0620
 5788SOL    HW129000   4.204   4.118   4.392 -0.4486  0.6587  0.0698
 5788SOL    HW229001   4.087   4.120   4.287  0.4703  0.7132 -0.2447
 5789SOL     OW29002   1.852   0.391   7.198  0.4509 -0.6238 -0.4693
 5789SOL    HW129003   1.945   0.370   7.205  0.2773 -1.0154  0.6436
 5789SOL    HW229004   1.840   0.429   7.285 -2.8834 -0.5337 -0.9826
 5790SOL     OW29005   0.332   3.964   8.173  0.8839  0.6465 -0.3674
 5790SOL    HW129006   0.412   3.923   8.141 -0.1764 -0.9274 -1.0124
 5790SOL    HW229007   0.273   3.946   8.099  1.1785 -0.1697 -0.4061
 5791SOL     OW29008   4.519   1.811   5.505 -0.0676  0.4166  1.2083
 5791SOL    HW129009   4.492   1.735   5.557  0.5312 -1.0405 -0.6181
 5791SOL    HW229010   4.495   1.778   5.419 -0.0534  1.7217  0.7080
 5792SOL     OW29011   3.812   1.019   6.818  1.0489 -0.5325  0.6251
 5792SOL    HW129012   3.727   1.052   6.848  1.1497  0.1067  0.2218
 5792SOL    HW229013   3.844   1.088   6.759 -3.1122  0.8256 -0.0577
 5793SOL     OW29014   4.380   1.750   3.051 -0.6320  0.5492 -0.1071
 5793SOL    HW129015   4.417   1.743   3.139 -2.1451  2.2068  0.6739
 5793SOL    HW229016   4.318   1.678   3.050  0.1211 -0.0993  0.4971
 5794SOL     OW29017   3.783   4.250  16.918 -0.4831  0.1248  0.1013
 5794SOL    HW129018   3.703   4.209  16.888 -0.1938 -2.0157  2.1790
 5794SOL    HW229019   3.758   4.340  16.935  0.8443  0.6463 -0.7021
 5795SOL     OW29020   1.461   1.272   3.842 -0.1294  0.3438 -0.1819
 5795SOL    HW129021   1.426   1.344   3.789 -1.4127 -0.9720 -1.1010
 5795SOL    HW229022   1.377   1.228   3.851  0.0286  0.5065  2.0808
 5796SOL     OW29023   3.288   1.136   3.328  0.2025 -0.1071  0.2205
 5796SOL    HW129024   3.232   1.100   3.258 -0.3027  2.6460 -0.7873
 5796SOL    HW229025   3.242   1.092   3.399 -0.9059  0.9552  0.1632
 5797SOL     OW29026   3.701   0.422   3.865  0.4372  0.0112 -0.0962
 5797SOL    HW129027   3.612   0.441   3.895 -0.1616  0.6258 -2.2735
 5797SOL    HW229028   3.714   0.327   3.864  0.9525  0.0815  0.0236
 5798SOL     OW29029   1.074   3.806   8.522  0.2559 -0.3230  0.2388
 5798SOL    HW129030   1.045   3.715   8.516 -0.7971 -0.1578  2.5729
 5798SOL    HW229031   1.131   3.804   8.599 -1.7589  0.3074  1.7571
 5799SOL     OW29032   0.329   1.867   8.266  0.0345  0.5411  0.1601
 5799SOL    HW129033   0.391   1.808   8.224 -0.1449 -0.9741  2.0157
 5799SOL    HW229034   0.367   1.953   8.246 -1.4211  0.5957 -2.4644
 5800SOL     OW29035   4.472   3.487  10.386 -0.4357  0.2278  0.1464
 5800SOL    HW129036   4.514   3.470  10.302 -2.0824  0.5454 -0.7465
 5800SOL    HW229037   4.404   3.553  10.369 -1.3226 -1.2479 -2.0842
 5801SOL     OW29038   1.863   1.113  17.511 -0.6130 -0.1009  0.6585
 5801SOL    HW129039   1.816   1.196  17.499 -1.3698 -0.9304 -2.1005
 5801SOL    HW229040   1.931   1.133  17.575 -0.3741 -0.5187  0.5363
 5802SOL     OW29041   4.315   3.468  14.945 -0.4009 -0.0435 -0.0540
 5802SOL    HW129042   4.350   3.435  14.862 -1.6434  0.9797 -0.9944
 5802SOL    HW229043   4.221   3.479  14.931 -0.5307 -1.7390 -0.4789
 5803SOL     OW29044   4.328   4.268  17.042  0.2785 -0.4281 -0.1434
 5803SOL    HW129045   4.312   4.174  17.036  2.0354 -0.6561 -1.2080
 5803SOL    HW229046   4.240   4.304  17.038  0.4326  0.1155  1.4084
 5804SOL     OW29047   1.731   0.243   8.773  0.3453  0.5576  0.0040
 5804SOL    HW129048   1.680   0.194   8.709  1.3059  0.5414 -0.7384
 5804SOL    HW229049   1.790   0.179   8.814  0.0599 -0.3644 -1.0376
 5805SOL     OW29050   0.061   3.433   9.122 -0.3403 -0.5440 -0.4336
 5805SOL    HW129051   0.066   3.448   9.216 -1.6837 -0.4501 -0.3685
 5805SOL    HW229052   4.711   3.465   9.110  0.4075  1.2343 -1.1954
 5806SOL     OW29053   3.473   3.293   2.125  0.3163 -0.2724  0.1296
 5806SOL    HW129054   3.432   3.346   2.193 -0.4005  1.7739 -1.8889
 5806SOL    HW229055   3.401   3.283   2.063  0.7094  1.1677 -0.5639
 5807SOL     OW29056   1.910   1.022   9.043  0.5851 -0.1691 -0.2420
 5807SOL    HW129057   1.844   1.086   9.070 -0.0093  0.2486 -2.6767
 5807SOL    HW229058   1.927   1.067   8.960 -1.5870  2.6716  0.8428
 5808SOL     OW29059   2.939   0.782   8.442  0.1614  1.0313  0.2014
 5808SOL    HW129060   2.878   0.714   8.413  0.7302  0.9096 -0.7138
 5808SOL    HW229061   3.015   0.777   8.384 -0.8010  0.6976 -1.0329
 5809SOL     OW29062   4.316   1.310   6.893 -0.2660  0.1617 -0.1599
 5809SOL    HW129063   4.243   1.250   6.874 -1.0486  1.5046 -1.3876
 5809SOL    HW229064   4.376   1.265   6.953  1.8935  1.5211 -1.3582
 5810SOL     OW29065   0.720   4.286   6.437  0.1789  0.2465  0.1112
 5810SOL    HW129066   0.732   4.199   6.477  0.1344  0.1169 -0.1593
 5810SOL    HW229067   0.624   4.291   6.429  0.5036  2.8270 -1.9884
 5811SOL     OW29068   3.441   3.935   6.096  0.3149  1.1064  0.3499
 5811SOL    HW129069   3.448   3.972   6.184  0.1765  0.5988  0.5686
 5811SOL    HW229070   3.365   3.977   6.054  0.8525  0.9168 -0.8148
 5812SOL     OW29071   1.305   1.233   9.268 -0.1613  0.0073  0.6989
 5812SOL    HW129072   1.259   1.203   9.346 -1.1352  0.0572  0.1450
 5812SOL    HW229073   1.232   1.249   9.209 -0.2102  1.8722  1.2666
 5813SOL     OW29074   4.115   4.201   8.361 -0.0239 -0.0051  0.5518
 5813SOL    HW129075   4.191   4.249   8.393  0.1081  0.0630  0.1272
 5813SOL    HW229076   4.066   4.184   8.442 -0.8117 -2.9789 -0.5524
 5814SOL     OW29077   3.558   1.075   8.840  0.8411  0.1413  0.1167
 5814SOL    HW129078   3.520   1.034   8.917  0.9838  1.1120  0.7107
 5814SOL    HW229079   3.511   1.020   8.777 -0.9784 -0.1699  1.7744
 5815SOL     OW29080   3.598   2.737  15.127 -0.1529 -0.4487 -0.2330
 5815SOL    HW129081   3.605   2.745  15.032 -3.3942  2.6730 -0.2359
 5815SOL    HW229082   3.671   2.792  15.154 -0.7048  0.1557  0.0389
 5816SOL     OW29083   2.767   4.105   8.254  0.0008  0.1269 -0.3089
 5816SOL    HW129084   2.700   4.172   8.267  0.1527  0.1991  0.0743
 5816SOL    HW229085   2.736   4.024   8.295 -0.1613  0.1904 -0.3079
 5817SOL     OW29086   0.632   1.544   3.768  0.2009  0.4500 -0.1222
 5817SOL    HW129087   0.647   1.468   3.825  1.7512  0.2679 -0.7561
 5817SOL    HW229088   0.702   1.536   3.702  0.7387  0.5749  0.4315
 5818SOL     OW29089   1.141   2.463   4.283 -0.0300 -0.3462 -0.1176
 5818SOL    HW129090   1.163   2.384   4.234  1.0787  1.1241 -1.9912
 5818SOL    HW229091   1.194   2.518   4.226  0.4256 -0.9564 -0.2776
 5819SOL     OW29092   1.188   3.829   8.273 -0.1921  0.1424  0.3670
 5819SOL    HW129093   1.239   3.906   8.296  1.9903 -1.3629  0.5031
 5819SOL    HW229094   1.156   3.806   8.361 -1.8571  1.4745  0.1172
 5820SOL     OW29095   0.609   2.073   8.171  0.1181 -0.3892 -0.0348
 5820SOL    HW129096   0.691   2.120   8.189 -0.4098 -0.1391  1.7542
 5820SOL    HW229097   0.561   2.143   8.128 -1.0360 -1.4419 -0.4714
 5821SOL     OW29098   2.604   0.491  16.436  0.3540 -0.3233 -0.0284
 5821SOL    HW129099   2.622   0.443  16.355 -0.2244 -0.9341  0.2016
 5821SOL    HW229100   2.557   0.417  16.475  0.4713  0.7590  2.1567
 5822SOL     OW29101   1.296   4.425   8.703  0.0454  0.0611 -0.2977
 5822SOL    HW129102   1.341   4.449   8.784  0.4443 -1.6290 -0.0253
 5822SOL    HW229103   1.209   4.459   8.725 -0.3471 -1.3127  0.2534
 5823SOL     OW29104   1.051   0.082   6.347  0.1289  0.5562 -0.0311
 5823SOL    HW129105   1.029   0.046   6.432 -1.9098 -0.1701 -0.8597
 5823SOL    HW229106   1.125   0.023   6.339 -0.4414 -0.2183  0.3660
 5824SOL     OW29107   4.537   1.709   0.010 -0.2425 -0.2456  0.2143
 5824SOL    HW129108   4.484   1.693   0.089 -0.6341  0.4322  0.0879
 5824SOL    HW229109   4.542   1.801   0.034  1.1067 -0.1160 -0.5649
 5825SOL     OW29110   3.649   3.541   5.725  0.0737 -0.1727 -0.0091
 5825SOL    HW129111   3.634   3.634   5.744 -0.9144  0.1160 -2.1889
 5825SOL    HW229112   3.608   3.509   5.805 -2.1245  0.4567 -0.8696
 5826SOL     OW29113   1.822   2.079   8.191 -0.0959 -0.9420 -0.3483
 5826SOL    HW129114   1.798   2.015   8.258  0.1634 -1.6886 -0.9599
 5826SOL    HW229115   1.901   2.041   8.151 -0.3434 -0.3320 -1.4221
 5827SOL     OW29116   3.254   0.573  11.120  0.0766 -0.4228  0.3434
 5827SOL    HW129117   3.247   0.625  11.040  1.4841  0.8779  1.0513
 5827SOL    HW229118   3.215   0.486  11.109 -1.9311  0.6286 -0.9168
 5828SOL     OW29119   3.299   3.304   2.726 -0.0474  0.1128  0.5251
 5828SOL    HW129120   3.362   3.375   2.730 -1.0038  1.0917 -1.5936
 5828SOL    HW229121   3.222   3.344   2.766 -0.0423 -2.8765  3.5650
 5829SOL     OW29122   1.987   3.661   2.994 -0.4031  0.4602 -0.3622
 5829SOL    HW129123   1.926   3.610   3.049 -0.5329  0.6430 -0.3358
 5829SOL    HW229124   1.997   3.588   2.933 -1.3353 -1.1441  1.4128
 5830SOL     OW29125   2.155   1.123   1.464 -0.2705 -0.4673 -0.2410
 5830SOL    HW129126   2.151   1.185   1.391 -0.1097  0.5887  0.6350
 5830SOL    HW229127   2.234   1.070   1.452  0.2684 -0.2327  2.2058
 5831SOL     OW29128   0.813   3.163  13.819  0.1777  0.0076  0.3129
 5831SOL    HW129129   0.857   3.129  13.897  1.5214  0.9561 -0.0269
 5831SOL    HW229130   0.852   3.107  13.752  1.2020  2.5276 -1.1943
 5832SOL     OW29131   2.855   3.740  14.490 -0.7189  0.0118  0.0813
 5832SOL    HW129132   2.909   3.733  14.569 -2.1878 -0.9721  0.9812
 5832SOL    HW229133   2.810   3.656  14.497 -0.0725 -0.1279  2.4661
 5833SOL     OW29134   0.065   2.354  14.630 -0.3461 -0.1324  0.4685
 5833SOL    HW129135   4.720   2.400  14.629 -0.6045 -0.6246 -0.4474
 5833SOL    HW229136   0.043   2.271  14.588 -1.5512  0.0520  0.7200
 5834SOL     OW29137   1.476   3.836   6.383 -0.5429  0.8375 -0.0634
 5834SOL    HW129138   1.485   3.929   6.401 -0.1024  0.9729 -0.9902
 5834SOL    HW229139   1.393   3.840   6.336 -1.0206 -1.1138  0.5940
 5835SOL     OW29140   0.123   4.560  17.164  0.1756  0.3748 -0.1545
 5835SOL    HW129141   0.166   4.596  17.086 -1.7057  0.9272 -0.9255
 5835SOL    HW229142   0.200   4.546  17.220 -0.5109  6.2194  2.1686
 5836SOL     OW29143   1.518   0.102   6.255  0.3541 -0.3350 -0.1282
 5836SOL    HW129144   1.438   0.155   6.262  1.4668  1.5074 -1.4016
 5836SOL    HW229145   1.555   0.134   6.172  0.1686  0.5562  0.1312
 5837SOL     OW29146   4.277   2.076   5.228  0.1398  0.0263  0.0116
 5837SOL    HW129147   4.304   2.118   5.146  1.6311  0.5719  0.7768
 5837SOL    HW229148   4.268   1.983   5.208 -1.7600  0.2997 -0.4215
 5838SOL     OW29149   1.543   0.217   6.925 -0.4273  0.4319  0.0501
 5838SOL    HW129150   1.608   0.182   6.864 -2.6358 -1.5533 -1.2197
 5838SOL    HW229151   1.468   0.199   6.868  2.8420 -2.9792 -3.2228
 5839SOL     OW29152   1.492   3.093  15.622  0.3057 -0.1173  0.2588
 5839SOL    HW129153   1.437   3.017  15.642  0.0296  0.5505  2.0251
 5839SOL    HW229154   1.536   3.113  15.704 -0.5361  1.0169  0.4354
 5840SOL     OW29155   2.872   0.779   6.261 -0.5706  0.8378 -0.0514
 5840SOL    HW129156   2.784   0.800   6.294 -1.3483 -1.4115 -0.6563
 5840SOL    HW229157   2.870   0.778   6.166 -0.1292  1.7438 -0.0616
 5841SOL     OW29158   2.910   2.390  11.478 -0.9997 -0.0214  0.5230
 5841SOL    HW129159   2.826   2.427  11.506 -0.9543 -0.6228  1.4479
 5841SOL    HW229160   2.947   2.468  11.437  1.7761 -0.4039  2.3326
 5842SOL     OW29161   3.272   0.157   7.387  0.4470 -0.3938 -0.0102
 5842SOL    HW129162   3.254   0.218   7.315  2.1167 -0.4230 -0.4547
 5842SOL    HW229163   3.351   0.117   7.352 -1.3694 -3.3207 -0.7415
 5843SOL     OW29164   3.502   3.156   1.638  0.3139 -0.5698 -0.0506
 5843SOL    HW129165   3.433   3.213   1.673  0.5443  0.0160 -0.5432
 5843SOL    HW229166   3.520   3.089   1.704  0.4975  0.2437  0.7160
 5844SOL     OW29167   3.843   0.506   9.771 -0.0317  0.2139 -0.2253
 5844SOL    HW129168   3.881   0.584   9.811 -2.3787  1.2420 -0.0531
 5844SOL    HW229169   3.814   0.539   9.686 -1.3418 -1.4590 -0.4359
 5845SOL     OW29170   3.611   3.745  17.591 -0.2424  0.0836 -0.3540
 5845SOL    HW129171   3.662   3.668  17.615 -0.3762  0.7910  2.2271
 5845SOL    HW229172   3.584   3.777  17.677 -2.2762  2.7837 -1.9566
 5846SOL     OW29173   2.609   0.163  16.985  0.0585 -0.9865 -0.1026
 5846SOL    HW129174   2.696   0.198  17.005 -0.9362  2.0374 -1.0946
 5846SOL    HW229175   2.582   0.210  16.906  3.4355 -0.2519 -0.8463
 5847SOL     OW29176   4.368   4.439   1.067 -0.3757  0.4715  0.2908
 5847SOL    HW129177   4.434   4.484   1.014 -0.1747  0.8881  0.9005
 5847SOL    HW229178   4.284   4.461   1.027  0.1825  0.3332 -0.9658
 5848SOL     OW29179   1.078   1.690   6.525  0.1391  0.5135 -0.3452
 5848SOL    HW129180   1.089   1.599   6.498  0.5925  0.8905 -1.4539
 5848SOL    HW229181   1.061   1.682   6.619 -1.6424 -2.9853 -0.9783
 5849SOL     OW29182   1.645   2.150   1.670 -0.4380  0.5078  0.3786
 5849SOL    HW129183   1.635   2.217   1.737  0.4784  0.5221  0.5023
 5849SOL    HW229184   1.642   2.210   1.595 -2.2606  0.6738  0.5776
 5850SOL     OW29185   2.578   0.863   3.909  0.4247  0.2412  0.0277
 5850SOL    HW129186   2.590   0.770   3.925  3.0095  0.6334  0.4119
 5850SOL    HW229187   2.484   0.862   3.892 -0.1393 -0.1826  3.0856
 5851SOL     OW29188   1.190   1.309   9.779 -0.4197  0.5136  0.4978
 5851SOL    HW129189   1.111   1.260   9.755  0.5767 -0.4463 -0.8205
 5851SOL    HW229190   1.255   1.251   9.738  0.1441  0.6892  1.1488
 5852SOL     OW29191   0.244   4.021   9.424  0.1200 -0.1316 -0.1854
 5852SOL    HW129192   0.257   4.019   9.330  1.4488  0.1507 -0.0021
 5852SOL    HW229193   0.184   3.947   9.432 -2.8587  2.1421 -1.4059
 5853SOL     OW29194   0.540   3.894   6.803  0.1309  0.0058  0.1562
 5853SOL    HW129195   0.629   3.920   6.824 -0.2821 -0.6712  2.7311
 5853SOL    HW229196   0.492   3.966   6.844  1.6566  1.4072 -0.5264
 5854SOL     OW29197   2.221   0.852   8.520 -0.2083 -0.2294  0.1250
 5854SOL    HW129198   2.285   0.905   8.473  0.9007 -0.6753  1.1502
 5854SOL    HW229199   2.284   0.787   8.552 -1.7420 -1.3034  0.9724
 5855SOL     OW29200   0.451   1.744   3.157  0.4822  0.0578  0.1184
 5855SOL    HW129201   0.457   1.664   3.210 -1.3884 -0.2710 -0.1809
 5855SOL    HW229202   0.519   1.797   3.199 -0.2129  1.6448 -0.7513
 5856SOL     OW29203   0.855   0.820   6.853 -0.1587 -0.0376 -0.0919
 5856SOL    HW129204   0.946   0.813   6.827 -0.5759  1.6973 -1.9848
 5856SOL    HW229205   0.854   0.907   6.894 -0.0564  0.2443 -0.6875
 5857SOL     OW29206   1.798   4.504  12.989 -0.0912  0.1081  0.1247
 5857SOL    HW129207   1.720   4.551  13.016 -0.5330 -0.8231  0.4737
 5857SOL    HW229208   1.856   4.578  12.970  1.4956 -1.1354  0.0641
 5858SOL     OW29209   0.876   4.097   4.109 -0.3294  0.3392  0.4639
 5858SOL    HW129210   0.821   4.021   4.091 -0.1772  0.2712  0.2777
 5858SOL    HW229211   0.863   4.136   4.023  1.0148 -0.4864 -0.1212
 5859SOL     OW29212   0.758   2.194   5.507  0.0240 -0.5269  0.7232
 5859SOL    HW129213   0.683   2.218   5.562 -0.0913  1.1127 -0.1648
 5859SOL    HW229214   0.772   2.276   5.460  0.7122  0.1880  2.1930
 5860SOL     OW29215   3.742   2.468  17.226  0.3420  0.9982  0.6062
 5860SOL    HW129216   3.673   2.413  17.188  1.6573  0.7453 -1.4136
 5860SOL    HW229217   3.698   2.517  17.294  1.9500  2.6803  0.4358
 5861SOL     OW29218   1.192   2.336   9.103 -0.0926 -0.2352  0.0283
 5861SOL    HW129219   1.207   2.426   9.131 -1.4090  1.1066 -3.5832
 5861SOL    HW229220   1.188   2.344   9.007 -1.9080  2.2242  0.3127
 5862SOL     OW29221   1.454   2.495   7.643 -0.1413  0.0331 -0.5801
 5862SOL    HW129222   1.456   2.577   7.595 -3.3819  0.7471  0.4760
 5862SOL    HW229223   1.538   2.490   7.689  0.1166 -0.4757 -1.0996
 5863SOL     OW29224   3.726   0.579   7.824 -0.2433 -0.1666 -0.3309
 5863SOL    HW129225   3.698   0.521   7.895  0.5779  2.1719  1.9088
 5863SOL    HW229226   3.734   0.518   7.750  0.2650 -0.3221 -0.1488
 5864SOL     OW29227   3.078   1.373   0.459  0.7890  0.4231  0.0834
 5864SOL    HW129228   3.090   1.429   0.382 -1.4053  2.9925  1.5759
 5864SOL    HW229229   3.045   1.431   0.528  1.8660  0.4481  0.5776
 5865SOL     OW29230   2.616   0.493   3.501 -0.6157  0.1948  0.2657
 5865SOL    HW129231   2.601   0.468   3.592  0.6485 -1.7633 -0.0500
 5865SOL    HW229232   2.673   0.418   3.480 -0.8021  0.4730 -1.2045
 5866SOL     OW29233   4.478   0.148  11.735 -0.3391 -0.3836  0.0198
 5866SOL    HW129234   4.485   0.242  11.716  0.4068 -0.1221  1.5630
 5866SOL    HW229235   4.559   0.136  11.785 -0.0931  1.3405  0.0432
 5867SOL     OW29236   4.373   2.728   5.250 -0.1133  0.9310 -0.6165
 5867SOL    HW129237   4.285   2.715   5.215  0.3278  0.9347 -1.7173
 5867SOL    HW229238   4.388   2.821   5.234 -1.2885  1.1897 -0.1822
 5868SOL     OW29239   2.827   3.273   3.171  0.3469  0.5907  0.0030
 5868SOL    HW129240   2.800   3.202   3.229 -2.7081  0.3345 -1.7298
 5868SOL    HW229241   2.896   3.234   3.117  2.1549  0.9532  2.0442
 5869SOL     OW29242   1.479   1.458   4.939  0.1270  0.0920 -0.1868
 5869SOL    HW129243   1.455   1.435   5.028  1.7013  2.4034  0.8405
 5869SOL    HW229244   1.397   1.493   4.904 -1.7414 -3.0331  1.1041
 5870SOL     OW29245   0.054   1.201   7.998  0.6266 -0.1008 -0.1823
 5870SOL    HW129246   4.728   1.142   7.960  2.1363 -0.9331 -1.4613
 5870SOL    HW229247   0.049   1.185   8.092 -1.4050 -0.9314 -0.4326
 5871SOL     OW29248   2.386   2.797  14.435  0.1060  0.3380 -0.2085
 5871SOL    HW129249   2.387   2.888  14.405 -3.1035 -0.9722 -4.3256
 5871SOL    HW229250   2.320   2.811  14.503 -0.4213  1.8497 -1.0334
 5872SOL     OW29251   1.377   1.503  13.544 -0.0639 -0.0892  0.4449
 5872SOL    HW129252   1.384   1.426  13.600 -1.0833 -0.0088  0.6809
 5872SOL    HW229253   1.282   1.512  13.545 -0.0928 -0.6582  3.2680
 5873SOL     OW29254   3.933   1.243   2.288  0.4183 -0.9270 -0.2334
 5873SOL    HW129255   4.004   1.242   2.225 -0.0195  1.4768 -0.7368
 5873SOL    HW229256   3.863   1.193   2.245  1.5056 -1.1144 -1.7721
 5874SOL     OW29257   1.422   4.455  11.671 -0.2954 -0.7033 -0.1331
 5874SOL    HW129258   1.448   4.363  11.669 -3.1546 -1.5599  2.0505
 5874SOL    HW229259   1.362   4.469  11.744  1.1140  0.0355  0.8678
 5875SOL     OW29260   0.993   0.816   6.157 -0.7992 -0.0442 -0.0089
 5875SOL    HW129261   0.942   0.744   6.119  0.6615 -0.2271 -1.5649
 5875SOL    HW229262   1.047   0.768   6.219 -1.4203  0.5613  1.0134
 5876SOL     OW29263   0.670   1.095  15.123 -0.6386  0.0154  0.4920
 5876SOL    HW129264   0.665   1.001  15.137 -1.7331 -0.1061 -0.7220
 5876SOL    HW229265   0.618   1.123  15.197  0.3622  1.1150  0.7915
 5877SOL     OW29266   1.919   3.429   6.262 -0.0743 -0.5173  0.3642
 5877SOL    HW129267   1.830   3.461   6.245  0.6302  0.0342 -2.3467
 5877SOL    HW229268   1.909   3.343   6.222 -1.1608  0.0902 -0.6731
 5878SOL     OW29269   3.244   4.216   7.597 -0.0117 -0.5794  0.1105
 5878SOL    HW129270   3.214   4.259   7.677  0.4251  1.0098 -0.5659
 5878SOL    HW229271   3.293   4.283   7.549  0.4280 -0.9565  0.0378
 5879SOL     OW29272   3.155   4.550  16.061  0.9136 -0.0181 -0.2941
 5879SOL    HW129273   3.116   4.597  16.134  0.8543  0.9664 -0.9630
 5879SOL    HW229274   3.206   4.483  16.108 -1.0819 -1.5990 -0.3730
 5880SOL     OW29275   4.124   2.720   1.230 -0.1826  0.3319  0.8926
 5880SOL    HW129276   4.217   2.741   1.237  0.1283 -0.4160 -0.8578
 5880SOL    HW229277   4.121   2.660   1.156  0.2872  0.8038  0.4949
 5881SOL     OW29278   2.778   3.293  16.403 -0.1809 -0.0059  0.0510
 5881SOL    HW129279   2.745   3.376  16.438 -0.7101  0.0217 -0.5166
 5881SOL    HW229280   2.872   3.312  16.399 -0.3839  0.7570 -1.2721
 5882SOL     OW29281   1.010   2.131   0.754 -0.1579 -0.2572  0.4972
 5882SOL    HW129282   0.979   2.196   0.816  1.1988  0.0886  0.8284
 5882SOL    HW229283   0.976   2.159   0.669 -0.0647 -1.3947  0.0782
 5883SOL     OW29284   0.191   1.728   3.114 -0.0849  0.6547 -0.3773
 5883SOL    HW129285   0.167   1.661   3.177 -0.7457 -0.8926 -2.2615
 5883SOL    HW229286   0.285   1.743   3.121 -0.3195  1.5496  0.8121
 5884SOL     OW29287   3.618   4.123   7.755  0.4602  0.0780  0.6501
 5884SOL    HW129288   3.665   4.168   7.825  1.7728  0.1278 -0.2470
 5884SOL    HW229289   3.537   4.096   7.797  1.2419 -1.8864  0.8644
 5885SOL     OW29290   3.668   2.112   9.070  0.0314  0.2136 -0.4825
 5885SOL    HW129291   3.681   2.028   9.026 -0.3931 -0.8069  1.3228
 5885SOL    HW229292   3.692   2.171   8.998  1.5518  0.5824  0.3196
 5886SOL     OW29293   4.054   1.287   9.065 -0.1912  0.0769 -0.0703
 5886SOL    HW129294   3.971   1.277   9.113 -1.3029  0.7657 -1.8700
 5886SOL    HW229295   4.106   1.324   9.136 -1.1469  2.3866 -0.5943
 5887SOL     OW29296   0.532   1.330   2.401  0.1583  0.4570  0.4920
 5887SOL    HW129297   0.603   1.281   2.443 -0.1794  0.1649  0.7277
 5887SOL    HW229298   0.456   1.284   2.438  1.1803 -0.7727  1.0808
 5888SOL     OW29299   3.505   0.874   3.548  0.0042 -0.4242  0.2221
 5888SOL    HW129300   3.516   0.890   3.454  2.0362 -2.0836  0.1818
 5888SOL    HW229301   3.409   0.880   3.547 -0.0545 -1.4837 -0.4123
 5889SOL     OW29302   3.512   1.244   2.630  0.3775 -0.1003 -0.0719
 5889SOL    HW129303   3.482   1.298   2.703 -0.2211  0.2325 -0.5630
 5889SOL    HW229304   3.572   1.301   2.582  1.1107 -0.4237  0.4531
 5890SOL     OW29305   4.214   1.705   8.736 -0.2761 -0.7187 -0.2377
 5890SOL    HW129306   4.301   1.702   8.775 -1.9844  0.6754  3.7227
 5890SOL    HW229307   4.156   1.686   8.810 -0.0533 -2.0314 -0.4135
 5891SOL     OW29308   3.730   3.243   2.164 -0.4749 -0.4804  0.6682
 5891SOL    HW129309   3.781   3.304   2.110 -1.6456 -0.0567  0.0509
 5891SOL    HW229310   3.639   3.270   2.153 -0.1084  1.3201  1.9903
 5892SOL     OW29311   3.953   2.345   9.735  0.1264  0.4009  0.3314
 5892SOL    HW129312   3.894   2.420   9.734 -0.3933  0.0008  0.9869
 5892SOL    HW229313   3.893   2.271   9.742  0.1464  0.2200 -1.4317
 5893SOL     OW29314   3.441   4.055   6.341 -0.0318  0.2167  0.3018
 5893SOL    HW129315   3.473   4.052   6.431 -0.0514  0.1042  0.3052
 5893SOL    HW229316   3.478   4.140   6.317  0.0910 -0.2167 -0.9823
 5894SOL     OW29317   2.357   4.177   0.221  0.2322  0.4231 -1.0597
 5894SOL    HW129318   2.400   4.102   0.180  1.0379  0.6166 -0.5731
 5894SOL    HW229319   2.409   4.188   0.301 -0.6287  0.8867 -0.5636
 5895SOL     OW29320   1.896   3.389   1.480 -0.2277  0.4244  0.1216
 5895SOL    HW129321   1.871   3.407   1.390  1.5417  0.1429 -0.4075
 5895SOL    HW229322   1.809   3.381   1.519  0.4045  1.3950  1.7415
 5896SOL     OW29323   1.115   0.796   6.774 -0.0436  0.0920  0.1799
 5896SOL    HW129324   1.200   0.759   6.748  0.4185  0.5408  1.0749
 5896SOL    HW229325   1.101   0.861   6.705 -0.9443 -2.2326 -1.8272
 5897SOL     OW29326   0.872   4.333   3.398 -0.0664 -0.0531 -0.1741
 5897SOL    HW129327   0.852   4.426   3.400 -0.0814 -0.0971  2.5104
 5897SOL    HW229328   0.955   4.333   3.352 -0.2026  1.4039 -0.4211
 5898SOL     OW29329   3.693   4.463   2.863  1.0468 -0.0338 -0.1405
 5898SOL    HW129330   3.748   4.441   2.788  1.7001  1.5597 -0.1365
 5898SOL    HW229331   3.605   4.461   2.825 -0.0214  1.2822  2.2437
 5899SOL     OW29332   0.086   1.866   6.353 -0.0042  1.0499  0.1454
 5899SOL    HW129333   0.081   1.777   6.316  1.2723  0.5021  1.2849
 5899SOL    HW229334   0.024   1.843   6.422  0.4282  0.8637  0.4768
 5900SOL     OW29335   1.137   1.388   8.836 -0.2479 -0.4709  0.4427
 5900SOL    HW129336   1.185   1.469   8.823 -0.0895 -0.4123  1.3676
 5900SOL    HW229337   1.156   1.338   8.756 -4.5775 -1.9586  0.3540
 5901SOL     OW29338   0.456   0.047   5.409 -0.0203 -0.5067 -0.1579
 5901SOL    HW129339   0.449   0.128   5.357 -1.7023 -0.9341 -0.6023
 5901SOL    HW229340   0.457   0.099   5.490  0.5398 -2.0888  0.8417
 5902SOL     OW29341   4.527   3.823  15.324 -0.1207  0.2334 -0.1730
 5902SOL    HW129342   4.460   3.768  15.365  0.2530  1.2278  1.7594
 5902SOL    HW229343   4.606   3.797  15.371  0.1678  0.6466 -0.4329
 5903SOL     OW29344   0.724   0.903   5.589  0.1807  0.0718 -0.8166
 5903SOL    HW129345   0.799   0.925   5.534 -0.4260  2.5138 -0.6670
 5903SOL    HW229346   0.671   0.982   5.595  2.3220  1.4618  0.0565
 5904SOL     OW29347   2.780   1.899   8.022  0.5030  0.6143  0.0851
 5904SOL    HW129348   2.731   1.979   8.040  0.5184  0.6946 -0.2188
 5904SOL    HW229349   2.869   1.929   8.041  0.5378  0.7905 -0.3452
 5905SOL     OW29350   3.891   2.644   3.167  0.0995  0.3272  0.5108
 5905SOL    HW129351   3.837   2.573   3.132  1.1251 -0.1975  0.0037
 5905SOL    HW229352   3.953   2.595   3.221 -2.1426 -2.1448  0.8359
 5906SOL     OW29353   2.466   4.035   0.607  0.4860  0.0356 -0.2914
 5906SOL    HW129354   2.378   4.072   0.603  0.2363 -0.4496  0.6497
 5906SOL    HW229355   2.479   4.049   0.701  0.4707  0.7308 -0.3921
 5907SOL     OW29356   0.121   4.711  13.578  0.2282 -0.1199 -0.0961
 5907SOL    HW129357   0.095   0.027  13.504  0.3859  0.3247  0.1811
 5907SOL    HW229358   0.033   4.693  13.612  0.7349 -1.7115  0.3943
 5908SOL     OW29359   0.524   3.789   3.430  0.5193 -0.1585  0.1793
 5908SOL    HW129360   0.620   3.788   3.433  0.6242  2.8723 -2.1507
 5908SOL    HW229361   0.520   3.842   3.350 -0.1776  1.9210  1.6130
 5909SOL     OW29362   2.818   1.507   9.929 -0.3722  0.1794  0.1541
 5909SOL    HW129363   2.849   1.482   9.842 -0.8525  0.4269 -0.0817
 5909SOL    HW229364   2.795   1.422   9.968 -1.1743  0.5671  0.5288
 5910SOL     OW29365   0.996   0.677   0.999 -0.0114  0.3410 -0.8484
 5910SOL    HW129366   0.970   0.590   0.969 -0.7325  0.0024  0.7619
 5910SOL    HW229367   1.076   0.710   0.957 -0.2758  0.3121 -1.3750
 5911SOL     OW29368   0.759   3.468  17.241 -0.2043  0.0511  0.5722
 5911SOL    HW129369   0.838   3.511  17.207 -0.6170 -0.4069 -0.9880
 5911SOL    HW229370   0.785   3.454  17.332 -1.2681 -3.2941  0.3720
 5912SOL     OW29371   3.046   3.841  12.560  0.2017  0.2067 -0.2037
 5912SOL    HW129372   2.953   3.861  12.544  0.3575 -0.1524 -1.5588
 5912SOL    HW229373   3.093   3.908  12.511 -1.9984  1.4365 -0.6212
 5913SOL     OW29374   4.399   1.498   7.678 -0.1667 -0.3218 -0.1053
 5913SOL    HW129375   4.419   1.568   7.740 -1.2951  1.0206 -1.2460
 5913SOL    HW229376   4.366   1.558   7.611 -1.6445  0.5225  1.3803
 5914SOL     OW29377   1.940   0.848   4.359 -0.0778 -0.1081 -0.3420
 5914SOL    HW129378   1.943   0.835   4.264 -1.1665  2.3117 -0.7018
 5914SOL    HW229379   1.893   0.769   4.388 -0.2845 -0.4189 -1.5173
 5915SOL     OW29380   2.375   2.783   1.992  0.4008  0.4264 -0.2040
 5915SOL    HW129381   2.436   2.738   2.051 -0.3434 -2.0754 -1.3887
 5915SOL    HW229382   2.429   2.766   1.915 -1.1290 -2.0510 -0.7075
 5916SOL     OW29383   3.929   3.395   0.684  0.1876 -0.2481 -0.0628
 5916SOL    HW129384   3.943   3.475   0.735 -2.3563 -0.4043  0.8435
 5916SOL    HW229385   3.987   3.407   0.609  0.0992 -0.7433 -0.2060
 5917SOL     OW29386   1.704   2.358  14.007  0.3536 -0.5018  0.0503
 5917SOL    HW129387   1.611   2.344  13.990 -0.2954  3.2393  0.5219
 5917SOL    HW229388   1.747   2.278  13.978  0.7370  0.1233 -1.0955
 5918SOL     OW29389   0.112   0.083   1.963  0.1954 -0.1615  0.4020
 5918SOL    HW129390   0.176   0.107   1.895 -0.5842 -1.1518 -0.6718
 5918SOL    HW229391   0.050   0.028   1.915  0.1866  0.6940 -0.5734
 5919SOL     OW29392   4.662   2.894   6.485 -0.2453  0.1036 -0.0658
 5919SOL    HW129393   4.644   2.987   6.498  0.8014  0.4643 -1.1466
 5919SOL    HW229394   0.010   2.903   6.444  0.9096 -2.4820  1.8263
 5920SOL     OW29395   0.558   3.940   7.869 -0.2633  0.4770  0.3956
 5920SOL    HW129396   0.594   3.931   7.957  1.0640 -1.5861 -0.3861
 5920SOL    HW229397   0.571   4.034   7.857 -1.7251  0.4587 -1.3212
 5921SOL     OW29398   0.679   0.674  10.734  0.3341 -0.0114  0.7105
 5921SOL    HW129399   0.681   0.602  10.797 -0.0113  0.1266  0.8779
 5921SOL    HW229400   0.739   0.735  10.776 -1.8744  3.1099 -0.6370
 5922SOL     OW29401   0.403   3.891   7.430  0.5717 -0.1860 -0.7280
 5922SOL    HW129402   0.355   3.814   7.458 -0.8094  0.1200 -2.2568
 5922SOL    HW229403   0.495   3.866   7.426  1.2169  2.0488  0.0530
 5923SOL     OW29404   0.260   1.477   9.051  0.0161  0.1380  0.2671
 5923SOL    HW129405   0.285   1.551   8.996  1.8942  0.5377  1.6337
 5923SOL    HW229406   0.325   1.413   9.021 -0.3026  0.3088 -0.7671
 5924SOL     OW29407   0.803   1.327   4.250 -0.1277  0.1401  0.9509
 5924SOL    HW129408   0.790   1.414   4.210  0.7554 -0.6550 -1.0691
 5924SOL    HW229409   0.899   1.327   4.249 -0.1194  0.3011  2.1276
 5925SOL     OW29410   1.856   4.107   3.101 -0.0488 -0.0447  0.4594
 5925SOL    HW129411   1.889   4.125   3.013 -0.2691  1.0478  0.5969
 5925SOL    HW229412   1.813   4.022   3.094 -0.2165  0.1091 -0.2978
 5926SOL     OW29413   0.549   3.516  15.649 -0.2728 -0.0703 -0.0078
 5926SOL    HW129414   0.640   3.489  15.642  0.3044  1.8456 -0.1097
 5926SOL    HW229415   0.541   3.544  15.741  2.8540  2.7908 -0.6228
 5927SOL     OW29416   0.494   1.382  11.703  0.6711  0.2091  0.0132
 5927SOL    HW129417   0.587   1.405  11.707  0.5801  0.5480  0.1242
 5927SOL    HW229418   0.440   1.457  11.726  0.8218  0.5512 -0.7311
 5928SOL     OW29419   3.001   1.191  10.087  0.0264 -0.2387  0.0684
 5928SOL    HW129420   2.926   1.213  10.032 -0.6320  0.7881  1.3537
 5928SOL    HW229421   2.963   1.168  10.172 -0.1219  0.8451  0.3050
 5929SOL     OW29422   0.316   1.519   9.414  0.5492  0.4108 -0.2109
 5929SOL    HW129423   0.388   1.552   9.360  0.5377 -1.1834 -1.1751
 5929SOL    HW229424   0.314   1.581   9.487 -2.5467 -1.7496  1.5224
 5930SOL     OW29425   3.579   3.699  15.150 -0.4554 -0.3053  0.0188
 5930SOL    HW129426   3.531   3.781  15.158 -0.5548 -0.2389 -1.2449
 5930SOL    HW229427   3.653   3.729  15.204 -0.5905 -0.5667  0.3458
 5931SOL     OW29428   2.122   3.279  17.084 -0.3903  0.5781 -0.0503
 5931SOL    HW129429   2.173   3.354  17.115  1.4471 -0.0708 -1.4806
 5931SOL    HW229430   2.186   3.239  17.025  0.8142  1.2949  0.7814
 5932SOL     OW29431   4.274   4.470   4.505  0.2899  0.2699  0.0883
 5932SOL    HW129432   4.209   4.524   4.549 -1.8662 -0.7679 -1.8118
 5932SOL    HW229433   4.331   4.531   4.459 -1.5131  1.1327 -0.9770
 5933SOL     OW29434   0.404   3.936   2.816  0.1920  0.3100 -0.4082
 5933SOL    HW129435   0.458   3.987   2.755  0.9622 -1.4798 -1.2177
 5933SOL    HW229436   0.430   3.977   2.898  0.1067  0.4635 -0.4574
 5934SOL     OW29437   2.191   1.954  14.164  0.2057 -0.3937  0.0321
 5934SOL    HW129438   2.210   1.961  14.257  0.8886 -0.6499 -0.0914
 5934SOL    HW229439   2.236   2.030  14.126 -1.7000  1.0458  0.6423
 5935SOL     OW29440   3.954   2.251   0.003 -0.6472  0.3384  0.0565
 5935SOL    HW129441   4.040   2.210  17.741  0.0176  2.5357 -2.0208
 5935SOL    HW229442   3.973   2.344   0.006  0.5679  0.0938 -0.0400
 5936SOL     OW29443   2.223   1.144   6.218 -0.4950 -0.2358  0.3372
 5936SOL    HW129444   2.197   1.179   6.303 -1.5885 -0.9380  0.2933
 5936SOL    HW229445   2.223   1.230   6.176 -1.3849 -1.0637 -1.3580
 5937SOL     OW29446   3.595   1.004  13.870 -0.7744  0.2133  0.1175
 5937SOL    HW129447   3.689   1.021  13.859 -0.7150 -1.3723 -1.8309
 5937SOL    HW229448   3.556   1.064  13.807 -0.0150  0.4143 -0.1644
 5938SOL     OW29449   0.434   3.645  17.431  0.0263 -0.0959 -0.1549
 5938SOL    HW129450   0.382   3.614  17.505  0.7298 -0.5659  0.1398
 5938SOL    HW229451   0.372   3.616  17.363 -0.6839 -0.0972  0.4958
 5939SOL     OW29452   0.130   2.961   7.211  0.0849 -0.0581 -0.0716
 5939SOL    HW129453   0.049   2.913   7.195 -1.9747  3.2155  0.4309
 5939SOL    HW229454   0.147   2.979   7.119 -0.2603  5.8614  1.0341
 5940SOL     OW29455   0.072   0.672   2.175 -0.0793  0.1056  0.9615
 5940SOL    HW129456   0.140   0.624   2.224 -0.0218  0.2700  1.0435
 5940SOL    HW229457   0.020   0.712   2.245 -0.3165  1.5936 -0.0585
 5941SOL     OW29458   4.374   2.306   5.523 -0.4518 -0.1337 -0.4082
 5941SOL    HW129459   4.300   2.343   5.571  1.1389  0.8834  1.2681
 5941SOL    HW229460   4.398   2.377   5.465 -1.1088 -0.7875 -1.4765
 5942SOL     OW29461   4.348   3.664   4.273  0.6056  0.0661 -0.1716
 5942SOL    HW129462   4.431   3.647   4.227 -0.0317 -1.0546 -0.9077
 5942SOL    HW229463   4.330   3.583   4.321 -0.6901 -0.3926 -1.4272
 5943SOL     OW29464   4.279   1.561  11.596  0.3904  0.0745 -0.8761
 5943SOL    HW129465   4.204   1.615  11.620 -0.5224 -1.3893 -0.3959
 5943SOL    HW229466   4.236   1.479  11.572 -2.6473  1.2771  0.5328
 5944SOL     OW29467   2.947   0.731  16.227 -0.0878 -0.4030  0.4343
 5944SOL    HW129468   2.970   0.788  16.300  0.6117 -0.4475  0.2508
 5944SOL    HW229469   2.852   0.741  16.226  0.3697  3.5596 -0.7316
 5945SOL     OW29470   4.126   0.161  14.184 -0.0375 -0.2019 -0.5643
 5945SOL    HW129471   4.098   0.130  14.098  1.7323 -1.3962 -0.7039
 5945SOL    HW229472   4.145   0.086  14.240  0.7110 -0.5046 -1.2311
 5946SOL     OW29473   0.596   4.390   8.768 -0.0064  0.0789 -0.0250
 5946SOL    HW129474   0.510   4.349   8.768  0.1376 -0.2178  0.2505
 5946SOL    HW229475   0.616   4.389   8.861 -1.0099 -2.4874  0.1637
 5947SOL     OW29476   0.452   0.591   4.726 -0.3456  0.0193  0.5498
 5947SOL    HW129477   0.395   0.617   4.653  0.9405 -2.8065 -1.4774
 5947SOL    HW229478   0.430   0.655   4.793  0.6196  2.5371 -1.5298
 5948SOL     OW29479   3.905   0.304  12.515  0.3387 -0.4910 -0.3041
 5948SOL    HW129480   3.928   0.254  12.437 -0.0482  0.9232 -1.2998
 5948SOL    HW229481   3.856   0.372  12.469  2.4523  0.4093 -1.1922
 5949SOL     OW29482   0.655   1.474   7.940  0.3159 -0.2545  0.8692
 5949SOL    HW129483   0.619   1.546   7.887 -0.1690 -0.4980  0.8625
 5949SOL    HW229484   0.749   1.493   7.942 -0.1867  2.1667  0.7859
 5950SOL     OW29485   4.093   4.448   8.984  0.2777 -0.3064 -0.1556
 5950SOL    HW129486   4.158   4.517   8.976  1.6648 -1.2875  2.6291
 5950SOL    HW229487   4.149   4.370   8.992  0.4114 -0.3280 -1.3560
 5951SOL     OW29488   3.285   3.513   7.983 -0.3397  0.2185 -0.1993
 5951SOL    HW129489   3.265   3.606   7.979  2.6084  0.8212 -1.3825
 5951SOL    HW229490   3.341   3.523   8.060 -1.0536 -2.0014  0.5988
 5952SOL     OW29491   2.569   3.097   8.228 -0.3626  0.4335  0.3806
 5952SOL    HW129492   2.525   3.100   8.143 -0.6678  1.6854  0.5800
 5952SOL    HW229493   2.559   3.191   8.247 -0.6428  0.5402 -0.2965
 5953SOL     OW29494   3.960   2.868   3.011 -0.0492  0.1285 -0.1495
 5953SOL    HW129495   4.000   2.828   2.934  1.6211  0.9685  0.2906
 5953SOL    HW229496   3.968   2.809   3.086  0.6920 -1.3805 -1.4297
 5954SOL     OW29497   2.378   2.917   0.031  0.6641  0.1318  0.4702
 5954SOL    HW129498   2.446   2.860   0.068 -1.6801 -1.0147  3.0555
 5954SOL    HW229499   2.304   2.861   0.053  1.0079 -0.1056  1.0381
 5955SOL     OW29500   4.430   1.528  12.818 -1.0346  0.0081 -0.4135
 5955SOL    HW129501   4.488   1.600  12.843 -0.4036 -0.2532 -1.1386
 5955SOL    HW229502   4.374   1.563  12.749 -1.2267  0.7212  0.0935
 5956SOL     OW29503   3.763   2.028  17.587 -0.1430  0.0777  0.1517
 5956SOL    HW129504   3.709   2.005  17.662 -1.6531  1.7948 -0.4027
 5956SOL    HW229505   3.760   2.124  17.595  1.4355  0.2828 -1.7091
 5957SOL     OW29506   2.403   3.335  14.896  0.5246 -0.0046 -0.0940
 5957SOL    HW129507   2.356   3.258  14.866 -1.6980  0.2937  2.6800
 5957SOL    HW229508   2.332   3.384  14.937  0.7051  0.7294 -0.6516
 5958SOL     OW29509   4.042   4.473   5.921  0.0081  0.4254 -0.1746
 5958SOL    HW129510   4.108   4.414   5.958  0.2763 -0.7004 -2.4602
 5958SOL    HW229511   3.971   4.466   5.985 -0.7884 -0.7144 -1.1793
 5959SOL     OW29512   2.774   2.916   2.585  0.5604  0.1917 -0.6365
 5959SOL    HW129513   2.787   2.822   2.574 -3.6802 -0.4459 -0.2083
 5959SOL    HW229514   2.848   2.936   2.642 -1.3348 -0.1577  1.9510
 5960SOL     OW29515   1.157   4.205   1.873 -0.0335  0.4331 -0.3372
 5960SOL    HW129516   1.066   4.178   1.882 -0.8811  2.3345 -3.1587
 5960SOL    HW229517   1.149   4.295   1.839 -0.3361 -0.0348 -1.4955
 5961SOL     OW29518   0.353   3.427   5.893  0.0493 -0.1622 -0.1482
 5961SOL    HW129519   0.432   3.374   5.907  0.6491  1.0565  1.0507
 5961SOL    HW229520   0.378   3.519   5.903 -1.5510  0.3799 -1.1431
 5962SOL     OW29521   3.747   1.522  13.044 -0.1307 -0.2591 -0.3273
 5962SOL    HW129522   3.748   1.526  13.140 -1.8448 -2.2141 -0.2219
 5962SOL    HW229523   3.755   1.617  13.041 -2.0278 -0.0682  0.9305
 5963SOL     OW29524   2.208   0.120   3.410 -0.7871 -0.3559 -0.0877
 5963SOL    HW129525   2.207   0.215   3.424  0.3162 -0.2337 -0.7571
 5963SOL    HW229526   2.303   0.105   3.416 -0.6989  0.7784  1.5052
 5964SOL     OW29527   1.210   1.157   3.936  0.7153  0.1052  0.1083
 5964SOL    HW129528   1.127   1.122   3.903  0.3084  1.1115  0.0465
 5964SOL    HW229529   1.243   1.080   3.981 -1.3668  0.3198  2.0350
 5965SOL     OW29530   3.647   1.253  15.922 -0.0155 -0.6901  0.4963
 5965SOL    HW129531   3.556   1.284  15.919  0.1083 -0.1987  1.7764
 5965SOL    HW229532   3.674   1.280  15.834 -1.1606 -0.7629  0.1147
 5966SOL     OW29533   0.120   3.533   5.205  0.3726 -0.6510 -0.2493
 5966SOL    HW129534   0.034   3.573   5.221  0.4019 -0.2141 -1.1482
 5966SOL    HW229535   0.175   3.610   5.191 -0.5273  0.4882  2.4614
 5967SOL     OW29536   0.018   1.064  16.095  0.1478 -0.1960  0.3994
 5967SOL    HW129537   0.013   1.158  16.077 -0.1070 -0.3368 -0.2566
 5967SOL    HW229538   0.110   1.041  16.106  0.9483  2.2311 -1.3162
 5968SOL     OW29539   1.274   3.859   0.178 -0.1256 -0.4590  1.1650
 5968SOL    HW129540   1.313   3.924   0.119 -1.9726 -1.2604 -0.9612
 5968SOL    HW229541   1.342   3.863   0.245  1.1526  1.8009 -0.2600
 5969SOL     OW29542   1.310   0.471   6.876 -0.4405 -0.2118  0.3088
 5969SOL    HW129543   1.238   0.507   6.823  0.0488  0.3778  0.0347
 5969SOL    HW229544   1.376   0.471   6.806  0.1122 -0.0193  0.8222
 5970SOL     OW29545   0.346   3.044   4.898  0.5387 -0.4706  0.2746
 5970SOL    HW129546   0.392   3.118   4.859 -0.6744  0.4016  0.4834
 5970SOL    HW229547   0.416   3.016   4.957  1.2817 -0.0676 -0.4271
 5971SOL     OW29548   4.714   0.413   7.209 -0.4895  0.4332  0.1949
 5971SOL    HW129549   4.709   0.508   7.209  0.3090  0.4780  0.3520
 5971SOL    HW229550   0.067   0.398   7.229  0.0761  0.0559 -2.6528
 5972SOL     OW29551   2.542   3.459   4.101  0.1089  0.3790  0.0246
 5972SOL    HW129552   2.563   3.382   4.047  1.4099 -0.1451  1.2754
 5972SOL    HW229553   2.484   3.499   4.036  0.5732  0.3878 -0.3876
 5973SOL     OW29554   3.715   0.640   5.775  0.4734 -0.3350  0.2559
 5973SOL    HW129555   3.750   0.578   5.840  0.5117 -1.1027 -0.4956
 5973SOL    HW229556   3.727   0.597   5.691 -2.4173 -0.3824 -0.1082
 5974SOL     OW29557   3.381   1.713   8.888  0.1866 -0.2022  0.0717
 5974SOL    HW129558   3.365   1.633   8.939 -0.1657  0.5771  1.1864
 5974SOL    HW229559   3.465   1.693   8.847  0.1400  3.0609 -1.5756
 5975SOL     OW29560   3.474   2.708   5.412 -0.4418  0.3039 -0.0209
 5975SOL    HW129561   3.379   2.699   5.426 -0.0046  1.3084  3.4233
 5975SOL    HW229562   3.493   2.730   5.503 -0.2936 -0.6330  0.1761
 5976SOL     OW29563   3.015   3.283   8.376 -0.2468 -0.5693 -0.0719
 5976SOL    HW129564   3.007   3.216   8.444 -2.4871  0.9533  1.1584
 5976SOL    HW229565   3.037   3.233   8.297  0.0017 -1.4970  0.5888
 5977SOL     OW29566   1.979   3.901   1.583  0.5495  0.3241 -0.2077
 5977SOL    HW129567   2.067   3.863   1.573 -0.0262 -1.4597  1.5488
 5977SOL    HW229568   2.002   3.980   1.631 -1.3444 -0.4478  1.9605
 5978SOL     OW29569   0.851   4.506   9.884  0.5287  0.1313 -0.3220
 5978SOL    HW129570   0.944   4.511   9.863  1.1631 -0.3204  2.3908
 5978SOL    HW229571   0.823   4.422   9.847 -3.5457  0.8513  1.0934
 5979SOL     OW29572   2.309   4.477   7.601 -0.0341 -0.0163  0.4721
 5979SOL    HW129573   2.372   4.548   7.608  1.3804 -1.1262 -0.9699
 5979SOL    HW229574   2.330   4.442   7.515  0.3544  0.8821  0.2083
 5980SOL     OW29575   2.943   3.729   0.909  0.6352 -0.3977 -0.0069
 5980SOL    HW129576   3.027   3.737   0.955 -0.8185  0.6852  2.4178
 5980SOL    HW229577   2.909   3.647   0.945  1.8791  0.1671  2.4553
 5981SOL     OW29578   4.722   1.017  12.788 -0.0909  0.5296 -0.5516
 5981SOL    HW129579   0.078   1.026  12.795  0.1205 -2.0132 -0.1485
 5981SOL    HW229580   4.699   1.063  12.707 -2.2399 -0.9828 -0.7956
 5982SOL     OW29581   3.719   3.175   7.286  0.6023  0.4365 -0.2451
 5982SOL    HW129582   3.717   3.145   7.377  0.6246  1.8106  0.1970
 5982SOL    HW229583   3.640   3.137   7.250 -1.7197  3.2680  1.8696
 5983SOL     OW29584   1.846   0.038   6.452 -0.8296  0.3645 -0.5120
 5983SOL    HW129585   1.856   4.718   6.377 -0.9688 -1.5260  0.9378
 5983SOL    HW229586   1.840   0.127   6.419 -2.5369  0.5831  0.3893
 5984SOL     OW29587   0.826   3.083   2.126  0.0743 -0.2066  0.4162
 5984SOL    HW129588   0.853   3.052   2.040  2.3089  0.6562  0.8225
 5984SOL    HW229589   0.745   3.034   2.144  0.6184 -1.0335  0.6226
 5985SOL     OW29590   2.902   3.114   1.976 -0.0576 -0.8222 -0.1676
 5985SOL    HW129591   2.907   3.020   1.992  1.2769 -0.5661  0.9282
 5985SOL    HW229592   2.870   3.128   1.886 -0.6565 -0.2534  0.1281
 5986SOL     OW29593   2.709   1.565   8.348 -0.7102 -0.4243 -0.2546
 5986SOL    HW129594   2.667   1.638   8.302 -3.4709 -1.0438  1.2962
 5986SOL    HW229595   2.797   1.546   8.315 -0.2532  1.1172  0.0977
 5987SOL     OW29596   0.392   1.427   2.729 -0.2661  0.4540 -0.0339
 5987SOL    HW129597   0.452   1.426   2.654  0.0508 -1.6748  0.2560
 5987SOL    HW229598   0.448   1.449   2.803  0.6057  0.6520 -0.7441
 5988SOL     OW29599   4.191   3.335   5.543  0.0903 -0.4777  0.1150
 5988SOL    HW129600   4.244   3.260   5.516  0.9525  0.1302  0.0972
 5988SOL    HW229601   4.105   3.295   5.551  0.1943 -1.2360 -2.6613
 5989SOL     OW29602   2.283   1.825  15.171 -0.0381  0.1677  0.0376
 5989SOL    HW129603   2.223   1.835  15.097  0.1797 -0.8111 -0.2607
 5989SOL    HW229604   2.226   1.809  15.246  0.0813  0.4627  0.1918
 5990SOL     OW29605   2.277   2.175   8.858 -0.0128  0.2192 -0.0866
 5990SOL    HW129606   2.206   2.192   8.920  0.5450  2.9494 -0.2096
 5990SOL    HW229607   2.356   2.210   8.901  0.6375 -0.7222 -0.5163
 5991SOL     OW29608   3.566   0.650  12.229 -0.1731  0.2535  0.5299
 5991SOL    HW129609   3.486   0.630  12.180 -0.6500  2.7407  0.3012
 5991SOL    HW229610   3.561   0.745  12.240 -0.6465  0.1854  0.9459
 5992SOL     OW29611   4.402   1.413   8.915  0.3637  0.2709 -0.0977
 5992SOL    HW129612   4.435   1.453   8.995  0.3352  0.2671 -0.0841
 5992SOL    HW229613   4.422   1.486   8.857 -1.4396 -0.1057 -1.1914
 5993SOL     OW29614   2.957   3.583   6.563 -0.5974  0.4667 -0.2923
 5993SOL    HW129615   2.878   3.611   6.609  0.4422  2.5891  0.2604
 5993SOL    HW229616   2.938   3.629   6.481  2.0850  2.0439 -0.0377
 5994SOL     OW29617   0.309   0.218  15.318 -0.4622 -0.1495  0.0712
 5994SOL    HW129618   0.220   0.231  15.350  0.3701  1.8873  1.4986
 5994SOL    HW229619   0.338   0.128  15.337 -0.0450  0.5295  2.6741
 5995SOL     OW29620   4.566   0.888   3.303  0.1108  0.4418 -0.0157
 5995SOL    HW129621   4.553   0.793   3.302 -0.5287  0.5492 -2.1420
 5995SOL    HW229622   4.487   0.917   3.258  0.9314  0.5631 -1.3661
 5996SOL     OW29623   1.288   2.007   1.751  0.0536 -0.2549  0.1848
 5996SOL    HW129624   1.239   2.023   1.670  1.9367 -1.8027 -1.2745
 5996SOL    HW229625   1.257   2.082   1.801  1.0981  0.5158 -0.3254
 5997SOL     OW29626   0.903   3.910  14.909 -0.0951  0.0351  0.5701
 5997SOL    HW129627   0.957   3.861  14.846  1.0518  0.6126  1.0995
 5997SOL    HW229628   0.909   3.995  14.865 -0.6445 -0.0910  0.2538
 5998SOL     OW29629   3.302   3.013   8.535  0.3962 -0.2823 -0.0146
 5998SOL    HW129630   3.314   2.984   8.445 -0.9320  0.8323 -0.5450
 5998SOL    HW229631   3.384   2.976   8.568 -0.0787  1.5111  3.1547
 5999SOL     OW29632   4.185   1.576  16.420 -0.1764  0.4197  0.1488
 5999SOL    HW129633   4.122   1.644  16.397 -2.8319 -1.7071  0.9871
 5999SOL    HW229634   4.165   1.563  16.513  0.1470  3.8326  0.6934
 6000SOL     OW29635   2.908   0.876   7.583 -0.2328 -0.2706  0.2805
 6000SOL    HW129636   2.864   0.850   7.664 -2.5694 -1.3567 -1.3253
 6000SOL    HW229637   2.836   0.863   7.522 -0.4156  0.7053  0.2887
 6001SOL     OW29638   2.517   4.636   3.602 -0.5709  0.2229  0.7423
 6001SOL    HW129639   2.562   4.553   3.585  1.3427  1.3199  0.4526
 6001SOL    HW229640   2.496   4.661   3.512  3.1844  1.9973  0.3325
 6002SOL     OW29641   4.374   0.378   0.707 -0.4749 -0.2565 -0.0423
 6002SOL    HW129642   4.419   0.293   0.710  1.8487  1.1110  3.5755
 6002SOL    HW229643   4.359   0.384   0.613 -1.5603 -0.0339  0.1428
 6003SOL     OW29644   2.132   1.845   7.841 -0.0459 -0.2824 -0.3088
 6003SOL    HW129645   2.112   1.926   7.888  0.0647 -1.8926  2.4779
 6003SOL    HW229646   2.159   1.782   7.907 -1.8643 -0.5151  0.2131
 6004SOL     OW29647   2.037   1.040  15.136 -1.1566  0.5085 -0.2037
 6004SOL    HW129648   2.106   1.086  15.184 -2.1768  0.6712  1.0979
 6004SOL    HW229649   2.066   1.060  15.047 -2.8261  2.3959 -0.3232
 6005SOL     OW29650   1.388   0.770   6.711  0.5501 -0.7651 -0.1277
 6005SOL    HW129651   1.355   0.739   6.627 -1.2159  0.8186 -0.0327
 6005SOL    HW229652   1.482   0.763   6.699  0.4660  0.5460 -1.4910
 6006SOL     OW29653   3.650   1.351   1.308  0.2324  0.8605 -0.0766
 6006SOL    HW129654   3.576   1.317   1.258  0.7158  1.2669 -1.0742
 6006SOL    HW229655   3.716   1.337   1.240 -1.4274  4.0114 -2.2783
 6007SOL     OW29656   3.477   1.812   9.341 -0.1202 -0.0387 -0.2376
 6007SOL    HW129657   3.481   1.745   9.274 -1.0698 -0.0861 -0.2397
 6007SOL    HW229658   3.567   1.828   9.371  0.0534 -2.1071  0.3059
 6008SOL     OW29659   3.113   0.640  17.186 -0.8126 -0.2765 -0.2718
 6008SOL    HW129660   3.068   0.690  17.254 -1.4225  0.9875 -1.6168
 6008SOL    HW229661   3.098   0.700  17.113  0.1990  1.9560  1.3355
 6009SOL     OW29662   3.217   3.241   5.949  0.0689 -0.2734  0.6479
 6009SOL    HW129663   3.285   3.189   5.993  0.3495  0.3789  0.9805
 6009SOL    HW229664   3.263   3.284   5.877 -1.5054 -1.0371 -0.8118
 6010SOL     OW29665   2.843   4.250   1.720 -0.3703  0.1160  0.2285
 6010SOL    HW129666   2.805   4.170   1.756  1.2098 -1.1093 -0.8035
 6010SOL    HW229667   2.921   4.216   1.675 -0.2376  1.1754 -0.3517
 6011SOL     OW29668   4.225   3.935   1.643  0.2839  0.3419 -0.2859
 6011SOL    HW129669   4.177   3.942   1.561 -1.8253 -2.4515  0.6894
 6011SOL    HW229670   4.151   3.913   1.700  0.2052 -0.0588 -0.5402
 6012SOL     OW29671   2.590   2.727   2.789 -0.0153  0.0166  0.3153
 6012SOL    HW129672   2.667   2.675   2.764 -0.1606  0.3908 -0.9304
 6012SOL    HW229673   2.553   2.767   2.710 -0.0172  0.1856  0.4033
 6013SOL     OW29674   0.363   1.076   8.578  0.2592  0.5335 -0.1921
 6013SOL    HW129675   0.313   1.120   8.647 -1.1311  1.1699 -1.6043
 6013SOL    HW229676   0.451   1.075   8.615  0.2602 -0.1976 -0.2168
 6014SOL     OW29677   0.328   0.535   1.792  0.4169 -0.1958 -0.2490
 6014SOL    HW129678   0.268   0.500   1.857  3.1973 -0.8177  2.0084
 6014SOL    HW229679   0.395   0.582   1.842 -2.1236  2.1476  0.9137
 6015SOL     OW29680   1.264   2.372   0.808  0.0881  0.0419 -0.8831
 6015SOL    HW129681   1.243   2.394   0.899  0.8578 -2.0498 -0.2097
 6015SOL    HW229682   1.250   2.279   0.792 -0.2787  0.0766 -0.7724
 6016SOL     OW29683   2.472   2.238   6.468  0.0926  0.4907  0.0084
 6016SOL    HW129684   2.415   2.221   6.542 -0.1339 -1.5865 -0.6568
 6016SOL    HW229685   2.548   2.266   6.520 -0.4396 -0.1113  1.1003
 6017SOL     OW29686   0.731   2.935   7.305 -0.4759 -0.1969  0.0189
 6017SOL    HW129687   0.806   2.923   7.247 -0.9734  1.6927 -0.9993
 6017SOL    HW229688   0.735   2.860   7.364 -0.7531 -1.9815 -2.2638
 6018SOL     OW29689   2.407   4.230   7.433 -0.1488  0.7221  0.4997
 6018SOL    HW129690   2.379   4.140   7.451 -1.2304  1.4756  2.5492
 6018SOL    HW229691   2.352   4.229   7.355  0.0731  4.9623  0.2897
 6019SOL     OW29692   4.129   0.491  12.292 -0.2453  0.6218  0.1983
 6019SOL    HW129693   4.117   0.398  12.269 -2.1866  0.8574  0.3292
 6019SOL    HW229694   4.148   0.492  12.386  0.2072 -0.3373  0.1248
 6020SOL     OW29695   0.704   2.970   3.380  0.1237 -0.0428 -0.0706
 6020SOL    HW129696   0.689   2.957   3.474  0.3150  0.2691  0.0029
 6020SOL    HW229697   0.799   2.980   3.373 -0.3229  0.7172 -4.6771
 6021SOL     OW29698   3.348   1.392   9.873  0.2147  0.0800 -0.4549
 6021SOL    HW129699   3.383   1.322   9.817  0.2508 -0.2107 -0.0682
 6021SOL    HW229700   3.403   1.379   9.950  1.2153  0.4633 -1.1174
 6022SOL     OW29701   1.995   3.354   5.373 -0.2540  0.5411  0.0973
 6022SOL    HW129702   1.975   3.418   5.442  0.2512  1.9275 -1.0198
 6022SOL    HW229703   2.025   3.278   5.423 -2.2818 -1.3393 -1.5979
 6023SOL     OW29704   2.488   1.380  17.132 -0.0584 -0.1262 -0.2431
 6023SOL    HW129705   2.491   1.427  17.049  1.2286 -0.0192 -0.1354
 6023SOL    HW229706   2.399   1.403  17.156 -0.0810 -0.8562  0.3746
 6024SOL     OW29707   4.336   0.988   3.179  0.2705  0.0114 -0.2187
 6024SOL    HW129708   4.264   0.957   3.234  1.6872  0.7507  2.0371
 6024SOL    HW229709   4.338   0.922   3.110  2.2561  0.0181 -0.1704
 6025SOL     OW29710   4.587   3.444   3.741  0.1260 -0.2217 -0.3031
 6025SOL    HW129711   4.523   3.423   3.809 -1.4455 -0.9164 -1.9532
 6025SOL    HW229712   4.667   3.392   3.752  1.6651  1.8892 -1.6154
 6026SOL     OW29713   1.990   4.327  17.155 -0.0724 -0.1004  0.0185
 6026SOL    HW129714   2.064   4.270  17.176  0.9580  0.5210 -1.9375
 6026SOL    HW229715   1.933   4.322  17.231 -0.2055 -2.1897 -0.1942
 6027SOL     OW29716   3.191   0.974   3.546 -0.0250  0.0478 -0.4786
 6027SOL    HW129717   3.137   0.941   3.617 -0.4439  3.9990  1.0110
 6027SOL    HW229718   3.139   0.952   3.468  1.1245 -1.8893 -0.6896
 6028SOL     OW29719   2.157   0.138   7.509  0.2718 -0.2664 -0.2755
 6028SOL    HW129720   2.243   0.100   7.491 -0.2142 -0.2643 -2.5371
 6028SOL    HW229721   2.173   0.232   7.512 -0.1345 -0.2380  1.3023
 6029SOL     OW29722   4.726   1.385   3.387  0.2202 -0.4886  0.4861
 6029SOL    HW129723   4.725   1.473   3.349  0.3293 -0.4276  0.6205
 6029SOL    HW229724   4.679   1.330   3.325  0.6609  1.0413 -1.2157
 6030SOL     OW29725   2.037   3.111  11.434 -0.1912  0.0647  0.2466
 6030SOL    HW129726   2.129   3.129  11.452 -0.5465  1.7072  0.3777
 6030SOL    HW229727   2.010   3.192  11.392  1.0267  0.2318 -0.1915
 6031SOL     OW29728   0.903   3.973   4.909  0.0990  0.3593 -0.2471
 6031SOL    HW129729   0.875   3.897   4.959 -1.9437  2.0289  1.1561
 6031SOL    HW229730   0.997   3.955   4.916 -0.2588  0.2758  4.0449
 6032SOL     OW29731   2.936   0.413   8.561  0.2734  0.5204 -0.8156
 6032SOL    HW129732   3.023   0.450   8.552  0.5834  0.0163  0.0572
 6032SOL    HW229733   2.898   0.451   8.641  0.4127  0.7728 -0.8701
 6033SOL     OW29734   4.326   0.963   7.009 -0.6706 -0.3963  0.0380
 6033SOL    HW129735   4.377   0.883   6.997 -0.4814 -0.2032 -0.4479
 6033SOL    HW229736   4.246   0.931   7.050  0.2272  0.1749  2.2230
 6034SOL     OW29737   3.601   2.824   4.833  0.4797  0.1078 -0.4673
 6034SOL    HW129738   3.689   2.792   4.851 -0.9305 -3.0182  1.0259
 6034SOL    HW229739   3.623   2.899   4.778 -1.7225  0.1054 -1.3728
 6035SOL     OW29740   1.411   4.476  17.465 -0.0761 -0.4881 -0.4546
 6035SOL    HW129741   1.378   4.431  17.387 -0.3071  3.1798 -2.4734
 6035SOL    HW229742   1.450   4.558  17.434  0.1013  0.9217  3.5979
 6036SOL     OW29743   0.543   0.140  15.941  0.2572 -0.2718 -0.0664
 6036SOL    HW129744   0.602   0.184  15.880 -0.2704  1.0886  0.4013
 6036SOL    HW229745   0.586   0.156  16.025 -0.7439 -1.1229  0.6138
 6037SOL     OW29746   0.651   4.435   9.531  0.0461  0.2605  0.2020
 6037SOL    HW129747   0.736   4.393   9.544  1.0663  2.0815 -0.5397
 6037SOL    HW229748   0.597   4.401   9.602  0.9902  1.0230  1.2787
 6038SOL     OW29749   3.278   4.493   3.406 -0.1424 -0.1320  0.5228
 6038SOL    HW129750   3.221   4.568   3.393  1.6508  0.5413 -3.3854
 6038SOL    HW229751   3.221   4.434   3.357  1.6137 -1.4905  0.1230
 6039SOL     OW29752   2.245   4.581   1.555  0.2545 -0.1324 -0.5933
 6039SOL    HW129753   2.252   4.582   1.460  0.8402 -0.2509 -0.5514
 6039SOL    HW229754   2.152   4.596   1.574  0.5432 -0.1940  0.8366
 6040SOL     OW29755   2.828   2.240   8.583  0.7405 -0.3653 -0.2061
 6040SOL    HW129756   2.848   2.199   8.668 -1.7040 -0.6058  0.2526
 6040SOL    HW229757   2.765   2.305   8.614 -1.0298 -0.6684 -3.2273
 6041SOL     OW29758   3.578   3.745  13.174  0.3526 -0.7413  0.3998
 6041SOL    HW129759   3.581   3.654  13.143 -0.4014  0.1288 -2.2580
 6041SOL    HW229760   3.483   3.751  13.186  0.1533 -2.5646 -0.1735
 6042SOL     OW29761   4.205   3.999  12.623  0.1763 -0.6529  0.1035
 6042SOL    HW129762   4.271   3.936  12.650  2.2508  1.3846 -0.2643
 6042SOL    HW229763   4.133   3.941  12.596  0.1556 -1.2866  1.5113
 6043SOL     OW29764   3.143   0.852  11.595 -0.1329  0.2639 -0.5700
 6043SOL    HW129765   3.220   0.907  11.610 -0.2321  0.3184 -0.2583
 6043SOL    HW229766   3.179   0.797  11.525 -0.1095 -0.1932 -0.1953
 6044SOL     OW29767   4.029   0.501  13.234  0.2034  0.1250 -0.1229
 6044SOL    HW129768   3.998   0.418  13.196 -3.0046  1.2620 -0.0142
 6044SOL    HW229769   3.953   0.528  13.286  0.3154 -0.5809  0.4131
 6045SOL     OW29770   4.177   0.349  10.304  0.0531 -0.5674 -0.5523
 6045SOL    HW129771   4.129   0.386  10.377 -2.9220 -2.1229 -1.7228
 6045SOL    HW229772   4.229   0.282  10.349  1.2210  1.2525  0.7566
 6046SOL     OW29773   4.569   1.164   8.826  0.3164  0.2311  0.4735
 6046SOL    HW129774   4.541   1.245   8.869 -1.1914 -1.0267  1.8458
 6046SOL    HW229775   4.544   1.107   8.899 -0.1795  0.7319  0.6942
 6047SOL     OW29776   0.376   4.175   2.104 -0.4314  0.7326 -0.2305
 6047SOL    HW129777   0.330   4.106   2.153 -0.0672  1.9283  1.7915
 6047SOL    HW229778   0.297   4.216   2.068 -1.7933 -1.3496  0.3810
 6048SOL     OW29779   3.343   0.421   1.564  0.3835 -0.0310  0.1538
 6048SOL    HW129780   3.377   0.430   1.475  2.7565 -2.4468  0.7992
 6048SOL    HW229781   3.250   0.436   1.548  0.7814  1.2488 -0.9594
 6049SOL     OW29782   1.600   1.117   6.470  0.1810 -0.0244 -0.1582
 6049SOL    HW129783   1.648   1.092   6.550  1.7882 -1.9442 -1.7187
 6049SOL    HW229784   1.549   1.038   6.453  1.9213 -0.6180 -2.6316
 6050SOL     OW29785   4.486   1.566   5.024 -0.2147 -0.2701  0.0389
 6050SOL    HW129786   4.527   1.536   4.944 -0.1336 -0.1753  0.0447
 6050SOL    HW229787   4.398   1.586   4.992  0.5004  1.4292 -0.8679
 6051SOL     OW29788   3.484   1.865   0.675 -0.1093 -0.7591  0.0247
 6051SOL    HW129789   3.410   1.893   0.728 -1.0357 -2.5187 -0.3183
 6051SOL    HW229790   3.463   1.918   0.598 -1.8947  0.4630  1.3645
 6052SOL     OW29791   1.708   2.242   7.436  0.2295 -0.5111 -0.6927
 6052SOL    HW129792   1.673   2.238   7.525 -1.0906  2.7451 -1.0581
 6052SOL    HW229793   1.654   2.308   7.392  1.1278  1.5127  1.2782
 6053SOL     OW29794   3.879   3.899   5.984 -0.0961  0.1506  0.6624
 6053SOL    HW129795   3.947   3.930   6.043 -1.1427  1.4868  1.1743
 6053SOL    HW229796   3.849   3.819   6.027 -2.5941  0.4055 -0.5819
 6054SOL     OW29797   3.033   3.810  13.986  0.0903  0.4801  0.1422
 6054SOL    HW129798   3.015   3.805  14.080  0.9195  0.4904  0.3029
 6054SOL    HW229799   3.113   3.862  13.992  0.5153 -0.2086  0.3938
 6055SOL     OW29800   1.494   3.765   4.028 -0.4216 -0.6865  0.1696
 6055SOL    HW129801   1.440   3.762   3.949  0.4398  0.6653 -0.4502
 6055SOL    HW229802   1.482   3.851   4.069 -0.0335  0.3302 -1.8884
 6056SOL     OW29803   1.969   3.142   2.906 -0.8807  0.1752 -0.7319
 6056SOL    HW129804   2.050   3.143   2.855 -2.1351  0.6775 -2.7057
 6056SOL    HW229805   1.987   3.074   2.972 -0.7789  0.6543 -0.2669
 6057SOL     OW29806   4.316   3.986  16.991 -0.0597 -0.3645  0.5165
 6057SOL    HW129807   4.261   3.911  16.966  0.4003 -0.8225  0.8710
 6057SOL    HW229808   4.408   3.958  16.990  0.2084  0.5413  0.5415
 6058SOL     OW29809   2.850   4.677   8.872  0.1335  0.1059 -0.1568
 6058SOL    HW129810   2.785   4.701   8.938  0.6964 -0.0834  0.4684
 6058SOL    HW229811   2.923   4.644   8.926  0.1391  1.0778  0.4266
 6059SOL     OW29812   3.386   2.331  10.842  0.0379  0.3551  0.6372
 6059SOL    HW129813   3.325   2.258  10.847  0.9594 -0.4322  0.3536
 6059SOL    HW229814   3.375   2.385  10.921 -0.4411 -1.0855  1.5464
 6060SOL     OW29815   2.077   3.005   9.283  0.2034 -0.2180 -0.1281
 6060SOL    HW129816   1.994   2.967   9.312  0.3351 -1.6101 -1.6101
 6060SOL    HW229817   2.134   3.004   9.360  0.1999  0.2038 -0.1179
 6061SOL     OW29818   3.822   0.923   7.165 -0.1433 -0.4310 -0.1072
 6061SOL    HW129819   3.732   0.953   7.159 -0.8373 -2.9996 -2.5815
 6061SOL    HW229820   3.827   0.913   7.260  0.0513  2.0131  0.1357
 6062SOL     OW29821   0.792   4.603  16.739 -0.2158 -0.3597  0.4506
 6062SOL    HW129822   0.804   4.526  16.683 -1.6203  0.4988 -1.0347
 6062SOL    HW229823   0.867   4.598  16.799  1.1777  0.5973 -1.2218
 6063SOL     OW29824   3.871   4.571   6.125  0.2880  0.0992  0.2845
 6063SOL    HW129825   3.813   4.548   6.198  0.4738 -4.2501 -0.9255
 6063SOL    HW229826   3.927   4.625   6.181  0.9261 -2.6060  2.2670
 6064SOL     OW29827   4.647   0.765   6.098  0.1272 -0.7153 -0.7041
 6064SOL    HW129828   4.717   0.703   6.119  0.1434 -0.4516  0.0225
 6064SOL    HW229829   4.658   0.821   6.175  3.1685 -1.0120 -0.9044
 6065SOL     OW29830   4.340   0.351  10.755 -0.2312  0.2972 -0.2743
 6065SOL    HW129831   4.333   0.329  10.848 -1.8446  1.1089 -0.2115
 6065SOL    HW229832   4.435   0.340  10.748 -0.1713  0.0686  0.8626
 6066SOL     OW29833   3.840   3.899  16.074 -0.4177 -0.1009  0.0590
 6066SOL    HW129834   3.786   3.930  16.146 -1.3762 -0.0696 -0.6641
 6066SOL    HW229835   3.904   3.970  16.078 -0.1199 -0.3744  0.1217
 6067SOL     OW29836   1.869   2.855  10.360  0.0350  0.3734 -0.1243
 6067SOL    HW129837   1.944   2.874  10.415 -1.5049  2.0876  1.3996
 6067SOL    HW229838   1.919   2.828  10.283  1.7509  0.9245  0.7972
 6068SOL     OW29839   1.112   1.611   1.859  0.9022 -0.3088 -0.2803
 6068SOL    HW129840   1.037   1.667   1.879 -0.1627 -1.5179 -0.8887
 6068SOL    HW229841   1.171   1.678   1.893 -0.1698  0.6357 -0.2748
 6069SOL     OW29842   2.961   2.857   6.800  0.0323 -0.2346 -0.3939
 6069SOL    HW129843   3.009   2.819   6.727 -1.0698 -0.1592 -1.1719
 6069SOL    HW229844   2.871   2.845   6.768 -0.3557  2.8312 -0.4257
 6070SOL     OW29845   1.346   4.010   9.395  0.0732 -0.3638  0.0913
 6070SOL    HW129846   1.355   3.976   9.484  1.4646  2.7668  1.1425
 6070SOL    HW229847   1.320   3.927   9.356 -1.1282 -1.1214  2.5054
 6071SOL     OW29848   1.733   0.374   2.488 -0.0222 -0.0995 -0.1003
 6071SOL    HW129849   1.691   0.459   2.480 -1.3392 -0.8845 -1.4286
 6071SOL    HW229850   1.685   0.334   2.560  2.2031 -1.0130  0.8826
 6072SOL     OW29851   3.386   1.819   7.239 -0.6518  0.3589 -0.0347
 6072SOL    HW129852   3.476   1.837   7.264 -1.2306  1.6532  1.0824
 6072SOL    HW229853   3.349   1.789   7.322 -1.1068 -0.4349 -0.5154
 6073SOL     OW29854   2.139   3.430   1.102  0.7542 -0.3342  0.4557
 6073SOL    HW129855   2.193   3.508   1.088  1.1825 -0.3214  2.2666
 6073SOL    HW229856   2.129   3.391   1.014 -0.5512  1.4812 -0.1791
 6074SOL     OW29857   3.845   1.707   4.034 -0.0454 -0.3799  0.0326
 6074SOL    HW129858   3.847   1.699   3.939  2.3347  0.8595 -0.0256
 6074SOL    HW229859   3.785   1.781   4.048  1.1419  0.7536 -0.8978
 6075SOL     OW29860   1.631   0.836   9.247 -0.2439 -0.3857 -0.3468
 6075SOL    HW129861   1.553   0.810   9.197 -1.2777 -0.4820  1.3342
 6075SOL    HW229862   1.624   0.929   9.227  1.3737  0.0492  1.1001
 6076SOL     OW29863   4.229   2.185   5.951  0.3128 -0.2587 -0.3638
 6076SOL    HW129864   4.160   2.240   5.913  1.8535  1.2372 -0.9644
 6076SOL    HW229865   4.274   2.253   6.000 -0.7279  0.0750  0.1392
 6077SOL     OW29866   0.257   3.719   7.563 -0.4010  0.3248  0.9071
 6077SOL    HW129867   0.297   3.636   7.539 -0.9799  0.2007  0.3747
 6077SOL    HW229868   0.200   3.693   7.636  1.4415 -1.2793  1.7660
 6078SOL     OW29869   0.198   0.998  11.739  0.0515  0.1477 -0.0209
 6078SOL    HW129870   0.241   0.952  11.811  0.4530 -0.8751 -0.9071
 6078SOL    HW229871   0.249   0.981  11.660 -0.7295 -1.4678 -0.1757
 6079SOL     OW29872   1.166   0.743   2.869  0.3298 -0.2849 -0.2658
 6079SOL    HW129873   1.157   0.661   2.918 -0.3635  0.2464  0.4878
 6079SOL    HW229874   1.119   0.740   2.786  1.0183  0.8567 -0.6881
 6080SOL     OW29875   2.595   0.944   4.241  0.5294 -0.0907 -0.0602
 6080SOL    HW129876   2.532   0.875   4.263  0.4077 -0.9290 -2.9199
 6080SOL    HW229877   2.648   0.915   4.167  1.3084  1.1474  0.0122
 6081SOL     OW29878   1.879   0.945  15.455  0.3251 -0.8550  0.0564
 6081SOL    HW129879   1.794   0.971  15.420  0.9829 -1.6870 -2.1340
 6081SOL    HW229880   1.859   0.922  15.546  0.6411 -0.9338  0.1049
 6082SOL     OW29881   3.698   1.773  12.068 -0.2163  0.3714  0.1657
 6082SOL    HW129882   3.694   1.868  12.082 -1.0292  0.0413  2.1533
 6082SOL    HW229883   3.622   1.770  12.011 -0.3048  0.3416  0.2858
 6083SOL     OW29884   2.416   3.813   7.069  0.4585  0.2257 -0.3876
 6083SOL    HW129885   2.403   3.728   7.026 -0.9787  1.5635 -2.5892
 6083SOL    HW229886   2.421   3.871   6.993  0.4625 -1.0571 -1.3766
 6084SOL     OW29887   3.400   1.520   2.340 -0.1320 -0.1146  0.0650
 6084SOL    HW129888   3.372   1.597   2.291 -0.8330 -0.4724 -0.0862
 6084SOL    HW229889   3.425   1.557   2.424  0.5017 -0.6705  0.1253
 6085SOL     OW29890   1.519   3.687   7.992  0.4862 -0.4720 -0.1233
 6085SOL    HW129891   1.487   3.640   8.069  1.2617 -0.8618 -0.0321
 6085SOL    HW229892   1.493   3.777   8.009 -1.8677 -0.7214 -2.4509
 6086SOL     OW29893   0.530   2.128   2.101  0.4120  0.3540  0.0816
 6086SOL    HW129894   0.470   2.185   2.052  1.7026 -0.3679 -2.3347
 6086SOL    HW229895   0.538   2.193   2.170 -1.6191 -0.8272  1.4301
 6087SOL     OW29896   1.464   2.678   4.715 -0.3324 -0.1563 -0.1438
 6087SOL    HW129897   1.448   2.647   4.626 -0.2614 -0.5768 -0.0106
 6087SOL    HW229898   1.506   2.762   4.701  0.6373 -1.0803 -2.6802
 6088SOL     OW29899   1.120   3.984   7.177 -0.7274  0.1347  0.2536
 6088SOL    HW129900   1.126   3.906   7.232 -3.5948 -1.3804 -1.5553
 6088SOL    HW229901   1.026   3.990   7.160 -0.5288 -2.1214 -1.6531
 6089SOL     OW29902   1.671   2.477  14.245 -0.4065 -0.4836 -0.0517
 6089SOL    HW129903   1.608   2.539  14.209 -0.3460  0.4434  1.4157
 6089SOL    HW229904   1.692   2.428  14.166  3.0805  1.1009 -0.1071
 6090SOL     OW29905   3.691   1.358   8.660  0.7407 -0.2311 -0.7684
 6090SOL    HW129906   3.731   1.271   8.656 -0.0368 -0.5500 -1.7771
 6090SOL    HW229907   3.702   1.377   8.566 -1.7466  0.0177 -0.9997
 6091SOL     OW29908   2.509   3.636   5.095  0.2599 -0.0848  0.5442
 6091SOL    HW129909   2.445   3.700   5.063 -0.8898 -2.6123 -2.1943
 6091SOL    HW229910   2.469   3.608   5.177  0.7639 -3.0873 -0.2109
 6092SOL     OW29911   3.006   2.016  15.884 -0.1654  0.6625  0.3429
 6092SOL    HW129912   3.053   2.098  15.868 -0.8420  1.4210  2.1465
 6092SOL    HW229913   2.956   2.041  15.962  1.5231 -0.2782  1.7188
 6093SOL     OW29914   2.149   3.818  12.618  0.1954 -0.3064  0.2797
 6093SOL    HW129915   2.160   3.778  12.705 -2.2600 -0.5226  0.4799
 6093SOL    HW229916   2.057   3.845  12.614  0.6604  1.2558  0.0753
 6094SOL     OW29917   4.538   1.761   4.749  0.0604 -0.0819  0.6064
 6094SOL    HW129918   4.608   1.719   4.799  2.9750  3.1795 -0.7072
 6094SOL    HW229919   4.507   1.834   4.803  1.9535  0.7057  0.6448
 6095SOL     OW29920   1.805   2.736   6.408  0.2705 -0.9347 -0.1881
 6095SOL    HW129921   1.717   2.698   6.415  0.3141 -1.0362 -0.1930
 6095SOL    HW229922   1.843   2.672   6.347  0.9747 -1.2574  0.5831
 6096SOL     OW29923   1.190   4.192   7.814 -0.7070 -0.0840  0.4472
 6096SOL    HW129924   1.183   4.173   7.908 -1.1532 -0.6771  0.2950
 6096SOL    HW229925   1.121   4.257   7.802 -1.3511 -0.9499 -0.5150
 6097SOL     OW29926   4.321   0.733  10.369 -0.1495 -0.1383 -0.0195
 6097SOL    HW129927   4.389   0.798  10.350  1.7097 -2.4567 -1.1996
 6097SOL    HW229928   4.350   0.691  10.450 -1.3028  0.2644  0.5992
 6098SOL     OW29929   2.743   3.140   7.282  0.4029  0.1852  0.0907
 6098SOL    HW129930   2.791   3.065   7.317  1.5977 -0.7706 -3.6542
 6098SOL    HW229931   2.727   3.117   7.190  0.7018 -2.0981  0.6056
 6099SOL     OW29932   0.994   0.347   8.646 -0.3194 -0.2269  0.1700
 6099SOL    HW129933   0.919   0.362   8.704  0.5145 -1.0280  1.4508
 6099SOL    HW229934   1.043   0.282   8.697  0.3333  1.8111  2.1063
 6100SOL     OW29935   1.458   2.361   6.984  0.2009  0.0200  0.2599
 6100SOL    HW129936   1.460   2.452   6.956 -0.0451  0.5274  1.9138
 6100SOL    HW229937   1.368   2.339   6.959 -0.1083  2.6508 -0.8635
 6101SOL     OW29938   4.621   3.938   9.800  0.4285 -0.0367  0.3199
 6101SOL    HW129939   4.635   3.997   9.874  0.3739 -0.1399  0.4128
 6101SOL    HW229940   4.694   3.956   9.740  0.1508 -1.2672 -0.3910
 6102SOL     OW29941   1.598   4.395   8.206 -0.3534  0.2980 -0.3161
 6102SOL    HW129942   1.649   4.364   8.131  1.1662  0.3898  0.6690
 6102SOL    HW229943   1.506   4.370   8.195  0.0269 -1.3713  0.2321
 6103SOL     OW29944   3.120   1.305   8.283  0.1891 -0.0944  0.1233
 6103SOL    HW129945   3.064   1.250   8.336 -1.2236 -0.9407 -2.2295
 6103SOL    HW229946   3.207   1.311   8.324  0.4025 -1.3153 -0.1413
 6104SOL     OW29947   4.365   0.717   3.694  0.1321 -0.2376 -0.6879
 6104SOL    HW129948   4.441   0.676   3.653  2.4659  1.8112  1.6004
 6104SOL    HW229949   4.372   0.805   3.658  1.6460 -0.1647 -0.1984
 6105SOL     OW29950   4.691   4.031   1.266  0.2501 -0.1528  0.4361
 6105SOL    HW129951   4.656   4.118   1.246 -1.4499 -1.2272 -1.3014
 6105SOL    HW229952   4.618   3.980   1.230  1.7458 -1.3342 -0.9314
 6106SOL     OW29953   1.576   0.371   7.154 -0.5969 -0.0500  0.2206
 6106SOL    HW129954   1.662   0.347   7.188  0.4383  1.8385 -1.0212
 6106SOL    HW229955   1.572   0.339   7.064  2.9367 -1.4458  0.5800
 6107SOL     OW29956   3.723   0.707   8.286  0.6291  0.3929 -0.3695
 6107SOL    HW129957   3.808   0.743   8.313  1.6301 -2.6013  0.5012
 6107SOL    HW229958   3.716   0.747   8.199  1.3317  0.3717 -0.4393
 6108SOL     OW29959   2.295   1.928   8.906 -0.1536 -0.0184 -0.0421
 6108SOL    HW129960   2.368   1.926   8.968 -0.0939  0.9367 -0.0858
 6108SOL    HW229961   2.278   2.021   8.893 -0.5232 -0.1874 -0.7916
 6109SOL     OW29962   0.614   3.328  12.628  0.4948 -0.2286  0.1492
 6109SOL    HW129963   0.703   3.357  12.609  0.7699 -1.8931 -1.1052
 6109SOL    HW229964   0.612   3.341  12.723 -1.2421 -1.2973  0.2601
 6110SOL     OW29965   1.627   0.194   3.789 -0.3909 -0.5003  0.0060
 6110SOL    HW129966   1.714   0.172   3.758 -0.0325  1.0931 -0.1406
 6110SOL    HW229967   1.630   0.289   3.799 -1.7370 -0.5131  0.4985
 6111SOL     OW29968   4.041   3.912   1.850  0.1606  0.1103 -0.0301
 6111SOL    HW129969   4.029   3.864   1.932  0.1353 -1.8894 -1.1811
 6111SOL    HW229970   4.099   3.982   1.878 -1.9080  0.9317  2.2128
 6112SOL     OW29971   1.709   1.619   1.612  0.3014  0.5156 -0.4005
 6112SOL    HW129972   1.776   1.686   1.629  2.2039 -1.9931  1.8949
 6112SOL    HW229973   1.631   1.673   1.602 -0.2494 -0.1760  0.2183
 6113SOL     OW29974   4.647   1.455   8.241  0.1299 -0.3789 -0.5565
 6113SOL    HW129975   4.733   1.412   8.250 -0.3868 -0.9529  1.4771
 6113SOL    HW229976   4.623   1.478   8.331 -0.6565  0.0117 -0.8683
 6114SOL     OW29977   0.980   4.712   6.573 -0.0478  0.3117  0.0697
 6114SOL    HW129978   0.980   4.622   6.542  0.3715 -0.8345  3.3707
 6114SOL    HW229979   1.016   4.705   6.662 -0.7600 -0.6369  0.2863
 6115SOL     OW29980   3.032   0.468  11.387 -0.2814 -0.3975  0.3958
 6115SOL    HW129981   3.086   0.393  11.364 -1.5043 -0.5909 -1.8456
 6115SOL    HW229982   3.095   0.523  11.434 -0.7513  0.3460  0.1602
 6116SOL     OW29983   1.463   1.805   2.643  0.1926 -0.2726 -0.0362
 6116SOL    HW129984   1.449   1.762   2.559  2.2260  1.0087 -1.0241
 6116SOL    HW229985   1.481   1.727   2.695 -0.5565  0.1502  0.8536
 6117SOL     OW29986   2.748   3.833   0.160  0.1787 -0.2465 -0.5952
 6117SOL    HW129987   2.745   3.834   0.255 -0.4501 -1.2218 -0.6056
 6117SOL    HW229988   2.808   3.761   0.139 -0.2261 -0.6829 -0.2518
 6118SOL     OW29989   1.240   4.630   8.365 -0.0891  0.1644  0.1409
 6118SOL    HW129990   1.202   4.654   8.280  2.0864  0.2660 -0.8232
 6118SOL    HW229991   1.179   4.669   8.427 -0.0338 -1.3365  1.1287
 6119SOL     OW29992   1.263   3.298   6.200 -0.4382 -0.0618 -0.5397
 6119SOL    HW129993   1.231   3.355   6.129  2.3190  0.7038 -1.1629
 6119SOL    HW229994   1.183   3.249   6.219 -0.1007 -1.1480 -1.9215
 6120SOL     OW29995   0.070   1.437  11.803  0.0896  0.2693  0.5192
 6120SOL    HW129996   4.719   1.454  11.829 -0.6457 -1.3427 -0.9916
 6120SOL    HW229997   0.064   1.380  11.726 -1.3995 -0.8899  1.4824
 6121SOL     OW29998   3.378   2.615   2.471 -0.2204  0.1250  0.3860
 6121SOL    HW129999   3.382   2.672   2.395 -1.4597 -0.0357  0.1992
 6121SOL    HW230000   3.364   2.532   2.426  0.3040  1.4050 -2.1103
 6122SOL     OW30001   0.992   2.862   2.302  0.2447 -0.0002  0.4590
 6122SOL    HW130002   0.951   2.894   2.222 -0.4516  1.5884  1.4724
 6122SOL    HW230003   0.938   2.787   2.328 -0.3913  0.6580  1.0417
 6123SOL     OW30004   1.651   3.924   2.871  0.1569 -0.4197 -0.1247
 6123SOL    HW130005   1.736   3.891   2.842  0.4371 -0.0974  0.3261
 6123SOL    HW230006   1.597   3.857   2.829 -1.4737  1.4136 -0.9355
 6124SOL     OW30007   2.549   0.917  17.197 -0.3796 -0.5996 -0.5274
 6124SOL    HW130008   2.536   0.831  17.158 -0.0001 -1.2920  0.8945
 6124SOL    HW230009   2.466   0.956  17.168 -0.2070 -0.8713 -1.3915
 6125SOL     OW30010   0.011   0.946   6.271 -0.3686  0.2385 -0.5122
 6125SOL    HW130011   0.018   0.998   6.351  0.4536  0.2562 -0.5962
 6125SOL    HW230012   0.056   1.002   6.208  2.6984 -1.8709 -0.2221
 6126SOL     OW30013   4.239   0.618  13.445 -0.1919 -0.0641  0.1392
 6126SOL    HW130014   4.313   0.576  13.402 -0.6510  0.5190 -1.2552
 6126SOL    HW230015   4.172   0.557  13.413 -1.2797  1.8836 -1.3256
 6127SOL     OW30016   3.167   0.484  17.472  0.3556  0.4734 -0.2462
 6127SOL    HW130017   3.162   0.494  17.567  1.1475  0.1346 -0.1677
 6127SOL    HW230018   3.236   0.545  17.447 -0.9508  1.2250 -2.0570
 6128SOL     OW30019   3.542   3.001  12.293 -0.2870  0.2851 -0.2521
 6128SOL    HW130020   3.512   3.087  12.264 -0.8521 -0.0076 -0.5153
 6128SOL    HW230021   3.637   3.018  12.298 -0.1785 -1.2493  2.7993
 6129SOL     OW30022   2.059   4.343   9.240  0.1111 -0.6549 -0.1150
 6129SOL    HW130023   2.066   4.431   9.202 -0.5376 -0.8229 -0.6318
 6129SOL    HW230024   1.966   4.354   9.258  0.5442  1.2681  0.9410
 6130SOL     OW30025   4.063   1.239   5.917  0.2932  0.5502 -0.0767
 6130SOL    HW130026   4.114   1.172   5.871  1.9027  1.1566  0.7959
 6130SOL    HW230027   4.034   1.189   5.994  2.6863 -2.3655 -1.0581
 6131SOL     OW30028   1.905   4.682  14.540 -0.5270  0.1419 -0.3814
 6131SOL    HW130029   1.878   4.691  14.632  0.7114 -1.4666  0.1323
 6131SOL    HW230030   1.819   4.684  14.498 -0.2083 -0.5049 -1.0704
 6132SOL     OW30031   0.307   3.863   6.606 -0.0112  0.2256 -0.0376
 6132SOL    HW130032   0.391   3.861   6.652 -0.2986  1.3863  0.5375
 6132SOL    HW230033   0.284   3.773   6.584 -2.1911  0.7460  0.0848
 6133SOL     OW30034   0.032   0.109   1.528  1.0793  0.6979 -0.1837
 6133SOL    HW130035   0.092   0.183   1.526  0.3534  1.3696  3.3054
 6133SOL    HW230036   4.700   0.144   1.475 -1.7684 -2.3833  1.5859
 6134SOL     OW30037   3.102   4.432   1.500  0.3497  0.2174 -0.1770
 6134SOL    HW130038   3.087   4.400   1.589  0.2490  0.7844  0.0116
 6134SOL    HW230039   3.013   4.463   1.480 -0.6061 -0.9350  2.3175
 6135SOL     OW30040   2.835   1.709   9.062  0.8118  0.2102 -0.0233
 6135SOL    HW130041   2.884   1.676   9.138  0.9033  0.5116  0.0486
 6135SOL    HW230042   2.851   1.803   9.061 -3.5176  0.9272 -2.3421
 6136SOL     OW30043   2.582   0.081   2.353  0.3871 -0.2061 -0.2937
 6136SOL    HW130044   2.658   0.030   2.327  0.6887  0.3811 -0.5653
 6136SOL    HW230045   2.556   0.127   2.272  0.1670  2.4182  1.2489
 6137SOL     OW30046   3.546   3.720   6.578  0.2510 -0.1344 -0.0979
 6137SOL    HW130047   3.603   3.655   6.620  0.5343  1.7601  2.5220
 6137SOL    HW230048   3.496   3.751   6.654  1.1536  0.7709  0.1276
 6138SOL     OW30049   3.916   3.097   2.784 -0.5815 -0.2982 -0.1683
 6138SOL    HW130050   3.936   3.089   2.691 -0.0423  0.1871 -0.0923
 6138SOL    HW230051   3.939   3.009   2.811  1.1122  0.4436  0.7713
 6139SOL     OW30052   2.320   1.307   5.354  0.0928 -0.2335 -0.2814
 6139SOL    HW130053   2.355   1.242   5.292  0.4540 -0.3616  0.0580
 6139SOL    HW230054   2.246   1.262   5.395 -0.5133  0.4825 -0.6051
 6140SOL     OW30055   4.277   3.341   3.504 -0.2790  0.5928 -0.3182
 6140SOL    HW130056   4.262   3.417   3.560  1.0802  2.3886 -2.3713
 6140SOL    HW230057   4.203   3.347   3.444 -0.2781 -2.0926 -0.5692
 6141SOL     OW30058   0.013   3.542   2.422 -0.4458 -0.0874  0.3333
 6141SOL    HW130059   4.715   3.563   2.508  0.2083 -2.1882  1.1251
 6141SOL    HW230060   4.688   3.476   2.394  1.0345 -1.7857  0.9868
 6142SOL     OW30061   3.724   0.371   5.208  0.6620 -0.7000 -0.5012
 6142SOL    HW130062   3.724   0.312   5.283  1.0128  0.4189  0.3809
 6142SOL    HW230063   3.634   0.368   5.175  0.3902  1.9849 -0.0513
 6143SOL     OW30064   2.199   2.119   2.957  0.4167  0.3453 -0.2875
 6143SOL    HW130065   2.241   2.035   2.939 -1.5019 -0.5745 -0.4610
 6143SOL    HW230066   2.271   2.181   2.969  0.9690  0.0269 -2.0006
 6144SOL     OW30067   1.903   3.492   7.541 -0.0521 -0.2526 -0.2984
 6144SOL    HW130068   1.968   3.530   7.482 -0.4146  4.6180  2.4538
 6144SOL    HW230069   1.854   3.571   7.561  0.7593  0.1379  0.1502
 6145SOL     OW30070   0.212   3.719   5.590  0.7307 -0.1283 -0.2707
 6145SOL    HW130071   0.173   3.738   5.675  0.3676 -0.4101 -0.3703
 6145SOL    HW230072   0.174   3.632   5.573  1.5718 -0.6248  0.3709
 6146SOL     OW30073   4.419   0.994   2.677  0.5390  0.2798  0.0220
 6146SOL    HW130074   4.356   0.926   2.703 -0.4146  1.3488  0.4990
 6146SOL    HW230075   4.389   1.024   2.592  1.7971 -2.1269 -1.2806
 6147SOL     OW30076   2.577   4.010   4.592 -0.0266  0.6688  0.1057
 6147SOL    HW130077   2.506   4.025   4.530 -1.2374  0.3049  1.4089
 6147SOL    HW230078   2.555   4.071   4.662  0.6447 -1.6797  2.3766
 6148SOL     OW30079   4.575   2.921   1.657  0.0057 -0.0757  0.0860
 6148SOL    HW130080   4.638   2.899   1.725  0.5006 -0.3642 -0.4614
 6148SOL    HW230081   4.625   2.929   1.576  0.2840  0.7357  0.3408
 6149SOL     OW30082   0.928   1.209   5.872 -0.0346 -0.3618  0.3282
 6149SOL    HW130083   0.945   1.215   5.778 -1.1092  2.3236  0.2843
 6149SOL    HW230084   0.874   1.131   5.880 -0.7853  0.0659 -0.5940
 6150SOL     OW30085   2.529   1.916   3.059 -0.5554 -0.1362  0.1904
 6150SOL    HW130086   2.580   1.886   3.135  1.2499  1.2721 -0.4845
 6150SOL    HW230087   2.594   1.962   3.007 -1.1795 -0.6043 -1.0027
 6151SOL     OW30088   2.631   0.039   2.981  0.3641  0.3825 -0.0717
 6151SOL    HW130089   2.540   0.020   2.957  0.3539  0.9948 -0.5016
 6151SOL    HW230090   2.645   0.123   2.937 -2.3323  1.9255  2.0894
 6152SOL     OW30091   2.343   1.546  14.909 -0.2540 -0.5304 -0.3284
 6152SOL    HW130092   2.330   1.452  14.913  0.2950 -0.5486  1.2167
 6152SOL    HW230093   2.256   1.577  14.886 -0.1393 -0.0259 -0.1034
 6153SOL     OW30094   4.411   2.072   8.412  0.0684 -0.5534 -0.0896
 6153SOL    HW130095   4.394   1.980   8.391  1.7894 -0.4030 -2.1394
 6153SOL    HW230096   4.487   2.062   8.469  0.8366  2.2896 -0.5948
 6154SOL     OW30097   2.874   2.193   8.862  0.3727  0.2230 -0.0374
 6154SOL    HW130098   2.847   2.263   8.922  1.9432  0.5902  0.2394
 6154SOL    HW230099   2.795   2.139   8.873  0.5475 -0.3670 -1.7560
 6155SOL     OW30100   2.881   2.524   6.771 -0.2528  0.4183 -0.5068
 6155SOL    HW130101   2.933   2.506   6.849  0.7739 -1.1394 -1.5471
 6155SOL    HW230102   2.804   2.569   6.807 -1.2358 -1.6364 -0.0494
 6156SOL     OW30103   0.627   3.893   8.152 -0.2392 -0.5408 -0.5007
 6156SOL    HW130104   0.657   3.844   8.228  0.4248  1.2548  0.3729
 6156SOL    HW230105   0.658   3.981   8.169  1.5675 -1.3092  0.1413
 6157SOL     OW30106   0.439   4.605   6.072  0.2063  0.5370  0.0148
 6157SOL    HW130107   0.507   4.581   6.135 -1.2802 -0.6724  1.1455
 6157SOL    HW230108   0.459   4.541   6.003  1.0832  0.9751 -0.1476
 6158SOL     OW30109   2.182   1.331   5.046  0.0781  0.0571  0.5891
 6158SOL    HW130110   2.098   1.285   5.042  0.6506 -1.0563  1.3080
 6158SOL    HW230111   2.246   1.262   5.064  0.5502 -0.0144 -1.3891
 6159SOL     OW30112   2.434   3.764   0.578 -0.0039 -0.2270 -0.3323
 6159SOL    HW130113   2.450   3.745   0.486  0.3656  1.1066 -0.5470
 6159SOL    HW230114   2.445   3.859   0.574 -2.0645  0.0234  0.1881
 6160SOL     OW30115   4.399   2.369   4.572  0.4259  0.1775 -0.3011
 6160SOL    HW130116   4.490   2.340   4.585 -0.1260 -0.4881  2.1382
 6160SOL    HW230117   4.409   2.433   4.502  1.3960  0.1075 -0.2308
 6161SOL     OW30118   2.878   1.396   1.316 -0.1706  0.3795  0.2364
 6161SOL    HW130119   2.922   1.473   1.281  2.7346 -1.6754 -0.6082
 6161SOL    HW230120   2.899   1.391   1.410  1.6285  1.0016 -0.1543
 6162SOL     OW30121   0.213   1.878   4.451  0.6531 -0.0807 -0.2002
 6162SOL    HW130122   0.189   1.894   4.542  1.8749 -1.0884  0.2925
 6162SOL    HW230123   0.253   1.792   4.461  1.3574  0.4601  1.5666
 6163SOL     OW30124   3.205   3.025   6.875  0.4305  0.3430  0.1512
 6163SOL    HW130125   3.165   2.942   6.849  1.6896 -0.2962  0.2307
 6163SOL    HW230126   3.246   3.052   6.793  1.0889  0.3960  0.5016
 6164SOL     OW30127   2.975   1.992   7.007  1.0001  0.0569 -0.3301
 6164SOL    HW130128   3.052   1.993   7.063 -1.6305 -0.3737  3.3131
 6164SOL    HW230129   2.935   1.907   7.027  0.6278 -0.0057 -1.2872
 6165SOL     OW30130   4.272   2.981   5.831 -0.6514 -0.0586  0.3770
 6165SOL    HW130131   4.241   2.939   5.751 -1.7822  1.1506  0.1777
 6165SOL    HW230132   4.192   2.980   5.884  0.7153  1.4919  2.4997
 6166SOL     OW30133   4.512   4.625   4.832 -0.1255 -0.1384 -0.3299
 6166SOL    HW130134   4.589   4.592   4.878 -0.2288  1.2156  0.8305
 6166SOL    HW230135   4.445   4.627   4.901 -0.7365  2.3238 -0.9848
 6167SOL     OW30136   0.458   3.271   4.330 -0.4417  0.6036 -0.6733
 6167SOL    HW130137   0.415   3.200   4.284  2.2458 -1.4018 -0.0889
 6167SOL    HW230138   0.384   3.306   4.379 -0.3407  0.5042 -0.4493
 6168SOL     OW30139   2.802   1.713   4.283  0.0587  0.0176  0.5488
 6168SOL    HW130140   2.865   1.644   4.260  1.9127  1.4552  1.3450
 6168SOL    HW230141   2.811   1.713   4.378  1.0415  1.4962  0.4459
 6169SOL     OW30142   2.239   3.012   9.506 -0.1868 -0.5053 -0.1343
 6169SOL    HW130143   2.303   3.007   9.435  0.7821  1.1982  0.6063
 6169SOL    HW230144   2.264   3.099   9.538 -1.0729  0.4516 -2.0142
 6170SOL     OW30145   3.610   0.659  14.545  0.0954  0.2451 -0.6608
 6170SOL    HW130146   3.663   0.728  14.505  0.0160  0.1509 -0.9230
 6170SOL    HW230147   3.641   0.580  14.501  0.8336  1.0823 -1.6471
 6171SOL     OW30148   0.715   1.893   5.040  0.8215 -0.0480  0.5024
 6171SOL    HW130149   0.737   1.948   5.114  3.0156 -1.4050  0.8579
 6171SOL    HW230150   0.621   1.909   5.038  1.3833  2.7518 -3.1174
 6172SOL     OW30151   2.217   1.200  15.280 -0.1805  0.2353 -0.0337
 6172SOL    HW130152   2.292   1.179  15.334  0.6083  0.6089 -0.9818
 6172SOL    HW230153   2.188   1.280  15.325 -3.3810 -1.9312  1.7204
 6173SOL     OW30154   3.324   0.858   6.038  0.2440  0.0006 -0.2635
 6173SOL    HW130155   3.318   0.773   6.080 -1.3360  0.7100  0.9465
 6173SOL    HW230156   3.337   0.919   6.111  2.8179  2.6944 -2.9658
 6174SOL     OW30157   1.143   4.583   1.063 -0.5160  0.0101  0.2216
 6174SOL    HW130158   1.075   4.604   0.998  0.5845 -0.5890 -1.1214
 6174SOL    HW230159   1.141   4.488   1.050 -1.2191  0.0230  0.2001
 6175SOL     OW30160   2.537   1.961  15.175  0.3539  0.5061 -0.2414
 6175SOL    HW130161   2.595   1.889  15.198  0.0766  0.3751  0.0461
 6175SOL    HW230162   2.453   1.915  15.175  0.4049  0.4126 -1.0985
 6176SOL     OW30163   4.654   2.594   8.015  0.3506  0.2916  0.0059
 6176SOL    HW130164   4.633   2.685   7.994 -1.1279  0.1627  0.9440
 6176SOL    HW230165   4.728   2.570   7.958 -1.1628  1.3806 -2.4229
 6177SOL     OW30166   4.217   4.440   2.610  0.0098 -0.2862  0.0563
 6177SOL    HW130167   4.126   4.460   2.633 -0.2478  0.8674 -1.9999
 6177SOL    HW230168   4.235   4.387   2.688 -0.9174 -3.5926 -1.9538
 6178SOL     OW30169   0.627   1.816  11.082 -0.0279  0.3305 -0.0684
 6178SOL    HW130170   0.547   1.792  11.130 -0.7446 -0.8415 -1.8618
 6178SOL    HW230171   0.682   1.836  11.158  0.9087  1.9056 -1.1682
 6179SOL     OW30172   2.720   1.498  17.066  0.6946  0.2998 -0.7673
 6179SOL    HW130173   2.739   1.421  17.012 -0.3914 -0.1887 -0.4420
 6179SOL    HW230174   2.648   1.472  17.123  1.7146 -0.4588  0.1749
 6180SOL     OW30175   2.086   1.074   2.744 -0.7718 -0.0768  0.3707
 6180SOL    HW130176   2.124   1.009   2.685 -1.1963  1.1474 -1.2596
 6180SOL    HW230177   2.148   1.147   2.747  1.7744 -2.2323 -0.1790
 6181SOL     OW30178   3.961   4.247   1.651 -0.2461 -0.2124  0.6183
 6181SOL    HW130179   3.930   4.165   1.691 -3.4511  0.2284 -1.0217
 6181SOL    HW230180   4.007   4.285   1.726  1.0828  0.0662 -0.3571
 6182SOL     OW30181   2.937   2.404   2.119  0.4490 -0.2609  0.3492
 6182SOL    HW130182   2.908   2.409   2.028  1.0163 -1.1388  0.1318
 6182SOL    HW230183   3.004   2.337   2.109 -0.8444 -1.1793 -2.0466
 6183SOL     OW30184   0.935   1.239   2.420  0.4509 -0.3811  0.5293
 6183SOL    HW130185   0.902   1.212   2.335 -0.3450 -5.0168  2.3144
 6183SOL    HW230186   0.888   1.168   2.464 -0.3665 -0.1618 -0.0022
 6184SOL     OW30187   0.862   0.527   1.580 -0.2440 -0.6271 -0.1216
 6184SOL    HW130188   0.907   0.471   1.516 -0.5162 -3.1865  1.9511
 6184SOL    HW230189   0.888   0.615   1.552 -1.0947 -0.3968 -0.1724
 6185SOL     OW30190   1.468   2.859  16.637  0.1206  0.7800  0.3685
 6185SOL    HW130191   1.473   2.905  16.721 -0.1193  0.2005  0.7012
 6185SOL    HW230192   1.467   2.927  16.570  0.1478 -0.3172 -0.7492
 6186SOL     OW30193   2.274   3.702   9.918 -0.3209 -1.1457  0.2539
 6186SOL    HW130194   2.360   3.672   9.886  0.8500 -0.7820  3.0760
 6186SOL    HW230195   2.298   3.795   9.920 -0.3513 -1.1574  1.0009
 6187SOL     OW30196   1.920   0.420   6.572 -0.2207  0.5908 -0.5357
 6187SOL    HW130197   1.925   0.421   6.477  0.5715  1.6600 -0.4798
 6187SOL    HW230198   1.979   0.491   6.595 -1.9902  2.3772 -1.4669
 6188SOL     OW30199   4.239   3.336  14.220 -0.4160 -0.2731 -0.2906
 6188SOL    HW130200   4.171   3.274  14.196 -1.7787  0.7156  1.0545
 6188SOL    HW230201   4.220   3.406  14.157 -0.2808  2.1417  2.3548
 6189SOL     OW30202   0.299   3.329   5.388 -0.2346 -0.0994 -0.6080
 6189SOL    HW130203   0.235   3.400   5.388 -2.7184 -2.3625 -2.8222
 6189SOL    HW230204   0.316   3.304   5.479  0.4789  1.9929 -0.1788
 6190SOL     OW30205   2.446   0.696   5.482 -0.2939  0.1374 -0.4963
 6190SOL    HW130206   2.480   0.615   5.521  1.4374 -0.1991 -2.6987
 6190SOL    HW230207   2.377   0.658   5.428 -1.6998 -0.4136  1.6871
 6191SOL     OW30208   1.794   3.985   5.882 -0.7664 -0.2199 -0.0858
 6191SOL    HW130209   1.814   4.059   5.939 -1.5677  0.0367 -0.1432
 6191SOL    HW230210   1.767   3.916   5.942 -2.6428  2.1464  1.7446
 6192SOL     OW30211   2.441   1.022   1.407  0.5700 -0.1634 -0.0533
 6192SOL    HW130212   2.476   1.095   1.355  3.2156 -1.4485 -0.0949
 6192SOL    HW230213   2.458   0.945   1.352 -1.9229 -0.1219 -0.8844
 6193SOL     OW30214   4.395   3.887   2.265 -0.5706  0.5069  0.2652
 6193SOL    HW130215   4.413   3.800   2.300  0.7469  1.6072  2.2576
 6193SOL    HW230216   4.306   3.902   2.296 -1.1577  0.3812 -1.3203
 6194SOL     OW30217   0.321   0.872   4.803 -0.3154  0.1682  0.1830
 6194SOL    HW130218   0.317   0.961   4.837 -3.8378  0.4411 -0.9905
 6194SOL    HW230219   0.268   0.880   4.724  0.2494 -3.3633 -0.5535
 6195SOL     OW30220   0.872   0.411   3.794 -0.1822  0.5078  0.2686
 6195SOL    HW130221   0.918   0.455   3.723  0.2218  2.5673  1.7900
 6195SOL    HW230222   0.784   0.421   3.759 -0.6451  0.2010  1.3641
 6196SOL     OW30223   3.693   2.323   5.475  0.7531 -0.0439 -0.0895
 6196SOL    HW130224   3.673   2.415   5.460 -0.1832 -0.3448 -0.6931
 6196SOL    HW230225   3.615   2.282   5.438 -0.7837  1.4746  1.4216
 6197SOL     OW30226   4.217   3.230  11.062  0.7921 -0.0397 -0.2732
 6197SOL    HW130227   4.209   3.224  10.967  2.0443 -1.2764 -0.3158
 6197SOL    HW230228   4.225   3.138  11.090 -2.0835 -0.3509 -0.5408
 6198SOL     OW30229   1.763   3.645  12.313  0.5151 -0.6798 -0.4134
 6198SOL    HW130230   1.773   3.562  12.360  1.3098 -0.3044  0.0835
 6198SOL    HW230231   1.819   3.698  12.370  2.2346 -1.7612 -1.0919
 6199SOL     OW30232   3.777   2.332  15.713 -0.0115 -0.0467 -0.1621
 6199SOL    HW130233   3.707   2.271  15.738 -1.8987  1.4637 -1.7466
 6199SOL    HW230234   3.833   2.317  15.789 -2.3052 -1.3922  1.2820
 6200SOL     OW30235   4.367   0.008   7.207 -0.7661 -0.3535 -0.7688
 6200SOL    HW130236   4.377   0.099   7.236 -0.7346 -0.7127  0.3142
 6200SOL    HW230237   4.394   0.022   7.116  2.8726 -0.7240  0.2519
 6201SOL     OW30238   3.607   2.790   3.804 -0.0010 -0.8379 -0.7014
 6201SOL    HW130239   3.633   2.871   3.760  0.2434  0.5559  2.0033
 6201SOL    HW230240   3.517   2.815   3.825  0.9891 -0.5544  3.2848
 6202SOL     OW30241   1.836   1.281   5.380 -0.6248 -0.0826 -1.0054
 6202SOL    HW130242   1.927   1.256   5.391 -0.4828  1.1618  0.8414
 6202SOL    HW230243   1.837   1.313   5.290  1.4421  0.1683 -0.8883
 6203SOL     OW30244   3.795   4.726   4.131 -0.0586 -0.0962 -0.3046
 6203SOL    HW130245   3.750   0.064   4.166  1.7494  0.1994  1.2979
 6203SOL    HW230246   3.878   4.718   4.178 -0.5657  1.5511  0.8838
 6204SOL     OW30247   4.564   2.080   0.329  0.2209 -0.2507 -0.2144
 6204SOL    HW130248   4.473   2.065   0.355 -0.1422 -1.9396 -2.4677
 6204SOL    HW230249   4.616   2.078   0.410  1.3574  1.0257 -0.9004
 6205SOL     OW30250   1.926   1.631  16.884 -0.1701 -0.2216 -0.0850
 6205SOL    HW130251   1.943   1.649  16.791  1.9123  0.8976  0.5026
 6205SOL    HW230252   1.978   1.552  16.895  0.0436  0.0065  0.5215
 6206SOL     OW30253   4.303   4.386   4.118 -0.1638 -0.0825  0.2369
 6206SOL    HW130254   4.383   4.426   4.151  0.0333 -0.7284  0.5520
 6206SOL    HW230255   4.285   4.432   4.037  0.6551  1.1975  0.7836
 6207SOL     OW30256   2.814   0.481   5.960  0.2576  0.5450  0.3269
 6207SOL    HW130257   2.816   0.489   5.865  1.7013 -4.0780 -0.0376
 6207SOL    HW230258   2.730   0.437   5.975 -0.1255  1.5677  1.2003
 6208SOL     OW30259   1.127   2.512   6.617  0.0862  0.3254 -0.0962
 6208SOL    HW130260   1.075   2.525   6.538 -1.2231  3.4155  1.2806
 6208SOL    HW230261   1.207   2.478   6.577  0.0538 -0.8297  0.8411
 6209SOL     OW30262   4.307   0.880  11.335 -0.0459 -0.3995  0.5553
 6209SOL    HW130263   4.287   0.842  11.421 -0.3094 -1.3070  0.0874
 6209SOL    HW230264   4.386   0.928  11.361  0.5529 -1.5338  0.7909
 6210SOL     OW30265   3.164   3.813   7.254  0.0608  0.5195  0.0071
 6210SOL    HW130266   3.185   3.752   7.325 -0.8104 -1.5993 -1.5500
 6210SOL    HW230267   3.176   3.892   7.307 -0.4329  0.1356  0.6915
 6211SOL     OW30268   3.124   3.866   8.920  0.1591 -0.6009  0.6880
 6211SOL    HW130269   3.114   3.961   8.922 -0.7398 -0.6733 -0.1590
 6211SOL    HW230270   3.121   3.833   9.010  1.3164 -2.6764 -0.0261
 6212SOL     OW30271   0.357   3.536   0.599 -0.2076 -0.3152  0.2791
 6212SOL    HW130272   0.344   3.450   0.559  1.1667  0.2230 -1.3207
 6212SOL    HW230273   0.449   3.554   0.583 -0.1184 -0.8609  0.1694
 6213SOL     OW30274   3.158   1.518   8.047  0.0561 -0.3185  0.2832
 6213SOL    HW130275   3.103   1.529   7.970  1.4216 -2.3878 -0.9700
 6213SOL    HW230276   3.175   1.424   8.046  0.7270 -0.1877 -0.5242
 6214SOL     OW30277   2.562   1.369   6.975 -0.3193  0.2302  0.4742
 6214SOL    HW130278   2.472   1.381   6.946  0.2892  1.2447 -1.0071
 6214SOL    HW230279   2.606   1.396   6.895  0.5805  0.6924  1.1209
 6215SOL     OW30280   1.702   2.209  13.377  0.1253  0.7833  0.5897
 6215SOL    HW130281   1.712   2.152  13.453  2.0569 -0.8446 -0.8442
 6215SOL    HW230282   1.784   2.198  13.328 -0.4388 -2.0653  0.2429
 6216SOL     OW30283   0.327   2.132   4.387 -0.1568  0.0581 -0.1419
 6216SOL    HW130284   0.394   2.141   4.454 -1.9956 -0.0534  1.7199
 6216SOL    HW230285   0.268   2.063   4.418  0.4563 -1.2109 -1.8001
 6217SOL     OW30286   2.918   1.063   1.768  0.6866 -0.0920  0.0312
 6217SOL    HW130287   3.004   1.043   1.731  0.2564  1.1521 -1.6763
 6217SOL    HW230288   2.908   1.151   1.731 -1.0528 -0.7705 -1.0994
 6218SOL     OW30289   2.268   4.045   3.180  0.4247 -0.4825 -0.4091
 6218SOL    HW130290   2.343   4.051   3.239  2.0785 -1.3294 -2.4299
 6218SOL    HW230291   2.247   3.952   3.184  0.0548 -0.3768  0.0600
 6219SOL     OW30292   0.962   4.211   6.906 -0.0365  0.1213 -0.4267
 6219SOL    HW130293   1.020   4.284   6.883  0.4343 -0.2126 -0.3087
 6219SOL    HW230294   0.960   4.218   7.001 -1.4639  1.5973 -0.5623
 6220SOL     OW30295   3.644   3.907   3.320  0.3905 -0.4288  0.0978
 6220SOL    HW130296   3.573   3.969   3.333 -0.9749 -1.9999  0.2036
 6220SOL    HW230297   3.692   3.925   3.401 -0.4306  2.1700  0.0048
 6221SOL     OW30298   4.547   4.651   7.843  0.1405 -0.6619 -0.1509
 6221SOL    HW130299   4.547   4.733   7.891 -1.3095 -1.0265  0.4474
 6221SOL    HW230300   4.513   4.589   7.907 -0.0738 -1.0833 -0.6734
 6222SOL     OW30301   1.671   0.288   6.587 -0.1513  0.0727  0.1331
 6222SOL    HW130302   1.682   0.276   6.493  1.0948  1.4310  0.1157
 6222SOL    HW230303   1.748   0.341   6.607  0.5825 -1.3403  1.0010
 6223SOL     OW30304   0.945   3.433   1.851  0.2988  0.1728  0.1127
 6223SOL    HW130305   0.852   3.409   1.853  0.3319  0.0135 -0.2619
 6223SOL    HW230306   0.981   3.377   1.782 -1.0604  0.3294 -0.7331
 6224SOL     OW30307   4.147   3.908  13.424  0.2085  0.1310 -0.2636
 6224SOL    HW130308   4.117   3.993  13.392  1.3045  1.7447  2.9681
 6224SOL    HW230309   4.106   3.856  13.355 -1.7378  0.2136  0.8163
 6225SOL     OW30310   4.353   3.475   4.674  0.0379  0.0958  0.4283
 6225SOL    HW130311   4.436   3.452   4.632  0.2451  0.4347  0.6568
 6225SOL    HW230312   4.292   3.437   4.611  0.4667  0.7555 -0.3829
 6226SOL     OW30313   4.234   0.554   3.417 -0.3423 -0.3863 -0.2379
 6226SOL    HW130314   4.242   0.631   3.360  0.5065  0.0339  0.4433
 6226SOL    HW230315   4.228   0.593   3.504  4.0668 -0.3077  0.0623
 6227SOL     OW30316   3.440   2.674   5.835 -0.6397 -0.5870 -0.3151
 6227SOL    HW130317   3.364   2.696   5.889 -0.8941 -0.0943 -0.8743
 6227SOL    HW230318   3.445   2.747   5.773  2.4292 -0.3024  0.2406
 6228SOL     OW30319   4.435   0.156   7.795 -0.1955 -0.5320  0.2606
 6228SOL    HW130320   4.342   0.178   7.790  0.1090  0.8952  0.9542
 6228SOL    HW230321   4.449   0.149   7.701 -0.5246 -0.5625  0.2148
 6229SOL     OW30322   0.812   1.505   6.637  0.5467  0.0542  0.0553
 6229SOL    HW130323   0.756   1.581   6.623  1.0279  0.2152 -1.0240
 6229SOL    HW230324   0.882   1.551   6.684 -0.6514  2.2107 -0.2763
 6230SOL     OW30325   3.618   1.232   4.263 -0.1775  0.6808 -0.5179
 6230SOL    HW130326   3.609   1.154   4.209  0.4782  0.6667 -0.6030
 6230SOL    HW230327   3.559   1.225   4.338 -1.3786  1.4154 -1.3961
 6231SOL     OW30328   2.041   2.138   2.088  0.2949 -0.0883  0.2766
 6231SOL    HW130329   2.062   2.079   2.016  2.2612  0.0666  0.7434
 6231SOL    HW230330   2.116   2.197   2.087  0.4007 -0.2570 -1.8041
 6232SOL     OW30331   4.432   2.041   5.835  0.4657 -0.2564  0.2691
 6232SOL    HW130332   4.361   2.094   5.871 -0.2113 -0.8789 -0.1483
 6232SOL    HW230333   4.376   1.986   5.779  1.4354 -1.7222  0.7348
 6233SOL     OW30334   4.056   4.620   1.791  0.3909  0.7277 -0.1326
 6233SOL    HW130335   4.148   4.593   1.795  0.1195 -0.4549 -1.6006
 6233SOL    HW230336   4.056   4.628   1.695 -0.1201 -0.0557 -0.1936
 6234SOL     OW30337   0.202   3.066   0.263 -0.3760  0.4996  0.3669
 6234SOL    HW130338   0.129   3.127   0.275 -0.9440 -0.0999 -0.0501
 6234SOL    HW230339   0.255   3.118   0.203 -2.4628  0.2194 -1.7013
 6235SOL     OW30340   2.364   3.510   5.999 -0.4282 -0.0409  0.5913
 6235SOL    HW130341   2.281   3.536   6.039 -0.4572 -0.0636  0.5456
 6235SOL    HW230342   2.386   3.425   6.036 -0.8310 -0.5483 -0.3580
 6236SOL     OW30343   4.066   3.672   0.467  0.0982  0.1799  0.6804
 6236SOL    HW130344   4.138   3.731   0.489  0.7043 -0.7419  1.1716
 6236SOL    HW230345   4.109   3.587   0.473 -0.9419 -0.3762  0.1659
 6237SOL     OW30346   2.567   1.110  14.459  0.1706  0.6041 -0.1946
 6237SOL    HW130347   2.558   1.044  14.527  0.0127  0.4644 -0.3512
 6237SOL    HW230348   2.548   1.066  14.376 -0.1232 -2.0814  1.2848
 6238SOL     OW30349   3.681   1.968   4.849 -0.3358 -0.1849  0.0289
 6238SOL    HW130350   3.639   1.895   4.893 -1.5879 -0.0098 -0.8709
 6238SOL    HW230351   3.738   1.917   4.791 -2.8035 -0.0093 -2.5131
 6239SOL     OW30352   2.669   2.651  16.825  0.0113 -0.4123  0.1723
 6239SOL    HW130353   2.622   2.719  16.775  2.1584  0.8116 -0.1765
 6239SOL    HW230354   2.622   2.570  16.803 -0.8475  0.4650 -1.2863
 6240SOL     OW30355   0.057   2.979  17.274 -0.0521 -0.1741  0.2626
 6240SOL    HW130356   0.004   2.938  17.206 -2.0292  1.4742  0.7893
 6240SOL    HW230357   0.127   3.016  17.221  0.1036 -0.1974  0.4518
 6241SOL     OW30358   1.224   3.128   7.900  0.6820 -0.9471 -0.3093
 6241SOL    HW130359   1.150   3.136   7.840  0.3814 -2.3832 -0.1346
 6241SOL    HW230360   1.220   3.215   7.939 -3.0870 -0.3722 -1.9639
 6242SOL     OW30361   4.075   0.613   3.699 -0.4610 -0.0675 -0.0171
 6242SOL    HW130362   4.157   0.661   3.707  0.1066 -0.9515 -0.5494
 6242SOL    HW230363   4.025   0.662   3.764  1.7511  1.0261  0.8381
 6243SOL     OW30364   4.334   0.244  17.389  0.3366 -0.3706  0.0698
 6243SOL    HW130365   4.275   0.169  17.380  0.7029 -0.8379  1.4997
 6243SOL    HW230366   4.281   0.313  17.349  1.5067 -0.0193 -0.8627
 6244SOL     OW30367   1.663   0.313  12.929  0.0839  0.5772 -0.2885
 6244SOL    HW130368   1.595   0.303  12.863 -0.4537  0.7045  0.2421
 6244SOL    HW230369   1.710   0.230  12.931  0.6249  0.8901  0.1261
 6245SOL     OW30370   0.735   3.469   7.033 -0.3965  0.0259  0.2178
 6245SOL    HW130371   0.673   3.457   7.105 -2.0278  0.4327 -1.1223
 6245SOL    HW230372   0.685   3.533   6.983 -1.5309 -0.6688  0.4764
 6246SOL     OW30373   0.133   3.214  14.824  0.2789  0.6138  0.2932
 6246SOL    HW130374   0.187   3.286  14.855 -1.2789  1.3956  1.2245
 6246SOL    HW230375   0.057   3.262  14.790  0.0659  0.1352  0.0773
 6247SOL     OW30376   2.982   3.951   4.071  0.3426 -0.0552 -0.1068
 6247SOL    HW130377   3.025   3.992   4.146 -0.2163  0.5365 -0.1166
 6247SOL    HW230378   2.975   3.862   4.106  1.2156  0.8959  2.4955
 6248SOL     OW30379   2.609   2.195  12.450  0.0666  0.1157 -0.3638
 6248SOL    HW130380   2.682   2.253  12.472 -0.0421  0.2654 -0.3972
 6248SOL    HW230381   2.605   2.133  12.523  3.2465  1.2381  0.7757
 6249SOL     OW30382   1.751   4.711  14.778 -0.3481  0.0603 -0.0752
 6249SOL    HW130383   1.670   4.733  14.732  1.2776  0.3268 -2.8387
 6249SOL    HW230384   1.717   4.669  14.857  2.5577 -2.0377  0.0548
 6250SOL     OW30385   0.925   1.680   5.805 -0.0020  0.1038  0.0186
 6250SOL    HW130386   0.885   1.663   5.720  0.0798 -0.5556  0.1123
 6250SOL    HW230387   0.846   1.687   5.858 -0.3963  1.0535 -0.6991
 6251SOL     OW30388   0.996   0.641   7.485 -0.0042  0.4509 -0.2826
 6251SOL    HW130389   0.971   0.554   7.516 -0.2826  0.4116 -0.6246
 6251SOL    HW230390   1.090   0.629   7.499 -0.0548  0.5107  0.1171
 6252SOL     OW30391   2.340   3.891   8.247  0.0377  0.3785 -0.7303
 6252SOL    HW130392   2.373   3.881   8.158 -0.9753  3.4418 -1.4339
 6252SOL    HW230393   2.253   3.853   8.235  0.5253 -1.6723  2.1303
 6253SOL     OW30394   4.284   1.367   6.313  0.3955  0.1589  0.4988
 6253SOL    HW130395   4.292   1.378   6.408  0.8952 -0.2480  0.4982
 6253SOL    HW230396   4.337   1.294   6.282 -0.2696 -0.2190  0.2460
 6254SOL     OW30397   1.706   4.460   6.379  0.6084  0.3342 -0.3057
 6254SOL    HW130398   1.776   4.502   6.428  1.6494 -1.6767 -0.0662
 6254SOL    HW230399   1.662   4.399   6.438 -0.9812  0.3409 -1.4660
 6255SOL     OW30400   3.818   1.558  17.499  0.2953 -0.4329  0.0319
 6255SOL    HW130401   3.745   1.527  17.445 -0.1409  1.2454 -0.3467
 6255SOL    HW230402   3.883   1.494  17.471 -0.1958 -0.4662 -1.0579
 6256SOL     OW30403   3.321   3.402   3.271  0.8060  0.2758 -0.0215
 6256SOL    HW130404   3.288   3.354   3.347 -1.0514 -1.1109 -1.7023
 6256SOL    HW230405   3.288   3.490   3.287 -1.7313 -0.6053 -0.3994
 6257SOL     OW30406   0.502   2.342  15.059 -0.1482 -0.2162  0.2562
 6257SOL    HW130407   0.426   2.399  15.061  0.9777  1.1758  2.8632
 6257SOL    HW230408   0.528   2.332  15.151  0.5017 -2.3512 -0.1452
 6258SOL     OW30409   3.186   2.210   3.375  0.1537 -0.2777 -0.2307
 6258SOL    HW130410   3.097   2.233   3.399  0.2124  0.7817 -1.0394
 6258SOL    HW230411   3.229   2.295   3.381  1.4678 -1.0459  1.3283
 6259SOL     OW30412   0.847   4.375  16.612  0.1595 -0.1692  0.2278
 6259SOL    HW130413   0.898   4.302  16.579  1.6124  1.4684 -1.1135
 6259SOL    HW230414   0.799   4.389  16.530 -0.0639  0.4607  0.4614
 6260SOL     OW30415   1.872   4.247   4.753 -0.0890 -0.2185 -0.3523
 6260SOL    HW130416   1.819   4.174   4.720  1.2264 -0.3939 -2.0889
 6260SOL    HW230417   1.942   4.197   4.794 -0.1172 -0.9373 -1.1871
 6261SOL     OW30418   0.681   3.661   6.391 -0.5055  0.0663 -0.2354
 6261SOL    HW130419   0.684   3.616   6.306 -2.4316  2.0750 -1.3787
 6261SOL    HW230420   0.668   3.750   6.358  2.6758  0.8236  0.6104
 6262SOL     OW30421   2.730   2.336   2.406  0.5601  0.7515 -0.7979
 6262SOL    HW130422   2.638   2.356   2.422  0.2859 -1.3302  0.2632
 6262SOL    HW230423   2.718   2.245   2.376 -0.0441  0.1674  1.2606
 6263SOL     OW30424   2.978   1.652   3.499 -0.3015  0.1572  0.2759
 6263SOL    HW130425   2.950   1.590   3.432  1.8235  0.7474 -1.1508
 6263SOL    HW230426   2.895   1.696   3.515  0.2943 -0.3038  4.6535
 6264SOL     OW30427   0.744   4.469   1.353 -0.5409  0.4407 -0.3437
 6264SOL    HW130428   0.785   4.529   1.291  2.2169  1.0434  2.0485
 6264SOL    HW230429   0.661   4.517   1.354  0.4461  2.1222  0.7765
 6265SOL     OW30430   2.880   2.920   6.485  0.0569  0.5047  0.0042
 6265SOL    HW130431   2.889   2.824   6.487  1.9117  0.6817 -0.3664
 6265SOL    HW230432   2.970   2.952   6.479 -0.3680  1.7163  0.2803
 6266SOL     OW30433   0.479   0.537  13.625  0.3236 -0.7548 -0.1354
 6266SOL    HW130434   0.407   0.549  13.686  1.8341 -0.3497  1.5891
 6266SOL    HW230435   0.430   0.490  13.557 -0.5763 -0.6830  0.4649
 6267SOL     OW30436   1.782   1.575   8.975  0.1203  0.6975  0.6283
 6267SOL    HW130437   1.699   1.557   9.020  0.1337  0.2749  0.4806
 6267SOL    HW230438   1.843   1.565   9.048  1.6356 -1.0502 -0.8769
 6268SOL     OW30439   0.401   3.208  12.211  0.3756  0.7899  0.2960
 6268SOL    HW130440   0.308   3.203  12.190 -0.0672  0.1009  2.3734
 6268SOL    HW230441   0.408   3.277  12.278  0.0344  1.6424 -0.5478
 6269SOL     OW30442   2.935   3.197   8.120 -0.3395 -0.3825  0.0505
 6269SOL    HW130443   2.871   3.267   8.130 -0.8673 -0.9853  0.9196
 6269SOL    HW230444   2.934   3.168   8.029 -0.0283 -2.2479  0.6324
 6270SOL     OW30445   4.451   0.430  14.422  0.5469  0.1084 -0.1913
 6270SOL    HW130446   4.369   0.481  14.422 -0.0709 -0.9032 -0.5075
 6270SOL    HW230447   4.415   0.367  14.360  1.2538 -0.7037  0.2342
 6271SOL     OW30448   3.244   1.969   7.808 -0.1760  0.0889  0.0664
 6271SOL    HW130449   3.235   2.064   7.802  3.1931  0.4443  0.7104
 6271SOL    HW230450   3.158   1.948   7.770  0.6323 -0.2822 -1.5320
 6272SOL     OW30451   4.072   4.097  15.558 -0.1000 -0.3275 -0.5191
 6272SOL    HW130452   4.082   4.192  15.558 -1.4730 -0.1794  0.6110
 6272SOL    HW230453   4.161   4.062  15.554 -0.5521 -1.7908  2.2137
 6273SOL     OW30454   2.737   0.267   7.767 -0.3193 -0.0956  0.6437
 6273SOL    HW130455   2.702   0.193   7.717 -1.0103  0.7733 -0.1582
 6273SOL    HW230456   2.810   0.223   7.810  0.6582  0.6693 -0.2153
 6274SOL     OW30457   4.096   3.084   7.309  0.0649 -0.2564 -0.5074
 6274SOL    HW130458   4.071   3.051   7.396  0.7504  1.5237  0.3581
 6274SOL    HW230459   4.137   3.004   7.277 -0.3483 -0.5985 -0.1766
 6275SOL     OW30460   4.524   4.164   5.584  0.1096 -0.1937  0.8865
 6275SOL    HW130461   4.447   4.202   5.627  0.6325  0.3879  1.3055
 6275SOL    HW230462   4.593   4.224   5.613 -1.3382  1.0778  1.7065
 6276SOL     OW30463   3.847   2.774  12.504 -0.0174  0.0936  0.7396
 6276SOL    HW130464   3.874   2.813  12.421  0.4918  0.6011  1.1459
 6276SOL    HW230465   3.846   2.848  12.565 -0.3174  1.8548 -1.3987
 6277SOL     OW30466   1.203   0.682   8.044 -0.1028 -0.2631  0.2469
 6277SOL    HW130467   1.216   0.593   8.011 -1.0336  0.3250 -1.7107
 6277SOL    HW230468   1.172   0.658   8.131 -2.1576  0.9055 -0.1850
 6278SOL     OW30469   0.497   4.038   5.663  0.0940 -0.4144 -0.3270
 6278SOL    HW130470   0.502   4.051   5.569 -2.2960 -1.8340 -0.6264
 6278SOL    HW230471   0.483   3.944   5.672 -1.5505 -0.1959 -0.6227
 6279SOL     OW30472   3.036   1.766  17.337  0.0663 -0.5851  0.4018
 6279SOL    HW130473   3.050   1.832  17.269 -2.2405  0.0516  0.5513
 6279SOL    HW230474   2.965   1.710  17.307  1.9630 -2.0022 -1.4063
 6280SOL     OW30475   0.885   3.768  15.623 -0.0569  0.3794 -0.1679
 6280SOL    HW130476   0.836   3.748  15.543  0.3634  2.0220 -0.8379
 6280SOL    HW230477   0.820   3.826  15.661  0.4897 -0.1870  1.6139
 6281SOL     OW30478   2.536   3.150   2.045  0.1158 -0.1418 -0.0546
 6281SOL    HW130479   2.448   3.118   2.026  1.1772 -1.1072 -3.3764
 6281SOL    HW230480   2.574   3.125   1.961  1.7770  0.2775  0.5678
 6282SOL     OW30481   2.752   2.066  10.329  0.3954  0.1477  0.4153
 6282SOL    HW130482   2.689   2.078  10.400 -0.0965 -1.2629  0.2067
 6282SOL    HW230483   2.817   2.121  10.373 -0.3770  1.3478  0.0444
 6283SOL     OW30484   2.966   1.814  10.015 -0.6125 -0.4983 -0.2978
 6283SOL    HW130485   3.041   1.755  10.007  0.8341  0.9189  2.9823
 6283SOL    HW230486   2.971   1.830  10.109 -0.1762  1.6465 -0.6908
 6284SOL     OW30487   1.683   0.465   7.483 -0.0316 -0.0598  0.0185
 6284SOL    HW130488   1.766   0.470   7.530  0.1882  0.4420 -0.4105
 6284SOL    HW230489   1.661   0.373   7.470 -0.3388  0.1943 -1.2922
 6285SOL     OW30490   3.865   2.741  15.901  0.5792  0.2900 -0.9126
 6285SOL    HW130491   3.822   2.694  15.829  0.5588 -0.3455 -0.4916
 6285SOL    HW230492   3.795   2.796  15.936 -1.2236 -0.6117 -3.0807
 6286SOL     OW30493   3.017   3.153   1.195  0.1895  0.3270  0.1030
 6286SOL    HW130494   3.060   3.133   1.112  0.8504 -0.0302  0.5296
 6286SOL    HW230495   3.050   3.088   1.257 -2.2451 -0.4207  0.6095
 6287SOL     OW30496   3.363   3.735  15.589 -0.4399 -0.1505  0.6931
 6287SOL    HW130497   3.277   3.700  15.567  0.6334 -2.0216 -0.5440
 6287SOL    HW230498   3.409   3.651  15.587  0.7010  0.4915 -0.1262
 6288SOL     OW30499   0.006   0.639  16.081  0.0432  0.1358 -0.6421
 6288SOL    HW130500   0.093   0.663  16.048  1.2584 -1.3532  1.4594
 6288SOL    HW230501   0.008   0.695  16.159 -3.2243 -1.2059  0.4029
 6289SOL     OW30502   3.144   0.720   1.832 -0.2219 -0.0545  0.4206
 6289SOL    HW130503   3.096   0.670   1.765 -2.1590  0.5403  1.3698
 6289SOL    HW230504   3.234   0.698   1.806 -0.1058 -1.9153  2.3971
 6290SOL     OW30505   2.066   1.359   9.990 -0.1396  0.5861  0.4241
 6290SOL    HW130506   2.089   1.434  10.045 -1.1737  1.9684 -1.0270
 6290SOL    HW230507   2.155   1.339   9.960  0.6714  0.7741  2.7002
 6291SOL     OW30508   0.521   2.341   8.693 -0.6279  0.2658 -0.3233
 6291SOL    HW130509   0.526   2.425   8.648 -2.4637  0.1974 -0.6875
 6291SOL    HW230510   0.614   2.329   8.712 -0.5194  0.4488 -0.7503
 6292SOL     OW30511   2.347   0.019   2.882 -0.1414 -0.0506  0.1697
 6292SOL    HW130512   2.340   0.078   2.807 -2.3542 -1.4102 -0.6695
 6292SOL    HW230513   2.315   0.075   2.953 -0.1161  1.4997 -1.0431
 6293SOL     OW30514   3.794   1.112  12.762 -0.0790  0.1325 -0.3955
 6293SOL    HW130515   3.839   1.173  12.820 -0.8891  0.8944 -0.5618
 6293SOL    HW230516   3.796   1.027  12.806  0.8678 -0.5541 -1.7521
 6294SOL     OW30517   4.079   3.604   2.921 -0.0665 -0.1629 -0.3618
 6294SOL    HW130518   4.075   3.515   2.885 -0.8676 -0.0302 -0.5980
 6294SOL    HW230519   4.001   3.597   2.976  0.0285  0.5042 -0.1453
 6295SOL     OW30520   3.618   4.676  15.495 -0.2125  0.1333 -0.2809
 6295SOL    HW130521   3.556   4.660  15.424  0.1397  0.0072 -0.5570
 6295SOL    HW230522   3.700   4.641  15.461 -0.0211  2.3160 -2.0795
 6296SOL     OW30523   2.006   1.453   4.761 -0.0905 -0.0503 -0.1754
 6296SOL    HW130524   1.940   1.496   4.707 -1.1006  0.2474  1.2985
 6296SOL    HW230525   1.991   1.495   4.845 -0.2393  1.2335 -0.8407
 6297SOL     OW30526   2.840   2.544  12.776 -0.2617 -0.3320 -0.6234
 6297SOL    HW130527   2.895   2.469  12.799 -0.3449 -0.1527  0.1770
 6297SOL    HW230528   2.765   2.552  12.836 -0.2160 -1.0153 -0.4726
 6298SOL     OW30529   1.189   2.324   3.642  0.5870  0.3401 -0.0704
 6298SOL    HW130530   1.096   2.327   3.664  0.5836  0.9121 -0.1649
 6298SOL    HW230531   1.196   2.253   3.578  2.5355 -1.7106  2.3587
 6299SOL     OW30532   3.293   4.606  16.883  0.6254 -0.5965  0.4531
 6299SOL    HW130533   3.388   4.607  16.873  0.6956 -2.6191  0.9094
 6299SOL    HW230534   3.284   4.565  16.968 -1.5265 -0.4699  0.2708
 6300SOL     OW30535   1.505   4.144  12.685  0.2873 -0.1359 -0.0790
 6300SOL    HW130536   1.498   4.060  12.729  0.1100  0.4273  0.9741
 6300SOL    HW230537   1.415   4.153  12.654  0.1853 -1.8753 -0.2953
 6301SOL     OW30538   3.109   2.853   2.109  0.2184  0.0610 -0.0405
 6301SOL    HW130539   3.132   2.761   2.107  0.6980  0.1760  0.1586
 6301SOL    HW230540   3.105   2.876   2.016 -0.9476 -0.7175 -0.1701
 6302SOL     OW30541   3.247   0.117   4.493  0.0435 -0.1650 -0.1886
 6302SOL    HW130542   3.323   0.066   4.520  0.0799 -0.1879 -0.3341
 6302SOL    HW230543   3.279   0.135   4.404  0.4948 -1.4534 -0.2912
 6303SOL     OW30544   2.914   0.195  15.293 -0.4710  0.1998  0.2489
 6303SOL    HW130545   2.916   0.210  15.198  1.2893 -0.0441  0.2396
 6303SOL    HW230546   2.820   0.187  15.309 -0.6651 -0.3609 -1.1623
 6304SOL     OW30547   0.749   0.141   4.032  0.2434 -0.9233 -0.4438
 6304SOL    HW130548   0.806   0.087   4.087  3.4216  2.0431 -0.8439
 6304SOL    HW230549   0.803   0.220   4.030 -0.0830 -0.5800  4.3396
 6305SOL     OW30550   1.948   2.977  14.680  0.2157  0.8207 -0.4094
 6305SOL    HW130551   1.948   2.994  14.774  1.0011  4.0682 -1.0071
 6305SOL    HW230552   1.898   3.057  14.664 -1.0935  0.1109  0.1819
 6306SOL     OW30553   2.314   2.066  10.645 -0.0554  0.4965 -0.1288
 6306SOL    HW130554   2.328   2.148  10.691  0.4373 -0.7042  1.8611
 6306SOL    HW230555   2.256   2.092  10.573 -0.5362 -0.5752 -0.1395
 6307SOL     OW30556   3.816   2.568   4.508  0.3259  0.0042  0.4738
 6307SOL    HW130557   3.826   2.650   4.460  0.0559  0.0208  0.4453
 6307SOL    HW230558   3.733   2.585   4.553  0.0050 -0.0547 -0.0951
 6308SOL     OW30559   2.703   1.078   6.276 -0.8949 -0.2447  0.1058
 6308SOL    HW130560   2.629   1.084   6.337 -0.5920 -2.1924  0.6532
 6308SOL    HW230561   2.772   1.043   6.333 -0.5446  1.0467  0.4721
 6309SOL     OW30562   3.229   1.585   5.265  0.4643  0.0847  0.2042
 6309SOL    HW130563   3.147   1.541   5.287  1.8249 -2.3136  0.5769
 6309SOL    HW230564   3.249   1.548   5.179  2.0726  0.8057  0.2702
 6310SOL     OW30565   4.304   2.250   9.003  0.2874  0.3791  0.0602
 6310SOL    HW130566   4.218   2.273   8.966  0.3939 -0.1488 -0.5198
 6310SOL    HW230567   4.329   2.174   8.949 -1.4858 -0.8556  0.9487
 6311SOL     OW30568   1.685   1.947   2.488  0.0722  0.2487 -0.4504
 6311SOL    HW130569   1.628   1.884   2.532 -0.0237  0.9679  0.4434
 6311SOL    HW230570   1.638   1.989   2.417  1.5102  1.8307 -0.4579
 6312SOL     OW30571   4.237   3.917   2.571  0.3497 -0.0020 -0.6189
 6312SOL    HW130572   4.245   3.868   2.653 -0.1195 -0.3548 -0.7776
 6312SOL    HW230573   4.314   3.969   2.591 -0.5348  0.6712  1.0744
 6313SOL     OW30574   4.508   3.805   2.855  0.7042 -0.2389  0.2859
 6313SOL    HW130575   4.522   3.832   2.945  1.9769 -0.5049  0.1705
 6313SOL    HW230576   4.512   3.888   2.809 -0.9424 -1.0229 -1.2656
 6314SOL     OW30577   0.082   2.175   8.097  0.3825 -0.1363  0.4233
 6314SOL    HW130578   0.129   2.220   8.167 -0.1155  0.5686  0.3049
 6314SOL    HW230579   0.135   2.198   8.022 -0.2568 -2.1111 -0.6452
 6315SOL     OW30580   4.273   3.588  16.817 -0.3195 -0.0585 -0.0276
 6315SOL    HW130581   4.242   3.621  16.902  0.7830 -1.3015  0.8394
 6315SOL    HW230582   4.308   3.670  16.781 -2.1111  0.7809  0.1083
 6316SOL     OW30583   4.386   0.331   3.402 -0.3636 -0.3696  0.2808
 6316SOL    HW130584   4.386   0.316   3.307  0.4042 -0.1502  0.2452
 6316SOL    HW230585   4.331   0.410   3.405  0.2891 -0.0165  2.4798
 6317SOL     OW30586   1.568   3.359   4.678  0.6788 -0.1281  0.3051
 6317SOL    HW130587   1.633   3.401   4.622 -0.1832  1.2017  0.2995
 6317SOL    HW230588   1.489   3.363   4.624  1.2381 -0.3653 -0.5273
 6318SOL     OW30589   1.573   0.261   5.133 -0.1452  0.3816 -0.3627
 6318SOL    HW130590   1.642   0.196   5.146 -0.4539  0.2435  0.5463
 6318SOL    HW230591   1.511   0.194   5.106 -0.2600  0.9507 -1.5196
 6319SOL     OW30592   2.377   1.761  14.455  0.3960 -0.3460  0.0344
 6319SOL    HW130593   2.416   1.724  14.534  0.9297 -1.3915 -0.7206
 6319SOL    HW230594   2.396   1.700  14.384 -2.9729 -0.1857 -1.0270
 6320SOL     OW30595   2.252   3.511   7.089 -0.1220  0.2872 -0.1612
 6320SOL    HW130596   2.274   3.555   7.006 -0.5014 -0.2950 -0.5758
 6320SOL    HW230597   2.184   3.451   7.058  1.2349 -0.4863 -1.6830
 6321SOL     OW30598   3.917   0.265  10.854 -0.1190 -0.0605  0.6733
 6321SOL    HW130599   4.001   0.249  10.897  1.6475  0.5676 -2.4867
 6321SOL    HW230600   3.941   0.259  10.761 -0.7074  0.7063  0.4796
 6322SOL     OW30601   3.495   4.620   2.602  0.1448  0.2094  0.2344
 6322SOL    HW130602   3.405   4.649   2.587  0.4218  0.0825 -1.6523
 6322SOL    HW230603   3.488   4.611   2.697  1.5006  0.0813  0.3266
 6323SOL     OW30604   1.180   3.782  10.633 -0.4693 -0.1912  0.3461
 6323SOL    HW130605   1.120   3.720  10.591 -0.4838  2.2026 -3.1840
 6323SOL    HW230606   1.138   3.798  10.717 -0.5835 -1.6138  0.5600
 6324SOL     OW30607   3.806   3.423  17.367 -0.2485  0.2020 -0.1196
 6324SOL    HW130608   3.839   3.335  17.385 -0.1420  0.1570 -0.5442
 6324SOL    HW230609   3.889   3.468  17.351 -0.0401  0.5492  1.9384
 6325SOL     OW30610   2.903   0.905  10.995 -0.1185  0.0243 -0.6973
 6325SOL    HW130611   2.879   0.827  11.046 -0.9391  0.5388 -0.3035
 6325SOL    HW230612   2.827   0.961  11.011  1.5773  1.8010  1.1365
 6326SOL     OW30613   0.547   3.348   3.828  0.2489  0.1447 -0.5061
 6326SOL    HW130614   0.609   3.279   3.852  1.0467  0.9242 -0.3029
 6326SOL    HW230615   0.488   3.344   3.904  1.3499 -3.0072  0.1675
 6327SOL     OW30616   2.430   2.796  10.594  0.2061 -0.2310 -0.3458
 6327SOL    HW130617   2.490   2.729  10.626  0.4107 -0.8505 -2.0546
 6327SOL    HW230618   2.438   2.858  10.666  1.7538 -1.3792  0.4594
 6328SOL     OW30619   3.243   0.355   0.164  0.1216 -0.6701 -0.3668
 6328SOL    HW130620   3.185   0.306   0.105 -0.8553 -0.4139  0.3885
 6328SOL    HW230621   3.254   0.432   0.108 -0.5202 -1.4831 -1.6405
 6329SOL     OW30622   3.590   3.609   6.307  0.1190  0.0898 -0.3683
 6329SOL    HW130623   3.650   3.536   6.320  1.4703  1.5494  1.7346
 6329SOL    HW230624   3.585   3.653   6.392 -3.0990  1.5969 -1.3235
 6330SOL     OW30625   3.716   3.974   7.245 -0.3078 -0.3717  1.1274
 6330SOL    HW130626   3.799   3.948   7.283  1.5516 -0.0342 -2.7202
 6330SOL    HW230627   3.665   3.995   7.323  0.9844  0.8694  1.6333
 6331SOL     OW30628   1.426   2.185  13.441  0.3534  0.1647 -0.9143
 6331SOL    HW130629   1.518   2.191  13.414  1.1107  0.3035  1.6965
 6331SOL    HW230630   1.441   2.228  13.525  1.1236  0.4324 -1.1834
 6332SOL     OW30631   0.548   1.803   3.697  0.7019  0.0492 -0.8129
 6332SOL    HW130632   0.495   1.802   3.777  0.1817  0.0165 -1.1580
 6332SOL    HW230633   0.600   1.723   3.708 -1.3977 -1.3409 -0.7902
 6333SOL     OW30634   1.996   2.692  13.762  0.0495  0.4154  0.4355
 6333SOL    HW130635   1.996   2.647  13.846 -1.3351  2.2844  1.4280
 6333SOL    HW230636   2.084   2.731  13.766  0.2224 -0.0643  1.3231
 6334SOL     OW30637   0.642   4.251   1.455 -0.6234 -0.0936 -0.4479
 6334SOL    HW130638   0.669   4.342   1.465  3.1042 -1.1751 -0.8984
 6334SOL    HW230639   0.645   4.211   1.541 -0.2706  0.0750 -0.3811
 6335SOL     OW30640   0.186   3.385   2.861 -0.0827 -0.2452 -0.8532
 6335SOL    HW130641   0.134   3.465   2.849  1.7242  1.6343  4.0488
 6335SOL    HW230642   0.217   3.400   2.950  1.1723  0.3298 -1.3914
 6336SOL     OW30643   4.228   0.639  17.542 -0.1866 -0.4084 -0.7885
 6336SOL    HW130644   4.268   0.641  17.456  1.6787  3.1304  0.1670
 6336SOL    HW230645   4.150   0.588  17.519 -2.4448  2.6516  0.0897
 6337SOL     OW30646   0.020   3.041  17.534  0.7686  0.0355 -0.6256
 6337SOL    HW130647   0.017   3.058  17.439  0.1287 -0.1361 -0.6374
 6337SOL    HW230648   0.018   2.946  17.543  1.5080  0.0092 -0.6941
 6338SOL     OW30649   0.569   1.753   4.251 -0.1672  0.2995  0.4875
 6338SOL    HW130650   0.624   1.683   4.215 -0.9042 -1.0176  1.9298
 6338SOL    HW230651   0.480   1.723   4.233 -0.9977  1.3125  2.9322
 6339SOL     OW30652   4.168   0.226   5.099  0.1415  0.2269  0.0433
 6339SOL    HW130653   4.164   0.303   5.156 -1.5080  0.8857 -0.9720
 6339SOL    HW230654   4.260   0.208   5.121  0.1735 -1.2175 -1.3009
 6340SOL     OW30655   0.741   0.376   8.742 -0.6232 -0.0297  0.3620
 6340SOL    HW130656   0.669   0.339   8.793 -1.5353  0.5322 -0.5165
 6340SOL    HW230657   0.756   0.455   8.794  3.2479 -0.7948  0.4045
 6341SOL     OW30658   0.902   3.057   6.172  0.2059  0.0556  0.7963
 6341SOL    HW130659   0.940   3.137   6.207  0.3817  1.0013 -1.5750
 6341SOL    HW230660   0.981   3.009   6.145 -0.6075  0.5989 -2.4716
 6342SOL     OW30661   1.408   3.956   6.969  0.0233 -0.5457 -0.1939
 6342SOL    HW130662   1.413   3.948   7.065  1.9175  3.0057 -0.0041
 6342SOL    HW230663   1.476   4.021   6.953 -1.5056  0.6892 -1.6375
 6343SOL     OW30664   1.620   4.556   5.392  0.4732  0.5022 -0.2004
 6343SOL    HW130665   1.691   4.559   5.327  1.0999 -0.3249  0.4455
 6343SOL    HW230666   1.671   4.568   5.472  1.2342 -0.7709 -0.5046
 6344SOL     OW30667   3.359   3.493  10.667  0.0979  0.3572  0.5437
 6344SOL    HW130668   3.384   3.443  10.744 -0.7687  1.8048  1.7828
 6344SOL    HW230669   3.382   3.580  10.701 -1.2718  0.7221  0.5267
 6345SOL     OW30670   1.832   2.784   4.565 -0.0253 -0.3830 -0.1826
 6345SOL    HW130671   1.755   2.811   4.515  0.9930  1.0963 -0.9869
 6345SOL    HW230672   1.846   2.693   4.540 -2.8956 -1.0014  0.5414
 6346SOL     OW30673   0.251   1.961   7.061  0.4711  0.3893 -0.4870
 6346SOL    HW130674   0.225   1.884   7.011 -4.2047  0.5361  1.6850
 6346SOL    HW230675   0.332   1.938   7.105  0.1497  2.0436  1.0127
 6347SOL     OW30676   3.183   3.951   2.915  0.5671  0.2409 -0.6610
 6347SOL    HW130677   3.098   3.986   2.887 -0.4006 -0.3104  1.6282
 6347SOL    HW230678   3.208   3.901   2.837  1.8206  0.5545 -0.4650
 6348SOL     OW30679   2.745   3.052   3.314 -0.4756 -0.2965  0.2538
 6348SOL    HW130680   2.788   2.975   3.349  0.1141 -0.5295 -0.9727
 6348SOL    HW230681   2.707   3.099   3.388 -0.0667 -0.7180  0.7229
 6349SOL     OW30682   3.047   1.881  14.723  0.6686 -0.4994  0.1493
 6349SOL    HW130683   2.965   1.872  14.771  0.0302  0.9931 -0.6527
 6349SOL    HW230684   3.017   1.857  14.635 -1.3999  0.3819  0.6072
 6350SOL     OW30685   1.720   0.427   5.688  0.3084  0.0559 -0.4164
 6350SOL    HW130686   1.665   0.493   5.645 -1.1924 -1.2597 -0.5127
 6350SOL    HW230687   1.802   0.423   5.637  0.5102  1.6147 -0.2026
 6351SOL     OW30688   4.163   0.385   1.054  0.3908  0.5453  0.0521
 6351SOL    HW130689   4.222   0.447   1.011  2.5130 -0.0386  2.1190
 6351SOL    HW230690   4.099   0.448   1.086 -0.7752  0.2768 -1.7046
 6352SOL     OW30691   1.113   4.313  16.991  0.4057  0.6593 -0.2053
 6352SOL    HW130692   1.042   4.322  17.055  1.5608 -2.5531  1.5409
 6352SOL    HW230693   1.118   4.217  16.984  0.7187  0.6542  0.0973
 6353SOL     OW30694   1.442   3.081   2.214 -0.2963 -0.0716 -0.8469
 6353SOL    HW130695   1.444   3.128   2.297  0.7414  0.5637 -1.2373
 6353SOL    HW230696   1.384   3.009   2.240  0.4801 -0.1879  0.5248
 6354SOL     OW30697   2.089   0.246   0.606  0.1479  0.2581  0.9328
 6354SOL    HW130698   2.039   0.276   0.682 -3.9238  0.2527 -1.7208
 6354SOL    HW230699   2.180   0.268   0.623  0.1872  0.2095  0.7833
 6355SOL     OW30700   4.583   3.123   0.704 -0.0769 -0.0038 -0.1834
 6355SOL    HW130701   4.674   3.099   0.722 -0.0278  0.1977 -0.1601
 6355SOL    HW230702   4.546   3.076   0.779 -0.7232  1.1354  0.2035
 6356SOL     OW30703   3.313   3.202   8.316 -0.7220 -0.0225 -0.5763
 6356SOL    HW130704   3.281   3.253   8.391 -2.1872 -1.5597 -0.1333
 6356SOL    HW230705   3.399   3.240   8.301 -1.3643  1.2819 -0.9692
 6357SOL     OW30706   4.095   1.880   3.243  0.3537 -0.2986  0.3591
 6357SOL    HW130707   4.089   1.955   3.183  2.1125 -0.4592 -0.0022
 6357SOL    HW230708   4.140   1.920   3.318 -1.3393  3.0279 -0.3472
 6358SOL     OW30709   4.326   1.926  11.233 -0.7068 -0.1126  0.0694
 6358SOL    HW130710   4.240   1.910  11.196 -1.4273 -2.3322  2.6509
 6358SOL    HW230711   4.301   1.975  11.312  0.9428 -1.3364  1.3743
 6359SOL     OW30712   3.085   2.831   8.613 -0.3196  0.4281  0.5672
 6359SOL    HW130713   3.167   2.865   8.577 -0.4082  0.4631  0.3965
 6359SOL    HW230714   3.089   2.746   8.569 -1.6434 -0.7447  2.7189
 6360SOL     OW30715   1.366   1.854   3.037  0.3385  0.2037  0.4514
 6360SOL    HW130716   1.375   1.828   3.128  0.3171 -3.3783 -0.5473
 6360SOL    HW230717   1.313   1.779   3.008 -0.4182  1.2195 -0.7889
 6361SOL     OW30718   0.178   1.879   8.516 -0.4687  0.2826 -0.2318
 6361SOL    HW130719   0.267   1.849   8.533 -0.9185 -0.4239  0.8721
 6361SOL    HW230720   0.182   1.885   8.420 -0.0567 -2.3390 -0.3893
 6362SOL     OW30721   0.275   1.661  15.189  0.7542  0.4706  0.4279
 6362SOL    HW130722   0.320   1.704  15.116  2.9359 -0.6234  1.1229
 6362SOL    HW230723   0.313   1.574  15.173 -0.8804 -0.3835  1.2885
 6363SOL     OW30724   4.456   0.088   6.123  0.4278  0.1800  0.3746
 6363SOL    HW130725   4.372   0.044   6.114  1.2885 -1.1243 -1.3680
 6363SOL    HW230726   4.507   0.012   6.150 -1.9688 -1.7859 -0.6048
 6364SOL     OW30727   1.443   0.736   4.235  0.3547 -0.0092 -0.0615
 6364SOL    HW130728   1.383   0.739   4.309 -0.4342 -1.2001 -0.6631
 6364SOL    HW230729   1.506   0.669   4.262 -0.6382 -0.8959  0.0285
 6365SOL     OW30730   2.395   1.174   5.788  0.0039 -0.1163  0.0627
 6365SOL    HW130731   2.459   1.214   5.728  0.5221  0.7170  1.1859
 6365SOL    HW230732   2.444   1.176   5.870 -1.3384  1.7072  0.7927
 6366SOL     OW30733   0.751   0.825   8.123 -0.0450  0.5288  0.4381
 6366SOL    HW130734   0.684   0.893   8.124 -0.3686  0.2086  1.1340
 6366SOL    HW230735   0.821   0.857   8.066  1.6759  1.5416  3.1394
 6367SOL     OW30736   3.643   3.983  15.467  0.0806  0.3071 -0.2445
 6367SOL    HW130737   3.598   4.063  15.494 -1.7420 -0.7052 -0.3369
 6367SOL    HW230738   3.647   3.939  15.552  0.2162  0.2742 -0.2680
 6368SOL     OW30739   1.281   2.693  16.774  0.4373 -0.3886  0.5434
 6368SOL    HW130740   1.279   2.779  16.732 -0.8452 -0.7415 -0.1009
 6368SOL    HW230741   1.188   2.671  16.779  0.4295 -0.3612  0.5229
 6369SOL     OW30742   3.480   3.331   6.657  0.1467  0.1983 -0.1471
 6369SOL    HW130743   3.464   3.415   6.701 -1.4201 -0.4433  0.5013
 6369SOL    HW230744   3.549   3.290   6.709 -1.3358 -1.6321  0.3431
 6370SOL     OW30745   0.804   0.119   2.727 -0.0340  0.6753 -0.1762
 6370SOL    HW130746   0.762   0.049   2.777  1.1070 -0.0037 -0.1645
 6370SOL    HW230747   0.878   0.062   2.704 -0.9167 -1.1369  1.4604
 6371SOL     OW30748   1.501   1.084   5.785 -0.2751  0.2268  0.2850
 6371SOL    HW130749   1.591   1.092   5.817  0.6147 -0.0397 -2.1984
 6371SOL    HW230750   1.451   1.040   5.854 -0.2602  0.3197  0.3567
 6372SOL     OW30751   0.773   1.575   0.849 -0.1886 -0.1370  0.0296
 6372SOL    HW130752   0.732   1.661   0.857  1.7516  0.7990  0.0742
 6372SOL    HW230753   0.860   1.584   0.888 -0.3577  1.7405 -0.0288
 6373SOL     OW30754   3.308   3.316  15.398  0.3444 -0.0404  0.1297
 6373SOL    HW130755   3.241   3.263  15.439 -0.7201  1.9003  0.8957
 6373SOL    HW230756   3.285   3.324  15.305  1.0320  3.0108  0.2172
 6374SOL     OW30757   0.829   1.241   6.762  0.4362 -0.0232  0.2927
 6374SOL    HW130758   0.880   1.275   6.689  2.3395 -0.1592  1.5473
 6374SOL    HW230759   0.887   1.184   6.813  0.4230  0.0189  0.3554
 6375SOL     OW30760   3.775   3.361   6.304 -0.2411  0.1167  1.1344
 6375SOL    HW130761   3.732   3.342   6.220  1.0983 -0.3386  0.5585
 6375SOL    HW230762   3.733   3.292   6.356  2.5570 -2.7973 -0.4748
 6376SOL     OW30763   1.335   0.166   6.001 -0.0862 -0.6227 -0.0654
 6376SOL    HW130764   1.341   0.070   5.999  1.2011 -0.5207 -1.3921
 6376SOL    HW230765   1.322   0.181   5.908  0.3464  0.1439  0.0031
 6377SOL     OW30766   4.156   1.071  12.151  0.2823  0.6570 -0.2924
 6377SOL    HW130767   4.075   1.119  12.170 -0.2492 -1.1993  2.0360
 6377SOL    HW230768   4.168   1.011  12.224  0.5555 -2.8589 -3.2133
 6378SOL     OW30769   2.799   2.736   8.545 -0.1958 -0.0481 -0.2322
 6378SOL    HW130770   2.889   2.736   8.577 -1.1360 -2.9036  2.4847
 6378SOL    HW230771   2.809   2.681   8.467  0.1529  0.2731 -0.4148
 6379SOL     OW30772   4.580   1.820  11.344 -0.2620 -0.3807  0.1820
 6379SOL    HW130773   4.534   1.790  11.423 -1.6235  2.8453  0.6581
 6379SOL    HW230774   4.501   1.848  11.298 -0.2715 -0.5954  0.0709
 6380SOL     OW30775   4.641   4.132  13.573 -0.0093 -0.2523 -0.5064
 6380SOL    HW130776   4.674   4.112  13.661 -0.5744  2.0340  0.2102
 6380SOL    HW230777   4.566   4.074  13.562  0.0309 -0.2142 -0.9790
 6381SOL     OW30778   2.343   0.843   5.175  0.1592 -0.0589  0.3214
 6381SOL    HW130779   2.430   0.810   5.156  0.2912  0.9353 -0.7670
 6381SOL    HW230780   2.300   0.757   5.179 -0.0218 -0.0616 -1.9137
 6382SOL     OW30781   3.234   3.671   0.153 -0.1225 -0.2598  0.1290
 6382SOL    HW130782   3.307   3.728   0.179  0.0352  0.5569 -2.0934
 6382SOL    HW230783   3.271   3.634   0.073 -1.1570 -0.6065 -0.1802
 6383SOL     OW30784   1.519   4.299   6.539  0.0351  0.1627  0.2506
 6383SOL    HW130785   1.591   4.281   6.600 -0.5884  1.0364  1.2363
 6383SOL    HW230786   1.451   4.321   6.603 -0.5469  1.3784 -0.7985
 6384SOL     OW30787   0.030   4.244   0.168 -0.7027  0.2322 -0.2197
 6384SOL    HW130788   0.025   4.164   0.116 -0.4231 -1.5117  2.4198
 6384SOL    HW230789   4.679   4.255   0.195 -0.3616  2.2121  0.0569
 6385SOL     OW30790   3.624   3.944   9.015 -0.3411  0.4042  0.4212
 6385SOL    HW130791   3.568   3.957   8.939  0.1881 -0.5457 -0.1282
 6385SOL    HW230792   3.658   4.033   9.020  1.3144 -0.2331  0.2984
 6386SOL     OW30793   4.399   4.735   8.518  0.5417 -0.0694  0.3960
 6386SOL    HW130794   4.453   0.075   8.511  0.3529  0.1055  0.9135
 6386SOL    HW230795   4.357   4.731   8.432  1.5065 -1.4613 -0.0219
 6387SOL     OW30796   1.645   4.600   7.382  0.4524  0.0082 -0.1365
 6387SOL    HW130797   1.638   4.673   7.320 -4.4428 -1.0115 -0.8140
 6387SOL    HW230798   1.667   4.650   7.460  0.6665 -0.5318  0.1450
 6388SOL     OW30799   3.280   2.241   7.848  0.5887 -0.0479  0.4519
 6388SOL    HW130800   3.233   2.311   7.803  1.0272 -0.9109 -1.3958
 6388SOL    HW230801   3.267   2.258   7.941  0.8655 -0.6019  0.5924
 6389SOL     OW30802   2.292   0.377   7.458  0.0302  1.0314 -0.0164
 6389SOL    HW130803   2.376   0.387   7.503  0.6082 -1.1771 -0.5955
 6389SOL    HW230804   2.275   0.467   7.430  0.9609  1.1871 -0.0774
 6390SOL     OW30805   0.794   0.300   6.799 -0.2288 -0.0196 -0.0546
 6390SOL    HW130806   0.829   0.388   6.805  1.4519 -0.7118  0.1308
 6390SOL    HW230807   0.795   0.285   6.705 -0.2757 -0.9728  0.0899
 6391SOL     OW30808   4.584   1.041   0.338 -0.4681  0.5541  0.6459
 6391SOL    HW130809   4.658   0.988   0.367 -0.3904 -0.2248 -0.9692
 6391SOL    HW230810   4.524   0.968   0.324 -0.1940  0.3887  0.3425
 6392SOL     OW30811   2.042   3.404  11.301 -0.1640 -0.1942  0.8075
 6392SOL    HW130812   2.105   3.411  11.373 -0.1182 -0.3115  0.7784
 6392SOL    HW230813   1.980   3.470  11.332 -1.1167 -0.9751  0.5960
 6393SOL     OW30814   4.219   1.368   8.282 -0.0941 -0.1122 -0.5837
 6393SOL    HW130815   4.242   1.294   8.226 -1.2662 -1.7045  1.0384
 6393SOL    HW230816   4.127   1.345   8.298 -0.3800  1.2079 -0.3891
 6394SOL     OW30817   2.740   1.592   4.626  0.3365 -0.9808  0.2924
 6394SOL    HW130818   2.660   1.643   4.639  1.4733  1.5417 -2.3713
 6394SOL    HW230819   2.717   1.547   4.545  0.2010 -0.9577  0.3179
 6395SOL     OW30820   0.926   3.064   8.368 -0.1204 -0.0393  0.6529
 6395SOL    HW130821   0.928   3.121   8.291 -2.6283 -0.2384  0.4362
 6395SOL    HW230822   1.020   3.052   8.377  0.2915  2.3933 -0.4610
 6396SOL     OW30823   4.117   1.094   3.044 -0.4305  0.3618  0.6262
 6396SOL    HW130824   4.046   1.067   2.985 -0.1492  1.4108 -0.1929
 6396SOL    HW230825   4.171   1.015   3.051 -1.3236 -0.2980  0.1188
 6397SOL     OW30826   0.578   0.202   1.797  0.6363  0.4923 -0.1688
 6397SOL    HW130827   0.629   0.282   1.812  2.0032 -0.4317  0.1659
 6397SOL    HW230828   0.625   0.149   1.732  1.2474  0.7900  0.0254
 6398SOL     OW30829   0.912   3.385  16.453  0.2419  0.0031 -0.4340
 6398SOL    HW130830   0.850   3.390  16.525  1.8537 -0.3667  0.9734
 6398SOL    HW230831   0.866   3.430  16.382 -0.6260  1.1933  0.8894
 6399SOL     OW30832   2.150   3.671   4.616 -0.2202 -0.1859 -0.4471
 6399SOL    HW130833   2.094   3.664   4.539 -0.4350 -1.3841 -0.1891
 6399SOL    HW230834   2.123   3.757   4.647  0.2293 -0.7112  1.3992
 6400SOL     OW30835   2.932   4.410  16.300 -0.8446 -0.3415  0.2594
 6400SOL    HW130836   2.927   4.413  16.395  1.9724 -2.8768  0.4851
 6400SOL    HW230837   2.975   4.491  16.274 -2.4624  0.9653  1.6547
 6401SOL     OW30838   4.645   0.297   4.787 -0.0142  0.0030  0.7899
 6401SOL    HW130839   4.662   0.247   4.867 -2.5907 -1.4770  0.4168
 6401SOL    HW230840   4.696   0.377   4.799 -1.7190  1.3090 -0.6197
 6402SOL     OW30841   2.368   2.455   6.114 -0.6738 -0.6918 -0.3568
 6402SOL    HW130842   2.353   2.453   6.209 -0.2217 -1.4630 -0.2994
 6402SOL    HW230843   2.398   2.544   6.099 -0.0330 -0.8218  0.1366
 6403SOL     OW30844   2.607   0.050   4.092  0.9064 -0.0166 -0.2166
 6403SOL    HW130845   2.687   0.092   4.060  2.8203 -2.7390  1.0482
 6403SOL    HW230846   2.621   0.006   4.176  0.6799  0.0275 -0.1551
 6404SOL     OW30847   0.432   4.311   6.419 -0.6991 -0.8869 -0.0568
 6404SOL    HW130848   0.380   4.231   6.423 -0.4804 -0.9670  1.2132
 6404SOL    HW230849   0.392   4.365   6.488 -3.5278 -0.7913 -1.7746
 6405SOL     OW30850   0.223   1.909   9.085  0.2635 -0.0415  0.1378
 6405SOL    HW130851   0.171   1.829   9.095  2.0087 -1.2250 -0.1448
 6405SOL    HW230852   0.198   1.930   8.995 -1.1899 -1.0341  0.3127
 6406SOL     OW30853   0.841   1.192  12.016 -0.0125 -0.5433  0.4906
 6406SOL    HW130854   0.873   1.228  11.934  0.3315 -1.5902  0.1657
 6406SOL    HW230855   0.775   1.257  12.040 -1.7713 -2.3611  0.6095
 6407SOL     OW30856   2.370   2.125   6.710 -0.1445  0.0292  0.4375
 6407SOL    HW130857   2.428   2.055   6.679 -0.3152 -0.5477  1.4203
 6407SOL    HW230858   2.352   2.085   6.795 -2.7391  1.2253  0.4348
 6408SOL     OW30859   2.856   3.502   7.696  0.1072  0.6706  0.3349
 6408SOL    HW130860   2.883   3.590   7.721 -2.8282  1.3419  1.0489
 6408SOL    HW230861   2.774   3.517   7.650 -1.3764  0.4099  2.9546
 6409SOL     OW30862   0.656   2.014   9.909 -0.4150  0.5233 -0.3626
 6409SOL    HW130863   0.566   2.035   9.885 -1.0944 -0.6068  1.1458
 6409SOL    HW230864   0.628   1.941   9.965  2.6451 -0.4728 -0.1387
 6410SOL     OW30865   0.953   4.597   4.741  0.3714  0.1613  0.1327
 6410SOL    HW130866   0.990   4.661   4.802  0.6570 -1.2086  1.3896
 6410SOL    HW230867   1.024   4.533   4.744  1.4614  1.4359  1.1558
 6411SOL     OW30868   0.577   1.214   8.793  0.1144  0.1257 -0.8616
 6411SOL    HW130869   0.596   1.278   8.725  0.0861  0.3677 -0.6387
 6411SOL    HW230870   0.528   1.267   8.855  1.0456 -0.7297  0.6128
 6412SOL     OW30871   1.288   2.168   3.355  0.4279  0.1440 -0.2341
 6412SOL    HW130872   1.321   2.257   3.369 -1.1909  0.6571  0.2538
 6412SOL    HW230873   1.339   2.136   3.281 -1.0778 -0.8377 -0.8493
 6413SOL     OW30874   0.878   1.413  14.768 -0.3138  0.3178  0.4205
 6413SOL    HW130875   0.795   1.447  14.737 -1.3243 -1.6179  1.0005
 6413SOL    HW230876   0.940   1.476  14.731  1.1863 -1.9243 -0.9396
 6414SOL     OW30877   4.533   1.533   4.552 -0.0864 -0.0385  0.1605
 6414SOL    HW130878   4.563   1.623   4.561  1.0784 -0.4676  0.5857
 6414SOL    HW230879   4.600   1.484   4.601 -0.0633 -0.9843 -0.8141
 6415SOL     OW30880   1.774   0.037   1.204  0.0383  0.3992 -0.0646
 6415SOL    HW130881   1.796   0.094   1.130  1.5393 -1.6653 -1.1951
 6415SOL    HW230882   1.860   0.013   1.240 -0.3018 -2.5184 -1.2437
 6416SOL     OW30883   4.178   3.524   6.989  0.4103  0.7364  0.5772
 6416SOL    HW130884   4.198   3.441   6.946 -0.1719  1.2341 -0.6450
 6416SOL    HW230885   4.123   3.571   6.927 -0.1725 -1.5210 -0.6281
 6417SOL     OW30886   0.198   3.170   5.619  0.2493  0.2584  0.1564
 6417SOL    HW130887   0.210   3.079   5.647 -1.8673 -0.1681 -0.3768
 6417SOL    HW230888   0.132   3.195   5.684  0.5825 -0.7259  0.8839
 6418SOL     OW30889   2.431   0.451   1.727 -0.4471 -0.7313  0.4958
 6418SOL    HW130890   2.354   0.457   1.783  0.4848 -1.5028  1.8770
 6418SOL    HW230891   2.491   0.503   1.781  1.2185 -2.9827  0.8569
 6419SOL     OW30892   4.155   1.279   7.202 -0.3073  0.2114 -0.3344
 6419SOL    HW130893   4.163   1.251   7.110  2.1756 -2.6230  0.7252
 6419SOL    HW230894   4.225   1.345   7.207 -0.5487  0.6089 -1.9781
 6420SOL     OW30895   0.056   4.675   9.408  0.2059 -0.3264 -0.0212
 6420SOL    HW130896   0.149   4.653   9.415  0.2040 -1.0044 -2.4324
 6420SOL    HW230897   0.047   4.727   9.328  0.6582 -0.0187  0.1237
 6421SOL     OW30898   0.271   4.384   5.038  0.4160  0.1486  0.2039
 6421SOL    HW130899   0.276   4.336   4.956 -1.3272  1.5947 -0.7460
 6421SOL    HW230900   0.364   4.391   5.062  0.5087 -1.1772  0.2209
 6422SOL     OW30901   4.430   0.701   5.095  0.3290 -0.5473 -0.4433
 6422SOL    HW130902   4.468   0.620   5.129 -0.9586 -1.6560 -1.6459
 6422SOL    HW230903   4.351   0.661   5.060 -1.4433  1.5366  1.2488
 6423SOL     OW30904   3.058   0.476   6.114 -0.5593 -0.2284  0.7322
 6423SOL    HW130905   3.031   0.474   6.205 -4.2167  2.4012 -0.2569
 6423SOL    HW230906   2.976   0.501   6.071 -0.4335  0.7584  1.0565
 6424SOL     OW30907   4.502   3.651   6.425 -0.1344 -0.3205 -0.0907
 6424SOL    HW130908   4.470   3.600   6.500 -1.4134 -0.5776 -0.8044
 6424SOL    HW230909   4.529   3.580   6.366  0.0794  0.9179 -1.4807
 6425SOL     OW30910   0.351   3.010  11.283 -0.0103 -0.1244  0.7177
 6425SOL    HW130911   0.335   3.092  11.236 -2.4351 -0.9337  0.1437
 6425SOL    HW230912   0.439   3.033  11.315 -0.0488  0.2158  0.5811
 6426SOL     OW30913   2.315   1.701   1.704 -0.6129  0.3225  0.1799
 6426SOL    HW130914   2.332   1.730   1.614 -2.8472 -0.6385 -0.5557
 6426SOL    HW230915   2.229   1.660   1.698  0.6058 -2.5128  2.2368
 6427SOL     OW30916   2.986   1.945   4.510 -0.1474  0.2063  0.7941
 6427SOL    HW130917   2.984   2.036   4.540 -0.0325  0.5057 -0.1030
 6427SOL    HW230918   2.973   1.959   4.416 -0.0948 -1.7253  0.4985
 6428SOL     OW30919   4.531   1.559   9.104 -0.2089 -0.2664 -0.0726
 6428SOL    HW130920   4.621   1.528   9.091 -0.0904  0.5812 -1.2173
 6428SOL    HW230921   4.521   1.515   9.189  0.3576 -0.9012 -0.3316
 6429SOL     OW30922   0.726   0.963   5.003 -0.1078  0.2916  0.9992
 6429SOL    HW130923   0.662   1.033   5.015  1.4948  1.7531  1.0522
 6429SOL    HW230924   0.677   0.896   5.051 -1.4946 -0.3938 -1.3759
 6430SOL     OW30925   3.253   4.294   6.805 -0.3154 -0.1927 -0.8460
 6430SOL    HW130926   3.217   4.268   6.720 -1.1822 -2.3079  0.1712
 6430SOL    HW230927   3.344   4.271   6.788 -0.3264  0.6121 -2.0207
 6431SOL     OW30928   3.520   2.843  16.470  0.0622  0.6925  0.3575
 6431SOL    HW130929   3.578   2.830  16.544 -0.2598 -2.2743  0.0834
 6431SOL    HW230930   3.516   2.763  16.416  4.3262  1.9498 -1.8174
 6432SOL     OW30931   0.162   1.912   3.342 -0.5600 -0.1468  0.2855
 6432SOL    HW130932   0.252   1.913   3.374  0.0739 -0.5906 -1.4871
 6432SOL    HW230933   0.165   1.868   3.257  0.3431 -0.6205  0.5670
 6433SOL     OW30934   4.454   4.368   6.879 -0.1116  0.3244  0.2996
 6433SOL    HW130935   4.490   4.364   6.968  0.0305  0.5045  0.2481
 6433SOL    HW230936   4.478   4.280   6.851 -0.2159  0.7156 -0.9918
 6434SOL     OW30937   3.908   1.473  11.421 -0.1519 -0.2006 -0.7984
 6434SOL    HW130938   3.840   1.437  11.363  1.6781 -3.4618 -0.9430
 6434SOL    HW230939   3.933   1.552  11.372 -0.1095  0.2220 -0.0866
 6435SOL     OW30940   4.131   4.105   8.122  0.3274  0.7902  0.2225
 6435SOL    HW130941   4.113   4.168   8.192 -1.9389 -0.8300  1.0867
 6435SOL    HW230942   4.227   4.102   8.116  0.3826  0.1255  1.2932
 6436SOL     OW30943   3.111   3.732   2.154  0.0216 -0.1026 -0.2891
 6436SOL    HW130944   3.030   3.726   2.204 -0.3710  0.3571 -0.8743
 6436SOL    HW230945   3.084   3.786   2.080  0.1836  0.7828  0.3064
 6437SOL     OW30946   4.390   2.835   6.467  0.8068 -0.2662  0.1197
 6437SOL    HW130947   4.480   2.863   6.451  0.6239  0.2675  0.0159
 6437SOL    HW230948   4.386   2.740   6.459  0.8069 -0.1306 -1.3688
 6438SOL     OW30949   2.223   4.136   6.941  0.3044 -0.0733 -0.0412
 6438SOL    HW130950   2.199   4.199   6.872 -0.7388  0.0187  0.4065
 6438SOL    HW230951   2.280   4.079   6.890  0.7474 -2.3537  3.0420
 6439SOL     OW30952   2.330   3.153   4.187  0.0551 -0.0924  0.8998
 6439SOL    HW130953   2.277   3.156   4.266 -0.2818  1.2853  0.6162
 6439SOL    HW230954   2.412   3.193   4.216  0.7713 -1.3167  0.5740
 6440SOL     OW30955   3.731   0.830  10.158  0.3053  0.3715  0.0956
 6440SOL    HW130956   3.769   0.809  10.073  1.1364 -0.1648  0.6000
 6440SOL    HW230957   3.682   0.912  10.151  0.1823  0.3408  0.5695
 6441SOL     OW30958   4.515   2.983   7.385 -0.4479  0.6515  0.0160
 6441SOL    HW130959   4.561   2.922   7.327  0.1193  1.6891 -0.6257
 6441SOL    HW230960   4.590   3.020   7.433  0.8240 -2.0462  0.1050
 6442SOL     OW30961   3.388   2.936   3.853 -0.1457 -1.0605 -0.2535
 6442SOL    HW130962   3.427   3.024   3.856 -0.8918 -0.6097 -3.2222
 6442SOL    HW230963   3.374   2.936   3.947  0.0344 -1.1292 -0.2257
 6443SOL     OW30964   0.718   0.461   1.793 -0.0320 -0.0348 -0.0501
 6443SOL    HW130965   0.781   0.424   1.855 -0.2396  0.4470  0.4423
 6443SOL    HW230966   0.772   0.465   1.714 -1.2235  0.7286 -0.8122
 6444SOL     OW30967   0.007   1.722   0.968  0.1262  0.7887 -0.0907
 6444SOL    HW130968   0.008   1.743   0.875 -1.1362  0.1443 -0.2469
 6444SOL    HW230969   0.096   1.688   0.982  0.4015  1.6350  0.2523
 6445SOL     OW30970   1.958   0.156   5.768  0.2508 -0.0823  0.0772
 6445SOL    HW130971   2.028   0.114   5.718  1.7192  0.7928  1.4025
 6445SOL    HW230972   1.998   0.169   5.854 -0.6810 -1.5481  0.7281
 6446SOL     OW30973   0.559   1.045   4.346 -0.1775  0.2987  0.3588
 6446SOL    HW130974   0.511   0.980   4.295  0.0902 -1.0609  1.8539
 6446SOL    HW230975   0.559   1.000   4.430 -1.7761  3.2569  1.9403
 6447SOL     OW30976   1.379   4.138   8.677  0.5584 -0.5271  0.3073
 6447SOL    HW130977   1.470   4.135   8.708  0.4872 -0.0468  0.5712
 6447SOL    HW230978   1.371   4.233   8.682 -0.1114 -0.5400 -0.5729
 6448SOL     OW30979   4.398   4.026  13.564  0.0038  0.0688 -0.0125
 6448SOL    HW130980   4.340   4.101  13.578 -1.8129 -1.2164 -0.7129
 6448SOL    HW230981   4.344   3.966  13.513  1.5295 -0.3639 -1.1235
 6449SOL     OW30982   0.936   2.086   6.367 -0.5052 -0.2177 -0.2018
 6449SOL    HW130983   1.011   2.031   6.391 -0.0409  0.6400  0.3162
 6449SOL    HW230984   0.925   2.060   6.276  3.0170  2.1470 -1.3131
 6450SOL     OW30985   0.616   1.616   8.659 -0.2240  0.3896 -0.1647
 6450SOL    HW130986   0.546   1.558   8.690 -0.0414 -0.3002 -1.0426
 6450SOL    HW230987   0.688   1.561   8.630 -0.5444 -0.6172  0.9239
 6451SOL     OW30988   0.011   4.020   8.533 -0.5062  0.3034  0.5989
 6451SOL    HW130989   4.684   3.979   8.478  0.8179 -0.1444 -0.6759
 6451SOL    HW230990   0.040   4.079   8.464  0.1152  1.1059  1.5336
 6452SOL     OW30991   3.854   3.369  15.905  0.6826  0.8385 -0.3739
 6452SOL    HW130992   3.916   3.386  15.975 -1.4849  0.0964  1.7711
 6452SOL    HW230993   3.841   3.274  15.911  0.6801  0.7333 -2.1013
 6453SOL     OW30994   1.964   4.268   6.220 -0.0878 -0.3914  0.4045
 6453SOL    HW130995   2.049   4.225   6.212  1.0513  2.2116 -1.5692
 6453SOL    HW230996   1.981   4.313   6.303  0.2628 -1.7321  1.0505
 6454SOL     OW30997   4.519   0.565  12.574 -0.0722  0.4714 -0.0131
 6454SOL    HW130998   4.485   0.570  12.663 -0.7699  1.4390 -0.3295
 6454SOL    HW230999   4.499   0.476  12.545  2.1485 -0.4659  1.2747
 6455SOL     OW31000   1.208   3.076  11.786 -0.4009  0.5143 -0.3290
 6455SOL    HW131001   1.226   3.029  11.704  0.0956  2.1949 -1.1765
 6455SOL    HW231002   1.197   3.165  11.752 -3.3228  0.2580 -0.1170
 6456SOL     OW31003   0.210   0.276   9.218 -0.3637  0.1751  0.3783
 6456SOL    HW131004   0.216   0.325   9.136 -0.1363 -1.0285 -0.3211
 6456SOL    HW231005   0.304   0.258   9.211 -0.4965 -0.2548 -0.3216
 6457SOL     OW31006   4.158   4.305   9.543 -0.6446  0.7946  0.3382
 6457SOL    HW131007   4.186   4.388   9.582 -0.3602  0.0730  1.6576
 6457SOL    HW231008   4.180   4.322   9.451 -2.5461 -0.3562 -0.3317
 6458SOL     OW31009   4.264   4.685  16.460  0.2429  0.3505  0.0764
 6458SOL    HW131010   4.355   4.662  16.481  0.2851  0.3735 -0.0785
 6458SOL    HW231011   4.223   4.627  16.524 -0.9323 -0.5426 -1.5118
 6459SOL     OW31012   2.748   4.146  11.131 -0.6660 -0.0611 -0.0789
 6459SOL    HW131013   2.788   4.230  11.155  0.3813 -1.2344  2.3400
 6459SOL    HW231014   2.759   4.112  11.220  1.3839 -2.1839 -1.1468
 6460SOL     OW31015   0.086   0.031   6.351  0.5108  0.0135 -0.6181
 6460SOL    HW131016   0.179   0.007   6.348  0.0232 -2.0871  1.4430
 6460SOL    HW231017   0.086   0.111   6.404  0.0325 -0.5485  0.2079
 6461SOL     OW31018   3.743   3.422   8.420  0.5953 -0.1026 -0.1457
 6461SOL    HW131019   3.787   3.360   8.479  1.7772  1.0064  0.1684
 6461SOL    HW231020   3.816   3.479   8.394  0.0154  0.6796 -0.0681
 6462SOL     OW31021   1.025   3.183   7.707 -0.6522 -0.4148 -0.4305
 6462SOL    HW131022   0.999   3.274   7.723 -1.2957  0.1175 -4.5344
 6462SOL    HW231023   1.099   3.201   7.648 -1.2803  0.1336 -1.0469
 6463SOL     OW31024   0.245   1.761  15.823  0.2010  0.2736  0.1240
 6463SOL    HW131025   0.307   1.702  15.868  1.3486 -0.1883 -2.0748
 6463SOL    HW231026   0.280   1.759  15.734  0.2482 -1.2238  0.1857
 6464SOL     OW31027   2.995   2.732   7.295  0.8736 -0.3170 -0.0808
 6464SOL    HW131028   2.956   2.711   7.210 -1.8947  2.5254  0.4962
 6464SOL    HW231029   3.062   2.790   7.259 -0.0042  0.4038 -0.5622
 6465SOL     OW31030   2.611   2.762   3.359  0.3006  0.1593  0.2806
 6465SOL    HW131031   2.595   2.813   3.438 -1.2251  0.3552 -0.1456
 6465SOL    HW231032   2.563   2.828   3.308 -2.0588  0.1484  2.4977
 6466SOL     OW31033   1.360   2.874   6.427  0.6294  0.5026  0.3498
 6466SOL    HW131034   1.339   2.815   6.500  1.9729  0.9559  1.1014
 6466SOL    HW231035   1.413   2.937   6.476  1.4847  0.0778 -0.0302
 6467SOL     OW31036   2.576   1.601  11.245 -0.1469 -0.2849  0.1595
 6467SOL    HW131037   2.623   1.613  11.327  0.2580 -0.1729 -0.0864
 6467SOL    HW231038   2.649   1.572  11.189 -0.1978 -0.9156  0.4241
 6468SOL     OW31039   1.978   3.278   8.406  0.2034  0.1971  0.3190
 6468SOL    HW131040   1.942   3.264   8.318  3.0852 -1.1763 -0.6415
 6468SOL    HW231041   1.922   3.223   8.460 -1.5721  0.2432 -1.4611
 6469SOL     OW31042   4.190   4.084   9.915  0.0209 -0.4891 -0.5536
 6469SOL    HW131043   4.176   3.991   9.932  5.8826 -1.5264 -1.6800
 6469SOL    HW231044   4.147   4.115   9.995  2.3449 -0.5629  0.6956
 6470SOL     OW31045   0.994   3.060   0.952  0.4827 -0.3119 -0.2044
 6470SOL    HW131046   1.026   2.981   0.907 -0.9839 -1.5743  0.9367
 6470SOL    HW231047   0.948   3.103   0.880  1.4419 -2.1834 -1.9398
 6471SOL     OW31048   0.954   4.700   0.423 -0.5027  0.1039 -0.2257
 6471SOL    HW131049   0.920   0.042   0.385  3.0390  1.1218 -1.3000
 6471SOL    HW231050   0.920   4.637   0.360 -0.6949  1.3649 -1.3882
 6472SOL     OW31051   2.158   3.214   1.533 -0.7714 -0.6668  0.3047
 6472SOL    HW131052   2.205   3.266   1.468 -1.8018 -0.9739 -0.6898
 6472SOL    HW231053   2.069   3.240   1.511 -0.7839 -2.0643 -1.3356
 6473SOL     OW31054   1.941   1.874   4.134  0.2630  0.2637  0.5736
 6473SOL    HW131055   1.930   1.782   4.111 -1.2801  0.6113 -0.0862
 6473SOL    HW231056   2.005   1.888   4.064 -1.7429 -2.9772 -1.8799
 6474SOL     OW31057   4.260   4.652   7.782  1.0033 -0.4296 -0.2202
 6474SOL    HW131058   4.349   4.685   7.794  0.4153  1.5762 -1.5930
 6474SOL    HW231059   4.204   4.727   7.764 -0.4411 -1.4105  0.1937
 6475SOL     OW31060   4.493   0.587  13.270  0.0606 -0.1744 -0.1982
 6475SOL    HW131061   4.508   0.533  13.348  2.7883  0.3793 -0.3506
 6475SOL    HW231062   4.535   0.666  13.305  2.6547 -1.5723 -0.1965
 6476SOL     OW31063   4.379   1.033   8.677  0.3102 -0.5907 -0.1881
 6476SOL    HW131064   4.465   1.067   8.704  0.9544 -1.9409 -0.5192
 6476SOL    HW231065   4.356   1.072   8.593  3.5788 -2.5733 -2.0447
 6477SOL     OW31066   3.976   0.520   1.188 -0.0888 -0.8574  0.0585
 6477SOL    HW131067   4.004   0.611   1.192  0.9070 -1.2579  2.2786
 6477SOL    HW231068   4.031   0.486   1.259 -0.1672 -1.0795  0.0155
 6478SOL     OW31069   1.263   1.096   2.396 -0.4663  0.1363 -0.2907
 6478SOL    HW131070   1.169   1.095   2.411 -0.2396 -2.6635  1.0269
 6478SOL    HW231071   1.261   1.066   2.305  0.2694  0.0976 -0.2977
 6479SOL     OW31072   4.277   3.738  10.698 -0.1031 -0.5335  0.0328
 6479SOL    HW131073   4.245   3.727  10.788 -1.0400  0.9838 -0.1143
 6479SOL    HW231074   4.238   3.669  10.644  0.7605 -2.1980  1.5214
 6480SOL     OW31075   0.589   3.824  13.452  0.3467  0.5571  0.1636
 6480SOL    HW131076   0.549   3.868  13.378  3.0094 -0.1265 -1.6715
 6480SOL    HW231077   0.514   3.824  13.511  1.9820  0.2584  2.2646
 6481SOL     OW31078   1.653   1.036   8.818 -0.4822  0.0479  0.0233
 6481SOL    HW131079   1.672   1.074   8.732  1.2433  1.1826  0.9016
 6481SOL    HW231080   1.739   1.004   8.844 -0.3501  0.6504  0.3228
 6482SOL     OW31081   4.690   1.491   4.032 -0.2030  1.0279 -0.1638
 6482SOL    HW131082   4.716   1.555   3.967  0.5444 -0.3289 -1.2025
 6482SOL    HW231083   4.626   1.433   3.989  1.0235 -2.1053  2.2115
 6483SOL     OW31084   2.905   3.732   2.696  0.0744 -0.1944 -0.0541
 6483SOL    HW131085   2.849   3.740   2.773  0.8518 -0.2511  0.5226
 6483SOL    HW231086   2.949   3.651   2.719  0.9420  0.1127 -0.6263
 6484SOL     OW31087   3.676   2.344  10.475  0.4715 -0.2252  0.0399
 6484SOL    HW131088   3.747   2.281  10.462 -0.2275 -0.8392 -0.8380
 6484SOL    HW231089   3.676   2.345  10.571  3.3945 -0.1876  0.0275
 6485SOL     OW31090   4.081   2.970   8.970 -0.0959  0.2932 -0.4115
 6485SOL    HW131091   3.990   2.971   9.000 -0.9115 -3.5222 -2.8115
 6485SOL    HW231092   4.077   2.875   8.961  0.8176  0.2780 -0.6602
 6486SOL     OW31093   0.861   1.217   1.415 -0.5856  0.1712 -0.2822
 6486SOL    HW131094   0.826   1.296   1.374 -0.8673  0.1362 -0.1089
 6486SOL    HW231095   0.861   1.150   1.347 -0.8286 -0.8377  0.6986
 6487SOL     OW31096   4.197   0.442  17.291  0.3858  0.3556  0.3040
 6487SOL    HW131097   4.146   0.502  17.238 -0.6148  0.7071  1.6509
 6487SOL    HW231098   4.279   0.492  17.288 -1.5784  3.6783  2.7328
 6488SOL     OW31099   0.949   4.642   6.874  0.6885 -0.2483  0.6470
 6488SOL    HW131100   0.965   4.734   6.895  1.4860  0.0345 -1.2145
 6488SOL    HW231101   0.919   4.615   6.961  1.2628 -0.6488  0.7175
 6489SOL     OW31102   1.892   1.294   6.813 -0.3892 -0.2136 -0.7232
 6489SOL    HW131103   1.906   1.238   6.890 -2.4497 -1.9124 -1.5828
 6489SOL    HW231104   1.800   1.313   6.834  0.4279  0.5093  2.1434
 6490SOL     OW31105   0.566   1.464   4.902  0.1441  0.3496  0.6867
 6490SOL    HW131106   0.575   1.390   4.841 -1.3299  2.4290 -2.0327
 6490SOL    HW231107   0.556   1.544   4.850 -0.4439  0.0508  0.3441
 6491SOL     OW31108   2.540   3.297   6.360 -0.0844 -0.0054  0.2436
 6491SOL    HW131109   2.493   3.259   6.286 -1.4243  1.9010  0.1062
 6491SOL    HW231110   2.614   3.238   6.353  0.5240  0.7110  0.6597
 6492SOL     OW31111   1.464   1.761   6.526  0.2182  0.1750  0.4334
 6492SOL    HW131112   1.429   1.700   6.590 -0.5536  0.5933  0.4064
 6492SOL    HW231113   1.529   1.797   6.586  2.1680 -2.1049 -0.3108
 6493SOL     OW31114   0.917   4.611   2.462 -0.2685  0.2111  0.2257
 6493SOL    HW131115   0.883   4.610   2.373  2.7429  0.2140 -0.9330
 6493SOL    HW231116   0.903   4.519   2.483  0.3514 -0.5305 -2.5545
 6494SOL     OW31117   0.340   4.407   7.417 -0.1633  0.4011  0.0622
 6494SOL    HW131118   0.368   4.331   7.468  0.1159  1.4122  1.4103
 6494SOL    HW231119   0.331   4.370   7.329 -2.8427  0.6722  0.2198
 6495SOL     OW31120   1.179   0.203   1.777  0.0925 -0.0864 -0.2936
 6495SOL    HW131121   1.091   0.164   1.787 -0.1123  0.0803 -1.5238
 6495SOL    HW231122   1.238   0.143   1.823 -1.3099 -1.8025 -0.7027
 6496SOL     OW31123   1.855   3.591  11.132  0.0179  0.0265 -0.2595
 6496SOL    HW131124   1.809   3.564  11.211  1.4084 -2.1845 -0.2026
 6496SOL    HW231125   1.801   3.549  11.064  0.3071 -2.1864  0.8798
 6497SOL     OW31126   0.542   0.294   8.947  0.1822 -0.1408 -0.5872
 6497SOL    HW131127   0.475   0.344   8.994  1.3484  1.8634 -1.0447
 6497SOL    HW231128   0.497   0.210   8.943 -1.6760  0.7780  1.3871
 6498SOL     OW31129   1.320   1.378  17.298  0.9609  0.2386  0.8625
 6498SOL    HW131130   1.321   1.303  17.359  1.6275 -0.6063 -0.1900
 6498SOL    HW231131   1.286   1.449  17.352  2.5743  1.9563 -0.3800
 6499SOL     OW31132   1.414   4.694   1.764  0.1374  0.6467 -0.1277
 6499SOL    HW131133   1.453   0.034   1.801  1.7524  0.2502 -1.0085
 6499SOL    HW231134   1.354   4.675   1.837 -0.6092  0.3095 -0.8376
 6500SOL     OW31135   1.281   2.715  11.737  0.1926 -0.1788  0.4867
 6500SOL    HW131136   1.299   2.803  11.704  0.6637  0.3938  2.2142
 6500SOL    HW231137   1.364   2.671  11.720  0.0302 -0.4671  0.4494
 6501SOL     OW31138   1.352   3.619   1.861  0.4007 -0.1292 -0.2180
 6501SOL    HW131139   1.339   3.641   1.953  1.5809  0.7036 -0.2559
 6501SOL    HW231140   1.332   3.702   1.818  2.7917 -0.1234 -1.3128
 6502SOL     OW31141   1.168   1.165  10.845 -0.4233  0.0368  0.1365
 6502SOL    HW131142   1.201   1.240  10.895 -0.1243  0.9281 -1.4206
 6502SOL    HW231143   1.219   1.103  10.896  0.2272  1.4445  1.2224
 6503SOL     OW31144   1.784   4.442   9.174  0.4617 -0.0744 -0.0312
 6503SOL    HW131145   1.702   4.442   9.224 -1.9389 -2.0015 -4.0317
 6503SOL    HW231146   1.787   4.530   9.137 -1.2779  0.7000  1.6124
 6504SOL     OW31147   1.960   3.100   1.752  0.5291 -0.0714  0.1188
 6504SOL    HW131148   1.934   3.150   1.829  0.2774 -1.4100  0.9035
 6504SOL    HW231149   1.934   3.160   1.683 -2.1988 -2.1897 -0.7233
 6505SOL     OW31150   4.417   0.042   9.849 -0.1213  0.0456  0.0029
 6505SOL    HW131151   4.501   0.074   9.882  0.3300 -0.7729 -0.3749
 6505SOL    HW231152   4.377   0.010   9.930  0.1180 -1.4359 -0.4647
 6506SOL     OW31153   2.438   2.913   6.286  0.5738 -0.1456  0.8935
 6506SOL    HW131154   2.467   2.830   6.323  1.1431 -1.5067 -2.6577
 6506SOL    HW231155   2.512   2.966   6.315 -0.4022  1.4219  0.5660
 6507SOL     OW31156   4.458   3.645   5.740  0.0082 -0.2341 -0.3391
 6507SOL    HW131157   4.471   3.715   5.675 -0.0731  1.0283  1.0121
 6507SOL    HW231158   4.487   3.700   5.813 -0.2774  1.9200 -1.8387
 6508SOL     OW31159   1.934   2.890   8.726 -0.0565 -0.0107  0.0307
 6508SOL    HW131160   2.000   2.829   8.758 -0.8235 -1.3559 -0.9424
 6508SOL    HW231161   1.881   2.899   8.806 -0.0980  0.9380 -0.1052
 6509SOL     OW31162   3.563   0.935   9.324  0.3452  0.0652 -0.0645
 6509SOL    HW131163   3.538   0.921   9.233  0.3751  0.2815 -0.1052
 6509SOL    HW231164   3.653   0.904   9.324  0.0631 -0.7529 -1.6195
 6510SOL     OW31165   0.631   1.403  11.420 -0.0984  0.3423 -0.1083
 6510SOL    HW131166   0.541   1.375  11.436 -0.1316  0.9712  0.7906
 6510SOL    HW231167   0.626   1.499  11.418  2.4107  0.4596 -1.3357
 6511SOL     OW31168   0.420   0.292  13.003 -0.0958 -0.6312  0.2657
 6511SOL    HW131169   0.452   0.334  13.082 -0.6138  0.4166 -0.0790
 6511SOL    HW231170   0.503   0.286  12.955 -0.5564  0.2264 -0.6310
 6512SOL     OW31171   1.618   3.554   7.803  0.0842  0.2054 -0.8985
 6512SOL    HW131172   1.528   3.527   7.786  0.9144 -1.6747 -2.3513
 6512SOL    HW231173   1.605   3.599   7.887  0.1785  0.4474 -1.0164
 6513SOL     OW31174   2.151   1.055   2.198 -0.1424 -0.0117 -0.6359
 6513SOL    HW131175   2.168   1.126   2.136  0.6060 -0.6440 -1.1572
 6513SOL    HW231176   2.230   1.003   2.185 -0.2190 -0.4994  0.8111
 6514SOL     OW31177   0.166   1.483  17.068 -0.2443  0.1049  0.4102
 6514SOL    HW131178   0.121   1.558  17.030 -2.7879 -2.1528 -1.0499
 6514SOL    HW231179   0.171   1.430  16.988 -0.7145  0.1791  0.3340
 6515SOL     OW31180   4.245   0.346  13.833 -0.0185  0.0445 -0.3973
 6515SOL    HW131181   4.244   0.437  13.804 -0.6888  0.0411 -0.3777
 6515SOL    HW231182   4.308   0.355  13.905  0.2996  2.4807 -0.9989
 6516SOL     OW31183   1.554   0.728   7.519 -0.6417  0.5203  0.0988
 6516SOL    HW131184   1.571   0.634   7.526  0.3981  0.7214  0.2962
 6516SOL    HW231185   1.613   0.746   7.445 -0.5346  1.0575  0.3078
 6517SOL     OW31186   0.227   1.421  10.758  0.5249 -0.6628  0.4674
 6517SOL    HW131187   0.289   1.486  10.725 -0.5479  0.6279  1.0071
 6517SOL    HW231188   0.179   1.462  10.829  1.3252  1.6278 -0.3253
 6518SOL     OW31189   2.093   3.356   2.000 -0.1133 -0.2210  0.3744
 6518SOL    HW131190   2.041   3.426   2.039 -0.9973 -0.6427 -0.0451
 6518SOL    HW231191   2.014   3.308   1.973 -0.2862 -1.1061  2.4727
 6519SOL     OW31192   0.104   1.606   9.227 -0.1323  0.1757  0.3925
 6519SOL    HW131193   0.139   1.546   9.161  1.0676  1.9012 -0.5377
 6519SOL    HW231194   0.166   1.603   9.300 -1.1045 -0.6744  1.1875
 6520SOL     OW31195   4.060   4.202   2.389  0.3439  0.0125 -0.0488
 6520SOL    HW131196   3.982   4.180   2.441 -0.0015  1.2905 -0.0122
 6520SOL    HW231197   4.021   4.240   2.311  1.0388  2.2481  0.6941
 6521SOL     OW31198   4.232   3.976  16.099 -0.1072  0.2230  0.1927
 6521SOL    HW131199   4.190   4.061  16.087  1.1490  0.8349  0.1915
 6521SOL    HW231200   4.317   4.001  16.062 -1.0583  2.0554 -0.7443
 6522SOL     OW31201   1.945   1.630   3.692 -0.3384 -0.0270  0.2932
 6522SOL    HW131202   1.864   1.586   3.668 -0.2007 -0.8078  1.2562
 6522SOL    HW231203   1.911   1.692   3.758 -1.0794  0.6178 -0.6877
 6523SOL     OW31204   0.641   0.454   8.370  0.1569 -0.1215 -0.4465
 6523SOL    HW131205   0.640   0.504   8.451  0.8372 -0.0825 -0.4563
 6523SOL    HW231206   0.618   0.518   8.303  1.5661  1.5286  0.6725
 6524SOL     OW31207   1.134   1.644   3.973 -0.0687 -0.0856 -0.0588
 6524SOL    HW131208   1.162   1.557   4.002  0.6840  0.7325  1.6582
 6524SOL    HW231209   1.215   1.684   3.942  0.3420 -2.1220 -1.5873
 6525SOL     OW31210   2.009   2.989  12.366 -0.7685  0.1151 -0.1894
 6525SOL    HW131211   2.084   2.985  12.306  1.3760 -0.1671  2.5108
 6525SOL    HW231212   1.933   3.003  12.310 -0.8433 -0.3887 -0.2066
 6526SOL     OW31213   1.423   0.250  13.938  0.4811  0.4520 -0.6906
 6526SOL    HW131214   1.481   0.178  13.913 -0.7607 -1.0687  0.7861
 6526SOL    HW231215   1.342   0.220  13.897 -0.3211  2.2054 -0.4058
 6527SOL     OW31216   3.590   0.357   7.436 -0.5375 -0.0868  0.3630
 6527SOL    HW131217   3.534   0.411   7.493  0.2842 -0.0831  1.1739
 6527SOL    HW231218   3.674   0.375   7.478 -0.1571 -0.5765 -0.1949
 6528SOL     OW31219   2.248   3.778   1.606  0.1773  0.0474 -0.1120
 6528SOL    HW131220   2.265   3.791   1.700  2.1641 -2.6986 -0.1056
 6528SOL    HW231221   2.206   3.692   1.601 -0.2046  0.2721 -0.7615
 6529SOL     OW31222   2.463   3.117   0.290  0.5793 -0.3165 -0.0615
 6529SOL    HW131223   2.499   3.121   0.379  1.0694  0.0954 -0.2749
 6529SOL    HW231224   2.374   3.096   0.316  1.3508 -2.5279  0.7915
 6530SOL     OW31225   1.000   4.592  15.108  0.4525  0.0886  0.0524
 6530SOL    HW131226   1.055   4.542  15.168  0.2771  0.5118  0.5744
 6530SOL    HW231227   0.914   4.588  15.150  0.6996 -0.0519  0.5410
 6531SOL     OW31228   3.071   2.162   8.271 -0.2724 -0.2224 -0.7134
 6531SOL    HW131229   3.133   2.158   8.343 -2.7671  0.1473  1.4509
 6531SOL    HW231230   3.002   2.227   8.286  0.4790  0.8449 -1.7817
 6532SOL     OW31231   2.054   2.920   5.623 -0.0383  0.4147  0.4792
 6532SOL    HW131232   2.045   2.826   5.606 -0.5570  0.8394 -1.5654
 6532SOL    HW231233   1.984   2.954   5.567  1.5821  3.0117  0.0125
 6533SOL     OW31234   2.838   1.480  11.869  0.1534 -0.0538 -0.2671
 6533SOL    HW131235   2.899   1.420  11.911 -3.1535 -1.9014  1.9762
 6533SOL    HW231236   2.812   1.521  11.951  2.1631  0.1356  0.2720
 6534SOL     OW31237   0.653   2.037   6.398 -0.5851 -0.0545 -0.1151
 6534SOL    HW131238   0.632   2.069   6.486 -2.8276  0.3938 -0.8132
 6534SOL    HW231239   0.737   2.081   6.385  0.8125 -2.5105  0.6194
 6535SOL     OW31240   3.443   2.966   1.019 -0.2535 -0.3688 -0.1118
 6535SOL    HW131241   3.478   3.055   1.022  0.8411 -0.7182 -2.1884
 6535SOL    HW231242   3.520   2.911   1.032  2.0595  2.3804 -2.3016
 6536SOL     OW31243   4.057   2.187   8.689 -0.7021 -0.2857  0.3094
 6536SOL    HW131244   4.068   2.146   8.603 -0.5334 -0.6866  0.5192
 6536SOL    HW231245   4.142   2.233   8.690 -1.0020  0.2549  0.8970
 6537SOL     OW31246   0.140   3.768   5.885 -0.1484  0.6088 -0.1555
 6537SOL    HW131247   0.056   3.724   5.870 -0.6573  1.9104 -1.1718
 6537SOL    HW231248   0.109   3.838   5.942 -0.0131  1.2112 -0.8172
 6538SOL     OW31249   3.800   2.391  16.441  0.1130 -0.6269  0.0337
 6538SOL    HW131250   3.874   2.384  16.501  0.8574 -2.4864 -1.0687
 6538SOL    HW231251   3.749   2.317  16.474  2.4020 -2.1368  0.2427
 6539SOL     OW31252   3.600   1.067   4.545  0.3623 -0.7159 -0.1954
 6539SOL    HW131253   3.540   1.001   4.508  0.0459 -0.2064 -0.5919
 6539SOL    HW231254   3.546   1.142   4.519 -2.7049 -3.0220 -0.5394
 6540SOL     OW31255   0.280   2.691   6.508  0.0652 -0.0525  0.2578
 6540SOL    HW131256   0.257   2.686   6.601  0.0098  0.7776  0.2925
 6540SOL    HW231257   0.347   2.623   6.502 -0.6486 -0.5862 -1.3949
 6541SOL     OW31258   4.505   3.843   8.703 -0.0193  0.2701 -0.3226
 6541SOL    HW131259   4.452   3.773   8.664 -1.3090  0.1866  1.6095
 6541SOL    HW231260   4.483   3.917   8.646  0.7066  0.7988  0.0801
 6542SOL     OW31261   0.459   3.307  14.922  0.0926 -0.2334  0.2599
 6542SOL    HW131262   0.547   3.335  14.947  0.1466  0.0130 -0.2080
 6542SOL    HW231263   0.465   3.325  14.828 -2.4350  0.0215  0.1660
 6543SOL     OW31264   1.909   1.090   4.544  0.2087  0.8302 -0.0584
 6543SOL    HW131265   1.820   1.121   4.523 -0.1585  0.9957  1.7346
 6543SOL    HW231266   1.927   1.044   4.462  0.4729 -0.0572  0.5039
 6544SOL     OW31267   3.085   0.896   2.729 -0.3490 -0.0777 -0.2313
 6544SOL    HW131268   3.108   0.940   2.647  3.1106 -1.0142  0.2398
 6544SOL    HW231269   3.008   0.952   2.739 -0.0050  0.4346 -0.4267
 6545SOL     OW31270   4.065   4.464   5.005  0.2715 -0.5397  0.1711
 6545SOL    HW131271   4.020   4.534   5.052 -1.2345 -1.3926  0.0153
 6545SOL    HW231272   4.155   4.494   5.019  0.2688 -0.9966  1.1666
 6546SOL     OW31273   1.484   1.243   2.493 -0.1792  0.0198  0.0085
 6546SOL    HW131274   1.415   1.176   2.490  0.3612 -0.5500  0.3262
 6546SOL    HW231275   1.454   1.280   2.409 -1.3377 -0.8144  0.0508
 6547SOL     OW31276   0.337   1.682   4.140 -0.1652  0.3220  0.2577
 6547SOL    HW131277   0.360   1.590   4.135 -1.5124 -0.0710  1.3597
 6547SOL    HW231278   0.314   1.707   4.050  2.5774  1.1880 -0.2102
 6548SOL     OW31279   2.082   1.515   1.693  0.2785 -0.4817 -0.0740
 6548SOL    HW131280   2.032   1.464   1.628  0.3504  0.0494 -0.5383
 6548SOL    HW231281   2.014   1.581   1.707  0.3249 -0.2129 -1.1145
 6549SOL     OW31282   2.968   2.948   8.268  0.1065  0.4657 -0.8428
 6549SOL    HW131283   2.959   3.031   8.222 -0.5741  2.7637  3.4058
 6549SOL    HW231284   2.926   2.977   8.349 -0.8837  2.6067 -2.1400
 6550SOL     OW31285   3.249   2.170   7.422 -0.1707  0.0332 -0.1292
 6550SOL    HW131286   3.250   2.264   7.441  1.7599  0.5271 -2.7037
 6550SOL    HW231287   3.326   2.169   7.364  0.2341  0.4612  0.4001
 6551SOL     OW31288   2.246   4.706  16.373 -0.1464 -0.3830  0.5057
 6551SOL    HW131289   2.296   4.699  16.292 -1.9195 -1.5727 -0.4972
 6551SOL    HW231290   2.229   4.615  16.397  2.5463 -0.7718  0.9504
 6552SOL     OW31291   2.852   0.842   3.091  0.1411  0.8459  0.1135
 6552SOL    HW131292   2.832   0.800   3.175  2.2957 -1.2751 -0.4220
 6552SOL    HW231293   2.835   0.768   3.032 -0.6747  2.4225 -1.6197
 6553SOL     OW31294   2.030   0.414   0.831 -0.1198  0.2629 -0.5466
 6553SOL    HW131295   2.004   0.484   0.891 -1.5926 -0.6077 -0.1816
 6553SOL    HW231296   1.947   0.380   0.799 -0.2537  0.5167 -0.4676
 6554SOL     OW31297   2.799   4.280   8.050  0.3263  0.1268  0.4539
 6554SOL    HW131298   2.816   4.210   8.114 -0.0871  0.2520  0.6985
 6554SOL    HW231299   2.765   4.232   7.975  0.1731  0.0944  0.5434
 6555SOL     OW31300   1.794   2.540   9.190  0.2304  0.1082 -0.4781
 6555SOL    HW131301   1.890   2.534   9.189  0.2933  1.4555 -2.3468
 6555SOL    HW231302   1.773   2.595   9.115 -3.4127 -0.0988  0.4177
 6556SOL     OW31303   4.475   3.232   5.767  0.7626  0.3998 -0.8768
 6556SOL    HW131304   4.437   3.181   5.695 -1.0265 -1.1846  1.1821
 6556SOL    HW231305   4.417   3.207   5.839  0.3080  3.6530 -0.1186
 6557SOL     OW31306   0.271   2.234   5.676 -0.6344 -0.1372  0.1935
 6557SOL    HW131307   0.291   2.141   5.686  1.3338  0.4420  1.8319
 6557SOL    HW231308   0.191   2.250   5.727  0.6926 -0.5836  2.4202
 6558SOL     OW31309   3.005   2.448   7.000 -0.6311 -0.5792  0.3692
 6558SOL    HW131310   2.919   2.480   7.026  0.5845  2.1584  1.0602
 6558SOL    HW231311   3.051   2.441   7.084 -1.8566 -1.1630  0.9831
 6559SOL     OW31312   1.394   0.540   1.648 -0.5824 -0.6480  0.2276
 6559SOL    HW131313   1.424   0.627   1.622 -1.0220 -0.9242 -1.2011
 6559SOL    HW231314   1.452   0.527   1.723 -0.3656 -0.0595  0.1621
 6560SOL     OW31315   3.409   0.315  11.490 -0.0592 -0.0539  0.1502
 6560SOL    HW131316   3.421   0.224  11.518  0.9755  1.0509  3.3423
 6560SOL    HW231317   3.434   0.310  11.398 -0.9402 -1.5772 -0.0069
 6561SOL     OW31318   0.879   0.013  13.505 -0.9296 -0.3400  0.1078
 6561SOL    HW131319   0.880   4.673  13.451  3.4483  0.1742 -0.5741
 6561SOL    HW231320   0.855   4.713  13.589  1.4112  0.6043  1.2197
 6562SOL     OW31321   4.044   1.755   8.515 -0.4637  0.2322 -0.4394
 6562SOL    HW131322   4.139   1.765   8.516 -0.4607  0.2627 -1.1503
 6562SOL    HW231323   4.025   1.717   8.601 -0.4035 -0.0663 -0.5558
 6563SOL     OW31324   3.110   2.401   5.857 -0.2574  0.2160  0.2116
 6563SOL    HW131325   3.134   2.317   5.817 -0.7580  0.7642 -1.2487
 6563SOL    HW231326   3.131   2.455   5.781 -2.6339 -0.4768 -0.9580
 6564SOL     OW31327   3.017   2.949   5.497  0.5238 -0.0297  0.1206
 6564SOL    HW131328   2.962   2.884   5.454 -0.3591  1.2890 -0.7492
 6564SOL    HW231329   3.028   2.998   5.415 -0.7492 -1.1591 -0.7213
 6565SOL     OW31330   2.059   4.132   4.904  0.1648 -0.1069 -0.3316
 6565SOL    HW131331   2.052   4.114   4.998 -0.8400  1.3546 -0.1111
 6565SOL    HW231332   2.154   4.138   4.898  0.2094 -1.0904 -0.5046
 6566SOL     OW31333   2.190   1.287   6.456 -0.0583  0.2017 -0.1478
 6566SOL    HW131334   2.258   1.274   6.522  1.2680 -1.5715 -1.8496
 6566SOL    HW231335   2.235   1.362   6.415  1.3292  0.0694  1.1263
 6567SOL     OW31336   1.251   1.871   2.233 -0.4556  0.5884  0.3267
 6567SOL    HW131337   1.168   1.858   2.280 -0.3738 -1.2846 -0.0531
 6567SOL    HW231338   1.287   1.950   2.273 -0.1762  0.7866 -0.3137
 6568SOL     OW31339   0.099   3.569   9.372  0.4257  0.7382  0.1095
 6568SOL    HW131340   0.187   3.601   9.393  0.5974 -3.7232  5.9506
 6568SOL    HW231341   0.056   3.650   9.345  0.2328  0.3535 -0.7430
 6569SOL     OW31342   0.403   3.134   3.970 -0.3843  0.1934 -0.1396
 6569SOL    HW131343   0.390   3.083   3.890  0.5205 -0.9191  0.4259
 6569SOL    HW231344   0.314   3.156   3.997 -0.1897 -0.6637  1.1950
 6570SOL     OW31345   1.570   2.600   3.214  0.4505  0.6168 -0.2251
 6570SOL    HW131346   1.537   2.514   3.241  0.5094  1.0774  1.3246
 6570SOL    HW231347   1.527   2.655   3.279  1.0850 -0.6613  1.2684
 6571SOL     OW31348   1.825   0.596   5.882  0.9278 -0.3648 -0.5909
 6571SOL    HW131349   1.829   0.550   5.799 -1.4234 -0.2051 -0.7861
 6571SOL    HW231350   1.886   0.547   5.937  0.0103 -0.3077  0.4981
 6572SOL     OW31351   0.224   3.594   6.591  0.2727  0.6472 -0.3444
 6572SOL    HW131352   0.230   3.534   6.517  1.1612 -0.4121  0.6024
 6572SOL    HW231353   0.298   3.563   6.642 -1.9478 -1.6648  1.4987
 6573SOL     OW31354   3.859   4.536   9.089 -0.3885 -0.3251 -0.1826
 6573SOL    HW131355   3.945   4.503   9.061  0.3521  1.8004 -0.4484
 6573SOL    HW231356   3.812   4.542   9.006  2.0044  2.1074 -1.3733
 6574SOL     OW31357   1.066   1.694   4.315 -0.0366  0.2167  0.5951
 6574SOL    HW131358   1.073   1.694   4.411  0.6884 -0.0935  0.5445
 6574SOL    HW231359   0.984   1.741   4.302 -0.9508 -2.2940 -2.3941
 6575SOL     OW31360   1.944   0.432  14.756 -0.1855  0.2154 -0.0310
 6575SOL    HW131361   1.914   0.373  14.686 -2.9830 -0.3663  1.6431
 6575SOL    HW231362   2.000   0.491  14.706  0.4204 -0.5038 -0.1944
 6576SOL     OW31363   4.408   1.832  16.854 -0.3560 -0.5888 -0.1095
 6576SOL    HW131364   4.478   1.888  16.818 -0.7806  0.8329  1.2466
 6576SOL    HW231365   4.420   1.836  16.949  2.7270  0.5709 -0.5357
 6577SOL     OW31366   0.770   2.415  16.790 -0.5268 -0.4822 -0.3940
 6577SOL    HW131367   0.728   2.376  16.713  0.3628  0.9389 -1.5825
 6577SOL    HW231368   0.700   2.476  16.813  0.4655  0.2006  0.8183
 6578SOL     OW31369   1.584   4.292  11.058  0.2393  0.1081  0.1345
 6578SOL    HW131370   1.663   4.346  11.060  1.3908 -1.5784  0.2378
 6578SOL    HW231371   1.549   4.321  11.142  2.0653 -3.6735  2.2174
 6579SOL     OW31372   0.602   3.341   2.400  0.0222 -0.0535  0.3127
 6579SOL    HW131373   0.693   3.337   2.370 -1.1869 -2.6779 -3.0540
 6579SOL    HW231374   0.615   3.340   2.495 -1.5002  3.0248  0.5785
 6580SOL     OW31375   2.303   1.007  10.117 -0.1598 -0.1062  0.1587
 6580SOL    HW131376   2.320   1.029  10.026  0.3090  3.3846  1.0961
 6580SOL    HW231377   2.389   0.975  10.145  0.7273  1.1776 -1.1028
 6581SOL     OW31378   3.083   4.573   2.460 -0.0644 -1.0918 -0.4798
 6581SOL    HW131379   3.145   4.589   2.389 -0.3879  2.5143  0.0416
 6581SOL    HW231380   3.007   4.626   2.436  0.5614  0.0873  0.0909
 6582SOL     OW31381   2.031   3.149  10.879 -0.5884 -0.1365  0.2790
 6582SOL    HW131382   2.064   3.064  10.851  3.1852  1.1903  0.6132
 6582SOL    HW231383   2.100   3.207  10.846 -0.0783 -1.1913 -0.5095
 6583SOL     OW31384   0.237   2.567   8.193  0.2128  0.3569 -0.4099
 6583SOL    HW131385   0.326   2.549   8.225 -0.9399 -0.3047  2.3627
 6583SOL    HW231386   0.234   2.535   8.103 -1.2161  0.4194 -0.3711
 6584SOL     OW31387   4.223   3.728  15.608 -0.0502  0.5830 -0.2446
 6584SOL    HW131388   4.276   3.653  15.579 -0.3118  0.5126 -0.5464
 6584SOL    HW231389   4.194   3.697  15.694  0.2274 -2.0773 -1.0944
 6585SOL     OW31390   2.802   1.493   7.165 -0.3468  0.3513 -0.4333
 6585SOL    HW131391   2.734   1.467   7.103 -1.4715 -2.7628  2.1218
 6585SOL    HW231392   2.785   1.588   7.168  0.7267  0.5261  0.0396
 6586SOL     OW31393   2.747   3.260   1.143  0.1472 -0.2848 -0.7743
 6586SOL    HW131394   2.834   3.226   1.162  0.2910 -1.2062 -3.1153
 6586SOL    HW231395   2.698   3.180   1.122  1.3964 -1.1513 -0.3405
 6587SOL     OW31396   0.371   2.955  13.718 -0.0434 -0.1611  0.1371
 6587SOL    HW131397   0.428   3.025  13.750 -0.1744 -0.2186  0.5042
 6587SOL    HW231398   0.366   2.972  13.624  1.1279 -0.0521  0.1029
 6588SOL     OW31399   0.631   1.957   4.407  0.5174 -0.0670  0.4683
 6588SOL    HW131400   0.574   1.900   4.355 -0.8777 -0.9677  2.9714
 6588SOL    HW231401   0.580   1.970   4.487  2.2435 -2.9655  2.0214
 6589SOL     OW31402   0.480   2.333   6.989 -0.0743  0.4522  0.0676
 6589SOL    HW131403   0.541   2.369   6.926  0.7377 -2.2737 -0.6936
 6589SOL    HW231404   0.412   2.299   6.930  0.9077 -0.7500 -0.3675
 6590SOL     OW31405   2.597   2.025   3.324 -0.1642  0.4785  0.0901
 6590SOL    HW131406   2.689   2.018   3.349 -0.7988  1.0647  2.5680
 6590SOL    HW231407   2.569   1.933   3.329  1.6466 -0.0029  1.0986
 6591SOL     OW31408   1.318   0.224   4.039  0.2742  0.2984 -0.1825
 6591SOL    HW131409   1.343   0.273   3.961  1.8272  0.0121  0.1251
 6591SOL    HW231410   1.402   0.245   4.081 -0.3940  2.4690  0.0486
 6592SOL     OW31411   1.903   4.733   7.520 -0.0002 -1.5428  0.6722
 6592SOL    HW131412   1.882   0.018   7.429  2.1048  1.0947  0.8670
 6592SOL    HW231413   1.979   0.052   7.528  0.4744 -1.7856 -1.8272
 6593SOL     OW31414   2.882   1.085   5.641  0.3368 -0.1788  0.4609
 6593SOL    HW131415   2.829   1.163   5.658 -1.0413 -0.5193 -2.3605
 6593SOL    HW231416   2.847   1.055   5.557  1.0557  0.4146 -0.0492
 6594SOL     OW31417   2.841   2.039   3.431 -0.6913  0.3668 -0.3849
 6594SOL    HW131418   2.906   2.064   3.495  0.1070 -1.6075 -0.4219
 6594SOL    HW231419   2.839   1.944   3.445 -1.3757  0.5546  0.7767
 6595SOL     OW31420   4.067   1.366   9.571 -0.1663  0.1190  0.5393
 6595SOL    HW131421   4.117   1.447   9.575 -0.4622  0.2423  1.9527
 6595SOL    HW231422   4.104   1.327   9.651  0.0441  1.2423  0.9899
 6596SOL     OW31423   3.515   0.683   6.491  0.7022  0.2171  0.3900
 6596SOL    HW131424   3.551   0.714   6.574  3.1812 -2.6455  0.3450
 6596SOL    HW231425   3.450   0.751   6.473 -0.2268 -0.6372  0.5291
 6597SOL     OW31426   3.110   2.583   3.545 -0.3542  0.4088  0.3415
 6597SOL    HW131427   3.105   2.523   3.619  1.0960  2.5958  2.2446
 6597SOL    HW231428   3.023   2.621   3.538 -0.4050  0.0507 -0.9390
 6598SOL     OW31429   4.312   1.672   4.232 -0.5794 -0.6181 -0.3575
 6598SOL    HW131430   4.220   1.697   4.234 -0.4445 -0.3441  2.9986
 6598SOL    HW231431   4.358   1.744   4.276  1.3245 -2.7968  1.2486
 6599SOL     OW31432   1.467   3.534   5.587 -0.5364 -0.2172  0.0891
 6599SOL    HW131433   1.469   3.609   5.527 -0.4215  1.1462  1.7915
 6599SOL    HW231434   1.472   3.457   5.531 -1.5010  0.5004 -0.9999
 6600SOL     OW31435   2.098   0.194   6.051 -0.0795 -0.0624  0.1002
 6600SOL    HW131436   2.164   0.185   6.120 -1.3294 -2.5657  0.9699
 6600SOL    HW231437   2.033   0.137   6.092 -0.9700  2.9096  2.8455
 6601SOL     OW31438   0.627   2.043   8.437 -0.1359 -0.2841 -0.7082
 6601SOL    HW131439   0.545   2.091   8.425  1.1992  2.0714 -0.5530
 6601SOL    HW231440   0.652   2.040   8.344 -0.6314  0.4637 -0.8662
 6602SOL     OW31441   3.705   1.421   2.519 -0.2466 -0.5821  0.7004
 6602SOL    HW131442   3.767   1.440   2.590  0.8353 -1.1750 -0.0833
 6602SOL    HW231443   3.766   1.411   2.445  1.3030  0.8192  1.7709
 6603SOL     OW31444   2.279   3.402  12.326  0.3301 -0.4065  0.0494
 6603SOL    HW131445   2.199   3.384  12.376 -3.1404  1.7615 -4.7675
 6603SOL    HW231446   2.241   3.439  12.246  0.8534 -0.7115 -0.3416
 6604SOL     OW31447   2.967   3.187   6.935 -0.0727  0.0266 -0.6586
 6604SOL    HW131448   3.048   3.137   6.946  1.2197  2.0660 -0.8808
 6604SOL    HW231449   2.937   3.160   6.848 -4.5809  0.1292  0.8330
 6605SOL     OW31450   2.820   4.333   6.012 -0.0027 -0.7919  0.0852
 6605SOL    HW131451   2.727   4.334   6.037 -0.3044  0.0485 -1.1206
 6605SOL    HW231452   2.829   4.238   6.004 -1.7088 -0.6523 -3.3670
 6606SOL     OW31453   2.741   1.273   2.159 -0.1990 -0.1151 -0.2510
 6606SOL    HW131454   2.749   1.187   2.117 -1.2772 -0.1543 -0.3763
 6606SOL    HW231455   2.682   1.328   2.108 -0.1116  0.1290 -0.0908
 6607SOL     OW31456   3.192   4.307   4.191 -0.0389  0.3949  0.0523
 6607SOL    HW131457   3.127   4.374   4.169 -0.0484  0.2635 -0.3041
 6607SOL    HW231458   3.178   4.247   4.118  0.0730 -1.6215  1.6772
 6608SOL     OW31459   4.247   1.456   4.537 -0.3014  0.1990 -0.8970
 6608SOL    HW131460   4.199   1.415   4.610  0.6783 -3.1981 -2.1685
 6608SOL    HW231461   4.247   1.548   4.564  1.7081 -0.7248  2.2151
 6609SOL     OW31462   3.381   2.429   5.588 -0.5880  0.8210  0.0848
 6609SOL    HW131463   3.405   2.495   5.654  4.2565 -0.5618 -0.2662
 6609SOL    HW231464   3.288   2.451   5.587 -0.2268  2.3287 -0.4230
 6610SOL     OW31465   2.552   4.264   8.274 -0.2298 -0.5766 -0.6358
 6610SOL    HW131466   2.468   4.236   8.238 -0.5852 -2.9281  2.0017
 6610SOL    HW231467   2.527   4.330   8.338  1.1505 -2.7932  2.2279
 6611SOL     OW31468   0.261   2.835   7.901  0.1150 -0.0953 -0.9260
 6611SOL    HW131469   0.340   2.813   7.950 -1.0357  3.3989  2.5512
 6611SOL    HW231470   0.283   2.800   7.815  0.7211 -2.1139  0.0467
 6612SOL     OW31471   0.369   3.065  10.946 -0.1877  0.3956  0.1898
 6612SOL    HW131472   0.430   3.105  11.009 -0.4710 -0.0507  0.7489
 6612SOL    HW231473   0.395   3.092  10.858  1.6096  0.2746  0.6876
 6613SOL     OW31474   3.776   0.825  16.541  0.2152 -0.1773 -0.1996
 6613SOL    HW131475   3.849   0.848  16.598 -1.7788  3.9761  0.6530
 6613SOL    HW231476   3.817   0.756  16.488 -0.1951 -0.0053 -0.7389
 6614SOL     OW31477   4.309   3.272   3.007 -0.3245 -0.2553 -0.1452
 6614SOL    HW131478   4.298   3.218   3.085 -3.3430 -1.0618 -1.1151
 6614SOL    HW231479   4.395   3.251   2.972  0.3850 -1.6085  2.4906
 6615SOL     OW31480   1.030   4.231   8.350 -0.1223 -0.1801  0.7297
 6615SOL    HW131481   1.083   4.274   8.417  0.4429  1.9466 -1.0631
 6615SOL    HW231482   1.027   4.303   8.287  0.4368 -2.3235 -1.7291
 6616SOL     OW31483   0.215   0.870  15.694  0.1098 -0.3339 -0.4837
 6616SOL    HW131484   0.287   0.863  15.630 -0.3736  0.7366 -1.1472
 6616SOL    HW231485   0.142   0.881  15.633  0.2373  1.7239 -0.2822
 6617SOL     OW31486   1.827   0.125   7.810 -0.0069  0.2743  0.4692
 6617SOL    HW131487   1.887   0.081   7.870  0.9438 -0.7995 -1.2532
 6617SOL    HW231488   1.881   0.127   7.730 -0.5299  0.3370  0.1172
 6618SOL     OW31489   3.002   0.742   2.061  0.4652 -0.3422 -0.1984
 6618SOL    HW131490   3.052   0.765   1.982  0.6306  2.1951  0.6645
 6618SOL    HW231491   3.019   0.648   2.069 -1.4015 -0.5184  1.5099
 6619SOL     OW31492   2.704   0.905   7.380  0.1022  0.2093  0.1546
 6619SOL    HW131493   2.638   0.968   7.409  1.5447  0.9965  1.7607
 6619SOL    HW231494   2.770   0.968   7.351 -0.0411  0.9243  1.3511
 6620SOL     OW31495   0.046   2.303   2.589  0.2031 -0.3417 -0.7456
 6620SOL    HW131496   0.071   2.356   2.513  1.7165 -1.0544 -0.7487
 6620SOL    HW231497   0.102   2.225   2.594  3.5339  2.2658  2.3477
 6621SOL     OW31498   1.449   4.692   9.440 -0.0046  0.2987 -0.6377
 6621SOL    HW131499   1.418   4.624   9.499 -0.3237  2.0167  1.1633
 6621SOL    HW231500   1.458   4.643   9.358  0.5110  0.1076 -0.4689
 6622SOL     OW31501   3.235   3.995  11.956 -0.2250  0.5873 -0.4500
 6622SOL    HW131502   3.329   3.977  11.950 -0.0893  0.8973  0.8286
 6622SOL    HW231503   3.213   3.918  12.009  1.0276  0.7663  0.3457
 6623SOL     OW31504   1.274   4.397   2.098 -0.1465 -0.2264 -0.4077
 6623SOL    HW131505   1.195   4.452   2.099 -0.4139 -0.6488  1.9557
 6623SOL    HW231506   1.284   4.373   2.006 -0.0816  1.0937 -0.7368
 6624SOL     OW31507   1.697   4.607  16.764 -0.2278 -0.5453 -0.0669
 6624SOL    HW131508   1.672   4.694  16.794  1.0246 -0.1963 -0.0259
 6624SOL    HW231509   1.736   4.575  16.845  1.0893 -1.4319 -1.0400
 6625SOL     OW31510   1.439   4.518   0.329 -0.0322 -0.1019 -0.4077
 6625SOL    HW131511   1.434   4.489   0.420 -0.6923  0.3781 -0.2959
 6625SOL    HW231512   1.400   4.438   0.295  2.3163  0.2714 -4.0286
 6626SOL     OW31513   0.045   1.866  11.172  0.0809  0.4715 -0.2618
 6626SOL    HW131514   0.050   1.950  11.219  1.2766  0.6803 -0.7581
 6626SOL    HW231515   4.722   1.813  11.221  1.2254 -0.3337  0.3085
 6627SOL     OW31516   0.632   2.589   8.123 -0.7604  0.9022 -0.2863
 6627SOL    HW131517   0.595   2.647   8.056 -0.7496  1.9205  0.5800
 6627SOL    HW231518   0.695   2.652   8.159 -1.0142 -0.0899  1.9284
 6628SOL     OW31519   1.090   1.219   7.571 -0.1166  0.2375  0.3038
 6628SOL    HW131520   1.016   1.187   7.521 -0.2316 -1.7873  1.7836
 6628SOL    HW231521   1.134   1.135   7.584 -2.2331 -0.4369  3.2964
 6629SOL     OW31522   3.674   3.993   8.476  0.7165 -0.4948  0.2413
 6629SOL    HW131523   3.634   3.906   8.469  1.9632 -1.2874  2.9593
 6629SOL    HW231524   3.747   3.985   8.537  1.8347  2.2090 -0.7575
 6630SOL     OW31525   4.152   1.299  12.799  0.2339  0.2072 -0.2650
 6630SOL    HW131526   4.232   1.283  12.750  0.6881  0.5974  0.3517
 6630SOL    HW231527   4.119   1.209  12.801  1.0719 -0.0711  1.2047
 6631SOL     OW31528   1.561   1.117   9.258  0.0930  0.2312 -0.5345
 6631SOL    HW131529   1.477   1.158   9.235 -0.7133 -0.3848  1.3712
 6631SOL    HW231530   1.621   1.172   9.208  0.8277 -0.5919 -0.5488
 6632SOL     OW31531   3.562   4.642   5.304  0.3932 -0.1779  0.4703
 6632SOL    HW131532   3.525   4.618   5.389 -2.8182  0.1535 -0.8285
 6632SOL    HW231533   3.650   4.667   5.332  0.3537  0.8941 -0.3315
 6633SOL     OW31534   0.797   0.707   5.771 -0.0178  0.3343  0.4996
 6633SOL    HW131535   0.766   0.772   5.708  0.3589 -1.7664 -1.8634
 6633SOL    HW231536   0.873   0.672   5.725  0.4488  0.0205  1.4979
 6634SOL     OW31537   4.206   4.532   6.584  0.1010  0.4054 -0.5669
 6634SOL    HW131538   4.228   4.613   6.538  0.2143  0.1045 -1.0326
 6634SOL    HW231539   4.244   4.551   6.670  0.3264  1.5060 -0.9072
 6635SOL     OW31540   4.166   4.718   6.840 -0.3026 -0.1246  0.3051
 6635SOL    HW131541   4.153   4.737   6.933 -0.5661 -1.5793  0.5606
 6635SOL    HW231542   4.256   4.687   6.833 -0.9750 -1.9799  0.0335
 6636SOL     OW31543   4.036   4.284  16.800  0.0748  0.1869  0.3592
 6636SOL    HW131544   4.040   4.234  16.718  1.2890 -1.1016  1.2097
 6636SOL    HW231545   3.944   4.283  16.825  0.0395 -0.0491  0.2245
 6637SOL     OW31546   4.738   2.615   1.394  0.4074  0.3449  0.4314
 6637SOL    HW131547   4.710   2.703   1.368 -0.5144 -0.7985 -2.4459
 6637SOL    HW231548   0.073   2.593   1.338 -0.4464 -0.9127 -0.2081
 6638SOL     OW31549   0.870   2.855   4.951  0.0501  0.0619 -0.2863
 6638SOL    HW131550   0.817   2.822   4.879 -1.4762  1.1993  0.3042
 6638SOL    HW231551   0.948   2.883   4.904  0.9386  1.7476  2.1697
 6639SOL     OW31552   4.681   4.511   4.996  0.1139  0.0223  0.7883
 6639SOL    HW131553   4.702   4.418   4.993  2.1501  0.5117 -0.2530
 6639SOL    HW231554   4.654   4.521   5.088  1.1406 -0.5243  1.1439
 6640SOL     OW31555   3.235   0.470   9.392  0.1312 -0.2627 -0.4636
 6640SOL    HW131556   3.216   0.378   9.378 -0.5484 -0.5942  2.7187
 6640SOL    HW231557   3.318   0.495   9.351 -0.4744  1.1861 -0.8319
 6641SOL     OW31558   1.913   3.255  11.099 -0.6570 -1.1024  0.1366
 6641SOL    HW131559   1.956   3.228  11.018 -1.6570  0.4348 -0.9047
 6641SOL    HW231560   1.983   3.297  11.149 -0.1767 -1.4413 -0.2381
 6642SOL     OW31561   0.557   4.156   1.927  0.0145  0.3163 -0.4181
 6642SOL    HW131562   0.593   4.081   1.975  0.9016  1.5997  0.9275
 6642SOL    HW231563   0.495   4.183   1.994 -1.6616 -3.0747 -0.6347
 6643SOL     OW31564   2.320   1.776   2.517  0.0792  0.0328  0.5580
 6643SOL    HW131565   2.383   1.814   2.456 -0.0439 -0.6185  0.0388
 6643SOL    HW231566   2.236   1.788   2.473  0.6185  0.8626 -0.2376
 6644SOL     OW31567   0.036   3.623  10.304 -0.2338 -0.1655  0.3409
 6644SOL    HW131568   0.006   3.664  10.385  0.0856  0.1522  0.2977
 6644SOL    HW231569   4.729   3.539  10.312  0.7382 -0.5812  1.5679
 6645SOL     OW31570   2.418   1.678   7.790 -0.3179  0.1469  0.2971
 6645SOL    HW131571   2.415   1.761   7.837  2.4458  1.0362 -1.0890
 6645SOL    HW231572   2.506   1.642   7.804 -0.1097  0.2963 -0.6457
 6646SOL     OW31573   1.257   0.180   8.106 -0.2612 -1.1599  0.4422
 6646SOL    HW131574   1.195   0.107   8.112  2.2474 -3.2787  1.0123
 6646SOL    HW231575   1.320   0.155   8.037 -1.7836  0.3368 -1.4656
 6647SOL     OW31576   2.121   0.810   5.029 -0.4630  0.8737  0.3126
 6647SOL    HW131577   2.057   0.848   5.088  0.8867 -0.8381  2.8844
 6647SOL    HW231578   2.208   0.835   5.060 -0.2617  0.4870  0.0743
 6648SOL     OW31579   3.065   1.110   4.720 -0.3857 -0.0579 -0.0969
 6648SOL    HW131580   3.149   1.091   4.763  0.2947  0.5525 -1.1406
 6648SOL    HW231581   3.054   1.203   4.743 -1.4461 -0.2847  0.2886
 6649SOL     OW31582   4.153   4.064   7.420 -0.5047 -0.0415  0.7450
 6649SOL    HW131583   4.174   4.099   7.506 -2.6840 -0.4004  1.4236
 6649SOL    HW231584   4.135   3.973   7.440  3.5276 -1.2464 -1.1856
 6650SOL     OW31585   2.908   2.363  16.506  0.0427  0.5527  0.0143
 6650SOL    HW131586   2.872   2.277  16.525 -1.0194  1.2737  1.2647
 6650SOL    HW231587   2.996   2.357  16.544 -0.8006  1.1432  2.0665
 6651SOL     OW31588   3.534   2.879   6.099 -0.5004 -0.3525 -0.7250
 6651SOL    HW131589   3.455   2.833   6.126 -0.4318  0.5004  0.9458
 6651SOL    HW231590   3.492   2.940   6.038 -0.7150 -0.9903 -1.2126
 6652SOL     OW31591   1.843   0.556   3.088 -0.2898 -0.2151 -0.4181
 6652SOL    HW131592   1.928   0.535   3.051 -0.8848 -1.9000 -0.8637
 6652SOL    HW231593   1.871   0.547   3.179 -0.6355 -0.5969 -0.3494
 6653SOL     OW31594   1.204   3.037   3.968  0.0069 -0.0989 -0.5144
 6653SOL    HW131595   1.192   3.044   4.062  1.1621 -0.8440 -0.3146
 6653SOL    HW231596   1.155   2.956   3.954  1.0687 -0.4849 -2.0429
 6654SOL     OW31597   1.068   3.428  17.649  0.1713  0.5550 -0.3083
 6654SOL    HW131598   1.103   3.514  17.674  1.6270  0.0916 -0.7366
 6654SOL    HW231599   0.996   3.457  17.593  0.1289 -1.2924 -1.2161
 6655SOL     OW31600   3.469   1.712   5.414  0.3848 -0.4951 -0.4216
 6655SOL    HW131601   3.411   1.662   5.357 -0.1248 -0.4031  0.0110
 6655SOL    HW231602   3.406   1.779   5.444 -0.2156 -0.3160 -2.0466
 6656SOL     OW31603   0.809   1.797  11.289 -0.4065 -0.5984  0.0400
 6656SOL    HW131604   0.839   1.744  11.363 -0.9698 -0.8165  0.1113
 6656SOL    HW231605   0.857   1.747  11.224  1.8326 -0.0076  1.2440
 6657SOL     OW31606   0.440   0.744   9.609  0.0970 -0.2506 -0.0279
 6657SOL    HW131607   0.458   0.799   9.685  2.5108 -0.6896 -0.2824
 6657SOL    HW231608   0.445   0.800   9.531 -2.0947 -0.0305 -0.0216
 6658SOL     OW31609   2.954   2.273   2.955  0.1822 -0.1837 -0.0562
 6658SOL    HW131610   2.977   2.218   3.030 -1.8716 -0.2733  0.5039
 6658SOL    HW231611   2.993   2.224   2.882 -1.4580 -1.5014 -0.0478
 6659SOL     OW31612   0.375   2.262   8.982 -0.1002 -0.4472  0.0893
 6659SOL    HW131613   0.343   2.208   8.910 -1.4477  2.5669 -1.6092
 6659SOL    HW231614   0.450   2.209   9.009 -0.1556 -0.4256  0.2825
 6660SOL     OW31615   3.004   1.821   6.770  0.5877 -0.3958 -0.2013
 6660SOL    HW131616   3.069   1.892   6.771 -0.1541  0.2909 -1.3139
 6660SOL    HW231617   3.025   1.779   6.853 -0.1791 -0.4712 -0.0521
 6661SOL     OW31618   2.566   1.079   2.286 -0.1168 -0.4917  0.1134
 6661SOL    HW131619   2.524   1.165   2.284  1.1767  0.1851  2.5397
 6661SOL    HW231620   2.515   1.031   2.221  0.8665 -0.1643 -0.9164
 6662SOL     OW31621   3.380   3.845  12.531  0.0452 -0.2890  0.2613
 6662SOL    HW131622   3.336   3.844  12.446 -0.7500 -1.9049  0.6828
 6662SOL    HW231623   3.440   3.771  12.520  0.0421 -0.0756 -1.2245
 6663SOL     OW31624   0.582   3.833  11.408 -0.2796  0.0242  0.2410
 6663SOL    HW131625   0.602   3.784  11.487  2.6838  1.4392  0.3453
 6663SOL    HW231626   0.507   3.783  11.376  0.7141 -1.2829 -0.0330
 6664SOL     OW31627   2.889   4.634   3.763  0.4934 -0.6246  0.6506
 6664SOL    HW131628   2.918   4.655   3.852 -1.6979 -1.3624  1.5285
 6664SOL    HW231629   2.915   4.542   3.765 -0.3100 -0.8852 -1.4249
 6665SOL     OW31630   4.307   1.181   5.541 -0.5655 -0.1484 -0.1011
 6665SOL    HW131631   4.354   1.250   5.587 -2.4069  0.7452  0.4263
 6665SOL    HW231632   4.305   1.213   5.451  1.0589  2.8821  0.9494
 6666SOL     OW31633   1.099   3.570   4.986 -0.2121  0.7992 -0.0226
 6666SOL    HW131634   1.149   3.529   5.057 -2.0589 -2.0957 -0.3967
 6666SOL    HW231635   1.092   3.662   5.012 -1.2875  0.5622  0.5206
 6667SOL     OW31636   1.521   3.491   4.009 -0.3752 -0.1910  0.3914
 6667SOL    HW131637   1.520   3.586   4.025 -1.8196  0.1403 -1.7767
 6667SOL    HW231638   1.516   3.491   3.914 -0.0876  0.4687  0.3774
 6668SOL     OW31639   1.396   0.598   5.782 -0.1425  0.0142 -0.0982
 6668SOL    HW131640   1.319   0.549   5.810 -0.5978  1.3861  1.0691
 6668SOL    HW231641   1.361   0.641   5.704  1.0965 -0.3194 -0.8412
 6669SOL     OW31642   0.694   1.003   9.666  0.1455 -0.0076 -0.0447
 6669SOL    HW131643   0.602   0.978   9.678  0.8566 -2.2421  0.8452
 6669SOL    HW231644   0.705   1.041   9.753  3.7437 -1.0315 -0.0673
 6670SOL     OW31645   1.426   4.539  16.290 -0.3777 -0.0905 -0.2928
 6670SOL    HW131646   1.348   4.494  16.324 -0.8882 -0.4951 -2.0028
 6670SOL    HW231647   1.394   4.629  16.296 -0.4640 -0.1486  0.1969
 6671SOL     OW31648   1.244   4.291   0.710  0.4383 -0.3325  0.3185
 6671SOL    HW131649   1.180   4.251   0.769  0.9786 -0.9698  0.4775
 6671SOL    HW231650   1.201   4.288   0.624  0.2258  0.9467  0.3842
 6672SOL     OW31651   1.910   1.622   4.015  0.2475 -0.0442  0.0535
 6672SOL    HW131652   1.982   1.569   4.049 -2.6769 -3.9461  0.0513
 6672SOL    HW231653   1.834   1.568   3.995  0.0917 -0.0417  0.6177
 6673SOL     OW31654   1.305   3.832   8.654 -0.3995 -0.0807  0.1229
 6673SOL    HW131655   1.314   3.887   8.575  0.4142  1.4517  1.2755
 6673SOL    HW231656   1.289   3.899   8.721  0.9758  1.1945 -0.8051
 6674SOL     OW31657   1.946   4.349   5.205  0.0591  0.1655 -0.3762
 6674SOL    HW131658   1.968   4.258   5.188 -1.4848  0.1175 -2.1367
 6674SOL    HW231659   1.921   4.348   5.297 -0.9249  0.8413 -0.6296
 6675SOL     OW31660   2.916   2.997  12.306  0.8867 -0.0484 -0.1718
 6675SOL    HW131661   2.842   3.048  12.339  0.6066 -0.7094  0.2260
 6675SOL    HW231662   2.997   3.022  12.349 -0.6935  2.5463  1.3190
 6676SOL     OW31663   4.614   2.822   7.190 -0.3510  0.3258  0.1375
 6676SOL    HW131664   4.559   2.825   7.112  0.4584  3.6870 -0.2722
 6676SOL    HW231665   4.620   2.729   7.213 -2.9629  0.4431  1.2436
 6677SOL     OW31666   0.442   2.729   2.299 -0.3044 -1.1066 -0.1568
 6677SOL    HW131667   0.434   2.753   2.392 -1.0166  0.8295 -0.7076
 6677SOL    HW231668   0.438   2.810   2.249  1.4735 -0.1741  1.2437
 6678SOL     OW31669   3.791   1.604   9.189  0.3546 -0.1685 -0.4598
 6678SOL    HW131670   3.883   1.600   9.215  0.1916 -2.1993 -0.2142
 6678SOL    HW231671   3.792   1.588   9.095 -1.6259 -0.6799 -0.3916
 6679SOL     OW31672   4.351   2.421  17.604  0.4309  0.3510 -0.2272
 6679SOL    HW131673   4.335   2.460  17.518  0.1146 -3.1103 -1.7429
 6679SOL    HW231674   4.312   2.334  17.596 -0.9099  0.9981 -0.7902
 6680SOL     OW31675   1.157   1.948   4.789  0.1323  0.0851 -0.6483
 6680SOL    HW131676   1.143   1.990   4.874 -0.4468  0.7911 -1.0957
 6680SOL    HW231677   1.232   1.893   4.813 -0.5549 -0.6126 -0.0897
 6681SOL     OW31678   2.560   0.354  16.777 -0.1482 -0.2252  0.5685
 6681SOL    HW131679   2.521   0.434  16.742  2.1542  0.3254 -0.6932
 6681SOL    HW231680   2.648   0.358  16.742 -0.7763 -1.4952 -1.1610
 6682SOL     OW31681   0.823   2.563   7.784  0.2585  0.1745  0.1687
 6682SOL    HW131682   0.737   2.549   7.744 -0.5148  2.2835  1.1122
 6682SOL    HW231683   0.827   2.489   7.845  0.2119 -1.0319 -1.2898
 6683SOL     OW31684   0.071   4.265   4.620 -0.7546  0.4425 -0.4585
 6683SOL    HW131685   0.128   4.262   4.697 -1.0417 -1.4429 -0.3104
 6683SOL    HW231686   0.129   4.308   4.557 -0.3068 -0.0888 -0.4142
 6684SOL     OW31687   3.007   0.068   7.385 -0.3409  0.4771 -0.3943
 6684SOL    HW131688   3.000   0.036   7.475  0.7074 -0.7945 -0.7660
 6684SOL    HW231689   3.097   0.102   7.387 -1.3813  3.2562 -0.4280
 6685SOL     OW31690   1.248   4.162   1.352 -0.5700  0.0705 -0.0480
 6685SOL    HW131691   1.154   4.172   1.362 -0.2970  3.1607 -0.5126
 6685SOL    HW231692   1.278   4.207   1.431  0.7828 -1.6931  0.4612
 6686SOL     OW31693   1.920   1.454   2.315  0.2599 -0.6300  0.2154
 6686SOL    HW131694   1.835   1.498   2.321  0.6989  0.4967 -2.1543
 6686SOL    HW231695   1.929   1.438   2.221  0.8823 -1.1072  0.3606
 6687SOL     OW31696   3.995   4.196   6.696 -0.2975  1.0827 -0.7184
 6687SOL    HW131697   3.903   4.219   6.687 -0.6018 -0.0682 -0.5639
 6687SOL    HW231698   4.023   4.249   6.770  0.6457 -1.2863  0.6464
 6688SOL     OW31699   1.666   0.698   6.717  0.4313 -0.2904 -0.3028
 6688SOL    HW131700   1.668   0.638   6.642 -0.0014  0.8914 -1.2565
 6688SOL    HW231701   1.664   0.637   6.790 -0.3191 -1.1894 -1.0713
 6689SOL     OW31702   1.383   2.881   4.335  0.2391 -0.4548 -0.3701
 6689SOL    HW131703   1.316   2.946   4.358 -0.2717 -1.1330  0.0449
 6689SOL    HW231704   1.383   2.881   4.239 -0.3955  0.0320 -0.3716
 6690SOL     OW31705   1.421   0.115   9.880 -0.3223  0.6538  0.6957
 6690SOL    HW131706   1.469   0.179   9.932  1.1337 -1.0507  1.4340
 6690SOL    HW231707   1.470   0.121   9.798  0.6764 -2.8454  1.0782
 6691SOL     OW31708   0.251   3.598   7.222  0.0106 -0.0386  0.1288
 6691SOL    HW131709   0.265   3.524   7.281  2.1857 -0.2306 -0.6503
 6691SOL    HW231710   0.184   3.649   7.268 -0.1195 -0.0853 -0.0058
 6692SOL     OW31711   3.228   3.936   7.024  0.3531 -0.0928  0.1823
 6692SOL    HW131712   3.245   4.014   7.078 -3.2719 -1.6699  3.6224
 6692SOL    HW231713   3.224   3.867   7.090  0.7060 -3.0953 -2.9513
 6693SOL     OW31714   0.043   2.736   6.086  0.1515 -0.2143 -0.2693
 6693SOL    HW131715   0.064   2.662   6.142 -1.3522 -2.2312 -2.3696
 6693SOL    HW231716   0.120   2.793   6.091 -0.7465  1.3274 -4.5715
 6694SOL     OW31717   3.744   0.242   9.725  0.2841  0.0539 -0.2267
 6694SOL    HW131718   3.749   0.336   9.739  2.2582  0.1927 -1.9068
 6694SOL    HW231719   3.826   0.221   9.769  0.9054 -0.7271 -1.7523
 6695SOL     OW31720   3.187   0.051   5.570 -0.3660  0.1304 -0.2937
 6695SOL    HW131721   3.251   4.731   5.530  1.0857  2.4109 -1.3721
 6695SOL    HW231722   3.240   0.112   5.620 -0.1552 -0.6758  0.4656
 6696SOL     OW31723   0.258   2.749   8.538  0.0693  0.0076  0.1573
 6696SOL    HW131724   0.276   2.804   8.461 -1.1678  0.8633  0.4730
 6696SOL    HW231725   0.162   2.743   8.532  0.0520  0.4168 -0.0137
 6697SOL     OW31726   3.929   3.815  11.712 -0.5690 -0.0889  0.1792
 6697SOL    HW131727   3.937   3.747  11.779  0.2794  0.1429  0.3196
 6697SOL    HW231728   4.020   3.840  11.693 -0.4905  0.5762  1.4625
 6698SOL     OW31729   0.919   4.656   7.918 -0.7192 -0.6661 -0.0936
 6698SOL    HW131730   0.916   4.736   7.865 -1.8434 -0.3838  0.3981
 6698SOL    HW231731   0.826   4.644   7.938 -0.1692 -3.3629  0.8321
 6699SOL     OW31732   1.315   4.217   6.143 -0.2224  0.4000 -0.0927
 6699SOL    HW131733   1.367   4.147   6.182  0.8787  0.5457 -1.2799
 6699SOL    HW231734   1.288   4.273   6.215 -0.7588 -0.8832  0.6937
 6700SOL     OW31735   4.504   0.590   3.242  0.1703 -0.1851  0.3958
 6700SOL    HW131736   4.436   0.535   3.203 -0.5871  2.2170 -1.6402
 6700SOL    HW231737   4.589   0.573   3.202  0.4331  2.2769 -0.0838
 6701SOL     OW31738   2.205   2.187  10.381  0.0266  0.1380 -0.1562
 6701SOL    HW131739   2.160   2.271  10.395 -0.9133 -0.9109  3.1673
 6701SOL    HW231740   2.259   2.202  10.304  1.1138 -0.9598  0.3929
 6702SOL     OW31741   0.028   1.809   0.688 -0.4963  0.1472  0.5749
 6702SOL    HW131742   0.042   1.798   0.594  0.1354  1.8435  0.4672
 6702SOL    HW231743   4.713   1.888   0.685  1.0014  1.1552  0.3570
 6703SOL     OW31744   0.912   4.378   8.904 -0.2301 -0.3595 -0.1039
 6703SOL    HW131745   0.954   4.293   8.913  1.3573  0.5842  1.3154
 6703SOL    HW231746   0.826   4.355   8.939 -0.6495 -0.1874 -0.9984
 6704SOL     OW31747   2.891   3.556   4.211  0.0027  0.0475  0.3246
 6704SOL    HW131748   2.848   3.474   4.188  2.4061 -0.9541 -0.6366
 6704SOL    HW231749   2.838   3.575   4.288 -0.5818 -1.1966  0.2254
 6705SOL     OW31750   2.566   4.283   1.861  0.2224 -0.3845  0.4338
 6705SOL    HW131751   2.521   4.362   1.830  0.7969 -0.1670  0.1588
 6705SOL    HW231752   2.520   4.212   1.816  1.2642 -2.4482  2.6616
 6706SOL     OW31753   0.697   1.659  12.723 -0.7695  0.1598 -0.6211
 6706SOL    HW131754   0.779   1.656  12.676  0.0426 -0.7430  0.8599
 6706SOL    HW231755   0.643   1.708  12.661 -0.7065 -0.6515 -1.3003
 6707SOL     OW31756   1.815   4.095  16.434 -0.2368  0.0077 -0.8751
 6707SOL    HW131757   1.806   4.087  16.529 -1.4581 -0.9834 -1.0777
 6707SOL    HW231758   1.726   4.103  16.401 -1.1928 -0.9429  1.4998
 6708SOL     OW31759   2.265   3.904   4.072  0.7267  0.3101 -0.3163
 6708SOL    HW131760   2.324   3.947   4.134  1.9855 -2.7926  0.6154
 6708SOL    HW231761   2.322   3.882   3.999  2.4813 -1.9298  1.7070
 6709SOL     OW31762   0.692   2.683   8.816  0.3596 -0.0046  0.5378
 6709SOL    HW131763   0.609   2.657   8.858 -0.5118  0.9188 -0.5984
 6709SOL    HW231764   0.670   2.770   8.782  0.8740 -0.7214 -1.6161
 6710SOL     OW31765   1.919   0.546   5.539  0.4794  0.4065  0.7206
 6710SOL    HW131766   1.919   0.634   5.502 -0.5017 -0.5574 -1.5240
 6710SOL    HW231767   1.942   0.507   5.455 -0.1210  2.7626 -0.5050
 6711SOL     OW31768   1.001   1.942   2.620 -0.8572  0.2023 -0.2027
 6711SOL    HW131769   0.985   1.858   2.663  0.5489  0.7093  1.2809
 6711SOL    HW231770   1.091   1.945   2.588 -0.5314 -4.3496  0.2443
 6712SOL     OW31771   2.265   1.284   2.079  0.5393  0.4637 -0.1486
 6712SOL    HW131772   2.346   1.254   2.037  1.0658 -0.0403  1.2119
 6712SOL    HW231773   2.212   1.271   2.001 -0.8243  0.9401  0.7057
 6713SOL     OW31774   2.073   4.288   8.860  0.2892  0.7234  0.2713
 6713SOL    HW131775   2.087   4.212   8.917 -0.3582  1.3704  1.2910
 6713SOL    HW231776   2.106   4.265   8.774  0.8497  1.5329  0.2745
 6714SOL     OW31777   1.641   1.189   4.188  0.0190 -0.7112  0.1356
 6714SOL    HW131778   1.638   1.145   4.273 -0.1722  0.8966  0.9672
 6714SOL    HW231779   1.716   1.150   4.144  0.4094  1.5745 -1.2248
 6715SOL     OW31780   4.318   0.902  12.767  0.1877 -0.0245 -0.0620
 6715SOL    HW131781   4.343   0.956  12.691  0.8418 -1.3638 -0.8049
 6715SOL    HW231782   4.403   0.858  12.772 -2.0421 -4.6618 -2.1495
 6716SOL     OW31783   1.346   0.226   3.260  0.2375 -0.4817 -0.7970
 6716SOL    HW131784   1.325   0.173   3.182 -1.5881 -0.7774 -0.1164
 6716SOL    HW231785   1.399   0.159   3.302 -1.6482 -1.2621  0.3461
 6717SOL     OW31786   1.494   1.747   5.895  0.3616  0.4835 -0.2938
 6717SOL    HW131787   1.492   1.736   5.800  0.1885 -1.0216 -0.1159
 6717SOL    HW231788   1.413   1.702   5.916  0.8199 -1.0592 -1.8584
 6718SOL     OW31789   0.858   3.482   0.936  1.1504  0.3970 -0.1884
 6718SOL    HW131790   0.921   3.425   0.893 -1.2219 -2.1311 -0.3264
 6718SOL    HW231791   0.795   3.420   0.973  0.3742  0.0264 -2.1313
 6719SOL     OW31792   3.385   1.015   3.048  0.3287 -0.2401 -0.0548
 6719SOL    HW131793   3.295   0.984   3.061  0.1222 -0.8733 -3.1456
 6719SOL    HW231794   3.409   0.955   2.978 -2.4103 -1.5604  0.1125
 6720SOL     OW31795   3.666   0.171   4.265  0.3909 -0.1725 -0.0740
 6720SOL    HW131796   3.705   0.255   4.243  1.3183 -0.5094  0.3127
 6720SOL    HW231797   3.668   0.172   4.360  2.0892  0.9471 -0.1346
 6721SOL     OW31798   0.903   3.031   2.813  0.4891  0.2146  0.7028
 6721SOL    HW131799   0.816   2.999   2.789  0.3629  0.6871  0.5282
 6721SOL    HW231800   0.922   3.081   2.734 -2.5914 -0.5143 -0.5250
 6722SOL     OW31801   3.742   0.856  16.136  0.3711  0.6414 -0.0342
 6722SOL    HW131802   3.692   0.898  16.206 -0.0047  1.9078 -1.0566
 6722SOL    HW231803   3.724   0.766  16.162  2.7179  0.0723 -0.4090
 6723SOL     OW31804   3.858   3.441   4.088  0.1109  0.1284  0.5712
 6723SOL    HW131805   3.845   3.532   4.062 -0.8606 -0.5576 -1.3922
 6723SOL    HW231806   3.857   3.398   4.002  1.0946  0.6842  0.2879
 6724SOL     OW31807   1.823   1.872   7.847  0.2299 -0.3117  0.0152
 6724SOL    HW131808   1.900   1.838   7.801 -0.2990  0.4577 -1.4126
 6724SOL    HW231809   1.878   1.889   7.924 -2.2018 -2.5463  2.2431
 6725SOL     OW31810   4.303   2.031   5.536 -0.6029  0.2069  0.0256
 6725SOL    HW131811   4.285   2.034   5.442 -0.9874 -0.9700  0.0501
 6725SOL    HW231812   4.311   2.125   5.548 -0.1232  0.1973 -0.2282
 6726SOL     OW31813   1.913   1.001   4.811 -0.2502  0.5469  0.5702
 6726SOL    HW131814   1.951   1.066   4.870  0.3789  2.2309 -1.6805
 6726SOL    HW231815   1.900   1.054   4.732  0.5242 -0.0266  0.0651
 6727SOL     OW31816   2.519   2.363   8.298 -0.2306 -0.0896 -0.2643
 6727SOL    HW131817   2.511   2.455   8.323  1.5698  0.0032  0.0103
 6727SOL    HW231818   2.494   2.382   8.208 -2.0235 -2.6119 -0.3166
 6728SOL     OW31819   3.926   2.628   0.477 -0.1319 -0.1547 -0.2938
 6728SOL    HW131820   3.896   2.717   0.492 -2.1393 -1.0674  1.0506
 6728SOL    HW231821   3.908   2.620   0.383 -1.8909  1.4750 -0.0974
 6729SOL     OW31822   4.451   1.731   7.835  0.6785  0.2545 -0.0322
 6729SOL    HW131823   4.374   1.770   7.876  2.4840  2.3635  1.3912
 6729SOL    HW231824   4.490   1.684   7.909  1.3444  5.0091  2.6523
 6730SOL     OW31825   0.560   4.350  11.375 -0.3391  0.3741 -0.4866
 6730SOL    HW131826   0.511   4.433  11.374  2.3308  1.9309 -1.9444
 6730SOL    HW231827   0.624   4.368  11.444 -0.9007  1.1948 -0.1724
 6731SOL     OW31828   3.737   1.699  10.835  0.2113 -0.1305 -0.0153
 6731SOL    HW131829   3.773   1.781  10.870  0.3923  0.5705 -1.8265
 6731SOL    HW231830   3.781   1.627  10.879 -0.7967 -0.6767  0.1120
 6732SOL     OW31831   0.167   4.043   1.457  0.5105 -0.2795 -0.1711
 6732SOL    HW131832   0.092   4.043   1.398  0.0305  0.8785  0.4292
 6732SOL    HW231833   0.219   4.113   1.416  0.3160 -0.8579 -1.4167
 6733SOL     OW31834   2.849   0.436  11.191  0.2612 -0.7014 -0.3970
 6733SOL    HW131835   2.894   0.467  11.270 -0.5091  1.1165 -0.6695
 6733SOL    HW231836   2.922   0.400  11.140  0.2989 -1.7184  0.3839
 6734SOL     OW31837   1.226   0.558  16.173 -0.0040  0.0480  0.1650
 6734SOL    HW131838   1.313   0.579  16.207 -0.2581  0.4983  0.5444
 6734SOL    HW231839   1.165   0.583  16.242  1.3430 -1.9366  2.0410
 6735SOL     OW31840   1.105   1.529  13.532  0.0034  0.0817  0.1560
 6735SOL    HW131841   1.030   1.577  13.496 -0.0871  0.4606  0.8465
 6735SOL    HW231842   1.092   1.550  13.624 -0.7482 -3.3427  0.8125
 6736SOL     OW31843   2.331   3.934   6.804  0.0359 -0.4061 -0.3166
 6736SOL    HW131844   2.348   3.962   6.714  0.2454 -0.1707 -0.2030
 6736SOL    HW231845   2.275   3.859   6.783 -0.1188 -0.1773 -0.7361
 6737SOL     OW31846   4.198   3.473  13.994 -0.1213  0.2520  0.6605
 6737SOL    HW131847   4.119   3.476  13.940  1.4750  3.1383 -1.4742
 6737SOL    HW231848   4.236   3.558  13.972  1.4411 -1.2182 -2.2243
 6738SOL     OW31849   4.070   1.667   8.995 -0.6778 -0.3289  0.1265
 6738SOL    HW131850   4.082   1.653   9.089  2.2008 -3.1683 -0.6808
 6738SOL    HW231851   3.979   1.642   8.975 -0.5476 -0.9486  0.3153
 6739SOL     OW31852   3.124   0.513   1.409 -0.2839  0.1083 -0.3929
 6739SOL    HW131853   3.122   0.591   1.355 -1.3042 -0.5947 -1.3787
 6739SOL    HW231854   3.160   0.452   1.345 -0.2884 -0.6798  0.3362
 6740SOL     OW31855   3.129   1.349   7.521  0.3804  0.2297 -0.3848
 6740SOL    HW131856   3.066   1.333   7.451  0.5380 -0.0734 -0.4537
 6740SOL    HW231857   3.199   1.294   7.487 -0.5844 -1.6792  0.7280
 6741SOL     OW31858   2.436   0.861   4.612  0.1141 -0.1294  0.0303
 6741SOL    HW131859   2.341   0.861   4.598 -0.2720 -2.0947  2.7134
 6741SOL    HW231860   2.463   0.814   4.533  1.8264  1.6724 -0.4630
 6742SOL     OW31861   2.173   0.039   5.665 -0.0196 -0.4428 -0.1221
 6742SOL    HW131862   2.247   0.085   5.704  1.5342 -2.4339 -0.7121
 6742SOL    HW231863   2.160   0.087   5.584 -0.6130  1.8727  1.3708
 6743SOL     OW31864   0.657   1.197   3.700 -0.0216  0.2230 -0.1247
 6743SOL    HW131865   0.596   1.227   3.632 -0.4570 -1.0841 -0.3054
 6743SOL    HW231866   0.608   1.119   3.725  1.0371 -0.9456 -1.5907
 6744SOL     OW31867   1.446   0.891   3.335 -0.4352 -0.4565 -0.2817
 6744SOL    HW131868   1.479   0.868   3.248 -3.4985 -1.1895 -1.2486
 6744SOL    HW231869   1.510   0.845   3.390  0.0120 -0.1211 -0.5194
 6745SOL     OW31870   1.771   3.315  17.666  0.4432  0.3517 -0.5848
 6745SOL    HW131871   1.750   3.235  17.618 -0.0136  0.0819  0.0764
 6745SOL    HW231872   1.803   3.280  17.749  0.0991 -0.4304 -0.7807
 6746SOL     OW31873   0.584   0.616   8.142 -0.0209 -0.1194  0.2605
 6746SOL    HW131874   0.522   0.669   8.193  2.0046  1.0079  1.5367
 6746SOL    HW231875   0.649   0.683   8.120 -1.1681  0.3826 -1.6418
 6747SOL     OW31876   1.132   3.326   7.115  0.1823 -1.1839 -0.1727
 6747SOL    HW131877   1.188   3.285   7.181  1.3437 -0.9576 -1.0264
 6747SOL    HW231878   1.182   3.298   7.039  2.3178  0.6970  0.5389
 6748SOL     OW31879   3.319   1.197   4.124 -0.5280  0.4173  0.6660
 6748SOL    HW131880   3.298   1.106   4.102 -1.5264  0.1105  2.9133
 6748SOL    HW231881   3.298   1.202   4.218 -2.1235 -0.8135  0.3756
 6749SOL     OW31882   4.277   3.707   0.159  0.6215  0.0550 -0.4217
 6749SOL    HW131883   4.201   3.746   0.116  1.8978  3.2521  0.2129
 6749SOL    HW231884   4.250   3.615   0.156 -1.4746  0.6495  0.6562
 6750SOL     OW31885   2.126   2.020   5.426  0.6054  0.0210  0.6420
 6750SOL    HW131886   2.132   1.952   5.360 -4.1031  0.5323 -0.3227
 6750SOL    HW231887   2.061   1.980   5.484  0.7951  0.8995  1.4651
 6751SOL     OW31888   3.745   1.103   0.165 -0.1572  0.9790  0.0227
 6751SOL    HW131889   3.774   1.048   0.092  0.8904  2.0606 -0.3695
 6751SOL    HW231890   3.730   1.186   0.121  0.1195  0.1017 -1.7095
 6752SOL     OW31891   2.019   1.793  11.548 -0.0686 -0.2731  0.7911
 6752SOL    HW131892   2.106   1.795  11.589 -0.3641 -0.2633  1.4141
 6752SOL    HW231893   2.041   1.763  11.459 -2.1670 -0.0217  0.1979
 6753SOL     OW31894   0.923   0.346   5.789 -0.3123  0.4796  0.0150
 6753SOL    HW131895   0.845   0.397   5.765  0.2918  2.0230  1.3528
 6753SOL    HW231896   0.892   0.255   5.790 -0.6490  0.6097  2.4377
 6754SOL     OW31897   0.439   4.548   8.223  0.0296 -0.1708 -0.0527
 6754SOL    HW131898   0.520   4.598   8.235 -0.6408  0.6045  1.2339
 6754SOL    HW231899   0.454   4.465   8.269 -0.9305  0.3407  1.1836
 6755SOL     OW31900   0.355   1.112   6.554  0.0817  0.3114  0.7839
 6755SOL    HW131901   0.410   1.176   6.600  1.0809  0.5872 -0.7896
 6755SOL    HW231902   0.305   1.171   6.498 -0.2353 -0.9425 -0.2500
 6756SOL     OW31903   0.608   1.658   4.725  0.3167 -0.0016 -0.4026
 6756SOL    HW131904   0.665   1.668   4.649  0.4434  0.2187 -0.2809
 6756SOL    HW231905   0.587   1.751   4.737  2.1480  0.6059 -2.0348
 6757SOL     OW31906   0.010   2.181  12.234  0.1707 -0.6550 -0.3818
 6757SOL    HW131907   4.681   2.210  12.174  1.4403  2.9162 -0.1179
 6757SOL    HW231908   4.717   2.230  12.310 -1.6127 -2.3129 -0.0375
 6758SOL     OW31909   0.186   0.668   5.652 -0.7162  0.2092  0.1186
 6758SOL    HW131910   0.184   0.641   5.561  0.4722 -1.3255  0.5451
 6758SOL    HW231911   0.281   0.674   5.660 -0.6252 -0.1045 -0.7392
 6759SOL     OW31912   4.512   3.410   2.367  0.1674 -0.1470 -0.0396
 6759SOL    HW131913   4.481   3.361   2.444  1.1973 -2.1255 -0.8821
 6759SOL    HW231914   4.474   3.362   2.293 -1.5333  2.6098 -0.9223
 6760SOL     OW31915   4.096   3.821   9.923  0.1160  0.0232  0.4699
 6760SOL    HW131916   4.053   3.817   9.837  0.0130 -0.0666  0.5256
 6760SOL    HW231917   4.186   3.795   9.902  0.8509  3.3465 -0.4437
 6761SOL     OW31918   1.785   0.295   1.986 -0.0304 -0.2942  0.4013
 6761SOL    HW131919   1.875   0.288   2.019 -0.8773 -3.8391  1.8677
 6761SOL    HW231920   1.753   0.363   2.045 -0.5353  1.7440 -2.1755
 6762SOL     OW31921   3.979   2.433  15.517 -0.0255 -0.5901 -0.1829
 6762SOL    HW131922   3.914   2.399  15.579 -1.7851 -1.2540 -2.3979
 6762SOL    HW231923   4.040   2.480  15.574 -0.2293  0.3191 -0.7144
 6763SOL     OW31924   4.080   2.439   9.050  0.0123  0.2171 -0.4663
 6763SOL    HW131925   4.050   2.349   9.042 -1.4764  0.6695 -0.0081
 6763SOL    HW231926   4.101   2.444   9.144 -0.0990  1.3234 -0.4942
 6764SOL     OW31927   3.742   4.696   5.916  0.0231  0.2080 -0.4890
 6764SOL    HW131928   3.683   4.703   5.992  0.3492 -0.8886 -0.1437
 6764SOL    HW231929   3.828   4.717   5.952  0.3199  0.0220 -1.1130
 6765SOL     OW31930   1.721   1.463   8.285 -0.6097 -0.4753  0.3441
 6765SOL    HW131931   1.771   1.442   8.363  0.7469 -2.5794 -1.0779
 6765SOL    HW231932   1.649   1.506   8.331 -0.2528 -0.6366  1.0495
 6766SOL     OW31933   0.811   1.613  16.350 -0.4767  0.1408 -0.3436
 6766SOL    HW131934   0.859   1.658  16.420  0.7313 -1.3142 -0.2402
 6766SOL    HW231935   0.839   1.673  16.281 -1.8234 -1.0917 -1.9248
 6767SOL     OW31936   0.453   2.531   4.153  0.1329  0.0335  0.0841
 6767SOL    HW131937   0.447   2.443   4.118  0.9278  0.5999 -1.4465
 6767SOL    HW231938   0.451   2.520   4.248  2.8605 -2.4749 -0.1652
 6768SOL     OW31939   2.120   3.226  15.187 -0.1753  0.4845 -0.7856
 6768SOL    HW131940   2.082   3.221  15.099 -0.8548  0.2609 -0.4777
 6768SOL    HW231941   2.076   3.151  15.226 -0.4262  0.5939 -0.8611
 6769SOL     OW31942   0.835   2.681   4.684 -0.3567 -0.3515 -0.0934
 6769SOL    HW131943   0.915   2.706   4.638  0.1395 -0.4820  0.6997
 6769SOL    HW231944   0.839   2.587   4.704  0.5621 -0.0515  1.1422
 6770SOL     OW31945   3.464   4.295  11.064 -0.1776 -0.0981 -0.1836
 6770SOL    HW131946   3.434   4.215  11.108  1.2788 -0.4240  0.2051
 6770SOL    HW231947   3.548   4.303  11.109 -1.3309 -0.1798  1.9732
 6771SOL     OW31948   1.849   4.003   1.920  0.8304 -0.3788 -0.2874
 6771SOL    HW131949   1.803   4.075   1.962 -1.7358 -2.2938  0.2193
 6771SOL    HW231950   1.782   3.980   1.854 -1.0294  0.9458  1.1656
 6772SOL     OW31951   2.853   4.510  15.971 -0.2309  0.0461 -0.3508
 6772SOL    HW131952   2.769   4.554  15.961 -0.1315  0.1756 -0.6192
 6772SOL    HW231953   2.845   4.445  16.041 -1.8441  1.6586  0.9522
 6773SOL     OW31954   1.079   2.186   2.701 -0.3069 -0.0033 -0.2529
 6773SOL    HW131955   1.141   2.214   2.634 -0.1226  2.0022  0.7383
 6773SOL    HW231956   1.040   2.106   2.665  2.4223 -1.2288 -0.5009
 6774SOL     OW31957   4.507   1.565   9.600  0.1843  0.0749  0.0197
 6774SOL    HW131958   4.520   1.645   9.549 -0.7912  0.8942  1.0773
 6774SOL    HW231959   4.568   1.561   9.673 -1.3544  1.6741  1.3832
 6775SOL     OW31960   4.094   1.624   6.311 -0.4663 -0.4483 -0.3680
 6775SOL    HW131961   4.106   1.535   6.278  0.0390 -0.6709  0.4318
 6775SOL    HW231962   4.151   1.630   6.387 -0.1087  2.1761 -0.8515
 6776SOL     OW31963   1.342   3.472   5.836 -0.9372  0.1879  0.0289
 6776SOL    HW131964   1.372   3.454   5.747 -2.4653  0.9018 -0.6460
 6776SOL    HW231965   1.317   3.383   5.860  0.9492 -0.2045  0.5396
 6777SOL     OW31966   0.716   1.863  17.583  0.4168 -0.2661 -0.8476
 6777SOL    HW131967   0.734   1.793  17.646  0.9946  0.1530 -0.5474
 6777SOL    HW231968   0.804   1.869  17.546  1.7870 -3.2524  1.8954
 6778SOL     OW31969   1.743   2.872  10.597 -0.3409 -0.7023  0.0460
 6778SOL    HW131970   1.755   2.780  10.617 -2.0492 -0.8307  0.4565
 6778SOL    HW231971   1.787   2.874  10.512  2.2192  0.5459  1.3930
 6779SOL     OW31972   3.553   2.153   7.768  0.3469  0.2522 -0.1294
 6779SOL    HW131973   3.596   2.222   7.818  0.9651  0.2262 -0.6338
 6779SOL    HW231974   3.459   2.170   7.780  0.2761  1.0176 -1.7291
 6780SOL     OW31975   1.978   3.289   3.715 -0.4901  0.2940  0.4836
 6780SOL    HW131976   1.957   3.321   3.628 -1.3080  0.0166  0.5813
 6780SOL    HW231977   1.896   3.309   3.759 -1.5805 -0.2415 -1.3350
 6781SOL     OW31978   0.280   1.776   3.894 -0.2368 -0.0944 -0.8465
 6781SOL    HW131979   0.294   1.867   3.921  0.0021 -0.3704 -0.0215
 6781SOL    HW231980   0.244   1.782   3.806  0.6507  1.2385 -1.1226
 6782SOL     OW31981   1.918   1.748  16.431  0.1148 -0.0695  0.0588
 6782SOL    HW131982   1.943   1.733  16.340 -0.4736  1.8100 -0.4144
 6782SOL    HW231983   1.880   1.836  16.426 -2.1724 -1.1698 -1.8189
 6783SOL     OW31984   3.140   3.401   1.243 -0.8109  0.3563 -0.3636
 6783SOL    HW131985   3.224   3.355   1.245 -0.2012  1.5607  1.5181
 6783SOL    HW231986   3.079   3.327   1.253  1.0657 -0.8183  2.7110
 6784SOL     OW31987   3.268   1.949   3.080 -0.1649 -0.4342  0.0661
 6784SOL    HW131988   3.205   2.021   3.080 -0.4434 -0.6784  0.1153
 6784SOL    HW231989   3.221   1.883   3.030  1.1529 -1.8239  0.6746
 6785SOL     OW31990   4.619   0.900   6.577 -0.0072 -0.1668  0.5284
 6785SOL    HW131991   4.557   0.837   6.541  2.5208 -2.1087 -0.4629
 6785SOL    HW231992   4.703   0.856   6.563 -0.0859  0.3028 -1.3234
 6786SOL     OW31993   0.638   0.073   1.561 -0.0325 -0.6581  0.0742
 6786SOL    HW131994   0.727   0.064   1.526  0.0184  1.7029 -0.3841
 6786SOL    HW231995   0.591   4.732   1.534 -1.5474  0.6407 -1.1737
 6787SOL     OW31996   3.465   3.094   5.907  0.4421  0.1609 -0.1868
 6787SOL    HW131997   3.437   3.099   5.816  0.4826  0.8679 -0.1648
 6787SOL    HW231998   3.555   3.125   5.912  0.8153 -1.4979  2.9815
 6788SOL     OW31999   3.404   2.112   3.979  0.0509  0.0258  0.4032
 6788SOL    HW132000   3.451   2.191   3.953 -2.0063  0.8547 -0.7226
 6788SOL    HW232001   3.450   2.044   3.929 -2.0746 -2.1864  1.4697
 6789SOL     OW32002   1.646   1.391   6.913 -0.4241 -0.5867 -0.0667
 6789SOL    HW132003   1.580   1.326   6.938 -0.4537 -0.1642  0.9174
 6789SOL    HW232004   1.644   1.460   6.979  0.4820 -0.6311  0.0071
 6790SOL     OW32005   0.252   4.634   5.305  0.0440  0.2283  0.3338
 6790SOL    HW132006   0.284   4.544   5.311 -1.2420 -0.2890 -0.4181
 6790SOL    HW232007   0.329   4.671   5.347  1.8579 -2.2089 -0.8696
 6791SOL     OW32008   0.996   1.866   0.664 -0.0030  0.1484  0.2820
 6791SOL    HW132009   1.007   1.829   0.752  0.8997  2.7517  1.2585
 6791SOL    HW232010   1.028   1.955   0.677  0.8345  0.1224 -1.6779
 6792SOL     OW32011   3.166   0.270   5.009 -0.0605 -0.0848 -0.1351
 6792SOL    HW132012   3.185   0.317   5.090  0.5048 -1.3910  0.4819
 6792SOL    HW232013   3.110   0.197   5.037 -0.7222  0.5013  0.0694
 6793SOL     OW32014   4.650   1.024   7.844  0.7620  0.1359  0.3450
 6793SOL    HW132015   4.562   1.001   7.815  1.3434  1.7647 -2.7163
 6793SOL    HW232016   4.706   0.982   7.780  0.2350 -0.7390  0.4502
 6794SOL     OW32017   2.132   0.510  15.329 -0.7345 -0.1837 -0.0216
 6794SOL    HW132018   2.194   0.502  15.401 -0.3984 -0.5264 -0.3459
 6794SOL    HW232019   2.187   0.494  15.252 -0.4757  0.6023  0.0038
 6795SOL     OW32020   3.415   2.543  13.975  1.2147 -0.0455 -0.0522
 6795SOL    HW132021   3.484   2.503  14.027  1.0780  0.0991  0.2390
 6795SOL    HW232022   3.362   2.585  14.042 -0.0352  1.3493 -1.9027
 6796SOL     OW32023   1.465   1.343   5.222 -0.5212 -0.6933 -0.3669
 6796SOL    HW132024   1.496   1.399   5.293  1.9744  0.6312 -2.5042
 6796SOL    HW232025   1.390   1.311   5.271 -0.6571  1.6188  0.9473
 6797SOL     OW32026   0.189   0.014   4.712  0.0623 -0.4231  0.3964
 6797SOL    HW132027   0.253   4.683   4.723 -1.4466 -1.6021  1.4933
 6797SOL    HW232028   0.112   4.701   4.691  0.0939 -0.5505  0.6042
 6798SOL     OW32029   0.657   2.821   2.103  0.4177 -0.1153  0.1489
 6798SOL    HW132030   0.673   2.783   2.017  0.5762 -1.7216  0.8866
 6798SOL    HW232031   0.565   2.850   2.103  0.5096  0.1712  0.2605
 6799SOL     OW32032   2.838   1.115  16.355 -0.2764 -0.7885 -0.1438
 6799SOL    HW132033   2.813   1.101  16.264 -0.7166  2.2393 -0.5073
 6799SOL    HW232034   2.767   1.171  16.387  0.2070 -1.3059  1.8479
 6800SOL     OW32035   4.045   1.230   4.048  0.9287  0.3133 -0.3031
 6800SOL    HW132036   4.021   1.154   3.995 -0.2367 -0.5863  1.4994
 6800SOL    HW232037   3.960   1.271   4.066  1.3655  0.2573  1.8820
 6801SOL     OW32038   2.432   4.451   6.299 -0.0977  0.3803  0.5903
 6801SOL    HW132039   2.466   4.437   6.211 -0.9868 -0.5317  0.3895
 6801SOL    HW232040   2.499   4.503   6.342 -0.1225 -0.6356  1.8553
 6802SOL     OW32041   1.362   1.915  12.973 -0.3844 -0.3556 -0.1590
 6802SOL    HW132042   1.321   1.865  12.902 -2.6008 -1.0459  1.5641
 6802SOL    HW232043   1.375   1.854  13.046 -2.2125 -0.9418 -0.3219
 6803SOL     OW32044   3.570   2.152  15.768 -0.2068 -0.4325 -1.1444
 6803SOL    HW132045   3.484   2.183  15.742 -0.5451  0.7500  1.4087
 6803SOL    HW232046   3.566   2.062  15.735  1.4762 -0.1964 -1.9966
 6804SOL     OW32047   1.988   1.980  13.953  0.1934 -0.1801 -0.0589
 6804SOL    HW132048   2.049   1.956  13.883  0.5214 -1.3406  0.6239
 6804SOL    HW232049   2.043   1.947  14.025  1.4856 -1.6056 -1.7084
 6805SOL     OW32050   2.305   0.596   8.311  0.3687  0.1124  0.4390
 6805SOL    HW132051   2.221   0.610   8.267 -0.7970 -2.0192  1.9678
 6805SOL    HW232052   2.282   0.622   8.400  0.4922  1.6870  0.0179
 6806SOL     OW32053   0.708   3.852   7.138 -0.0285 -0.2606  0.3592
 6806SOL    HW132054   0.623   3.809   7.147 -1.5570  3.0052  1.8499
 6806SOL    HW232055   0.739   3.837   7.227  0.8046 -0.5723  0.0154
 6807SOL     OW32056   0.872   4.656   1.206  0.7707 -0.4032  0.0732
 6807SOL    HW132057   0.858   4.708   1.127 -1.4673  1.6139  1.7912
 6807SOL    HW232058   0.947   4.607   1.174 -0.0466 -1.9263  0.4797
 6808SOL     OW32059   0.258   4.633   3.237  0.6687 -0.0427  0.2281
 6808SOL    HW132060   0.219   4.590   3.313  0.7003  0.3420  0.4643
 6808SOL    HW232061   0.316   4.696   3.280  2.0845 -0.4319 -1.1112
 6809SOL     OW32062   3.916   4.701   7.961  0.2444 -0.2876  0.1397
 6809SOL    HW132063   3.960   0.046   7.963 -3.1302  1.4880  0.4289
 6809SOL    HW232064   3.913   4.670   7.871 -1.0837 -0.1531  0.1374
 6810SOL     OW32065   3.897   4.572   7.733  0.6692 -0.5957 -0.3304
 6810SOL    HW132066   3.887   4.478   7.717 -0.4039 -0.7522  1.2874
 6810SOL    HW232067   3.818   4.606   7.691 -0.1241  0.9921  2.4720
 6811SOL     OW32068   1.434   1.878  15.351  0.2148  0.2070 -0.6307
 6811SOL    HW132069   1.496   1.887  15.279 -0.7191 -4.6147 -2.0678
 6811SOL    HW232070   1.378   1.956  15.346 -0.4213 -0.3164 -1.6851
 6812SOL     OW32071   1.304   1.586   9.014  0.2387  0.6784  0.7333
 6812SOL    HW132072   1.251   1.640   9.073 -0.1683  2.4315 -1.2336
 6812SOL    HW232073   1.289   1.635   8.933 -0.3083  0.8097  0.9109
 6813SOL     OW32074   0.272   2.830   3.511 -0.5508 -0.1734 -0.2145
 6813SOL    HW132075   0.296   2.738   3.524  2.0579  0.4130 -0.7998
 6813SOL    HW232076   0.340   2.874   3.561 -1.4901 -0.0630  0.9819
 6814SOL     OW32077   2.170   0.540   4.599  0.0837  0.3068 -0.3858
 6814SOL    HW132078   2.097   0.481   4.618 -0.8226  1.3907 -0.4676
 6814SOL    HW232079   2.158   0.614   4.658  0.4173  0.5541 -0.6232
 6815SOL     OW32080   1.615   0.544   1.860  0.2803 -0.2997 -0.4027
 6815SOL    HW132081   1.624   0.532   1.955 -1.4441 -1.8879 -0.4365
 6815SOL    HW232082   1.608   0.639   1.864  2.4244 -0.1624 -0.0908
 6816SOL     OW32083   1.224   2.052  15.343  0.1787 -0.4839 -0.7517
 6816SOL    HW132084   1.144   2.047  15.291 -1.7627 -0.1141  2.1840
 6816SOL    HW232085   1.195   2.116  15.409 -2.2128 -1.9759 -0.3256
 6817SOL     OW32086   4.381   1.038   7.697 -0.1963 -0.0882 -0.4474
 6817SOL    HW132087   4.384   1.096   7.621 -1.9764  1.4107  0.6102
 6817SOL    HW232088   4.346   1.092   7.768  0.9233 -1.0556  0.8266
 6818SOL     OW32089   2.468   3.428   6.633 -0.2016  0.5049 -0.1576
 6818SOL    HW132090   2.382   3.389   6.652 -1.4186  3.2832 -0.0381
 6818SOL    HW232091   2.468   3.425   6.537  2.0539  4.5228 -0.2933
 6819SOL     OW32092   3.402   3.287   5.714 -0.7870 -0.6943 -0.8931
 6819SOL    HW132093   3.437   3.376   5.718  1.3452 -1.4661 -1.8100
 6819SOL    HW232094   3.420   3.257   5.624  1.5712  1.2348 -1.0783
 6820SOL     OW32095   2.673   4.708  14.234 -0.0547  0.4095  0.0680
 6820SOL    HW132096   2.608   0.039  14.231 -0.3203  0.2256  1.6858
 6820SOL    HW232097   2.630   4.629  14.200  0.1846  0.6441 -0.7831
 6821SOL     OW32098   3.142   3.694   3.947  0.6398 -0.0096 -0.6395
 6821SOL    HW132099   3.151   3.605   3.914 -0.1576  0.6768 -2.6784
 6821SOL    HW232100   3.047   3.701   3.940  1.0108  3.0613 -2.6649
 6822SOL     OW32101   4.352   2.051   6.300  0.1225  0.3091 -0.2258
 6822SOL    HW132102   4.417   2.121   6.307  1.5627 -1.1756  1.2951
 6822SOL    HW232103   4.268   2.093   6.280 -0.2064 -0.4768 -0.4671
 6823SOL     OW32104   0.734   2.088   4.749 -0.0225  0.1575  0.4461
 6823SOL    HW132105   0.654   2.126   4.714 -0.5266 -0.7603  0.6240
 6823SOL    HW232106   0.724   2.086   4.845 -0.4647  0.8948  0.4129
 6824SOL     OW32107   4.286   0.211  10.528  0.0744 -0.1822 -0.1352
 6824SOL    HW132108   4.311   0.266  10.602 -0.3105 -0.9221  0.5491
 6824SOL    HW232109   4.362   0.153  10.523 -1.9499 -2.6601 -2.2801
 6825SOL     OW32110   2.333   3.827   5.036 -0.0921  0.7711  0.0012
 6825SOL    HW132111   2.244   3.827   5.071  0.1237 -0.9649  0.5660
 6825SOL    HW232112   2.335   3.893   4.967  2.0562 -0.7769 -1.4337
 6826SOL     OW32113   3.585   0.168  15.891 -0.6207 -0.3182  0.0031
 6826SOL    HW132114   3.496   0.178  15.858  0.0764 -1.7012 -2.3056
 6826SOL    HW232115   3.593   0.076  15.865 -0.9451  0.0460 -1.3713
 6827SOL     OW32116   4.025   3.926   9.050  0.3797  0.6910 -0.2427
 6827SOL    HW132117   3.961   3.889   8.989 -0.0865 -0.0638  0.7000
 6827SOL    HW232118   4.081   3.852   9.072 -0.2749  0.4603  0.6577
 6828SOL     OW32119   3.049   4.685   2.836 -0.1084 -0.0155  0.5138
 6828SOL    HW132120   2.993   4.721   2.768  1.0482  1.4934  0.3634
 6828SOL    HW232121   3.021   4.736   2.912 -0.6232 -0.8159  0.8590
 6829SOL     OW32122   4.306   0.689  11.528 -0.6050 -0.0763 -0.2068
 6829SOL    HW132123   4.306   0.699  11.624 -0.7924  2.8348 -0.5066
 6829SOL    HW232124   4.219   0.650  11.516 -1.6137  2.5087 -1.2824
 6830SOL     OW32125   4.042   1.984  14.050  0.3598 -0.0753  0.6479
 6830SOL    HW132126   3.977   1.963  13.984  1.1875 -1.3395  0.2393
 6830SOL    HW232127   4.081   2.067  14.024 -2.5621  0.9283 -0.5064
 6831SOL     OW32128   4.628   1.257   5.624  0.3446 -0.0630 -0.3461
 6831SOL    HW132129   4.632   1.291   5.714  0.3264  0.4499 -0.5413
 6831SOL    HW232130   4.542   1.285   5.592  0.2905 -2.0930 -1.9331
 6832SOL     OW32131   0.693   0.546  15.092 -0.2958 -0.1241 -0.3723
 6832SOL    HW132132   0.630   0.474  15.095 -1.3169  0.8081  0.2653
 6832SOL    HW232133   0.779   0.504  15.090  0.1836  0.9321 -2.1498
 6833SOL     OW32134   1.517   3.204  10.900 -0.3144 -0.3494  0.0127
 6833SOL    HW132135   1.590   3.163  10.852  0.5143 -0.3979  1.3097
 6833SOL    HW232136   1.445   3.152  10.862 -0.4714 -1.2994  1.6220
 6834SOL     OW32137   1.846   0.021   8.851 -0.7083  0.1899 -0.0148
 6834SOL    HW132138   1.901   4.682   8.845 -0.1796  0.6238 -0.8132
 6834SOL    HW232139   1.818   0.029   8.942  1.4176 -2.0617  0.8410
 6835SOL     OW32140   1.769   4.303   6.666  0.2706  0.1374 -0.5592
 6835SOL    HW132141   1.764   4.363   6.741  2.3199 -1.2897  0.7236
 6835SOL    HW232142   1.855   4.334   6.636  0.7958 -0.7843  0.0143
 6836SOL     OW32143   1.452   3.014  14.401 -0.0634  0.4476  0.0091
 6836SOL    HW132144   1.493   3.072  14.336 -0.2349  1.8389  1.1244
 6836SOL    HW232145   1.478   2.927  14.372 -0.8197  0.2202  0.0234
 6837SOL     OW32146   3.384   2.432   1.969  0.0157  0.1195  0.2898
 6837SOL    HW132147   3.441   2.445   2.044 -0.2852 -0.3900  0.6028
 6837SOL    HW232148   3.395   2.337   1.964  1.1738  0.1953  1.5776
 6838SOL     OW32149   1.036   2.819   6.396  0.6013 -0.2363  0.5139
 6838SOL    HW132150   1.054   2.736   6.352 -0.0069  2.4998 -4.9837
 6838SOL    HW232151   1.118   2.868   6.395 -0.8262  2.1982  0.4614
 6839SOL     OW32152   1.410   1.637   3.699 -0.2036  0.0813  0.1023
 6839SOL    HW132153   1.348   1.564   3.700  3.1646 -2.8488 -3.7166
 6839SOL    HW232154   1.412   1.640   3.794 -0.5535  2.3702  0.0325
 6840SOL     OW32155   0.583   4.011   5.126  0.0498  0.3936 -0.0028
 6840SOL    HW132156   0.492   3.987   5.105 -0.0872  0.0165  1.0631
 6840SOL    HW232157   0.609   4.074   5.059  1.3701 -0.9606 -0.7638
 6841SOL     OW32158   0.056   3.832   4.995 -0.1312  0.8019 -0.4850
 6841SOL    HW132159   0.103   3.901   4.947 -0.1061  0.6208 -0.7180
 6841SOL    HW232160   0.062   3.857   5.088 -0.8668 -0.5858 -0.0678
 6842SOL     OW32161   2.388   1.764   5.032 -0.6136 -0.1248 -0.0670
 6842SOL    HW132162   2.439   1.845   5.022 -1.4504  0.3431 -0.5711
 6842SOL    HW232163   2.450   1.696   5.059  0.2771  1.5661  2.1236
 6843SOL     OW32164   4.338   1.267   2.978 -0.3056 -0.5552  0.3746
 6843SOL    HW132165   4.413   1.210   2.998  0.5519 -0.6588 -3.0968
 6843SOL    HW232166   4.265   1.211   3.003  0.1440 -0.0077  2.9230
 6844SOL     OW32167   4.640   1.784   6.539 -0.5009  0.3452  0.0024
 6844SOL    HW132168   4.627   1.804   6.631 -0.1447 -1.7356  0.5200
 6844SOL    HW232169   4.551   1.777   6.506 -1.5262  3.1167  2.2687
 6845SOL     OW32170   0.484   0.057   7.235  0.2698 -0.3096  0.0022
 6845SOL    HW132171   0.429   0.124   7.195  0.1625 -0.0553  0.5707
 6845SOL    HW232172   0.571   0.096   7.240 -0.8324  1.9507  1.7130
 6846SOL     OW32173   0.421   3.389   1.926 -0.2989 -0.2439  0.1487
 6846SOL    HW132174   0.414   3.393   2.022  1.4120  2.3246  0.1620
 6846SOL    HW232175   0.368   3.466   1.906  0.1117 -0.7691 -2.8611
 6847SOL     OW32176   1.111   4.661   0.035 -0.0032  0.7102 -0.0764
 6847SOL    HW132177   1.141   4.696   0.119 -0.6993  2.1928 -0.4503
 6847SOL    HW232178   1.029   4.624   0.065  0.0667 -1.5498 -2.6624
 6848SOL     OW32179   2.088   1.543  11.290 -0.1364 -0.6298 -0.1536
 6848SOL    HW132180   2.158   1.606  11.280  1.6815 -2.4049  1.3252
 6848SOL    HW232181   2.025   1.586  11.233  0.7185  0.5599 -0.1836
 6849SOL     OW32182   0.614   3.463   8.055 -0.0680  0.1040  0.2427
 6849SOL    HW132183   0.530   3.439   8.093  0.1796  1.3570  1.5950
 6849SOL    HW232184   0.684   3.425   8.108  0.7401 -0.1989 -1.0351
 6850SOL     OW32185   2.790   0.023   9.460  0.3389 -0.0480  0.2663
 6850SOL    HW132186   2.749   0.029   9.546  0.3329  0.4463  0.2301
 6850SOL    HW232187   2.853   0.095   9.463  0.5985 -0.2269 -0.9751
 6851SOL     OW32188   0.528   3.205   3.510  0.8125  0.8973  0.0523
 6851SOL    HW132189   0.549   3.291   3.471 -0.5642  2.0992  1.9854
 6851SOL    HW232190   0.475   3.163   3.442  0.3682 -0.7174  1.4221
 6852SOL     OW32191   4.320   4.609   5.055 -0.2760  0.0340  0.3192
 6852SOL    HW132192   4.325   4.518   5.084 -1.7847  0.0562  0.6754
 6852SOL    HW232193   4.355   4.656   5.130  0.4579  1.9535 -1.2571
 6853SOL     OW32194   2.653   2.127   8.080 -0.4296  0.4448 -0.2034
 6853SOL    HW132195   2.684   2.216   8.094  0.5180  0.2580 -1.1076
 6853SOL    HW232196   2.616   2.109   8.166 -1.2291 -1.2485 -0.9091
 6854SOL     OW32197   0.451   2.322   3.763 -0.6099  0.2531  0.1807
 6854SOL    HW132198   0.412   2.408   3.747  0.2300  0.7454  0.7409
 6854SOL    HW232199   0.470   2.295   3.673 -1.5115  1.0999 -0.2554
 6855SOL     OW32200   4.486   1.753   3.292  0.6703 -0.3873 -0.5259
 6855SOL    HW132201   4.423   1.707   3.348  2.8945 -2.8466 -0.0158
 6855SOL    HW232202   4.539   1.776   3.369  0.3281 -1.1980 -0.0398
 6856SOL     OW32203   3.091   4.464  10.318  0.0799  0.7502  0.0543
 6856SOL    HW132204   3.163   4.517  10.284 -0.1387  1.0664  0.0848
 6856SOL    HW232205   3.132   4.416  10.389 -1.2437  0.4054  0.5863
 6857SOL     OW32206   0.877   0.384  12.774  0.1662  0.4236 -0.6559
 6857SOL    HW132207   0.952   0.325  12.772 -0.0937  0.1388 -2.1337
 6857SOL    HW232208   0.932   0.462  12.766  0.6962  0.2073  0.8599
 6858SOL     OW32209   2.332   3.211  13.285  0.0893 -0.7041  0.0468
 6858SOL    HW132210   2.301   3.299  13.308  1.3741 -0.0600 -0.6915
 6858SOL    HW232211   2.286   3.153  13.345  0.8867  1.0893  2.4200
 6859SOL     OW32212   0.820   0.980   5.945  0.3531 -0.0456 -0.0663
 6859SOL    HW132213   0.854   0.950   6.030  0.4449 -0.0539 -0.1061
 6859SOL    HW232214   0.801   0.897   5.900  1.0349 -0.4656  0.4094
 6860SOL     OW32215   2.935   1.023   6.426 -0.1174  0.3743  0.6675
 6860SOL    HW132216   2.975   0.938   6.406 -0.5494 -0.0302  1.5540
 6860SOL    HW232217   2.996   1.087   6.389  0.1020 -1.7479 -2.7060
 6861SOL     OW32218   2.141   0.693   5.670 -0.1255  0.3227 -0.1633
 6861SOL    HW132219   2.227   0.667   5.703 -1.0639  0.0916  2.0616
 6861SOL    HW232220   2.083   0.623   5.699 -0.6858  0.3943 -1.1242
 6862SOL     OW32221   2.767   2.101   5.172  0.2077 -0.3644 -0.2490
 6862SOL    HW132222   2.809   2.046   5.237  0.7646 -1.0969 -1.2245
 6862SOL    HW232223   2.820   2.180   5.161  0.7472 -0.4065  2.0539
 6863SOL     OW32224   2.931   1.504   0.642  0.6710 -0.4263 -0.3757
 6863SOL    HW132225   2.964   1.589   0.672  0.8208 -0.3865 -0.6555
 6863SOL    HW232226   2.906   1.463   0.725  0.5398 -1.0983 -0.7461
 6864SOL     OW32227   4.286   1.053   3.968 -0.2783 -0.1695 -0.2785
 6864SOL    HW132228   4.256   1.024   3.882 -2.3642  1.2554 -0.0237
 6864SOL    HW232229   4.256   1.143   3.980 -0.5399 -0.1041 -1.3896
 6865SOL     OW32230   4.067   0.619  11.566  0.2975 -0.3814 -0.3226
 6865SOL    HW132231   4.026   0.544  11.523 -1.0279 -1.5137  2.9561
 6865SOL    HW232232   4.050   0.603  11.659  0.7525 -2.5498 -0.6077
 6866SOL     OW32233   1.362   0.232  17.430 -0.2542 -0.1263  0.3669
 6866SOL    HW132234   1.270   0.222  17.456 -0.4603 -3.3679 -1.5641
 6866SOL    HW232235   1.352   0.320  17.393  0.8016 -0.8680 -1.7049
 6867SOL     OW32236   1.731   4.632   4.526 -0.5869 -0.3822 -0.2341
 6867SOL    HW132237   1.741   4.724   4.548  0.2248 -0.1972 -1.3336
 6867SOL    HW232238   1.749   4.580   4.605 -0.3761  2.7098  1.7487
 6868SOL     OW32239   2.531   2.163  12.878  0.1265  0.4102 -0.0837
 6868SOL    HW132240   2.440   2.144  12.902  0.4012 -0.4242  0.3028
 6868SOL    HW232241   2.523   2.242  12.826  0.9867 -0.4393 -1.4975
 6869SOL     OW32242   0.977   1.453   3.312 -0.0650  0.5894 -0.0978
 6869SOL    HW132243   1.022   1.421   3.391 -1.4102 -1.2720 -0.0915
 6869SOL    HW232244   1.002   1.545   3.318  0.5915  0.4055 -0.0365
 6870SOL     OW32245   2.509   1.898   9.113 -0.1619  0.0441 -0.1292
 6870SOL    HW132246   2.493   1.951   9.191  0.8991  1.1191 -0.6382
 6870SOL    HW232247   2.513   1.810   9.152  1.3356  0.3649  0.4311
 6871SOL     OW32248   3.186   0.324  11.830 -0.3887  0.2979  0.2573
 6871SOL    HW132249   3.153   0.235  11.816 -0.2174  0.0709  1.3092
 6871SOL    HW232250   3.168   0.320  11.924 -0.2535  0.6113  0.2975
 6872SOL     OW32251   2.109   2.384   8.190 -0.3114  0.7325  0.1956
 6872SOL    HW132252   2.121   2.464   8.241  2.2386  1.0583 -0.9025
 6872SOL    HW232253   2.105   2.312   8.252  0.4098 -0.1056 -0.7228
 6873SOL     OW32254   2.257   1.474   3.518 -0.3477 -0.4883  0.0349
 6873SOL    HW132255   2.214   1.389   3.529 -0.4574 -0.6465 -1.5744
 6873SOL    HW232256   2.252   1.493   3.424  1.9265  0.9642  0.2127
 6874SOL     OW32257   3.959   2.486   5.408  0.0164  0.6730  0.4024
 6874SOL    HW132258   3.905   2.560   5.378 -0.7168 -0.1673 -0.3596
 6874SOL    HW232259   3.990   2.446   5.327 -0.0895  2.0920 -0.3360
 6875SOL     OW32260   0.473   3.067   7.616 -0.2647 -0.1116  0.0165
 6875SOL    HW132261   0.424   3.030   7.542 -0.8383  0.2628  0.2128
 6875SOL    HW232262   0.534   2.996   7.635 -1.0285 -0.6683  0.3908
 6876SOL     OW32263   3.786   4.512   2.318 -0.5477  0.4165 -0.5389
 6876SOL    HW132264   3.829   4.484   2.238 -2.3631 -3.1775 -0.2666
 6876SOL    HW232265   3.779   4.440   2.380  0.3289  1.5891  0.9339
 6877SOL     OW32266   2.069   2.297   1.581 -0.6433  0.1049 -0.2090
 6877SOL    HW132267   2.088   2.391   1.587  1.6935 -0.2277 -2.3961
 6877SOL    HW232268   2.011   2.295   1.657  0.1521  0.2408  0.4045
 6878SOL     OW32269   0.170   0.889   8.518 -0.5400 -0.3130 -0.0035
 6878SOL    HW132270   0.238   0.957   8.518 -2.1691  1.3133 -3.1589
 6878SOL    HW232271   0.222   0.812   8.541  0.5659  0.3004 -0.4362
 6879SOL     OW32272   2.760   3.188  13.882 -0.3098 -0.0625 -0.2638
 6879SOL    HW132273   2.855   3.181  13.868 -0.3463  0.8601 -0.9646
 6879SOL    HW232274   2.758   3.260  13.944  0.8207 -0.2398 -0.0163
 6880SOL     OW32275   1.867   1.392   8.778 -0.3217 -0.3997 -0.3148
 6880SOL    HW132276   1.825   1.450   8.841  3.1390 -0.6628  2.2251
 6880SOL    HW232277   1.947   1.445   8.778  0.2391 -1.2414  0.7774
 6881SOL     OW32278   0.152   3.549   6.152 -0.4789  0.1286 -0.8313
 6881SOL    HW132279   0.153   3.641   6.178  0.0978  0.3431 -1.6287
 6881SOL    HW232280   0.233   3.527   6.106 -1.2108  0.7057 -2.3889
 6882SOL     OW32281   0.970   1.932   3.169  0.2469  0.3325  0.3512
 6882SOL    HW132282   0.982   1.948   3.076 -1.0200 -0.1231  0.1063
 6882SOL    HW232283   0.976   2.022   3.201 -1.2633  0.3668  0.5579
 6883SOL     OW32284   2.343   3.374  15.229 -0.7602  0.4551 -0.2327
 6883SOL    HW132285   2.293   3.292  15.227 -0.7042  0.3745  1.4636
 6883SOL    HW232286   2.286   3.427  15.174  2.0122  1.8331 -1.7671
 6884SOL     OW32287   4.066   0.658   8.178 -0.1934  0.2186  0.2042
 6884SOL    HW132288   4.038   0.735   8.128  0.8731  0.5873  0.1789
 6884SOL    HW232289   4.043   0.684   8.267 -3.0363 -1.3023 -0.0810
 6885SOL     OW32290   3.307   2.951   1.853 -0.3919 -0.1561 -0.2956
 6885SOL    HW132291   3.395   2.987   1.859  0.9096 -3.8925  3.4248
 6885SOL    HW232292   3.328   2.862   1.824  3.4954  1.1260 -1.4157
 6886SOL     OW32293   4.339   1.725   3.526  0.0108  0.2945  0.1674
 6886SOL    HW132294   4.383   1.645   3.556  0.1791  0.3328  0.0240
 6886SOL    HW232295   4.255   1.690   3.496 -0.5421  0.3588  1.5977
 6887SOL     OW32296   4.034   3.600   8.753 -0.4857  0.1053 -0.0762
 6887SOL    HW132297   4.097   3.531   8.774 -2.3119 -1.5226  0.0160
 6887SOL    HW232298   4.066   3.680   8.793 -2.0814  1.6670 -1.8740
 6888SOL     OW32299   0.621   4.427   4.344  0.3715  0.3323  0.3319
 6888SOL    HW132300   0.603   4.520   4.336 -0.2240  0.1189 -0.9341
 6888SOL    HW232301   0.703   4.433   4.393  0.0829  0.0502  0.8479
 6889SOL     OW32302   0.727   4.433   6.802 -0.1439  0.1691  0.0222
 6889SOL    HW132303   0.787   4.359   6.812  1.6187  1.3700 -1.9371
 6889SOL    HW232304   0.785   4.505   6.824  0.3844 -1.0113  2.6030
 6890SOL     OW32305   3.836   2.515   7.688 -0.0084  0.3111 -0.0752
 6890SOL    HW132306   3.756   2.543   7.644 -0.4949  3.3442  2.7133
 6890SOL    HW232307   3.887   2.595   7.689  1.0297 -0.3211 -1.7543
 6891SOL     OW32308   2.217   4.238   4.019 -0.1912  0.2360  0.0645
 6891SOL    HW132309   2.169   4.246   4.102  0.2936 -2.1951  0.5947
 6891SOL    HW232310   2.299   4.284   4.037  0.4698 -2.7167  4.7045
 6892SOL     OW32311   1.631   4.725  16.352 -0.2362  0.1025  0.0606
 6892SOL    HW132312   1.569   4.697  16.419 -1.9454  1.2624 -1.0306
 6892SOL    HW232313   1.707   4.701  16.404 -0.0863 -0.4418 -0.3967
 6893SOL     OW32314   2.899   1.293   7.367 -0.2833  0.6217  0.4119
 6893SOL    HW132315   2.860   1.363   7.315 -1.5128  0.8744  1.6730
 6893SOL    HW232316   2.914   1.223   7.304 -0.8466 -0.0134  0.9930
 6894SOL     OW32317   1.594   0.621   0.117  0.6079 -0.1487 -0.0804
 6894SOL    HW132318   1.680   0.655   0.094  0.1637  1.1571  0.1666
 6894SOL    HW232319   1.628   0.538   0.150 -2.0360 -1.4879 -0.7559
 6895SOL     OW32320   1.603   0.262   2.718  0.3531  0.2374  0.1328
 6895SOL    HW132321   1.635   0.310   2.794  2.0121  1.3892 -1.2693
 6895SOL    HW232322   1.653   0.181   2.716 -1.1235 -0.6705  0.2699
 6896SOL     OW32323   2.255   3.202   2.472 -0.4967  0.1831  0.4256
 6896SOL    HW132324   2.268   3.109   2.455 -1.7517  0.0303  0.2687
 6896SOL    HW232325   2.233   3.229   2.383  1.3100 -0.0789 -0.0923
 6897SOL     OW32326   1.939   2.770  10.864  0.5646  0.0774 -0.2017
 6897SOL    HW132327   1.963   2.784  10.773  0.6475  0.9650 -0.0481
 6897SOL    HW232328   1.965   2.679  10.879 -2.6031 -0.8180 -0.2000
 6898SOL     OW32329   1.562   4.422   5.754  0.1246  0.2295  0.6100
 6898SOL    HW132330   1.503   4.400   5.682 -1.9338  1.9687  1.7525
 6898SOL    HW232331   1.592   4.512   5.740 -0.3744  0.5964  1.8948
 6899SOL     OW32332   3.777   1.346   1.035  0.0126  0.4411  0.4897
 6899SOL    HW132333   3.727   1.270   1.005  1.3505 -0.9377  1.7588
 6899SOL    HW232334   3.864   1.327   1.000  0.1176 -2.1453  2.1523
 6900SOL     OW32335   4.145   0.388  12.576  0.3334  0.0389 -0.4078
 6900SOL    HW132336   4.055   0.356  12.563  0.2379 -0.3919  1.3307
 6900SOL    HW232337   4.140   0.405  12.670  2.1060  0.8467 -0.4560
 6901SOL     OW32338   4.323   1.365  17.708 -0.3235 -0.2556  0.3186
 6901SOL    HW132339   4.370   1.339  17.629  1.7819 -0.0531  1.5227
 6901SOL    HW232340   4.339   1.286   0.005  0.7829 -1.7859 -2.3674
 6902SOL     OW32341   2.288   3.063  11.888 -0.2224 -0.1440  0.2843
 6902SOL    HW132342   2.361   3.072  11.827 -0.7749  0.0771 -0.3356
 6902SOL    HW232343   2.265   3.156  11.898 -2.8183 -0.3933 -3.8066
 6903SOL     OW32344   0.634   3.671   2.087  0.4829  0.2698  0.4717
 6903SOL    HW132345   0.581   3.590   2.090  0.3257  0.3600  0.0745
 6903SOL    HW232346   0.721   3.633   2.074 -0.7331 -2.7441  1.0993
 6904SOL     OW32347   0.818   1.287  12.309 -0.5726  0.0926 -0.3960
 6904SOL    HW132348   0.841   1.226  12.238  1.2210 -1.8942  1.9079
 6904SOL    HW232349   0.829   1.372  12.266  1.7125  0.4102  0.8016
 6905SOL     OW32350   2.826   2.092   6.654  0.0224  0.4249  0.4246
 6905SOL    HW132351   2.906   2.077   6.604  0.1472 -2.3052  1.4005
 6905SOL    HW232352   2.838   2.079   6.748  0.1496  2.2382  0.6441
 6906SOL     OW32353   2.499   1.237  15.808  0.4058  0.0647  0.1084
 6906SOL    HW132354   2.464   1.244  15.897 -3.8275  0.3370 -1.5861
 6906SOL    HW232355   2.593   1.241  15.828  0.7512 -0.2586 -1.4966
 6907SOL     OW32356   0.029   0.819  12.505  0.5353 -0.3531 -0.3867
 6907SOL    HW132357   4.689   0.840  12.456  0.0911 -0.3893  0.3208
 6907SOL    HW232358   0.095   0.858  12.447  0.1674  1.5917  0.4794
 6908SOL     OW32359   0.724   3.409   5.418  0.6941  0.3732  0.7772
 6908SOL    HW132360   0.785   3.371   5.482  0.3938 -1.1605  0.1643
 6908SOL    HW232361   0.695   3.332   5.368  0.0108  0.8270  0.4804
 6909SOL     OW32362   0.018   0.287   3.611 -0.1841  0.1790  0.2266
 6909SOL    HW132363   0.088   0.307   3.673  0.2434  0.2868 -0.2886
 6909SOL    HW232364   4.711   0.371   3.617  0.4919  0.3885  2.2648
 6910SOL     OW32365   1.753   3.497   0.333  0.1304  0.4900 -0.0586
 6910SOL    HW132366   1.695   3.573   0.319 -2.2343 -1.3073 -0.0405
 6910SOL    HW232367   1.829   3.540   0.371  0.3498  0.0448  0.0008
 6911SOL     OW32368   4.233   1.363   4.217  0.3631 -0.2513 -0.0782
 6911SOL    HW132369   4.151   1.315   4.207  0.1797 -0.0045  0.2730
 6911SOL    HW232370   4.266   1.365   4.127  0.1257  2.4101 -0.1031
 6912SOL     OW32371   3.135   2.950   3.687 -0.3263  0.0851 -0.1318
 6912SOL    HW132372   3.218   2.935   3.732 -0.3470  0.5736  0.0766
 6912SOL    HW232373   3.158   2.918   3.600  0.5065  0.4089 -0.0334
 6913SOL     OW32374   4.611   1.791  15.494  0.2719  0.5374 -0.3187
 6913SOL    HW132375   4.558   1.724  15.451 -1.9126  1.3189  1.1334
 6913SOL    HW232376   4.701   1.770  15.467  0.4480 -0.9615  1.4142
 6914SOL     OW32377   1.149   4.123   4.086  0.0510  0.1022  0.0034
 6914SOL    HW132378   1.206   4.049   4.067  2.7842  2.4233 -0.7053
 6914SOL    HW232379   1.061   4.083   4.083  0.9370 -1.9479  1.5212
 6915SOL     OW32380   1.034   0.627   5.669 -0.8902  0.1951 -0.1814
 6915SOL    HW132381   1.034   0.532   5.655  1.5077  0.0269  0.8946
 6915SOL    HW232382   1.088   0.665   5.599 -0.6789  0.9451  0.3935
 6916SOL     OW32383   0.790   4.568   5.769  0.1535  0.3726  0.5131
 6916SOL    HW132384   0.697   4.590   5.765  0.1250  0.8011  3.0808
 6916SOL    HW232385   0.804   4.539   5.679  0.7760  0.6709  0.5140
 6917SOL     OW32386   2.359   3.867   0.126 -0.2826 -0.0026  0.5791
 6917SOL    HW132387   2.379   3.785   0.079  0.7299  0.8204 -0.4207
 6917SOL    HW232388   2.443   3.912   0.116 -0.0245 -0.7168 -0.4520
 6918SOL     OW32389   1.882   1.435   2.039 -0.2521 -0.2649 -0.3765
 6918SOL    HW132390   1.946   1.396   1.980  0.3857 -2.6645  1.8682
 6918SOL    HW232391   1.808   1.377   2.019  0.6358 -1.2771 -0.7301
 6919SOL     OW32392   2.651   0.538   4.483 -0.1608  0.3167 -0.2760
 6919SOL    HW132393   2.720   0.581   4.533 -0.6056  0.8230 -0.0989
 6919SOL    HW232394   2.596   0.506   4.554 -0.7917  1.4275 -0.2733
 6920SOL     OW32395   2.316   2.958   2.307  0.3067  0.2324 -0.2358
 6920SOL    HW132396   2.381   3.022   2.279  0.8412 -0.5098 -0.6894
 6920SOL    HW232397   2.361   2.874   2.317  0.4792  0.0870 -2.2364
 6921SOL     OW32398   3.992   0.232   7.937 -0.7144  0.7448 -0.3575
 6921SOL    HW132399   3.907   0.275   7.948 -1.6260 -1.3047  0.5142
 6921SOL    HW232400   4.046   0.256   8.012 -0.4593  0.8680 -0.5797
 6922SOL     OW32401   3.690   2.014   3.239  0.0275 -0.4911  0.8327
 6922SOL    HW132402   3.614   2.061   3.204  1.9394  1.1037 -1.1608
 6922SOL    HW232403   3.736   2.077   3.295 -0.2540  0.2809  0.2066
 6923SOL     OW32404   1.181   0.049   9.981 -0.5525 -0.4445  0.1445
 6923SOL    HW132405   1.187   4.693   9.991  1.4471 -0.4612 -1.1211
 6923SOL    HW232406   1.271   0.067   9.953 -1.2865  2.3602 -0.4371
 6924SOL     OW32407   2.971   1.433   2.787  0.1491  0.3819  0.1886
 6924SOL    HW132408   2.911   1.508   2.783 -0.6583 -0.3055 -0.4489
 6924SOL    HW232409   2.986   1.431   2.882 -1.4056 -1.0231  0.3986
 6925SOL     OW32410   3.157   0.747   7.036 -0.4815  0.7083 -0.5320
 6925SOL    HW132411   3.233   0.718   7.086  0.6492 -0.1534 -2.7620
 6925SOL    HW232412   3.146   0.822   7.095  0.9622  0.3852  0.1409
 6926SOL     OW32413   2.592   1.948   6.654  0.6958  0.5014 -0.4019
 6926SOL    HW132414   2.644   1.882   6.699  0.0212  0.6711  0.6240
 6926SOL    HW232415   2.662   2.013   6.651  1.4357 -0.1556  2.1874
 6927SOL     OW32416   1.607   1.478   5.442 -0.0282 -0.1429  0.5715
 6927SOL    HW132417   1.575   1.442   5.525  1.5749  0.6167  1.5251
 6927SOL    HW232418   1.689   1.428   5.439  0.6380  1.0926 -1.3647
 6928SOL     OW32419   1.384   3.918   9.637  0.4304 -0.5897 -0.0552
 6928SOL    HW132420   1.444   3.843   9.645 -0.0847 -1.1118 -1.0006
 6928SOL    HW232421   1.338   3.921   9.721 -0.4869 -0.8914 -0.5480
 6929SOL     OW32422   0.244   1.413   3.494  0.1029  0.0557 -0.0399
 6929SOL    HW132423   0.171   1.396   3.435  0.0253  1.1379 -0.2555
 6929SOL    HW232424   0.185   1.425   3.568 -2.1907  0.1674 -1.8799
 6930SOL     OW32425   3.846   3.822   8.894 -0.2320  0.5581  0.5697
 6930SOL    HW132426   3.857   3.753   8.827 -0.1844 -0.1550  1.3113
 6930SOL    HW232427   3.755   3.817   8.923  0.0763  0.3936  1.5018
 6931SOL     OW32428   3.037   2.888   7.711  0.2162 -0.2808 -0.2144
 6931SOL    HW132429   3.095   2.837   7.768  0.3284  0.9013  0.7481
 6931SOL    HW232430   3.076   2.873   7.625 -0.3308 -1.0898 -0.3226
 6932SOL     OW32431   3.677   3.830   2.406 -0.2572  0.4996  0.3533
 6932SOL    HW132432   3.719   3.746   2.423  1.4245  0.9673 -1.5297
 6932SOL    HW232433   3.634   3.840   2.491  0.7863 -0.2430  0.9650
 6933SOL     OW32434   1.716   1.600   4.276 -0.3504 -0.1271 -0.0680
 6933SOL    HW132435   1.772   1.529   4.307 -1.3506 -0.4414  1.0165
 6933SOL    HW232436   1.775   1.642   4.213 -1.5565 -0.4323 -1.4279
 6934SOL     OW32437   1.211   0.431   7.986  0.4092  0.2518 -0.1224
 6934SOL    HW132438   1.172   0.396   7.906  1.1886 -1.6128  0.3043
 6934SOL    HW232439   1.203   0.360   8.050 -0.8177  0.4133 -0.1081
 6935SOL     OW32440   1.113   2.447   8.286  0.2243 -0.0334 -0.7641
 6935SOL    HW132441   1.077   2.428   8.199 -3.7124  1.7537  0.4623
 6935SOL    HW232442   1.130   2.542   8.282  0.2699 -0.0292 -0.4378
 6936SOL     OW32443   0.944   2.412   6.854 -0.0637  0.0323 -0.1130
 6936SOL    HW132444   0.961   2.499   6.889  0.6432 -0.7242  1.4225
 6936SOL    HW232445   0.997   2.418   6.775 -1.3397 -1.1538 -1.0695
 6937SOL     OW32446   4.540   4.339   7.140  0.4286  0.5605 -0.0101
 6937SOL    HW132447   4.608   4.339   7.208 -0.6334  1.6531  1.0514
 6937SOL    HW232448   4.465   4.292   7.176  1.6318  0.1497  1.9732
 6938SOL     OW32449   0.285   1.239  11.045  0.9575 -0.3228  0.3139
 6938SOL    HW132450   0.318   1.277  10.964 -0.2238  0.2015  0.0715
 6938SOL    HW232451   0.294   1.145  11.035  3.2985  0.0608 -0.9829
 6939SOL     OW32452   1.973   3.716   6.544 -0.7620 -0.1448  0.0494
 6939SOL    HW132453   1.893   3.705   6.594 -1.3353 -1.3380 -1.1187
 6939SOL    HW232454   1.939   3.729   6.456 -1.0488  1.0617  0.3452
 6940SOL     OW32455   0.042   0.552   6.235  0.5031  0.0909  0.1109
 6940SOL    HW132456   4.730   0.512   6.305 -2.6390  1.7341 -1.2611
 6940SOL    HW232457   0.090   0.477   6.198 -0.4957 -1.1607  1.3570
 6941SOL     OW32458   1.791   0.154   0.205 -0.4135 -0.3410  0.1561
 6941SOL    HW132459   1.770   0.069   0.243 -1.3849  0.2501  0.9442
 6941SOL    HW232460   1.858   0.119   0.146  1.2301  1.1457  1.1181
 6942SOL     OW32461   1.532   4.223   4.566  0.1018  0.6713  0.0496
 6942SOL    HW132462   1.458   4.231   4.507 -0.0728  1.9016  0.4497
 6942SOL    HW232463   1.528   4.135   4.603  1.7263 -0.4934 -2.4878
 6943SOL     OW32464   0.383   0.877   1.383 -0.3168 -0.4241 -0.8546
 6943SOL    HW132465   0.343   0.809   1.437 -0.8048 -1.1830 -2.1868
 6943SOL    HW232466   0.460   0.826   1.361 -2.0307 -4.1204  1.6989
 6944SOL     OW32467   4.287   4.205  11.069 -0.3172 -0.1596 -0.1081
 6944SOL    HW132468   4.231   4.232  11.142  0.6865  2.2102 -0.2243
 6944SOL    HW232469   4.232   4.234  10.996  0.5655  0.3811 -0.5557
 6945SOL     OW32470   1.683   0.226   8.180 -0.2555  0.0445 -0.0474
 6945SOL    HW132471   1.672   0.134   8.154  0.9911  0.1034 -0.7711
 6945SOL    HW232472   1.756   0.213   8.239 -0.2128  0.4968 -0.0002
 6946SOL     OW32473   0.480   0.670   2.616 -0.3332 -0.0465 -0.1814
 6946SOL    HW132474   0.428   0.693   2.539 -2.4563 -1.8005  0.7240
 6946SOL    HW232475   0.479   0.575   2.612 -0.9891 -0.0153 -0.7914
 6947SOL     OW32476   2.449   3.780   5.968  0.0174 -0.2900 -0.5040
 6947SOL    HW132477   2.476   3.835   6.041  3.0443 -0.1326 -1.7189
 6947SOL    HW232478   2.375   3.735   6.009 -0.7653  1.0330 -0.4793
 6948SOL     OW32479   4.110   3.276   5.244  0.5076 -0.1050 -0.0259
 6948SOL    HW132480   4.159   3.358   5.256 -1.4043  0.9998  0.2707
 6948SOL    HW232481   4.057   3.301   5.168 -3.1060 -1.3129  2.0659
 6949SOL     OW32482   2.081   1.893   8.309 -0.4437 -0.3736 -0.6085
 6949SOL    HW132483   2.063   1.799   8.303 -2.0193 -0.0211 -1.4140
 6949SOL    HW232484   2.165   1.885   8.353 -1.0322  0.5629  0.6660
 6950SOL     OW32485   2.893   1.956   5.342 -0.0727  0.3517 -0.0679
 6950SOL    HW132486   2.875   1.877   5.393 -0.5799  0.5273  0.0218
 6950SOL    HW232487   2.975   1.929   5.300 -0.3205  1.5941 -1.3640
 6951SOL     OW32488   0.896   4.538   7.134  0.3093  0.2496 -0.4048
 6951SOL    HW132489   0.820   4.537   7.192  1.3015 -0.1237  0.8988
 6951SOL    HW232490   0.933   4.450   7.144  0.7351  0.1963 -2.4803
 6952SOL     OW32491   1.798   2.425   5.326  0.0270 -0.0568 -0.3107
 6952SOL    HW132492   1.868   2.467   5.276  0.3896 -0.0758  0.1725
 6952SOL    HW232493   1.849   2.346   5.348 -2.0846 -1.9601 -2.3298
 6953SOL     OW32494   4.451   2.705   1.745  0.1079 -0.1707 -1.1673
 6953SOL    HW132495   4.368   2.723   1.788  1.3088  0.4497  0.8874
 6953SOL    HW232496   4.488   2.788   1.715  0.3582 -0.2775 -1.1630
 6954SOL     OW32497   0.393   2.476   5.907  0.0757 -0.2828  0.2089
 6954SOL    HW132498   0.346   2.559   5.898  2.1793  0.9672  0.6535
 6954SOL    HW232499   0.477   2.499   5.948  0.4947  0.7614 -1.2668
 6955SOL     OW32500   2.100   2.905   4.490 -0.4796 -0.0701  0.0758
 6955SOL    HW132501   2.122   2.827   4.439 -0.2002 -1.6384  2.6145
 6955SOL    HW232502   2.017   2.878   4.529 -0.2396 -0.0927  0.5744
 6956SOL     OW32503   4.664   3.000  13.678 -0.1624  0.5667  0.1380
 6956SOL    HW132504   4.666   3.084  13.631 -1.5787 -0.7214 -2.1667
 6956SOL    HW232505   0.006   3.008  13.728 -0.7414 -1.1555  1.3282
 6957SOL     OW32506   4.269   3.004   0.341  0.5274 -0.2002 -0.1366
 6957SOL    HW132507   4.202   2.949   0.300  0.3207 -1.1076  1.3955
 6957SOL    HW232508   4.292   2.946   0.414 -1.3597 -0.8318 -0.0350
 6958SOL     OW32509   1.418   2.258   5.569  0.3712 -0.1708 -0.9268
 6958SOL    HW132510   1.415   2.198   5.643  1.8662 -0.7608 -1.3380
 6958SOL    HW232511   1.382   2.336   5.611 -0.3028 -0.7265 -0.4598
 6959SOL     OW32512   2.499   4.309   2.608  0.4111 -0.0442 -0.7755
 6959SOL    HW132513   2.516   4.233   2.664 -1.6640  0.3762  0.4557
 6959SOL    HW232514   2.479   4.377   2.673 -2.0465 -0.3376 -1.2318
 6960SOL     OW32515   2.071   3.568   1.572  0.3965 -0.4909 -0.8379
 6960SOL    HW132516   1.998   3.512   1.545 -2.2735  3.1219 -1.1721
 6960SOL    HW232517   2.096   3.589   1.483 -0.4124  0.9299 -0.7207
 6961SOL     OW32518   0.106   2.752   0.365 -0.1487 -0.1004  0.1685
 6961SOL    HW132519   0.051   2.679   0.338  1.2339 -0.3285 -2.1105
 6961SOL    HW232520   0.177   2.707   0.412  1.1264  1.1181 -0.5957
 6962SOL     OW32521   2.503   1.958  14.286  0.0273 -0.1052 -0.1320
 6962SOL    HW132522   2.484   1.872  14.323  0.9507  0.1103  0.8609
 6962SOL    HW232523   2.420   1.979  14.243 -0.7756 -2.3075  0.3443
 6963SOL     OW32524   2.098   0.720   6.539 -0.0320  0.1004  0.3969
 6963SOL    HW132525   2.034   0.777   6.498 -0.3715 -0.4185  0.2030
 6963SOL    HW232526   2.072   0.731   6.631 -0.3291 -2.3801  0.6256
 6964SOL     OW32527   4.526   3.522   0.589  0.7219  0.1755  0.1352
 6964SOL    HW132528   4.458   3.568   0.540 -2.2468 -1.9452  2.2239
 6964SOL    HW232529   4.564   3.583   0.652  0.9242 -1.4591  1.6224
 6965SOL     OW32530   1.108   0.985   5.685  0.5607 -0.3611 -0.4039
 6965SOL    HW132531   1.122   0.892   5.664 -1.0322 -0.2080 -2.1498
 6965SOL    HW232532   1.061   1.023   5.611  1.3493  0.2095 -0.5963
 6966SOL     OW32533   1.505   1.499   6.688 -0.3259  0.4508 -0.0470
 6966SOL    HW132534   1.467   1.422   6.646 -0.9462  0.4508  0.5195
 6966SOL    HW232535   1.577   1.465   6.741 -0.4272 -1.1970 -0.9843
 6967SOL     OW32536   1.680   4.372   6.928  0.1732  0.3529  0.2526
 6967SOL    HW132537   1.592   4.338   6.948  0.3054  1.1748  2.1295
 6967SOL    HW232538   1.657   4.465   6.926  0.1747  0.3704  1.3007
 6968SOL     OW32539   4.718   0.074   8.285  0.3480  0.0152  0.2944
 6968SOL    HW132540   0.044   0.081   8.215  0.0605 -1.2203 -0.0996
 6968SOL    HW232541   0.018   0.001   8.333  0.2449  1.2074  2.2156
 6969SOL     OW32542   1.963   1.684   7.608 -0.2552  0.7130 -0.3695
 6969SOL    HW132543   2.034   1.697   7.671  1.7003 -2.4107 -1.9212
 6969SOL    HW232544   1.953   1.591   7.631  0.3137  0.9826  0.9465
 6970SOL     OW32545   1.625   2.951   4.723 -0.2072  0.1040 -1.0795
 6970SOL    HW132546   1.705   2.910   4.692 -0.3101 -1.5138  0.7883
 6970SOL    HW232547   1.663   3.019   4.779 -0.0830 -0.6373 -0.2712
 6971SOL     OW32548   3.699   3.967  16.299  0.2253  0.1093 -1.0530
 6971SOL    HW132549   3.707   3.874  16.319  1.5451  0.7909  1.7136
 6971SOL    HW232550   3.699   3.999  16.389  1.1533 -0.7543 -0.7504
 6972SOL     OW32551   3.395   0.513   9.869 -0.2658 -0.0738  0.0716
 6972SOL    HW132552   3.428   0.502   9.780  0.1720 -0.6518  0.2981
 6972SOL    HW232553   3.402   0.608   9.868 -1.4832 -0.0211 -2.3227
 6973SOL     OW32554   3.897   0.821   2.479  0.1728  0.0317  0.4110
 6973SOL    HW132555   3.903   0.916   2.477  0.5282  0.0058  0.4082
 6973SOL    HW232556   3.913   0.806   2.572  0.9788  1.3693  0.4884
 6974SOL     OW32557   2.392   3.608   6.861 -0.0266  0.3716  0.0124
 6974SOL    HW132558   2.338   3.655   6.797 -2.1977 -1.3664  0.5376
 6974SOL    HW232559   2.410   3.540   6.796 -0.6504 -0.9173  1.1866
 6975SOL     OW32560   2.190   2.841   6.789 -0.4630  0.2197 -0.4602
 6975SOL    HW132561   2.122   2.787   6.750  0.9097 -1.3215 -0.6907
 6975SOL    HW232562   2.260   2.838   6.724 -1.3938 -1.2323 -1.3840
 6976SOL     OW32563   2.169   2.853   5.023  0.5610  0.0329 -0.2323
 6976SOL    HW132564   2.254   2.808   5.019 -0.0971 -1.3913  1.3912
 6976SOL    HW232565   2.176   2.909   4.946  4.3505  0.1076  0.1764
 6977SOL     OW32566   2.261   0.672  11.353 -0.2651  0.1429  0.4882
 6977SOL    HW132567   2.217   0.749  11.390  1.0546  2.2549 -2.2859
 6977SOL    HW232568   2.261   0.617  11.431 -0.9485  0.5998  0.8113
 6978SOL     OW32569   4.014   2.997  10.974 -0.2850 -0.1813 -0.0872
 6978SOL    HW132570   3.966   3.077  10.994 -1.7028 -0.7141 -1.3354
 6978SOL    HW232571   4.007   2.990  10.879 -1.0840 -1.7094  0.0756
 6979SOL     OW32572   3.381   2.221   8.913 -0.2594  0.0742 -0.1518
 6979SOL    HW132573   3.409   2.129   8.914  0.4410  0.3053  3.1933
 6979SOL    HW232574   3.286   2.204   8.912 -0.3026  0.2782  0.2315
 6980SOL     OW32575   1.193   1.895   4.159 -0.5244  0.1359 -0.0800
 6980SOL    HW132576   1.185   1.863   4.069 -0.5521 -0.0180 -0.0224
 6980SOL    HW232577   1.141   1.829   4.204 -1.9213  0.5036 -1.1570
 6981SOL     OW32578   2.892   1.867   5.046 -0.0588  0.5170  0.3250
 6981SOL    HW132579   2.838   1.939   5.079 -1.2423  0.2596 -1.0212
 6981SOL    HW232580   2.982   1.894   5.065 -0.6436  1.4856  1.7209
 6982SOL     OW32581   0.471   0.522   3.027  0.2640 -0.4246  0.6926
 6982SOL    HW132582   0.542   0.458   3.038 -0.6685 -1.0854  2.8272
 6982SOL    HW232583   0.519   0.594   2.987 -1.8341  1.1141  0.9675
 6983SOL     OW32584   0.882   1.255   5.093  0.1911 -0.4594  0.2241
 6983SOL    HW132585   0.796   1.219   5.118 -0.9441  1.2732 -1.1857
 6983SOL    HW232586   0.864   1.349   5.094  0.1019 -0.4706 -0.6904
 6984SOL     OW32587   3.580   0.716   4.931 -0.1997 -0.1487 -0.0902
 6984SOL    HW132588   3.530   0.665   4.995 -2.6542  0.1104 -1.7669
 6984SOL    HW232589   3.662   0.674   4.907 -0.1420 -1.5065  2.4932
 6985SOL     OW32590   3.715   4.209  11.145  0.2204  0.0566  0.1080
 6985SOL    HW132591   3.760   4.292  11.162  0.4237  0.1557 -0.9484
 6985SOL    HW232592   3.746   4.163  11.223  1.8365 -0.0242 -0.5879
 6986SOL     OW32593   1.148   0.490   2.949 -0.0688 -0.5750  0.4868
 6986SOL    HW132594   1.214   0.448   2.894  2.5999  1.0699  2.4487
 6986SOL    HW232595   1.071   0.433   2.942  0.7929 -1.9316  1.8149
 6987SOL     OW32596   0.423   3.773   4.194 -1.0585  0.0494  0.5438
 6987SOL    HW132597   0.391   3.735   4.276  0.0942 -0.5887  0.7023
 6987SOL    HW232598   0.508   3.731   4.184  0.3326  2.5946  1.6844
 6988SOL     OW32599   3.021   2.279   2.402 -0.2466 -0.0030  0.1105
 6988SOL    HW132600   2.964   2.312   2.333 -1.7319  0.7390  1.7114
 6988SOL    HW232601   2.968   2.217   2.451  0.2097  0.6914  1.4865
 6989SOL     OW32602   2.621   2.024   5.923  0.3361  0.1253  0.2607
 6989SOL    HW132603   2.599   2.093   5.987 -2.7685  0.7547 -1.4923
 6989SOL    HW232604   2.581   1.946   5.960 -0.1810 -0.7550 -2.1585
 6990SOL     OW32605   3.545   3.098  11.897  0.1360 -0.9961  0.2281
 6990SOL    HW132606   3.467   3.071  11.849 -0.2961 -0.0671  0.4083
 6990SOL    HW232607   3.516   3.140  11.978 -1.4221  0.2411 -0.9691
 6991SOL     OW32608   4.167   2.362   4.066  0.0543 -0.2022  0.1645
 6991SOL    HW132609   4.125   2.284   4.030  1.5721 -0.6088 -0.7333
 6991SOL    HW232610   4.130   2.368   4.154  0.6072  0.0050  0.3867
 6992SOL     OW32611   4.535   4.642  13.576 -0.0221  0.3020  0.4608
 6992SOL    HW132612   4.560   4.660  13.485 -0.1867 -1.1114  0.1473
 6992SOL    HW232613   4.564   4.553  13.596 -0.2781 -0.0193 -0.5983
 6993SOL     OW32614   1.013   0.626   0.058 -0.3324 -0.4819 -0.3172
 6993SOL    HW132615   0.925   0.631   0.095 -0.3316  0.7546 -0.4771
 6993SOL    HW232616   1.022   0.539   0.020  1.7893 -1.3533  2.1494
 6994SOL     OW32617   2.982   3.482   2.399  0.4528 -0.2697 -0.0618
 6994SOL    HW132618   2.941   3.553   2.350 -0.7592 -1.2403 -0.4288
 6994SOL    HW232619   2.938   3.405   2.365  1.6394 -1.8264  1.8951
 6995SOL     OW32620   3.414   0.087   7.710 -0.4750  0.0510  0.5174
 6995SOL    HW132621   3.341   0.077   7.771 -1.0515  1.1818  0.0165
 6995SOL    HW232622   3.372   0.109   7.627 -1.0695  1.5609  1.2132
 6996SOL     OW32623   3.726   1.714   1.963  0.2394  0.2371 -0.0564
 6996SOL    HW132624   3.774   1.702   2.044 -0.4331  0.0357  0.3112
 6996SOL    HW232625   3.806   1.713   1.910  0.5712  0.0204  0.4584
 6997SOL     OW32626   2.931   1.019   5.044 -0.4631  0.4383  0.4299
 6997SOL    HW132627   3.010   1.071   5.058  0.8229 -1.5199  0.3758
 6997SOL    HW232628   2.886   1.094   5.005  0.9957  0.9752 -0.2054
 6998SOL     OW32629   3.875   2.015   2.882  0.0718  0.0101  0.5816
 6998SOL    HW132630   3.856   1.924   2.857 -1.5317 -0.3175  2.9374
 6998SOL    HW232631   3.791   2.044   2.919 -1.0778 -3.0020  0.3492
 6999SOL     OW32632   2.908   3.423   7.944  0.1346 -0.2632 -0.1092
 6999SOL    HW132633   2.975   3.354   7.939  1.7246  1.1880  0.7392
 6999SOL    HW232634   2.884   3.430   7.852  1.1958 -0.5985 -0.4176
 7000SOL     OW32635   2.975   3.147   7.857 -0.2372 -0.7462  0.0896
 7000SOL    HW132636   3.019   3.068   7.827  0.4148 -0.0532 -0.8074
 7000SOL    HW232637   2.947   3.180   7.772 -2.3425 -1.2032  0.6263
 7001SOL     OW32638   2.593   2.596  12.914  0.3443 -0.5953  0.0420
 7001SOL    HW132639   2.603   2.678  12.865  1.7640 -0.1832  1.0305
 7001SOL    HW232640   2.620   2.612  13.004  0.3330 -0.6220  0.0502
 7002SOL     OW32641   2.778   1.215   4.936 -0.4446 -0.6405  0.4429
 7002SOL    HW132642   2.764   1.188   4.845  0.4626  2.5428 -0.6538
 7002SOL    HW232643   2.728   1.297   4.938 -0.8389 -0.8512 -0.5983
 7003SOL     OW32644   3.929   3.998   7.759 -0.9208 -0.1702 -0.0769
 7003SOL    HW132645   3.938   3.907   7.786 -3.3838 -0.1807  0.6650
 7003SOL    HW232646   3.991   4.037   7.821 -1.3815 -0.7895  0.7760
 7004SOL     OW32647   4.702   4.420   6.477 -0.0812 -0.3054 -1.1912
 7004SOL    HW132648   4.687   4.338   6.430 -0.8775  0.1128 -1.6639
 7004SOL    HW232649   0.056   4.410   6.497 -0.8032  0.4352  2.5953
 7005SOL     OW32650   3.786   2.563   9.715 -0.6575 -0.2017 -0.2819
 7005SOL    HW132651   3.742   2.601   9.791  0.5740  0.2439  0.2039
 7005SOL    HW232652   3.818   2.645   9.679  1.0830 -2.5569 -4.1490
 7006SOL     OW32653   1.983   3.086   0.498  0.3981  0.1904  0.2357
 7006SOL    HW132654   1.892   3.059   0.487  0.8753 -0.8889 -1.1637
 7006SOL    HW232655   1.994   3.082   0.593 -0.5645 -1.3791  0.2785
 7007SOL     OW32656   3.648   4.237   9.278 -0.3691  0.0575 -0.3391
 7007SOL    HW132657   3.676   4.217   9.188  0.1665 -1.4011  0.1431
 7007SOL    HW232658   3.693   4.319   9.296 -2.1247  0.5647  1.6284
 7008SOL     OW32659   1.016   3.583   6.695 -0.1231 -0.1580  0.3121
 7008SOL    HW132660   0.958   3.651   6.661  1.5731  1.1800  0.1313
 7008SOL    HW232661   1.046   3.621   6.778 -0.5224  0.4060  0.1990
 7009SOL     OW32662   3.089   1.665  13.569 -0.3598  0.8440 -0.1462
 7009SOL    HW132663   3.074   1.576  13.602 -1.5255  0.5422 -1.4647
 7009SOL    HW232664   3.094   1.640  13.476 -1.4392  3.1820 -0.8345
 7010SOL     OW32665   2.806   2.687   1.732 -0.5373  0.4504  0.1807
 7010SOL    HW132666   2.822   2.593   1.722  0.3984  0.3597  2.5897
 7010SOL    HW232667   2.856   2.717   1.656  1.1115 -1.1512  0.6249
 7011SOL     OW32668   2.756   1.085  11.124  0.0273  0.5278  0.3822
 7011SOL    HW132669   2.722   1.168  11.091  2.2933  1.0514 -0.6185
 7011SOL    HW232670   2.681   1.035  11.156 -0.7312  2.6639  2.0026
 7012SOL     OW32671   4.396   0.293  17.676 -0.1259 -0.0957  0.7526
 7012SOL    HW132672   4.393   0.288  17.581  0.5804 -1.0038  0.7815
 7012SOL    HW232673   4.305   0.316  17.697 -0.1981 -0.5266  0.8974
 7013SOL     OW32674   4.691   0.837  16.254  0.4208  0.2632  0.1555
 7013SOL    HW132675   0.029   0.894  16.256  0.3720  0.3460 -0.2100
 7013SOL    HW232676   4.619   0.890  16.221  0.1586  1.2299  2.2830
 7014SOL     OW32677   1.963   3.797   7.190 -0.3103  0.4165 -0.1603
 7014SOL    HW132678   1.925   3.878   7.224 -1.4373  0.2615 -1.0565
 7014SOL    HW232679   2.049   3.831   7.162  0.0861 -0.7760 -0.3858
 7015SOL     OW32680   0.769   0.265  16.061  0.3707  0.1898  0.8948
 7015SOL    HW132681   0.849   0.291  16.106 -0.0187 -0.7108  2.1185
 7015SOL    HW232682   0.788   0.298  15.973 -1.1525  1.2156  0.9495
 7016SOL     OW32683   3.513   0.539   8.267  0.6751  0.5440 -0.0621
 7016SOL    HW132684   3.587   0.599   8.269 -1.1068  2.7827 -0.8805
 7016SOL    HW232685   3.544   0.475   8.331 -0.8832  0.2770  0.4339
 7017SOL     OW32686   0.378   3.683  14.603  0.0856 -0.8213  0.3495
 7017SOL    HW132687   0.349   3.607  14.654 -3.8489  0.8054  0.5517
 7017SOL    HW232688   0.301   3.687  14.546  0.4609  1.3720  0.0063
 7018SOL     OW32689   1.170   0.623   3.895 -0.4661  0.2386 -0.9100
 7018SOL    HW132690   1.128   0.630   3.809  1.8283 -0.2765 -2.0603
 7018SOL    HW232691   1.101   0.643   3.958  2.4189  3.3035  1.2433
 7019SOL     OW32692   1.730   1.272   5.971 -0.0152 -0.2537  0.2851
 7019SOL    HW132693   1.808   1.303   5.925  1.5437 -0.5150  2.7404
 7019SOL    HW232694   1.692   1.351   6.009  0.7138 -0.5618  1.6567
 7020SOL     OW32695   3.324   0.377   6.994 -0.8622  0.5300 -0.4652
 7020SOL    HW132696   3.410   0.414   7.013 -0.7461  0.3840 -0.7025
 7020SOL    HW232697   3.306   0.364   7.087 -0.2020  0.4819 -0.3433
 7021SOL     OW32698   1.858   0.719   0.085  0.0240  0.3583 -0.1599
 7021SOL    HW132699   1.879   0.803   0.127  1.9065  0.0204 -0.4227
 7021SOL    HW232700   1.872   0.665   0.162  0.6102  1.0597  0.2331
 7022SOL     OW32701   3.042   0.852   2.330 -0.5528  0.8990 -0.5086
 7022SOL    HW132702   2.957   0.874   2.367 -0.0037  1.8434  0.1754
 7022SOL    HW232703   3.010   0.851   2.240  1.2384  0.2304 -1.1482
 7023SOL     OW32704   0.099   2.047   7.550  0.0580 -0.1080  0.0684
 7023SOL    HW132705   0.096   2.116   7.616 -0.0327 -1.5292  1.5405
 7023SOL    HW232706   0.005   2.029   7.543 -0.1980  0.5548  1.7138
 7024SOL     OW32707   1.191   3.489   5.242  0.4198 -0.0692 -0.5851
 7024SOL    HW132708   1.104   3.506   5.278  1.0303  2.2683 -0.1902
 7024SOL    HW232709   1.241   3.553   5.294  0.7159  1.5301 -2.8601
 7025SOL     OW32710   4.216   1.512   3.059 -0.0201 -0.0776  0.8114
 7025SOL    HW132711   4.236   1.422   3.034 -1.2592 -0.1934  0.2460
 7025SOL    HW232712   4.134   1.538   3.016 -1.1745 -1.6625  2.0637
 7026SOL     OW32713   1.973   2.994  15.256  0.8660  0.0565 -0.2196
 7026SOL    HW132714   1.996   2.917  15.308  1.1892  0.3878  0.1342
 7026SOL    HW232715   1.906   3.042  15.305  1.5120  0.7873 -0.0370
 7027SOL     OW32716   3.911   2.084   8.163  0.2941 -0.4342  0.5143
 7027SOL    HW132717   3.980   2.140   8.128  3.2490 -2.7966  2.6799
 7027SOL    HW232718   3.955   2.003   8.187  1.8020  0.8634  2.1153
 7028SOL     OW32719   0.024   1.960   7.899 -0.4139  0.3362  0.4613
 7028SOL    HW132720   0.057   1.909   7.972 -0.7914  0.0853  0.4527
 7028SOL    HW232721   0.056   2.047   7.925 -1.5781  0.6251  0.9407
 7029SOL     OW32722   4.561   1.120   4.537 -0.2735  0.5444 -0.4718
 7029SOL    HW132723   4.556   1.143   4.630  1.1073 -0.5904 -0.1198
 7029SOL    HW232724   4.473   1.148   4.511 -0.1527 -1.6129 -3.1621
 7030SOL     OW32725   3.773   2.448   2.446 -0.6163  0.2655  0.3176
 7030SOL    HW132726   3.697   2.389   2.442 -0.6336  0.3613 -1.0105
 7030SOL    HW232727   3.807   2.439   2.357  0.2594  0.1446  0.6641
 7031SOL     OW32728   4.648   3.177   8.510 -0.2756 -0.4758 -0.0292
 7031SOL    HW132729   4.718   3.209   8.567 -1.1556 -0.4898  1.0491
 7031SOL    HW232730   4.705   3.127   8.451  1.0188  0.6721  0.2459
 7032SOL     OW32731   0.939   2.731   4.250 -0.7649 -0.4981  0.3960
 7032SOL    HW132732   0.910   2.687   4.329  0.2683  0.3667  1.2751
 7032SOL    HW232733   0.920   2.824   4.265 -0.4175 -0.4187  0.3665
 7033SOL     OW32734   3.047   2.086   3.629 -0.1061  0.5524  0.8123
 7033SOL    HW132735   3.056   2.100   3.724 -0.1428  3.5179  0.3602
 7033SOL    HW232736   3.111   2.016   3.615 -1.4395 -0.8733  1.8106
 7034SOL     OW32737   2.269   2.765   8.011 -0.1256  0.7249  0.3318
 7034SOL    HW132738   2.248   2.799   7.924 -0.9325 -4.1943 -1.4144
 7034SOL    HW232739   2.237   2.675   8.003 -0.0444  0.7019  0.2615
 7035SOL     OW32740   1.484   3.071   7.519  0.6261 -0.2681  0.5782
 7035SOL    HW132741   1.545   3.145   7.510  2.2927 -1.6433  0.6719
 7035SOL    HW232742   1.524   3.001   7.468 -3.5956  0.1329 -3.1975
 7036SOL     OW32743   1.271   2.755  14.845 -0.2258 -0.0649 -0.5279
 7036SOL    HW132744   1.179   2.732  14.854 -0.8981  1.6566 -3.2021
 7036SOL    HW232745   1.308   2.735  14.931  1.8926  1.2597 -1.1261
 7037SOL     OW32746   4.591   0.204   2.474 -0.1914  0.5956  1.0685
 7037SOL    HW132747   4.553   0.116   2.473 -1.4435  1.1319 -0.4871
 7037SOL    HW232748   4.522   0.256   2.432  0.1354  2.2776  2.6049
 7038SOL     OW32749   4.610   4.235   7.838 -0.5352 -0.2665 -0.2019
 7038SOL    HW132750   4.692   4.204   7.801 -0.6776  0.3886 -1.0812
 7038SOL    HW232751   4.543   4.169   7.818  0.8827 -2.2004  1.3787
 7039SOL     OW32752   3.722   2.191   9.792 -0.1797 -0.4364  0.4207
 7039SOL    HW132753   3.659   2.198   9.720 -1.6924 -0.7968  1.6931
 7039SOL    HW232754   3.686   2.116   9.840 -2.6288  0.5875  0.2112
 7040SOL     OW32755   3.661   1.323   3.837 -0.1234  0.6138 -0.4852
 7040SOL    HW132756   3.736   1.344   3.894 -1.3216 -0.6899  1.5713
 7040SOL    HW232757   3.631   1.409   3.807  2.3830  1.3437 -0.9191
 7041SOL     OW32758   1.999   2.915   4.090 -0.1054 -0.4542  0.0140
 7041SOL    HW132759   2.011   2.980   4.020  2.5612 -1.4313 -0.4570
 7041SOL    HW232760   1.965   2.967   4.163 -1.8459  0.8385 -1.7185
 7042SOL     OW32761   2.053   2.666   3.966  0.2435  0.0270 -0.1093
 7042SOL    HW132762   2.022   2.727   3.898 -0.9625  0.5571  0.9127
 7042SOL    HW232763   2.016   2.715   4.039  2.9608 -0.4675  1.5580
 7043SOL     OW32764   1.929   0.496   4.282 -0.5974 -0.0677 -0.7028
 7043SOL    HW132765   1.998   0.449   4.236 -0.3574  0.9082 -1.3525
 7043SOL    HW232766   1.888   0.425   4.331  2.2039 -0.7414  0.6945
 7044SOL     OW32767   3.555   1.765   4.946  0.2883 -0.4253  0.3608
 7044SOL    HW132768   3.571   1.702   4.876  0.4199 -1.6001  1.4539
 7044SOL    HW232769   3.595   1.714   5.016  2.3108 -0.3304 -0.7138
 7045SOL     OW32770   1.134   2.060  10.329  0.6437  0.1819 -0.4733
 7045SOL    HW132771   1.040   2.068  10.349  0.0690 -0.2605 -2.9422
 7045SOL    HW232772   1.135   2.002  10.253  3.9303  0.8021 -0.8827
 7046SOL     OW32773   0.193   1.416  14.696 -0.1818 -0.1518  0.2333
 7046SOL    HW132774   0.132   1.428  14.768 -0.3983  0.1416 -0.0008
 7046SOL    HW232775   0.273   1.442  14.741 -1.9596 -0.9796  3.8546
 7047SOL     OW32776   2.000   3.826  14.125  0.6085  0.1213 -0.2800
 7047SOL    HW132777   2.085   3.831  14.169  1.1845 -0.0192 -1.3871
 7047SOL    HW232778   1.940   3.838  14.199  2.4077 -0.3298  1.2442
 7048SOL     OW32779   1.308   3.312  14.616  0.6026 -0.0645 -0.4093
 7048SOL    HW132780   1.311   3.354  14.530 -0.1013  1.4413  0.2813
 7048SOL    HW232781   1.326   3.221  14.593 -0.3522 -0.2485 -0.4341
 7049SOL     OW32782   0.373   3.961  14.695  0.3282 -0.1124 -0.0951
 7049SOL    HW132783   0.404   3.881  14.653 -2.1682 -0.7770 -0.7119
 7049SOL    HW232784   0.456   3.998  14.726 -0.3244 -0.3399  1.8861
 7050SOL     OW32785   1.751   1.842   0.618 -0.0156  0.0633 -0.2378
 7050SOL    HW132786   1.799   1.861   0.538 -1.7187  2.0188 -0.7883
 7050SOL    HW232787   1.710   1.927   0.635  0.2189 -0.0017  0.6646
 7051SOL     OW32788   4.644   0.396   2.237 -0.4565  0.0849  0.3852
 7051SOL    HW132789   4.689   0.358   2.312  4.5032  3.1129 -1.0474
 7051SOL    HW232790   4.641   0.491   2.250  3.3334  0.6004 -2.6482
 7052SOL     OW32791   2.660   0.702  16.184  0.4832  0.3364  0.3478
 7052SOL    HW132792   2.655   0.619  16.137 -2.9379  1.3104 -1.0436
 7052SOL    HW232793   2.569   0.725  16.204  0.2639  0.2499 -0.5261
 7053SOL     OW32794   4.534   1.055  15.741  0.2974 -0.2246 -0.6752
 7053SOL    HW132795   4.561   0.977  15.790  0.4191 -0.2973 -0.8596
 7053SOL    HW232796   4.482   1.104  15.805 -0.8551 -1.5556 -0.5940
 7054SOL     OW32797   4.613   1.997  16.799  0.3712  0.1935  0.3399
 7054SOL    HW132798   4.681   2.038  16.747 -1.8744  2.5114 -0.7378
 7054SOL    HW232799   4.666   1.977  16.877  0.7641  1.1669  0.3126
 7055SOL     OW32800   1.594   2.060   5.840 -0.5390 -0.1659  0.6789
 7055SOL    HW132801   1.581   2.066   5.934 -2.4597 -1.0890  0.4729
 7055SOL    HW232802   1.502   2.049   5.816 -0.6529 -0.2487  1.1542
 7056SOL     OW32803   3.187   2.148  10.905 -0.1596 -0.6430  0.5874
 7056SOL    HW132804   3.143   2.171  10.987  1.2751  3.8734  0.1132
 7056SOL    HW232805   3.121   2.166  10.838  0.7116  2.0795  0.4511
 7057SOL     OW32806   2.663   0.872   8.762  0.1717 -0.2771 -0.2370
 7057SOL    HW132807   2.717   0.909   8.832 -2.5224  1.0168  1.1410
 7057SOL    HW232808   2.632   0.794   8.808  1.1782 -1.0604 -0.8873
 7058SOL     OW32809   0.439   3.567   9.421  0.0945  0.0141  0.4793
 7058SOL    HW132810   0.458   3.572   9.328 -1.0274 -1.9847  0.1352
 7058SOL    HW232811   0.403   3.478   9.418  2.8472 -1.1193  0.7667
 7059SOL     OW32812   3.909   2.403   7.145 -0.0756  0.3901  0.3658
 7059SOL    HW132813   3.818   2.384   7.123 -0.8729  4.0728  0.5133
 7059SOL    HW232814   3.963   2.325   7.159 -1.8373 -0.9342 -0.2869
 7060SOL     OW32815   2.186   4.514   5.748 -0.0101  0.0428  0.0486
 7060SOL    HW132816   2.253   4.474   5.693  1.7615 -0.6572  2.7011
 7060SOL    HW232817   2.200   4.609   5.739 -1.1090  0.3196  1.3883
 7061SOL     OW32818   0.807   3.514  16.244  0.2194  0.3405  0.1381
 7061SOL    HW132819   0.847   3.584  16.192 -0.6323  1.7135  1.3519
 7061SOL    HW232820   0.767   3.460  16.176  0.7628 -3.0111  2.4713
 7062SOL     OW32821   2.013   4.609   1.056  0.5448 -0.3032 -0.1638
 7062SOL    HW132822   2.020   4.692   1.103  1.9278 -1.0422  0.9388
 7062SOL    HW232823   2.098   4.574   1.081  0.8656 -0.1198 -0.9944
 7063SOL     OW32824   1.736   4.653   2.552 -0.2485 -0.1426  0.6838
 7063SOL    HW132825   1.816   4.631   2.505 -1.1904  0.7111 -1.3129
 7063SOL    HW232826   1.699   4.565   2.547  1.6530 -0.9978  1.5499
 7064SOL     OW32827   0.318   2.397   7.706 -0.4211 -0.2172  0.2754
 7064SOL    HW132828   0.301   2.306   7.731  1.4435 -0.9513 -1.1224
 7064SOL    HW232829   0.323   2.385   7.611  0.2225  0.0859  0.2744
 7065SOL     OW32830   2.273   0.387   8.635  0.2800 -0.2910  0.3821
 7065SOL    HW132831   2.220   0.458   8.671 -1.7659 -2.4912  1.6405
 7065SOL    HW232832   2.208   0.317   8.628 -0.0953  0.2760 -2.1144
 7066SOL     OW32833   1.585   1.405   7.505  0.1759 -0.0044 -0.3312
 7066SOL    HW132834   1.566   1.496   7.527 -1.4410 -0.7473  1.3502
 7066SOL    HW232835   1.500   1.361   7.511  1.4024 -2.4166 -0.4827
 7067SOL     OW32836   0.505   0.340   1.537  0.2245 -1.4369 -0.2122
 7067SOL    HW132837   0.501   0.347   1.633 -0.8560  0.8111 -0.4007
 7067SOL    HW232838   0.552   0.258   1.529  1.3218 -1.0241  1.9224
 7068SOL     OW32839   0.945   1.137   8.488  0.5274 -0.5936  0.0137
 7068SOL    HW132840   0.928   1.189   8.410 -0.4862  0.0677  0.6851
 7068SOL    HW232841   0.935   1.047   8.455  1.4204 -0.9924  0.8221
 7069SOL     OW32842   1.641   0.342  15.168 -0.9161 -0.2797  0.3860
 7069SOL    HW132843   1.732   0.351  15.195 -1.4266  1.9157  1.3854
 7069SOL    HW232844   1.648   0.318  15.076  1.6865  0.0871  0.5112
 7070SOL     OW32845   1.714   1.698   4.861  0.3978  0.2797 -0.1784
 7070SOL    HW132846   1.685   1.612   4.831 -1.5443  1.3083 -1.2961
 7070SOL    HW232847   1.743   1.747   4.784 -0.1815 -0.0042 -0.5795
 7071SOL     OW32848   0.421   2.248   4.146 -0.5117 -0.0469 -0.4319
 7071SOL    HW132849   0.390   2.211   4.228 -1.4628 -1.0951 -1.2615
 7071SOL    HW232850   0.373   2.200   4.078 -0.4849 -0.0318 -0.4616
 7072SOL     OW32851   3.793   3.812   5.723  0.6537 -0.2522 -0.0754
 7072SOL    HW132852   3.697   3.813   5.724  0.6681 -1.4686  2.1120
 7072SOL    HW232853   3.822   3.817   5.814  2.1818 -2.1470 -0.4655
 7073SOL     OW32854   0.199   2.102  13.668  0.0697 -0.8318 -0.0565
 7073SOL    HW132855   0.163   2.118  13.580  1.8891  1.8681 -0.2941
 7073SOL    HW232856   0.277   2.157  13.662 -0.7412  0.5291  1.8016
 7074SOL     OW32857   0.486   2.054   4.613  0.1806 -0.2778  0.0858
 7074SOL    HW132858   0.456   1.968   4.643 -2.3824  0.6560  0.1679
 7074SOL    HW232859   0.460   2.118   4.679  1.3556 -0.7532  1.0242
 7075SOL     OW32860   1.720   1.028   1.958 -0.1849 -0.3975 -0.3681
 7075SOL    HW132861   1.673   1.099   2.001  0.4182 -0.2104 -0.0222
 7075SOL    HW232862   1.792   1.071   1.912  1.3582 -3.4506 -0.8344
 7076SOL     OW32863   1.452   1.565   9.545 -0.6196 -0.6132 -0.3414
 7076SOL    HW132864   1.491   1.516   9.472  2.2230  2.4929 -0.9056
 7076SOL    HW232865   1.427   1.645   9.499  0.4474  0.5861  1.1581
 7077SOL     OW32866   3.268   3.466   8.601  0.4771 -0.2004  0.2120
 7077SOL    HW132867   3.361   3.447   8.593  0.6988 -0.0720  2.4872
 7077SOL    HW232868   3.248   3.404   8.672  1.2547  0.3776  0.9371
 7078SOL     OW32869   1.948   1.744   6.516  0.8974  0.0103  0.0125
 7078SOL    HW132870   1.908   1.755   6.603 -0.0105  0.0932 -0.4183
 7078SOL    HW232871   2.037   1.718   6.539  0.3839 -1.8952 -0.1818
 7079SOL     OW32872   3.972   1.174   5.363  0.6779  0.0677  0.3871
 7079SOL    HW132873   3.878   1.157   5.354  0.6772 -0.2460  0.9639
 7079SOL    HW232874   3.976   1.202   5.455 -1.2519  0.1601  0.4557
 7080SOL     OW32875   3.349   1.736  15.780  0.6719 -0.1370 -0.3027
 7080SOL    HW132876   3.292   1.659  15.783 -0.1583  0.5142  0.4584
 7080SOL    HW232877   3.342   1.769  15.869 -0.1478  1.0159 -0.7957
 7081SOL     OW32878   0.443   3.611   8.714 -0.0134 -0.0255 -0.3448
 7081SOL    HW132879   0.376   3.585   8.650 -0.4431 -1.7280  0.7995
 7081SOL    HW232880   0.514   3.652   8.664  1.1893 -0.7246  0.7874
 7082SOL     OW32881   4.048   3.412  17.619  0.1048 -0.4655  0.0710
 7082SOL    HW132882   4.107   3.442  17.550 -0.7035  3.8054  1.2150
 7082SOL    HW232883   4.023   3.330  17.578  1.8017 -0.6485 -0.6103
 7083SOL     OW32884   4.431   3.745   9.285 -0.3835  0.1182 -0.0770
 7083SOL    HW132885   4.486   3.818   9.255  0.6315 -1.1596 -1.2771
 7083SOL    HW232886   4.395   3.785   9.364 -1.6539 -0.0372 -0.5873
 7084SOL     OW32887   0.153   0.170   3.153  0.1554 -0.1875  0.0879
 7084SOL    HW132888   0.228   0.134   3.201  1.1513 -0.4646 -1.6444
 7084SOL    HW232889   0.196   0.182   3.067  0.2647 -1.1505  0.0071
 7085SOL     OW32890   1.512   3.137   5.103 -0.0170 -0.0085 -0.1343
 7085SOL    HW132891   1.528   3.222   5.063 -0.9208  0.6049  0.7977
 7085SOL    HW232892   1.480   3.160   5.190 -0.5525  2.7449 -1.0618
 7086SOL     OW32893   1.464   4.550   6.233  0.4216  0.5812  0.0791
 7086SOL    HW132894   1.496   4.472   6.188 -1.8364  0.1089 -0.7217
 7086SOL    HW232895   1.543   4.604   6.238  0.4253  0.6654 -0.8773
 7087SOL     OW32896   3.828   2.896   9.018  0.0403 -0.3455 -0.6363
 7087SOL    HW132897   3.764   2.930   9.081  0.2748  1.3092 -1.3104
 7087SOL    HW232898   3.855   2.819   9.069 -0.0749  0.5620  0.7954
 7088SOL     OW32899   3.546   2.766  15.798 -0.3850  0.2240  0.6265
 7088SOL    HW132900   3.512   2.841  15.750  0.2233  0.1194  0.0177
 7088SOL    HW232901   3.533   2.808  15.883  2.8441 -1.1984  1.8214
 7089SOL     OW32902   0.034   2.114   6.255  0.3863 -0.3494  0.0488
 7089SOL    HW132903   0.060   2.033   6.298 -0.7169 -0.6924  0.0691
 7089SOL    HW232904   0.114   2.167   6.259  2.3111 -3.2028 -0.8716
 7090SOL     OW32905   1.603   3.587   7.241  1.1205  0.0611  0.0836
 7090SOL    HW132906   1.625   3.647   7.313  0.1551  0.2400  0.2301
 7090SOL    HW232907   1.637   3.625   7.161  1.4943 -0.7318 -0.1425
 7091SOL     OW32908   2.410   0.170  14.299  0.5755  0.3368 -0.0285
 7091SOL    HW132909   2.368   0.254  14.279 -1.3506 -1.0751 -1.9924
 7091SOL    HW232910   2.381   0.165  14.390 -1.0967  1.0307 -0.5072
 7092SOL     OW32911   2.325   0.409   2.561 -0.5671 -0.0609  0.0959
 7092SOL    HW132912   2.240   0.449   2.579  0.1272  0.8601  1.4018
 7092SOL    HW232913   2.335   0.425   2.467 -0.7627  3.3802  0.6478
 7093SOL     OW32914   1.624   1.445  13.427 -0.1853 -0.2070 -0.1962
 7093SOL    HW132915   1.683   1.509  13.465  0.5017 -0.8361 -0.2075
 7093SOL    HW232916   1.540   1.464  13.471 -0.7945 -0.9369 -1.0421
 7094SOL     OW32917   1.172   1.210   8.635 -0.0907 -0.2986 -0.1757
 7094SOL    HW132918   1.219   1.126   8.634  2.4754  1.1462 -1.7771
 7094SOL    HW232919   1.110   1.201   8.562  0.2190 -0.8711 -0.3740
 7095SOL     OW32920   2.173   0.470  11.529  0.1471  0.0942  0.5922
 7095SOL    HW132921   2.210   0.412  11.463 -0.2109 -0.6954  1.0755
 7095SOL    HW232922   2.225   0.448  11.606  1.6498  1.9073  0.0931
 7096SOL     OW32923   3.346   2.484   9.628 -0.5974  0.2034  0.5257
 7096SOL    HW132924   3.295   2.548   9.579 -0.9291 -1.5466 -1.4154
 7096SOL    HW232925   3.282   2.414   9.643 -0.6137  0.0400 -0.3330
 7097SOL     OW32926   1.407   1.679   4.246  0.2128 -0.7432  0.0536
 7097SOL    HW132927   1.345   1.625   4.295  0.0416  1.4953  2.3499
 7097SOL    HW232928   1.459   1.616   4.196  1.0651  1.7003 -2.1322
 7098SOL     OW32929   2.492   3.188   0.548  0.1523  0.2286 -0.0220
 7098SOL    HW132930   2.403   3.221   0.561  0.3423  0.6452  0.2170
 7098SOL    HW232931   2.529   3.276   0.551 -0.1327  0.3519 -0.1914
 7099SOL     OW32932   1.855   4.061   2.521 -0.6928  0.2792  0.2465
 7099SOL    HW132933   1.914   4.055   2.446 -1.5361 -0.3658 -0.3637
 7099SOL    HW232934   1.894   4.124   2.581 -0.6258 -0.3617  0.8736
 7100SOL     OW32935   3.140   3.449   4.323 -0.4557  0.0953  0.2730
 7100SOL    HW132936   3.150   3.490   4.409 -0.3815 -1.3266  0.9444
 7100SOL    HW232937   3.079   3.500   4.269  0.2078  0.2054 -0.3732
 7101SOL     OW32938   3.225   1.923   1.905 -0.2258  0.3354  0.8697
 7101SOL    HW132939   3.285   1.848   1.905  0.2623  0.7305 -0.5978
 7101SOL    HW232940   3.165   1.900   1.834  2.7471 -2.4160 -0.7663
 7102SOL     OW32941   0.613   1.433  15.311  0.2895  0.1083 -0.1863
 7102SOL    HW132942   0.698   1.398  15.337  0.6175  1.1775  0.1569
 7102SOL    HW232943   0.619   1.519  15.351 -0.5766 -0.1259  0.4529
 7103SOL     OW32944   1.553   3.455   3.565  0.2299 -0.4449  0.1534
 7103SOL    HW132945   1.550   3.406   3.483  1.7397  1.2846 -0.9327
 7103SOL    HW232946   1.614   3.399   3.613  0.9957  0.6515  0.4628
 7104SOL     OW32947   3.979   2.771   2.283  0.0063  0.2589  0.3922
 7104SOL    HW132948   3.895   2.787   2.326 -0.7575 -1.3651 -0.5169
 7104SOL    HW232949   3.960   2.690   2.236  0.3509  0.0751  0.5617
 7105SOL     OW32950   1.786   0.788   1.753 -0.0317  0.2056 -1.0887
 7105SOL    HW132951   1.735   0.812   1.830 -1.0350  0.7980 -1.9292
 7105SOL    HW232952   1.721   0.776   1.684 -1.2570  1.6113 -0.1849
 7106SOL     OW32953   3.184   1.627   6.025  0.2407 -0.7308 -0.9631
 7106SOL    HW132954   3.234   1.591   6.098 -0.0597 -0.0723 -0.4292
 7106SOL    HW232955   3.212   1.573   5.952  0.4993  0.4043 -1.7055
 7107SOL     OW32956   1.727   1.939   5.051 -1.0179  0.4862 -0.3901
 7107SOL    HW132957   1.681   1.912   4.971 -1.0067 -1.8440  0.3967
 7107SOL    HW232958   1.685   2.024   5.066  2.0297  2.0091 -0.5300
 7108SOL     OW32959   0.808   1.288   7.113 -0.2128  0.2108  0.9557
 7108SOL    HW132960   0.898   1.257   7.104 -0.2125 -0.4512  3.2505
 7108SOL    HW232961   0.815   1.371   7.065  1.5195 -0.0864  0.6908
 7109SOL     OW32962   2.992   1.952  11.062  0.5041  0.5299  0.8236
 7109SOL    HW132963   3.016   1.994  10.979 -0.8470 -0.7838 -0.2384
 7109SOL    HW232964   2.983   2.030  11.116 -1.5245 -0.6912  2.2668
 7110SOL     OW32965   4.453   3.259   4.386  0.4656  0.0401 -0.2438
 7110SOL    HW132966   4.468   3.223   4.299  0.2871  0.4151 -0.4292
 7110SOL    HW232967   4.533   3.312   4.395  1.4542 -1.4787 -0.0821
 7111SOL     OW32968   3.623   1.009  14.528 -0.0200  0.0008 -0.2382
 7111SOL    HW132969   3.585   1.095  14.549 -0.0306 -0.3586  1.1802
 7111SOL    HW232970   3.545   0.954  14.536  1.0807 -1.1261  2.4667
 7112SOL     OW32971   3.323   2.798  17.033  0.1327  0.1222  0.2064
 7112SOL    HW132972   3.389   2.739  17.072  0.4418  2.4082  3.1393
 7112SOL    HW232973   3.373   2.831  16.959 -0.4947 -1.1779 -0.7878
 7113SOL     OW32974   0.796   0.663   0.240  0.0038  0.1199  0.2387
 7113SOL    HW132975   0.719   0.609   0.222 -1.1580  1.6200  0.7001
 7113SOL    HW232976   0.794   0.670   0.335 -1.8209  0.4327  0.1817
 7114SOL     OW32977   2.217   3.328  11.877 -0.1674  0.6225 -0.8324
 7114SOL    HW132978   2.143   3.345  11.819  0.2169  2.4222 -0.7805
 7114SOL    HW232979   2.208   3.400  11.939  1.0411 -0.6926  0.8781
 7115SOL     OW32980   1.720   2.015  10.772 -0.3081  0.7651  0.0288
 7115SOL    HW132981   1.666   1.992  10.696  1.1029  0.0406 -0.7426
 7115SOL    HW232982   1.657   2.086  10.786 -1.2976  0.1738 -1.3445
 7116SOL     OW32983   1.818   2.897  13.682  0.1269  0.1002  0.8246
 7116SOL    HW132984   1.804   2.885  13.588  0.0027  3.0732  0.4503
 7116SOL    HW232985   1.888   2.840  13.713  1.5663  1.7115  0.5552
 7117SOL     OW32986   2.467   3.543   9.477 -0.6496  0.3305 -0.5922
 7117SOL    HW132987   2.480   3.615   9.539 -3.0741  0.2824  0.0031
 7117SOL    HW232988   2.432   3.476   9.536 -1.6704  0.3280 -1.1952
 7118SOL     OW32989   2.019   2.851  17.731  0.1901 -0.6332  0.2439
 7118SOL    HW132990   2.024   2.813  17.643 -3.7196 -0.8215  0.0895
 7118SOL    HW232991   2.071   2.796   0.036  0.6625  1.8831  2.1959
 7119SOL     OW32992   2.435   3.739   4.364  0.6355  0.2314  0.0199
 7119SOL    HW132993   2.421   3.831   4.384  0.7897  0.0544  0.9589
 7119SOL    HW232994   2.428   3.711   4.456  0.4540 -0.4384 -0.1914
 7120SOL     OW32995   0.361   0.476   6.851  0.3469  0.0791 -0.2929
 7120SOL    HW132996   0.324   0.553   6.807 -1.2535  0.8825  2.4828
 7120SOL    HW232997   0.384   0.514   6.936 -0.2013  0.8585 -0.4883
 7121SOL     OW32998   4.140   0.565   6.195  0.1369 -0.0516  0.3291
 7121SOL    HW132999   4.116   0.587   6.105  1.3971 -0.1271 -0.0146
 7121SOL    HW233000   4.195   0.488   6.183 -0.2812 -0.2511 -0.3089
 7122SOL     OW33001   3.940   1.253  12.208 -0.2127  0.1666  0.5793
 7122SOL    HW133002   3.923   1.347  12.214 -0.6461 -0.1424  3.7878
 7122SOL    HW233003   3.926   1.219  12.296 -1.2527  1.3272  0.8584
 7123SOL     OW33004   1.689   3.178   4.840  0.3032  0.1698 -0.7876
 7123SOL    HW133005   1.645   3.239   4.781 -0.1113 -2.0047 -2.7488
 7123SOL    HW233006   1.754   3.241   4.871 -1.4933  2.0134 -0.8135
 7124SOL     OW33007   4.158   0.987   5.442  0.1312 -0.4922  0.6797
 7124SOL    HW133008   4.215   1.046   5.492 -0.8914 -1.4698  3.0210
 7124SOL    HW233009   4.096   1.041   5.394 -0.2170 -0.3587  1.2734
 7125SOL     OW33010   1.867   3.103   8.610  0.4939  0.1406  0.1793
 7125SOL    HW133011   1.925   3.166   8.652  0.9584 -1.1534  1.4987
 7125SOL    HW233012   1.879   3.023   8.662  0.4213 -1.9554 -3.0357
 7126SOL     OW33013   4.139   1.297  10.424  0.3130  0.0921  0.1878
 7126SOL    HW133014   4.067   1.327  10.481  0.5929 -0.2755  0.7317
 7126SOL    HW233015   4.155   1.370  10.364 -2.5436  0.5579 -0.0108
 7127SOL     OW33016   3.870   2.092   5.395  0.3290  0.0641  0.8666
 7127SOL    HW133017   3.867   2.089   5.300 -1.2747 -0.3122  0.9314
 7127SOL    HW233018   3.780   2.116   5.418 -0.5912 -0.1154 -2.6867
 7128SOL     OW33019   3.160   1.822   4.707  0.1561  0.1341  0.6444
 7128SOL    HW133020   3.104   1.879   4.655  0.4314  1.9106  2.2749
 7128SOL    HW233021   3.090   1.763   4.736  0.9068 -1.8419 -1.6388
 7129SOL     OW33022   4.603   0.833   2.970  0.4272 -0.3971  0.7564
 7129SOL    HW133023   4.562   0.750   2.994 -0.5813 -0.1263 -0.0198
 7129SOL    HW233024   4.677   0.810   2.915  1.1743  2.6372  0.5106
 7130SOL     OW33025   4.003   3.351   7.358 -0.4028  0.6056 -0.2639
 7130SOL    HW133026   4.047   3.278   7.315 -1.2157  0.3400 -0.6454
 7130SOL    HW233027   3.914   3.316   7.364 -0.6956  1.4738  0.4729
 7131SOL     OW33028   0.647   0.621   8.581 -0.7251  0.1159  0.5788
 7131SOL    HW133029   0.627   0.641   8.673 -0.6147  0.2686  0.5695
 7131SOL    HW233030   0.742   0.624   8.573 -0.8587  0.1362 -0.9817
 7132SOL     OW33031   2.186   2.184  15.886  0.1345 -0.1793  0.6434
 7132SOL    HW133032   2.150   2.211  15.802  2.3132 -2.0615 -0.8756
 7132SOL    HW233033   2.174   2.089  15.896 -0.4070 -0.0793  0.9713
 7133SOL     OW33034   1.692   0.501   3.768 -0.5991 -0.5108  0.1713
 7133SOL    HW133035   1.603   0.489   3.735 -0.2913  0.3553 -0.9789
 7133SOL    HW233036   1.684   0.574   3.829 -1.0473 -0.3512 -0.0793
 7134SOL     OW33037   4.464   4.169   6.479 -0.1402 -0.2682 -0.2739
 7134SOL    HW133038   4.373   4.196   6.490  0.3588  0.0047  3.1029
 7134SOL    HW233039   4.443   4.076   6.471 -0.6752 -0.0999 -0.8411
 7135SOL     OW33040   0.999   2.626   3.259  0.1064  0.2675  0.1153
 7135SOL    HW133041   1.031   2.660   3.342  0.5013 -0.0029  0.0740
 7135SOL    HW233042   1.025   2.534   3.267  0.2485  0.2870 -0.1167
 7136SOL     OW33043   1.203   1.036   5.013 -0.2402 -0.1775 -0.3097
 7136SOL    HW133044   1.235   1.018   5.101 -0.6839  1.8233  0.2693
 7136SOL    HW233045   1.276   0.997   4.966  0.5706  0.0420  0.7782
 7137SOL     OW33046   3.385   4.519  11.444 -0.1746 -0.2487  0.0814
 7137SOL    HW133047   3.311   4.570  11.412 -1.7633 -1.5551  1.6923
 7137SOL    HW233048   3.339   4.435  11.446 -0.3357 -0.0781  2.9265
 7138SOL     OW33049   3.671   0.686  11.624 -0.0973  0.1790  0.2356
 7138SOL    HW133050   3.687   0.636  11.544  0.7557  0.2413  0.3673
 7138SOL    HW233051   3.671   0.611  11.683  1.9133  0.9478  1.2012
 7139SOL     OW33052   1.171   2.206   5.021 -0.1971  0.0408 -0.2618
 7139SOL    HW133053   1.128   2.285   4.988 -3.5161 -1.0182  1.5248
 7139SOL    HW233054   1.237   2.253   5.071  0.3250 -1.2480  0.2751
 7140SOL     OW33055   0.320   1.635   4.551  0.1653  0.3994 -0.2066
 7140SOL    HW133056   0.404   1.592   4.569 -0.0841  0.5214  1.2513
 7140SOL    HW233057   0.265   1.560   4.526  0.6273 -0.1275  0.3599
 7141SOL     OW33058   3.818   1.656   6.287  0.3411  0.6277 -0.5275
 7141SOL    HW133059   3.791   1.701   6.366 -2.0694  0.1680 -1.0745
 7141SOL    HW233060   3.907   1.625   6.303 -1.4717 -1.9635  4.5050
 7142SOL     OW33061   1.804   4.133  12.667 -0.0938 -0.2678  0.0399
 7142SOL    HW133062   1.709   4.131  12.662 -0.1928  1.9359  1.0251
 7142SOL    HW233063   1.823   4.111  12.575 -3.7155 -0.9938 -0.5237
 7143SOL     OW33064   0.029   3.953   5.254 -0.1733  0.0609 -0.7381
 7143SOL    HW133065   0.012   3.873   5.303 -1.3834  0.1338 -1.0486
 7143SOL    HW233066   4.692   4.007   5.274  0.6412 -0.8685  4.8976
 7144SOL     OW33067   1.889   0.174   3.702 -0.4016 -0.4617  0.3158
 7144SOL    HW133068   1.928   0.220   3.777  0.0145  0.3803 -0.4137
 7144SOL    HW233069   1.954   0.110   3.673  2.0883  1.3650  1.7862
 7145SOL     OW33070   1.068   1.957   8.920 -0.1708  0.4577 -0.3360
 7145SOL    HW133071   0.985   2.004   8.915  1.2571  2.8874 -1.1400
 7145SOL    HW233072   1.041   1.894   8.852 -0.6391  0.1172  0.1659
 7146SOL     OW33073   4.216   0.519  14.355 -0.3410  0.2505 -0.0992
 7146SOL    HW133074   4.159   0.596  14.353 -1.6740 -0.7475 -0.1947
 7146SOL    HW233075   4.162   0.440  14.347 -1.4953  1.0297  0.0306
 7147SOL     OW33076   2.706   1.957   4.544  0.8818 -0.1249  1.1213
 7147SOL    HW133077   2.802   1.954   4.536  0.6012 -0.0372 -2.0132
 7147SOL    HW233078   2.690   1.911   4.626  2.0879  2.0347  2.5724
 7148SOL     OW33079   4.423   0.146   5.240 -0.3195 -0.0809 -0.1129
 7148SOL    HW133080   4.406   0.161   5.333  0.9604  0.5432  0.0168
 7148SOL    HW233081   4.444   0.053   5.246  1.1052  0.2889  0.6977
 7149SOL     OW33082   1.674   3.229   8.006  0.1390  0.0679 -0.2395
 7149SOL    HW133083   1.598   3.267   8.050 -0.5102  0.0221 -1.2959
 7149SOL    HW233084   1.640   3.218   7.917  2.5038  0.3579 -1.1870
 7150SOL     OW33085   1.676   0.135   1.511  0.9684 -0.2433 -0.4977
 7150SOL    HW133086   1.600   0.164   1.461 -0.5484  0.3136  2.1461
 7150SOL    HW233087   1.711   0.222   1.534 -0.2893  0.6575 -1.9981
 7151SOL     OW33088   0.572   3.673   0.545  0.2314 -0.4632  0.0176
 7151SOL    HW133089   0.599   3.765   0.540  2.7341 -1.2247 -0.6381
 7151SOL    HW233090   0.639   3.650   0.610  0.8263 -0.2023 -0.5057
 7152SOL     OW33091   4.419   0.169   3.119 -0.2615 -0.5121  0.1130
 7152SOL    HW133092   4.363   0.094   3.138 -2.6534  1.2360 -0.0682
 7152SOL    HW233093   4.507   0.131   3.113 -0.6699 -1.7798  2.2493
 7153SOL     OW33094   3.335   2.975   9.315  0.8528 -0.2864  0.4234
 7153SOL    HW133095   3.364   3.055   9.271  0.5423 -1.0579 -1.1770
 7153SOL    HW233096   3.357   2.984   9.407  0.5003 -2.9699  0.7614
 7154SOL     OW33097   2.748   4.526  12.119  0.1537 -0.2191  0.4426
 7154SOL    HW133098   2.667   4.483  12.091  0.6827  1.8102 -4.2968
 7154SOL    HW233099   2.737   4.619  12.101 -0.1545 -0.3077  0.1778
 7155SOL     OW33100   1.371   0.413   9.435  0.7492 -0.1763 -0.0667
 7155SOL    HW133101   1.432   0.485   9.420  1.8157 -1.3295 -1.2688
 7155SOL    HW233102   1.350   0.409   9.528  1.4812  1.3416  0.1754
 7156SOL     OW33103   1.798   2.112   1.934  0.1752  0.2935 -0.0877
 7156SOL    HW133104   1.857   2.106   2.009 -0.2716 -3.6231 -0.0176
 7156SOL    HW233105   1.767   2.022   1.925  2.3234  0.0920 -5.4215
 7157SOL     OW33106   2.166   4.285  13.466  0.6261 -0.1395  0.2262
 7157SOL    HW133107   2.206   4.300  13.380 -0.9587 -0.2512 -0.5317
 7157SOL    HW233108   2.098   4.222  13.443  0.0239  1.2515 -1.8047
 7158SOL     OW33109   1.485   0.310  15.829  0.0346  0.3906  0.0732
 7158SOL    HW133110   1.430   0.287  15.754  1.5918 -0.2803 -0.8728
 7158SOL    HW233111   1.562   0.252  15.826 -1.0900 -1.0330 -1.0858
 7159SOL     OW33112   2.460   2.012   7.396 -0.3009  0.0665 -0.8187
 7159SOL    HW133113   2.392   1.956   7.432 -0.3957  0.7109  0.0186
 7159SOL    HW233114   2.520   2.016   7.471  1.5657  1.8083 -2.4029
 7160SOL     OW33115   0.024   3.225   5.833  0.3896 -0.1250  0.0575
 7160SOL    HW133116   0.001   3.310   5.871 -2.5577 -1.1527  0.6089
 7160SOL    HW233117   4.675   3.188   5.825 -0.0588  1.1426 -0.8273
 7161SOL     OW33118   4.321   0.691  11.812  0.2467 -0.3174 -0.3175
 7161SOL    HW133119   4.395   0.739  11.848 -0.9693 -0.3987  2.3076
 7161SOL    HW233120   4.252   0.758  11.812  0.5522 -0.0194 -3.0440
 7162SOL     OW33121   2.340   0.071   4.820  0.1854  0.0388  0.5097
 7162SOL    HW133122   2.414   0.025   4.860  0.9354  0.2043 -0.6973
 7162SOL    HW233123   2.353   0.157   4.859 -1.2645 -0.2770  1.7117
 7163SOL     OW33124   3.904   0.843   7.688  0.1655  0.3361  0.6950
 7163SOL    HW133125   3.999   0.856   7.692 -0.1113  2.4842  0.5241
 7163SOL    HW233126   3.906   0.757   7.729  1.8272 -0.5652 -1.2458
 7164SOL     OW33127   0.420   2.437   6.191  0.3852  0.2729  0.3780
 7164SOL    HW133128   0.466   2.374   6.136  0.1293 -1.4892  2.2018
 7164SOL    HW233129   0.471   2.517   6.178 -0.4533 -0.0819 -5.0464
 7165SOL     OW33130   3.342   2.634   6.738  0.3769 -0.0313 -0.1491
 7165SOL    HW133131   3.272   2.654   6.801 -0.6623 -1.2323 -0.9198
 7165SOL    HW233132   3.424   2.633   6.788 -0.5156  0.2180  1.3391
 7166SOL     OW33133   3.543   3.045   1.892 -0.5771  0.1053  0.0830
 7166SOL    HW133134   3.620   2.993   1.914 -0.9633 -1.1300 -1.5036
 7166SOL    HW233135   3.538   3.099   1.971  1.1128  0.0256  0.2554
 7167SOL     OW33136   4.317   4.322  12.042 -0.1093 -0.4381  0.3275
 7167SOL    HW133137   4.389   4.378  12.071 -0.8689  1.3376 -1.2020
 7167SOL    HW233138   4.270   4.368  11.972 -0.8810 -2.6742 -0.6129
 7168SOL     OW33139   2.109   1.708  13.683  0.7362 -0.4803  0.1374
 7168SOL    HW133140   2.053   1.786  13.675  1.3862 -0.0648 -0.3010
 7168SOL    HW233141   2.060   1.652  13.744  0.8184  1.1876  1.7446
 7169SOL     OW33142   2.515   2.391   4.403  0.0628  0.3726  0.5921
 7169SOL    HW133143   2.460   2.318   4.374 -0.4322  0.9605  0.0511
 7169SOL    HW233144   2.470   2.467   4.367  3.6649  2.2811  0.1804
 7170SOL     OW33145   2.853   2.645   2.645  0.3188  0.0319  0.3585
 7170SOL    HW133146   2.830   2.567   2.696 -0.5445 -0.6116 -1.0205
 7170SOL    HW233147   2.938   2.629   2.604 -0.3558  1.2367 -1.5160
 7171SOL     OW33148   2.537   1.207   3.642 -0.7165  0.2611  0.4953
 7171SOL    HW133149   2.449   1.169   3.650 -0.4787 -0.7309 -1.5505
 7171SOL    HW233150   2.568   1.181   3.728  1.8302 -1.7168 -1.0163
 7172SOL     OW33151   4.470   0.830  13.044 -0.5087  0.5703 -0.5130
 7172SOL    HW133152   4.468   0.789  12.957 -1.4887  2.9000 -1.5795
 7172SOL    HW233153   4.471   0.750  13.097  1.0602  0.3612 -0.8524
 7173SOL     OW33154   2.528   3.256  12.316 -0.3183  0.0980 -0.3064
 7173SOL    HW133155   2.445   3.303  12.320 -0.4324  0.0575 -2.0217
 7173SOL    HW233156   2.549   3.247  12.223  1.2160 -2.0096  0.2577
 7174SOL     OW33157   0.490   3.040   5.783 -0.0252 -0.1705  0.5231
 7174SOL    HW133158   0.401   3.063   5.759  0.7795  0.3081 -2.0322
 7174SOL    HW233159   0.538   3.035   5.700  0.6148  3.1978  0.6847
 7175SOL     OW33160   4.142   2.743   9.801  0.3751  0.2552  0.2382
 7175SOL    HW133161   4.140   2.746   9.705  0.4252 -0.0230  0.2277
 7175SOL    HW233162   4.070   2.804   9.816  0.9992  0.7231  1.3194
 7176SOL     OW33163   2.263   2.277   4.837  0.2641  0.4345  0.0995
 7176SOL    HW133164   2.186   2.241   4.794  0.4252 -0.8061  0.8487
 7176SOL    HW233165   2.325   2.225   4.786  0.1865  0.2154  0.2304
 7177SOL     OW33166   3.513   2.624  16.341  0.1561  0.2189  0.7268
 7177SOL    HW133167   3.534   2.650  16.251  1.8772 -2.1989  0.4153
 7177SOL    HW233168   3.455   2.548  16.336 -0.1775  0.6871 -2.7999
 7178SOL     OW33169   4.034   0.748   5.901  0.4126 -0.6751  0.0146
 7178SOL    HW133170   3.950   0.724   5.939  0.0341  1.9082  0.8436
 7178SOL    HW233171   4.008   0.758   5.809 -1.6151 -1.0937  0.5561
 7179SOL     OW33172   2.113   2.569   9.961 -0.7402 -0.2614  0.6187
 7179SOL    HW133173   2.202   2.554   9.930 -1.2405 -1.1110 -0.4289
 7179SOL    HW233174   2.060   2.563   9.881  0.8399  0.2972 -0.4675
 7180SOL     OW33175   1.223   3.086   7.517  0.3838  0.5801  0.1474
 7180SOL    HW133176   1.228   2.992   7.528  0.9588  0.8896  2.4876
 7180SOL    HW233177   1.316   3.107   7.509  0.4982  0.1598  0.3979
 7181SOL     OW33178   4.423   0.157   0.161 -0.4172 -0.1197 -0.3075
 7181SOL    HW133179   4.436   0.205   0.079  1.8778 -2.0383 -1.0766
 7181SOL    HW233180   4.359   0.087   0.148 -1.6852  0.9009  0.4609
 7182SOL     OW33181   2.759   1.446   3.407 -0.4698 -0.6214  0.0103
 7182SOL    HW133182   2.713   1.473   3.328  2.4964 -1.6568 -2.0687
 7182SOL    HW233183   2.688   1.448   3.471  0.2768 -0.0967  0.8295
 7183SOL     OW33184   0.321   2.396  13.155  0.0224 -0.3001 -0.1397
 7183SOL    HW133185   0.240   2.428  13.115  0.0844  0.4902  0.3692
 7183SOL    HW233186   0.382   2.430  13.090  0.0743  1.9284  1.0762
 7184SOL     OW33187   1.447   0.419   6.649  0.3834  0.3266 -0.0377
 7184SOL    HW133188   1.530   0.374   6.637  1.5528  2.9627 -1.7856
 7184SOL    HW233189   1.399   0.376   6.577 -1.1105 -1.7316  2.1746
 7185SOL     OW33190   2.223   2.634  10.543  0.2494 -0.2982  0.1909
 7185SOL    HW133191   2.273   2.716  10.537 -1.4644  0.7039 -0.4043
 7185SOL    HW233192   2.274   2.582  10.481  0.5072  0.6873 -0.4286
 7186SOL     OW33193   1.355   0.750   7.804  0.1734  0.4928 -0.1956
 7186SOL    HW133194   1.373   0.656   7.797 -3.9194 -0.1617 -1.4116
 7186SOL    HW233195   1.346   0.748   7.899 -0.3119 -2.6380 -0.3123
 7187SOL     OW33196   0.505   3.298   3.022  0.3520  0.1138 -0.1557
 7187SOL    HW133197   0.460   3.219   2.991  0.5831 -0.0809  0.0015
 7187SOL    HW233198   0.450   3.372   2.996 -0.0375  0.4202  1.4766
 7188SOL     OW33199   3.702   2.005  16.354 -0.1411 -0.0347 -0.4675
 7188SOL    HW133200   3.686   1.913  16.373 -0.6942 -0.2204 -1.8695
 7188SOL    HW233201   3.797   2.008  16.347 -0.1084  0.4344  0.1441
 7189SOL     OW33202   3.714   4.639  11.858  0.1453 -0.3239 -0.5157
 7189SOL    HW133203   3.656   4.625  11.783  1.2137 -1.7162 -1.0723
 7189SOL    HW233204   3.652   4.599  11.918 -0.7900  2.6668  0.5329
 7190SOL     OW33205   0.466   0.532   4.266  0.9551  0.0863  0.0493
 7190SOL    HW133206   0.457   0.444   4.305  0.7158 -0.7301 -1.8508
 7190SOL    HW233207   0.461   0.510   4.173 -0.3056 -0.2410  0.1897
 7191SOL     OW33208   2.117   1.290   1.246 -0.4325  0.4800  0.0418
 7191SOL    HW133209   2.042   1.248   1.205 -0.5015 -0.8181  1.4696
 7191SOL    HW233210   2.078   1.372   1.277 -0.4307  0.7904 -0.8062
 7192SOL     OW33211   2.175   4.417  10.312 -0.2196  0.1293  0.3617
 7192SOL    HW133212   2.195   4.408  10.219  0.3457  0.8409  0.4123
 7192SOL    HW233213   2.223   4.338  10.335  1.0101  1.3839  2.0623
 7193SOL     OW33214   4.335   4.131   3.441  0.3163 -0.4075  0.3053
 7193SOL    HW133215   4.349   4.135   3.346 -0.0964 -1.2255  0.2107
 7193SOL    HW233216   4.351   4.222   3.466  0.1031  0.0709 -1.3220
 7194SOL     OW33217   2.780   1.383   7.597 -0.1846 -0.2043  0.8115
 7194SOL    HW133218   2.855   1.336   7.563  0.2269 -0.3640  1.9688
 7194SOL    HW233219   2.712   1.318   7.578 -0.6923  0.4267  0.4542
 7195SOL     OW33220   0.360   3.558   3.051  0.1980 -0.1742 -0.6046
 7195SOL    HW133221   0.355   3.597   2.963 -0.2068 -0.7709 -0.8425
 7195SOL    HW233222   0.447   3.578   3.085  1.1161 -2.7700 -1.4212
 7196SOL     OW33223   4.246   2.023  11.773 -0.5039 -0.0984  0.3210
 7196SOL    HW133224   4.283   2.022  11.861  0.8779  2.5602 -0.2023
 7196SOL    HW233225   4.154   2.022  11.797  0.0307  0.9385  2.4329
 7197SOL     OW33226   1.981   4.266   1.114 -0.4376  0.0790  0.2125
 7197SOL    HW133227   2.005   4.337   1.055 -1.5216  0.0126 -0.3083
 7197SOL    HW233228   1.936   4.312   1.185  1.2416  1.2047  0.5418
 7198SOL     OW33229   0.408   2.791   4.335  0.0467  0.6595  0.0043
 7198SOL    HW133230   0.430   2.884   4.344 -1.3946  1.1570 -1.5223
 7198SOL    HW233231   0.486   2.749   4.371 -2.2548 -4.1075 -0.6160
 7199SOL     OW33232   3.586   1.545   4.787  0.0595 -0.1987  0.6135
 7199SOL    HW133233   3.559   1.459   4.820 -1.8461  1.2886  2.9421
 7199SOL    HW233234   3.655   1.520   4.726 -0.8510 -1.3020  0.0366
 7200SOL     OW33235   1.699   3.050  10.215  0.1324 -0.5703 -0.3899
 7200SOL    HW133236   1.746   2.986  10.269  2.1039 -1.1325 -2.7644
 7200SOL    HW233237   1.687   2.996  10.137 -1.1525 -0.2643 -0.4029
 7201SOL     OW33238   4.683   2.120  14.531  0.4371  0.2547 -0.0277
 7201SOL    HW133239   4.661   2.117  14.438 -3.9390  1.7669  0.9641
 7201SOL    HW233240   4.722   2.032  14.540  0.7814  0.3356 -0.7415
 7202SOL     OW33241   0.490   2.560   8.521  0.3697 -0.0154  0.0739
 7202SOL    HW133242   0.554   2.631   8.517 -0.7381  0.9506 -0.6614
 7202SOL    HW233243   0.417   2.605   8.564 -0.6223 -1.8638  0.3162
 7203SOL     OW33244   4.269   4.670   3.182  0.0684 -0.2871 -0.0043
 7203SOL    HW133245   4.291   4.670   3.275 -0.3307  2.2714  0.0962
 7203SOL    HW233246   4.199   4.735   3.175 -1.5033 -2.2628 -2.7924
 7204SOL     OW33247   4.431   1.541   6.662  0.2332  0.1923  0.4887
 7204SOL    HW133248   4.384   1.556   6.744 -2.9902 -1.1386 -1.1385
 7204SOL    HW233249   4.483   1.463   6.681 -1.0671 -0.8256 -0.2019
 7205SOL     OW33250   0.885   4.714   3.744  0.3249 -0.0935  0.0808
 7205SOL    HW133251   0.899   4.621   3.759 -0.2809  0.2731  3.0666
 7205SOL    HW233252   0.946   0.010   3.808  0.0841  1.1741 -0.3856
 7206SOL     OW33253   4.212   3.231   1.727  0.5662 -0.0706 -0.1666
 7206SOL    HW133254   4.263   3.187   1.795  0.7571 -0.4219 -0.5336
 7206SOL    HW233255   4.212   3.324   1.748  0.8125  0.4603 -2.5084
 7207SOL     OW33256   0.965   0.510   3.421 -0.5146 -0.1146  0.4509
 7207SOL    HW133257   0.923   0.580   3.370  0.4797 -0.2998 -0.6378
 7207SOL    HW233258   0.925   0.429   3.389 -2.3460  1.3496 -0.9752
 7208SOL     OW33259   2.548   0.333   8.379  0.1731 -0.3438 -0.2129
 7208SOL    HW133260   2.455   0.341   8.396  0.1996  1.9085 -1.1172
 7208SOL    HW233261   2.546   0.298   8.290  1.1318  0.3239 -0.5087
 7209SOL     OW33262   3.449   0.540   5.130 -0.2850  0.3652  0.3151
 7209SOL    HW133263   3.473   0.583   5.213  0.7046 -0.5570  0.5048
 7209SOL    HW233264   3.376   0.485   5.159  0.3499 -0.9596 -0.6396
 7210SOL     OW33265   1.825   1.216   2.875  0.5929  0.2109  0.1232
 7210SOL    HW133266   1.899   1.214   2.815 -0.0566  1.9498 -0.7391
 7210SOL    HW233267   1.749   1.199   2.820  1.3408 -0.0847 -0.8046
 7211SOL     OW33268   2.803   4.102   5.044  0.3150  0.0325 -0.0801
 7211SOL    HW133269   2.837   4.122   5.132  3.5976  0.6340 -1.4639
 7211SOL    HW233270   2.764   4.015   5.050  0.6233 -0.1893 -1.3297
 7212SOL     OW33271   3.754   0.441   9.260  0.0776 -0.4116 -0.3801
 7212SOL    HW133272   3.694   0.373   9.290 -1.8371  0.4638 -2.1836
 7212SOL    HW233273   3.817   0.430   9.331 -0.3003 -0.8863 -0.1168
 7213SOL     OW33274   3.590   1.866   6.429 -0.3342  0.5354  0.3627
 7213SOL    HW133275   3.501   1.835   6.447 -0.3376  0.4622  0.2173
 7213SOL    HW233276   3.649   1.827   6.493  0.5438 -0.4142 -1.0273
 7214SOL     OW33277   2.739   4.317   6.388  0.0585  0.4534  0.2160
 7214SOL    HW133278   2.799   4.279   6.323 -1.2955 -1.4495  0.0930
 7214SOL    HW233279   2.785   4.300   6.470 -0.0609 -0.8414  0.0039
 7215SOL     OW33280   4.178   1.873   9.309 -0.4101  0.0991 -0.0027
 7215SOL    HW133281   4.248   1.839   9.253 -0.5751 -0.4986  0.1539
 7215SOL    HW233282   4.201   1.966   9.303  0.8283 -0.0392  2.4451
 7216SOL     OW33283   4.292   1.373   1.480  0.1173  0.0391 -0.4383
 7216SOL    HW133284   4.215   1.315   1.482 -0.2019  0.4827  0.5429
 7216SOL    HW233285   4.338   1.321   1.546  1.2669  1.9437  0.2525
 7217SOL     OW33286   4.516   0.483   8.641 -0.2123 -0.1549 -0.1300
 7217SOL    HW133287   4.612   0.487   8.646 -0.1575  0.1232 -1.2097
 7217SOL    HW233288   4.506   0.578   8.651  1.0792 -0.0172 -0.1402
 7218SOL     OW33289   0.916   0.318   6.108 -0.0072  0.1693 -0.5718
 7218SOL    HW133290   0.959   0.310   6.023  1.6974 -0.8267  0.3681
 7218SOL    HW233291   0.843   0.258   6.092 -0.3533  0.2624  0.6656
 7219SOL     OW33292   4.488   3.997  10.605 -0.6503 -0.1962 -0.5065
 7219SOL    HW133293   4.443   3.986  10.689 -0.3765  0.6577 -0.2460
 7219SOL    HW233294   4.430   3.953  10.543  0.0945 -0.2702 -1.1496
 7220SOL     OW33295   2.192   2.279  13.096  0.2930  0.2972  0.2308
 7220SOL    HW133296   2.217   2.354  13.042 -0.4353  0.4652  0.1383
 7220SOL    HW233297   2.230   2.209  13.043 -3.7741 -0.7741 -1.2085
 7221SOL     OW33298   1.366   3.957   2.866 -0.4310  0.6315 -0.0347
 7221SOL    HW133299   1.283   3.952   2.818  0.8275 -1.1000 -2.0770
 7221SOL    HW233300   1.417   3.891   2.818 -0.3289  0.6628  0.0323
 7222SOL     OW33301   2.112   0.274   7.187  0.4918  0.4743 -0.3986
 7222SOL    HW133302   2.163   0.285   7.268  1.2499 -4.8351 -0.1414
 7222SOL    HW233303   2.161   0.202   7.146  0.1012 -1.1435  1.9558
 7223SOL     OW33304   1.861   0.036   9.128 -0.3764 -0.5757  0.7501
 7223SOL    HW133305   1.883   0.102   9.193  0.8269 -0.3240  0.0743
 7223SOL    HW233306   1.767   0.054   9.116  0.4052  1.7743 -1.8922
 7224SOL     OW33307   1.536   2.929  13.681 -0.2841  0.1490  0.1741
 7224SOL    HW133308   1.624   2.896  13.696 -1.3844 -3.2730 -0.9126
 7224SOL    HW233309   1.546   3.021  13.654  3.6885 -0.9892 -2.2644
 7225SOL     OW33310   2.251   3.350   7.432 -0.3328 -0.4938 -0.3287
 7225SOL    HW133311   2.322   3.305   7.478  1.3182  1.6776 -0.7404
 7225SOL    HW233312   2.172   3.300   7.451  0.1562 -1.2494 -0.2557
 7226SOL     OW33313   3.828   4.347   4.579 -0.0575 -0.5280 -0.1433
 7226SOL    HW133314   3.855   4.378   4.666 -2.4686  0.0764  0.3928
 7226SOL    HW233315   3.872   4.408   4.520 -2.1111  0.8204 -0.2670
 7227SOL     OW33316   3.065   3.101  11.828  0.3090  0.3052  0.2989
 7227SOL    HW133317   3.046   3.032  11.892  1.1181  1.8153  2.1758
 7227SOL    HW233318   3.051   3.171  11.892  2.1579  0.8994  0.0435
 7228SOL     OW33319   3.693   2.854   7.782  0.2320 -0.0614 -0.2112
 7228SOL    HW133320   3.732   2.941   7.773 -1.2971  0.5717 -0.7509
 7228SOL    HW233321   3.622   2.873   7.843  0.6477 -1.5717  0.7403
 7229SOL     OW33322   0.296   3.740   5.307  0.2857 -0.3053  0.0063
 7229SOL    HW133323   0.264   3.735   5.398  1.3291 -1.5900  0.2950
 7229SOL    HW233324   0.370   3.679   5.313  0.3735 -0.3154 -1.1321
 7230SOL     OW33325   0.295   2.790   1.330  0.6210 -0.2908 -0.0646
 7230SOL    HW133326   0.370   2.741   1.364  0.3436 -0.1405  0.7397
 7230SOL    HW233327   0.251   2.713   1.295 -1.2617  1.3999 -1.4393
 7231SOL     OW33328   3.998   4.349  13.518  0.8946 -0.3095 -0.1737
 7231SOL    HW133329   4.093   4.343  13.523  0.7354 -1.5234  1.1820
 7231SOL    HW233330   3.983   4.436  13.556  0.8059 -0.0434 -0.8215
 7232SOL     OW33331   1.325   4.629   5.977  0.0913  0.2980 -0.8813
 7232SOL    HW133332   1.259   4.574   5.935  0.6800 -1.5168  0.5987
 7232SOL    HW233333   1.399   4.570   5.966  1.2559  1.6426 -0.1576
 7233SOL     OW33334   4.689   0.274   6.968 -0.5684 -0.2733  0.1773
 7233SOL    HW133335   4.686   0.320   7.052  0.2873  0.9750 -0.4728
 7233SOL    HW233336   0.022   0.213   6.985 -0.0172  0.1138 -0.7221
 7234SOL     OW33337   3.709   3.951   6.571 -0.1434  0.4764  0.1621
 7234SOL    HW133338   3.687   3.964   6.663 -1.7495 -2.8065  0.2522
 7234SOL    HW233339   3.698   3.856   6.563 -2.4806  0.7871 -0.1083
 7235SOL     OW33340   4.204   0.688  12.898  0.8580  0.0597  0.1219
 7235SOL    HW133341   4.225   0.768  12.850 -2.0827  0.7727  0.0603
 7235SOL    HW233342   4.191   0.716  12.988  0.7497  0.3929  0.0015
 7236SOL     OW33343   2.681   3.020   6.323  0.8760  0.1651  0.3371
 7236SOL    HW133344   2.742   3.029   6.249  0.6493  0.6163  0.2052
 7236SOL    HW233345   2.738   2.974   6.385 -1.3771  0.1971  2.3988
 7237SOL     OW33346   0.901   4.401  13.836 -0.2620 -0.0798 -0.0919
 7237SOL    HW133347   0.903   4.482  13.887 -1.1666 -1.0417  1.4691
 7237SOL    HW233348   0.930   4.427  13.749  1.0126 -1.0171  0.0550
 7238SOL     OW33349   4.229   0.311  15.285 -0.4905  0.0708 -0.2206
 7238SOL    HW133350   4.206   0.222  15.310 -1.4639  0.0297 -1.2517
 7238SOL    HW233351   4.153   0.343  15.236 -0.5423  1.2480  0.6223
 7239SOL     OW33352   0.689   2.813  12.155  0.2894 -0.3517  0.2074
 7239SOL    HW133353   0.732   2.728  12.163  0.1158 -0.4719 -0.1460
 7239SOL    HW233354   0.745   2.872  12.206 -1.3486 -0.6055  2.3270
 7240SOL     OW33355   1.489   2.430   8.578 -0.7851 -0.0998  0.2877
 7240SOL    HW133356   1.502   2.501   8.640 -1.5567 -1.5663  2.1215
 7240SOL    HW233357   1.581   2.402   8.579 -0.1437  1.9868 -1.1435
 7241SOL     OW33358   4.044   2.112  11.253  0.6165  0.0942 -0.3661
 7241SOL    HW133359   4.029   2.023  11.284 -0.3996  0.1895 -0.6021
 7241SOL    HW233360   4.062   2.097  11.161  1.1111 -1.5630  0.0010
 7242SOL     OW33361   1.837   2.140   0.152 -0.0598  0.1861 -0.0329
 7242SOL    HW133362   1.873   2.170   0.068 -1.0693  0.4788 -0.3536
 7242SOL    HW233363   1.768   2.079   0.129 -2.4169  2.0624  2.1190
 7243SOL     OW33364   1.888   2.992   3.548  0.2395 -0.1393  0.5158
 7243SOL    HW133365   1.812   2.981   3.491 -0.3629 -0.0280  1.2924
 7243SOL    HW233366   1.853   2.970   3.635  2.1140  0.5133  1.4515
 7244SOL     OW33367   0.046   3.743   7.320 -0.3579 -0.1425 -0.2138
 7244SOL    HW133368   4.724   3.682   7.362  1.6550 -1.4333  0.8291
 7244SOL    HW233369   0.001   3.823   7.345 -1.9628 -0.6011 -1.6204
 7245SOL     OW33370   0.938   3.654  10.524 -0.2862 -0.1937  0.4016
 7245SOL    HW133371   0.926   3.746  10.548  1.7550  1.3420 -4.3492
 7245SOL    HW233372   0.955   3.662  10.430 -2.5235 -2.0503 -0.1459
 7246SOL     OW33373   3.568   2.156   7.179  0.4666  0.1339 -0.2102
 7246SOL    HW133374   3.607   2.217   7.117 -1.4332  2.5885  1.0110
 7246SOL    HW233375   3.611   2.072   7.161 -0.4929  0.2733 -3.0771
 7247SOL     OW33376   3.973   4.135   7.193  0.4780  0.4716 -0.1783
 7247SOL    HW133377   3.885   4.141   7.230  1.7252 -0.0805  2.8957
 7247SOL    HW233378   4.034   4.133   7.267  2.0247  1.4625 -1.4343
 7248SOL     OW33379   2.454   4.043  12.160  0.2617 -0.2665  0.2600
 7248SOL    HW133380   2.543   4.018  12.186 -0.1525 -1.1365  0.8332
 7248SOL    HW233381   2.409   4.049  12.244 -0.2157 -1.9945  0.1185
 7249SOL     OW33382   1.095   4.433   6.795  0.3836 -0.1244  0.4515
 7249SOL    HW133383   1.063   4.521   6.817 -0.6999 -0.0214 -1.5177
 7249SOL    HW233384   1.179   4.457   6.755 -0.3224  0.7682 -0.5014
 7250SOL     OW33385   0.167   0.324   1.515  0.1878  0.6518  0.0308
 7250SOL    HW133386   0.252   0.358   1.544  0.7945  0.6739 -1.8208
 7250SOL    HW233387   0.111   0.348   1.589  1.2616 -1.0678  1.4054
 7251SOL     OW33388   1.398   2.213   7.890  0.1034 -0.1813 -0.6935
 7251SOL    HW133389   1.390   2.233   7.984 -1.5815 -1.1165 -0.6410
 7251SOL    HW233390   1.386   2.118   7.882 -0.4078 -0.1868  0.1734
 7252SOL     OW33391   0.612   3.789   3.010 -0.0764  0.1370  0.3066
 7252SOL    HW133392   0.586   3.861   3.067  1.6017  2.8367 -2.3304
 7252SOL    HW233393   0.704   3.803   3.029  0.3610  0.5657 -2.1141
 7253SOL     OW33394   0.830   0.439  11.858  0.6442 -0.1241 -0.0879
 7253SOL    HW133395   0.825   0.514  11.917 -1.9010 -0.1005 -0.3112
 7253SOL    HW233396   0.746   0.399  11.881  0.1030  1.2623  0.3399
 7254SOL     OW33397   1.821   1.598   4.602  0.5310 -0.4248  0.2651
 7254SOL    HW133398   1.731   1.565   4.598  0.2505  0.1901  1.4532
 7254SOL    HW233399   1.843   1.642   4.520 -1.1225 -1.7461 -0.8794
 7255SOL     OW33400   2.928   0.156  11.572  0.5614  0.0629 -0.3048
 7255SOL    HW133401   2.861   0.105  11.528 -0.1924  1.0501 -0.3086
 7255SOL    HW233402   2.900   0.243  11.543  3.6574  0.5366 -1.9279
 7256SOL     OW33403   4.385   2.745   1.167  0.1943 -0.0263  0.2141
 7256SOL    HW133404   4.363   2.759   1.075 -0.9774 -0.1192  0.4872
 7256SOL    HW233405   4.453   2.677   1.160 -0.6858 -1.0286  1.3769
 7257SOL     OW33406   2.104   2.866  12.907 -0.0726  0.1125 -0.0633
 7257SOL    HW133407   2.025   2.852  12.855 -0.6248  0.3478  0.7069
 7257SOL    HW233408   2.069   2.885  12.994  1.3695 -1.6259  0.9052
 7258SOL     OW33409   2.155   1.556   7.806 -0.5407  0.4951 -0.1371
 7258SOL    HW133410   2.166   1.474   7.854  0.6569 -1.8983 -4.4443
 7258SOL    HW233411   2.246   1.577   7.788  0.0730 -3.0068 -1.0701
 7259SOL     OW33412   3.362   0.700  17.543  0.1975 -0.3958  0.2229
 7259SOL    HW133413   3.430   0.759  17.511  0.4908 -1.3118 -0.8496
 7259SOL    HW233414   3.300   0.767  17.516  0.4236 -0.5226 -0.6033
 7260SOL     OW33415   2.161   4.539   6.148 -0.1078  0.2999 -0.0224
 7260SOL    HW133416   2.221   4.605   6.112 -1.2587  1.6753  0.5410
 7260SOL    HW233417   2.201   4.459   6.115 -0.8593 -0.6074  1.3054
 7261SOL     OW33418   2.463   0.036   3.828  0.1287 -0.1640 -0.6207
 7261SOL    HW133419   2.551   0.047   3.865  0.2489  0.8251 -1.2080
 7261SOL    HW233420   2.477   4.723   3.749 -2.8063 -2.3872  0.3057
 7262SOL     OW33421   0.697   2.331   5.864  0.4963 -0.3345  0.6857
 7262SOL    HW133422   0.657   2.316   5.777  1.7264  0.8302 -0.0717
 7262SOL    HW233423   0.692   2.426   5.864  0.7676 -0.3331  2.1266
 7263SOL     OW33424   2.741   3.004   8.940  0.7807 -0.1094 -0.3395
 7263SOL    HW133425   2.733   3.007   9.035 -0.3194 -0.1559 -0.4260
 7263SOL    HW233426   2.836   2.999   8.930  0.8607  1.1885 -0.2549
 7264SOL     OW33427   3.708   4.244   6.651 -0.2519  0.2776 -0.2606
 7264SOL    HW133428   3.700   4.334   6.681  0.5935  0.2493  0.0536
 7264SOL    HW233429   3.628   4.220   6.697  0.0310  0.2698  0.2303
 7265SOL     OW33430   1.911   2.026  16.465 -0.1030 -0.2013  0.5642
 7265SOL    HW133431   1.817   2.029  16.446  0.2298 -1.5220 -1.2376
 7265SOL    HW233432   1.926   2.118  16.488  0.1659 -0.1281  0.1131
 7266SOL     OW33433   3.593   3.460   0.939 -0.3061  0.2666  0.5941
 7266SOL    HW133434   3.566   3.552   0.932 -0.1009  0.2102 -0.9256
 7266SOL    HW233435   3.613   3.452   1.032  1.8182 -2.2303 -0.0656
 7267SOL     OW33436   1.062   3.265  17.173  0.1592  0.2349  0.2091
 7267SOL    HW133437   1.003   3.194  17.198 -0.9562  0.6138 -1.3189
 7267SOL    HW233438   1.140   3.246  17.225 -0.5339  1.0340  1.5342
 7268SOL     OW33439   0.159   2.829   3.275  0.3070 -0.5438  0.2192
 7268SOL    HW133440   0.196   2.829   3.364 -3.5217 -0.3064  1.8067
 7268SOL    HW233441   0.088   2.766   3.285 -1.4316  1.4413  0.4475
 7269SOL     OW33442   3.080   1.986  15.169 -0.4454 -0.0785  0.2002
 7269SOL    HW133443   3.063   2.067  15.217 -0.2516 -0.0761  0.2626
 7269SOL    HW233444   2.993   1.955  15.142 -0.1817 -0.0767 -0.6166
 7270SOL     OW33445   1.026   2.230   5.336  0.1381  0.4028 -0.7257
 7270SOL    HW133446   1.031   2.324   5.321  0.0227  0.5114 -0.1003
 7270SOL    HW233447   1.118   2.206   5.345 -0.0049  1.3386  3.2028
 7271SOL     OW33448   1.451   4.637  10.864  0.3294  0.4023  0.3166
 7271SOL    HW133449   1.533   4.608  10.825  0.9844 -1.0506  2.7188
 7271SOL    HW233450   1.494   4.720  10.882 -0.2340  0.7871 -0.1264
 7272SOL     OW33451   0.198   3.538  15.263  0.0460 -0.1395  0.2854
 7272SOL    HW133452   0.170   3.525  15.354  1.3383 -0.1105  0.6792
 7272SOL    HW233453   0.201   3.634  15.267  0.0215 -0.0890 -1.1002
 7273SOL     OW33454   0.936   4.708   5.035  0.0254  0.5061 -0.1442
 7273SOL    HW133455   0.906   4.641   5.096 -2.0809  3.9168  2.5671
 7273SOL    HW233456   1.030   4.697   5.049 -0.5701 -0.9920  2.5164
 7274SOL     OW33457   0.190   1.177   7.499 -0.1350 -0.4229  0.2517
 7274SOL    HW133458   0.250   1.182   7.573 -0.4359  1.1800  0.3831
 7274SOL    HW233459   0.100   1.178   7.532  0.3235  0.1865  1.4561
 7275SOL     OW33460   1.076   4.711   8.148  0.4154  0.1770 -0.8702
 7275SOL    HW133461   1.023   4.716   8.069  0.7479 -0.6151 -1.1439
 7275SOL    HW233462   1.030   0.027   8.212 -1.2158 -0.3656 -1.5824
 7276SOL     OW33463   2.220   3.084   6.127 -0.3299 -0.6647  0.1254
 7276SOL    HW133464   2.129   3.065   6.104 -0.6746  1.4903 -0.2648
 7276SOL    HW233465   2.250   2.994   6.140 -2.5699 -1.5036 -0.4109
 7277SOL     OW33466   3.637   0.942   1.661  0.0188  0.0564  0.7986
 7277SOL    HW133467   3.566   1.003   1.681 -1.3655 -1.4579  0.5134
 7277SOL    HW233468   3.621   0.926   1.567  1.4679 -0.4671  0.6485
 7278SOL     OW33469   4.719   0.508   4.324  0.5739 -0.9052  0.2309
 7278SOL    HW133470   0.038   0.442   4.362  0.1026 -0.8736  0.9951
 7278SOL    HW233471   4.732   0.483   4.232 -0.2621 -1.2877  0.2210
 7279SOL     OW33472   1.193   2.620   7.232  0.4138  0.1368 -0.0427
 7279SOL    HW133473   1.257   2.568   7.281  1.2637  0.2572 -1.0374
 7279SOL    HW233474   1.242   2.701   7.217 -0.6605  0.4600 -1.7948
 7280SOL     OW33475   0.886   4.007   8.439  0.1226 -0.7081 -1.0138
 7280SOL    HW133476   0.936   3.939   8.484  1.0006  1.3781  1.1722
 7280SOL    HW233477   0.952   4.065   8.402 -0.0902  0.4750  0.4650
 7281SOL     OW33478   1.733   0.804  17.591  0.1961 -0.3151 -0.2287
 7281SOL    HW133479   1.761   0.794  17.682  0.7431 -1.5224 -0.5251
 7281SOL    HW233480   1.813   0.768  17.553  1.0754  2.6259 -1.1123
 7282SOL     OW33481   4.264   1.031   6.108  0.4709  0.2317 -0.0462
 7282SOL    HW133482   4.306   0.971   6.046  0.8636  0.5580 -0.0961
 7282SOL    HW233483   4.178   1.050   6.071 -0.0168  0.1250  1.0367
 7283SOL     OW33484   0.188   0.745   4.161  0.5400  0.3768  0.7283
 7283SOL    HW133485   0.161   0.677   4.223 -2.9539 -0.0461 -1.2408
 7283SOL    HW233486   0.117   0.760   4.099  0.8058  0.9407  0.5642
 7284SOL     OW33487   3.098   3.817   3.575 -0.5605  0.1943 -0.4849
 7284SOL    HW133488   3.047   3.889   3.539 -0.1771  0.9924  0.5606
 7284SOL    HW233489   3.026   3.775   3.623 -0.1261 -0.0162 -0.0127
 7285SOL     OW33490   1.438   1.687  12.164 -0.2295 -0.5169 -0.4656
 7285SOL    HW133491   1.426   1.771  12.207  2.3876 -0.7738  0.7610
 7285SOL    HW233492   1.385   1.632  12.221  4.7602 -1.6238  3.1185
 7286SOL     OW33493   3.072   2.563   8.528  0.0697  0.1489  0.0539
 7286SOL    HW133494   3.091   2.505   8.602  0.8549  1.9354  1.2358
 7286SOL    HW233495   3.085   2.498   8.458 -0.1899  0.0180  0.1267
 7287SOL     OW33496   4.390   2.773   5.974 -0.2841  0.0452  0.4197
 7287SOL    HW133497   4.425   2.723   5.900 -1.0103  1.2807 -0.7625
 7287SOL    HW233498   4.340   2.842   5.930 -1.2165  0.2823  1.8584
 7288SOL     OW33499   4.513   2.854   6.189 -0.0646  0.2164 -0.0491
 7288SOL    HW133500   4.475   2.808   6.114  0.2254  0.4255 -0.3202
 7288SOL    HW233501   4.586   2.799   6.217 -0.8693 -1.1563 -0.6245
 7289SOL     OW33502   1.741   0.455  11.202  0.3012 -0.0676 -0.3709
 7289SOL    HW133503   1.667   0.435  11.260  0.0541 -0.3513 -0.7767
 7289SOL    HW233504   1.712   0.430  11.114  0.0618  1.2976 -0.6817
 7290SOL     OW33505   1.362   4.045  13.313 -0.0297 -0.1884  0.0635
 7290SOL    HW133506   1.390   4.136  13.326  0.8038 -0.3897 -0.3748
 7290SOL    HW233507   1.443   4.010  13.349  0.4674  2.0715  1.1364
 7291SOL     OW33508   4.517   4.630   9.395 -0.2309  0.6798 -0.2306
 7291SOL    HW133509   4.478   4.571   9.460 -0.2935 -0.6175 -1.4448
 7291SOL    HW233510   4.545   4.697   9.458  0.3066  0.8574 -0.6596
 7292SOL     OW33511   2.029   1.440   0.050 -0.1046 -0.4610  0.0874
 7292SOL    HW133512   1.941   1.424   0.017  0.7693 -2.7969 -1.1012
 7292SOL    HW233513   2.065   1.351   0.053  0.6236 -0.1097  1.7547
 7293SOL     OW33514   3.714   3.256   5.154 -0.1339 -0.1906 -0.0884
 7293SOL    HW133515   3.676   3.188   5.099 -0.1731  0.0114 -0.3149
 7293SOL    HW233516   3.788   3.277   5.097  0.1686  1.8666  1.0531
 7294SOL     OW33517   4.416   4.251  12.693  0.5791  0.6661 -0.0038
 7294SOL    HW133518   4.489   4.248  12.755  1.2451 -0.1930 -0.8256
 7294SOL    HW233519   4.376   4.167  12.716 -0.2884  0.9387 -0.5247
 7295SOL     OW33520   1.945   3.409  13.269 -1.1295  0.1427 -0.5630
 7295SOL    HW133521   1.993   3.340  13.223 -0.6216 -0.4757  0.9227
 7295SOL    HW233522   1.954   3.481  13.207  0.5051 -0.7888 -1.4315
 7296SOL     OW33523   2.570   2.212   4.051  0.0865 -0.0214 -0.2114
 7296SOL    HW133524   2.555   2.305   4.033  0.1358  0.1660  0.7264
 7296SOL    HW233525   2.659   2.213   4.086  0.5836  0.0480 -1.4987
 7297SOL     OW33526   3.755   2.137   4.243 -0.0007  1.0202  0.3645
 7297SOL    HW133527   3.678   2.187   4.218  0.0414  1.1985  0.5868
 7297SOL    HW233528   3.795   2.203   4.300  0.7502  0.4316  0.5192
 7298SOL     OW33529   1.915   1.578   7.945 -0.1111  0.0015  0.4856
 7298SOL    HW133530   1.998   1.586   7.897  0.0609 -0.4707  0.7141
 7298SOL    HW233531   1.851   1.531   7.892  0.6436  0.7178 -1.0800
 7299SOL     OW33532   4.598   3.569   6.933 -0.8476 -0.2181 -0.5433
 7299SOL    HW133533   4.537   3.597   7.002  0.6597 -0.5944  0.9394
 7299SOL    HW233534   4.541   3.582   6.857  0.1553  2.9675 -0.7646
 7300SOL     OW33535   0.736   2.862   6.541 -0.0338  0.4511 -0.3232
 7300SOL    HW133536   0.727   2.857   6.446 -0.9504 -0.0738 -0.2125
 7300SOL    HW233537   0.685   2.937   6.570  1.1709  0.6785  1.2075
 7301SOL     OW33538   4.636   2.294   6.851  0.1746 -0.0407  0.0600
 7301SOL    HW133539   4.563   2.280   6.791 -0.1043  1.0841  0.1390
 7301SOL    HW233540   4.710   2.253   6.806 -0.8221  0.0119 -1.6260
 7302SOL     OW33541   4.470   2.387   0.118 -0.1712 -0.3489 -0.4312
 7302SOL    HW133542   4.462   2.431   0.033 -1.2008  1.2832  0.5057
 7302SOL    HW233543   4.419   2.306   0.118 -1.9603  0.7718  0.0026
 7303SOL     OW33544   3.195   2.622  16.179  0.2533 -0.3503 -0.5229
 7303SOL    HW133545   3.170   2.711  16.153  3.1958  1.1305  1.5871
 7303SOL    HW233546   3.129   2.605  16.247 -0.2597  0.9541 -0.6982
 7304SOL     OW33547   4.618   1.992   4.043 -0.0790  0.1748  0.1751
 7304SOL    HW133548   4.627   2.087   4.053  0.5532  0.1370 -0.0440
 7304SOL    HW233549   4.700   1.957   4.077 -0.9785 -2.1872 -0.0750
 7305SOL     OW33550   0.549   2.821   7.951  0.4238 -0.0846  0.0208
 7305SOL    HW133551   0.565   2.878   7.877  3.2302 -0.1739  0.5519
 7305SOL    HW233552   0.620   2.853   8.007 -0.2442  1.6675 -0.1357
 7306SOL     OW33553   3.856   3.119   7.032 -0.3044  0.4047  0.7209
 7306SOL    HW133554   3.846   3.025   7.019 -0.2927  0.8536 -2.3244
 7306SOL    HW233555   3.875   3.125   7.126 -2.5576  1.5586  1.1292
 7307SOL     OW33556   1.067   0.353   6.356  0.1944 -0.1147 -0.3029
 7307SOL    HW133557   1.000   0.351   6.288  0.1227 -0.2500 -0.2274
 7307SOL    HW233558   1.066   0.260   6.375 -0.9086 -0.1604 -0.6030
 7308SOL     OW33559   0.810   2.652   3.013  0.1397 -0.5677  0.2952
 7308SOL    HW133560   0.830   2.623   3.102  1.4831  0.3204  0.2818
 7308SOL    HW233561   0.755   2.729   3.030  1.5568  0.2117  1.2458
 7309SOL     OW33562   3.931   0.577   6.902  0.1848 -0.7387 -0.0484
 7309SOL    HW133563   3.958   0.661   6.866 -1.9625  0.1286  0.4081
 7309SOL    HW233564   3.838   0.582   6.880  0.2802 -1.2977 -0.5879
 7310SOL     OW33565   1.170   4.175   4.679 -0.4701  0.2547 -0.0916
 7310SOL    HW133566   1.116   4.243   4.638  1.3027 -0.0029 -2.8642
 7310SOL    HW233567   1.154   4.098   4.624  0.1405  0.3603 -0.4192
 7311SOL     OW33568   1.203   1.497   8.259 -0.1508 -0.7052  0.2048
 7311SOL    HW133569   1.222   1.417   8.210  0.6845  0.5972 -1.5660
 7311SOL    HW233570   1.279   1.494   8.318  0.5484  1.6212 -0.6015
 7312SOL     OW33571   0.307   3.578  10.256  0.8179  0.0924 -0.5891
 7312SOL    HW133572   0.347   3.661  10.282  1.2855 -0.9219  1.8952
 7312SOL    HW233573   0.217   3.610  10.263  0.5612 -0.0419 -3.2007
 7313SOL     OW33574   0.617   0.479   6.032  0.1153  0.1993  0.3655
 7313SOL    HW133575   0.543   0.501   6.089 -0.3348 -2.9467  0.9786
 7313SOL    HW233576   0.617   0.387   6.060  0.8014 -0.2280 -1.0798
 7314SOL     OW33577   4.507   3.335   8.954  0.9191 -0.8538  0.9040
 7314SOL    HW133578   4.503   3.284   9.035  0.6658 -0.6425  1.0240
 7314SOL    HW233579   4.512   3.425   8.987  2.8891  0.0316 -1.8319
 7315SOL     OW33580   0.495   3.237  17.629  0.3972 -0.3033 -0.3407
 7315SOL    HW133581   0.475   3.210  17.540 -2.0017  1.1596 -0.2355
 7315SOL    HW233582   0.413   3.215  17.673  1.7433 -0.6439  1.9994
 7316SOL     OW33583   1.520   2.148   2.057 -0.7057 -0.1796  0.7638
 7316SOL    HW133584   1.601   2.132   2.009 -0.1676  2.6726  0.7212
 7316SOL    HW233585   1.521   2.244   2.066 -2.3729 -0.2442  1.6589
 7317SOL     OW33586   1.776   2.985   9.226 -0.0563 -0.6401  0.5992
 7317SOL    HW133587   1.773   3.046   9.300  1.6301 -1.5872  1.4326
 7317SOL    HW233588   1.812   3.039   9.156 -0.7842 -0.5171  0.3143
 7318SOL     OW33589   3.295   3.622  14.266 -0.2966 -0.1972 -0.2656
 7318SOL    HW133590   3.202   3.607  14.248 -0.9466  1.0081  1.9452
 7318SOL    HW233591   3.315   3.550  14.326  1.0532  0.5386  0.1714
 7319SOL     OW33592   0.692   0.042   9.684  0.1083  0.1454 -0.3539
 7319SOL    HW133593   0.783   0.025   9.659 -0.1666  0.9390 -1.9245
 7319SOL    HW233594   0.698   0.082   9.770 -2.6459 -0.4171  0.0857
 7320SOL     OW33595   2.508   0.771   2.969  0.1332 -0.0706  0.1561
 7320SOL    HW133596   2.549   0.838   2.914 -1.8893  0.0933 -1.1448
 7320SOL    HW233597   2.431   0.753   2.915  0.1309 -0.2341  0.2147
 7321SOL     OW33598   2.186   3.630   0.770 -0.1369 -0.3392  0.1625
 7321SOL    HW133599   2.257   3.681   0.730 -0.5949 -0.9640 -1.4706
 7321SOL    HW233600   2.144   3.697   0.824  0.1567  0.4894 -0.6322
 7322SOL     OW33601   3.533   0.751   4.020  0.6290  0.2545  0.0041
 7322SOL    HW133602   3.487   0.721   3.942  0.6049  1.2025 -0.3539
 7322SOL    HW233603   3.494   0.692   4.084  1.6466 -0.9255 -0.4538
 7323SOL     OW33604   1.481   4.311   3.934 -0.8777 -0.2117 -0.1203
 7323SOL    HW133605   1.427   4.232   3.929  0.9793 -1.4213 -0.8809
 7323SOL    HW233606   1.499   4.323   3.840 -2.2671  0.6326 -0.2854
 7324SOL     OW33607   1.333   3.285   6.915 -0.0845  0.2884 -0.0044
 7324SOL    HW133608   1.377   3.297   6.831  0.5222  0.5418  0.3449
 7324SOL    HW233609   1.406   3.309   6.972 -0.9945  1.6151  0.5988
 7325SOL     OW33610   3.069   4.406   8.249 -0.3825 -0.1008  0.3673
 7325SOL    HW133611   3.004   4.406   8.179 -0.5994  1.4336  0.5569
 7325SOL    HW233612   3.011   4.388   8.322 -1.3404  1.1255 -0.0954
 7326SOL     OW33613   2.766   4.065   3.952 -0.0650 -0.8808 -0.0843
 7326SOL    HW133614   2.836   4.022   4.001  0.3962  0.7586  0.6822
 7326SOL    HW233615   2.765   4.155   3.982  1.7130 -0.4376 -1.3703
 7327SOL     OW33616   3.541   0.954   8.389 -0.1081 -0.1494 -0.4260
 7327SOL    HW133617   3.589   0.896   8.449  1.3683  2.2274  0.6817
 7327SOL    HW233618   3.493   0.893   8.332  1.3638 -0.7997 -0.9612
 7328SOL     OW33619   3.780   0.501   1.970  0.6215 -0.1634 -0.2826
 7328SOL    HW133620   3.810   0.505   2.061 -1.8695  2.4907  0.4386
 7328SOL    HW233621   3.863   0.507   1.922  1.2808  2.6248  1.1758
 7329SOL     OW33622   0.598   4.164   9.670  0.1270  0.2185  0.0586
 7329SOL    HW133623   0.551   4.233   9.717  1.0608  0.6798  0.3221
 7329SOL    HW233624   0.689   4.155   9.700 -0.1206  1.0295  1.0498
 7330SOL     OW33625   3.415   3.047   2.599  0.1667 -0.2083 -0.6758
 7330SOL    HW133626   3.361   2.969   2.585 -1.5060  0.4640  1.9488
 7330SOL    HW233627   3.348   3.115   2.610 -0.1404 -0.5327 -0.5196
 7331SOL     OW33628   3.171   2.445   3.106 -0.2930  0.1029 -0.6911
 7331SOL    HW133629   3.132   2.532   3.096 -2.5009 -0.6786  0.9766
 7331SOL    HW233630   3.106   2.385   3.069  0.3285 -1.0062  0.0118
 7332SOL     OW33631   3.440   1.168   9.725 -0.3056  0.2567  0.0259
 7332SOL    HW133632   3.464   1.156   9.633 -2.0282  0.0453 -0.3893
 7332SOL    HW233633   3.394   1.084   9.729  0.6589 -0.3851 -1.9375
 7333SOL     OW33634   0.716   4.265   5.379 -0.5214  0.3742 -0.2140
 7333SOL    HW133635   0.746   4.175   5.364 -0.7449  0.0408  1.3388
 7333SOL    HW233636   0.732   4.269   5.473 -0.2181  0.2241 -0.2596
 7334SOL     OW33637   1.051   4.123   2.222  0.0944  0.2318 -0.7844
 7334SOL    HW133638   1.028   4.203   2.174  0.8364  1.1723  0.4261
 7334SOL    HW233639   0.970   4.095   2.263 -0.2451  2.3700  0.0093
 7335SOL     OW33640   3.494   1.805   6.028 -0.2421 -0.1696 -0.2120
 7335SOL    HW133641   3.517   1.742   6.096  1.1344 -0.4664 -0.9555
 7335SOL    HW233642   3.526   1.760   5.950 -0.0636 -2.0471  0.9556
 7336SOL     OW33643   1.572   3.028   6.503  0.1110  0.0126 -0.0925
 7336SOL    HW133644   1.622   2.992   6.430 -2.1989 -0.9700 -1.2100
 7336SOL    HW233645   1.628   3.004   6.578  0.3824 -2.6076 -1.1397
 7337SOL     OW33646   1.052   1.244   3.653  0.1507 -0.0209 -0.4599
 7337SOL    HW133647   1.025   1.185   3.723  0.5456  1.0718  0.6054
 7337SOL    HW233648   1.122   1.195   3.608  1.3570  1.1353  0.1702
 7338SOL     OW33649   0.576   0.230  16.882 -0.3749 -0.1677 -0.2393
 7338SOL    HW133650   0.578   0.136  16.864  1.2141 -0.1328 -0.2104
 7338SOL    HW233651   0.506   0.264  16.826 -0.5880 -2.9052 -1.6312
 7339SOL     OW33652   2.482   0.001   3.306 -0.1145  0.3089  0.1507
 7339SOL    HW133653   2.530   4.666   3.269  0.6331  0.8120  0.1255
 7339SOL    HW233654   2.409   0.006   3.244 -0.4226 -0.4180  0.4503
 7340SOL     OW33655   0.002   1.413   4.686 -0.6076 -0.2315  0.1774
 7340SOL    HW133656   0.073   1.385   4.628  1.5435  1.7387  1.8873
 7340SOL    HW233657   4.714   1.337   4.738 -1.6391 -0.3650 -0.5454
 7341SOL     OW33658   4.511   3.220   5.291  0.6961  0.6310  0.2282
 7341SOL    HW133659   4.473   3.166   5.361  0.6725  0.3029 -0.0393
 7341SOL    HW233660   4.562   3.154   5.244  2.2462  0.9544  1.4692
 7342SOL     OW33661   3.849   2.926  17.411 -0.1345  0.4122  0.4893
 7342SOL    HW133662   3.777   2.919  17.474  0.0420  1.1506  0.7835
 7342SOL    HW233663   3.906   2.993  17.451 -1.0209  0.7571  1.1660
 7343SOL     OW33664   3.030   1.265   0.188  0.1765 -0.1872 -0.1653
 7343SOL    HW133665   3.084   1.286   0.264  0.8781  1.6906 -1.1876
 7343SOL    HW233666   2.953   1.226   0.231 -1.4069  1.9999 -1.0549
 7344SOL     OW33667   2.764   2.599   2.231 -0.0103  0.1703  0.1622
 7344SOL    HW133668   2.747   2.545   2.309  0.1782 -0.7564 -0.4312
 7344SOL    HW233669   2.819   2.541   2.179  2.2330  2.2601  0.2399
 7345SOL     OW33670   1.604   0.079   3.048 -0.6543  0.0400 -0.5527
 7345SOL    HW133671   1.633   0.043   2.965 -0.8931  0.4816 -0.8289
 7345SOL    HW233672   1.644   0.165   3.037 -2.7644  1.1570  0.3809
 7346SOL     OW33673   4.079   3.274   4.633  0.5044 -0.1212  0.3681
 7346SOL    HW133674   4.058   3.353   4.682 -2.6238  0.7807 -2.4063
 7346SOL    HW233675   4.015   3.211   4.668  0.1664  0.7395  1.2862
 7347SOL     OW33676   1.121   1.356   1.864 -0.1777  0.3211 -0.1963
 7347SOL    HW133677   1.110   1.450   1.871 -0.5305  0.3937 -1.8985
 7347SOL    HW233678   1.119   1.334   1.958  3.0737 -1.7636 -0.6096
 7348SOL     OW33679   2.837   2.674   3.831 -0.1024  0.2411 -0.2513
 7348SOL    HW133680   2.775   2.601   3.823  0.3084 -0.5605  4.0097
 7348SOL    HW233681   2.783   2.737   3.879  2.1227  1.6348  0.4394
 7349SOL     OW33682   0.757   4.428   8.117 -0.3326  0.1190  0.8681
 7349SOL    HW133683   0.740   4.452   8.208 -2.9707  1.4107  0.0255
 7349SOL    HW233684   0.690   4.483   8.078 -1.0911  0.0017  1.9850
 7350SOL     OW33685   3.757   1.341  10.297 -0.4210  0.3208  0.3440
 7350SOL    HW133686   3.792   1.254  10.318  1.6017  1.2098  0.5353
 7350SOL    HW233687   3.760   1.354  10.202 -2.0670  2.1316  0.5351
 7351SOL     OW33688   0.091   3.098  12.211  0.3047  0.5623 -0.0794
 7351SOL    HW133689   0.002   3.088  12.244 -0.7621  0.1859 -3.1002
 7351SOL    HW233690   0.114   3.005  12.207  2.2773  1.1812 -3.1460
 7352SOL     OW33691   4.460   2.498  12.296  0.5693 -0.2478  0.0345
 7352SOL    HW133692   4.471   2.588  12.265  0.3315  0.1877  1.1896
 7352SOL    HW233693   4.364   2.498  12.293  0.5155  0.7481  1.3681
 7353SOL     OW33694   1.057   2.297   3.184  0.3549 -0.6453  0.3212
 7353SOL    HW133695   1.047   2.239   3.108 -0.8334  2.1190 -1.6225
 7353SOL    HW233696   1.151   2.316   3.175  0.2096  0.6576  1.6320
 7354SOL     OW33697   4.483   1.320   1.284  0.1114  0.4476  0.3348
 7354SOL    HW133698   4.442   1.345   1.367  1.3433 -0.4362  1.2183
 7354SOL    HW233699   4.437   1.380   1.226 -0.6581  0.4946  0.9875
 7355SOL     OW33700   2.207   2.061   8.593  0.8238  0.1837 -0.5819
 7355SOL    HW133701   2.249   2.107   8.666 -0.4374  2.4990 -1.3102
 7355SOL    HW233702   2.278   2.000   8.572  1.1792  0.0281  1.0647
 7356SOL     OW33703   3.982   3.276   3.829  0.0290  0.3188 -0.3046
 7356SOL    HW133704   3.960   3.187   3.858  2.0857  0.2569  1.0356
 7356SOL    HW233705   4.046   3.260   3.760 -0.1541 -0.1640 -0.3666
 7357SOL     OW33706   0.868   1.006   9.477 -0.1620  0.8132  0.0477
 7357SOL    HW133707   0.824   1.008   9.392  1.8239 -0.4107 -1.0139
 7357SOL    HW233708   0.795   0.984   9.536 -0.4074  4.4078  1.0811
 7358SOL     OW33709   0.345   4.705   6.310  0.2700  0.3672 -0.8994
 7358SOL    HW133710   0.373   4.711   6.219 -1.5133  0.2767 -1.4648
 7358SOL    HW233711   0.402   4.634   6.338  0.4290  0.8467 -0.0039
 7359SOL     OW33712   3.945   4.600  15.532  0.2899 -0.2386  0.0003
 7359SOL    HW133713   4.023   4.566  15.576  0.3385  2.5352  2.0471
 7359SOL    HW233714   3.899   4.518  15.511 -1.1660  0.9340 -1.3643
 7360SOL     OW33715   3.449   0.418   3.957  0.8327  0.3562 -0.3109
 7360SOL    HW133716   3.430   0.487   4.020 -1.6894 -0.4392 -0.2031
 7360SOL    HW233717   3.396   0.431   3.878 -1.6781  1.2950  1.5405
 7361SOL     OW33718   3.799   0.102   3.784  0.2381 -0.1092  0.1319
 7361SOL    HW133719   3.753   0.079   3.704 -2.4971 -1.1003  1.9844
 7361SOL    HW233720   3.741   0.050   3.839  0.0024 -0.4777 -0.4695
 7362SOL     OW33721   1.932   1.178   5.068  0.1230  0.0721 -0.3606
 7362SOL    HW133722   1.942   1.108   5.132  0.9575 -0.7103 -1.3607
 7362SOL    HW233723   1.837   1.188   5.061  0.0318 -0.6085 -0.0032
 7363SOL     OW33724   0.854   1.740   3.959 -0.4134 -0.3123 -0.2728
 7363SOL    HW133725   0.817   1.682   4.025 -0.0817 -2.3085 -1.8314
 7363SOL    HW233726   0.946   1.740   3.987 -0.8466  0.4899  1.1100
 7364SOL     OW33727   3.540   4.244  10.771  0.2272  0.1849  0.1428
 7364SOL    HW133728   3.489   4.165  10.787  0.2263 -0.0737 -1.1962
 7364SOL    HW233729   3.556   4.272  10.861  0.3505 -0.9595  0.4713
 7365SOL     OW33730   3.464   0.262  14.917 -0.3258 -0.1024  0.5048
 7365SOL    HW133731   3.440   0.300  14.833  0.0858  0.0147  0.4380
 7365SOL    HW233732   3.543   0.314  14.930  0.7232 -1.2877 -1.0598
 7366SOL     OW33733   2.890   3.233   7.620  0.2964  0.4360  0.3494
 7366SOL    HW133734   2.892   3.327   7.640  0.0801  0.4279  0.4092
 7366SOL    HW233735   2.833   3.221   7.544  1.5347 -0.5639 -0.4230
 7367SOL     OW33736   1.502   0.557   8.022 -0.4532  0.2124  0.8507
 7367SOL    HW133737   1.493   0.501   8.099  0.5177 -0.7868  0.2319
 7367SOL    HW233738   1.527   0.637   8.069 -0.6986  1.2494 -0.7902
 7368SOL     OW33739   2.021   1.156   8.197 -0.1832  0.9459 -0.3774
 7368SOL    HW133740   1.989   1.067   8.210  0.4342  1.0576  1.8143
 7368SOL    HW233741   1.948   1.188   8.144  0.1185  0.4404 -1.0948
 7369SOL     OW33742   3.216   0.672  10.860 -0.4769  0.0092 -0.7377
 7369SOL    HW133743   3.261   0.653  10.777  0.2803  1.4164 -0.6440
 7369SOL    HW233744   3.215   0.767  10.852  3.7498 -0.0853 -2.2455
 7370SOL     OW33745   0.473   3.842  14.422 -0.0552  0.2701  0.0525
 7370SOL    HW133746   0.393   3.889  14.399  0.4840  1.1286 -0.0382
 7370SOL    HW233747   0.448   3.766  14.474  0.1179  0.0128 -0.2410
 7371SOL     OW33748   1.344   0.764  15.344  0.0229 -0.0201 -0.2388
 7371SOL    HW133749   1.430   0.770  15.301 -0.7808 -0.0291 -1.8548
 7371SOL    HW233750   1.361   0.786  15.435 -0.1499 -0.1250 -0.1818
 7372SOL     OW33751   1.385   3.984   8.458 -0.0507  0.1495  0.7043
 7372SOL    HW133752   1.382   4.036   8.539 -2.8256  0.2526  0.5254
 7372SOL    HW233753   1.436   4.036   8.396 -0.1731  0.5153  0.9053
 7373SOL     OW33754   4.529   3.623   7.800  0.3135  1.0977 -0.0537
 7373SOL    HW133755   4.498   3.538   7.768  1.2214 -0.2572  2.7125
 7373SOL    HW233756   4.457   3.646   7.858  0.0927 -0.4547  0.2758
 7374SOL     OW33757   4.064   1.373   5.196 -0.2553 -0.9731  0.1505
 7374SOL    HW133758   4.031   1.314   5.263  1.2253 -1.7821  0.1761
 7374SOL    HW233759   4.022   1.453   5.227 -1.8668 -1.6799 -0.2216
 7375SOL     OW33760   4.067   2.547   8.601  0.2134  0.0701 -0.4217
 7375SOL    HW133761   4.121   2.622   8.575  0.9122 -0.0711  0.6292
 7375SOL    HW233762   4.118   2.517   8.676 -1.0249 -0.4279  0.2197
 7376SOL     OW33763   1.235   4.412  16.088  0.2957  0.1878  0.0812
 7376SOL    HW133764   1.165   4.436  16.149  1.4674  1.1516  1.0744
 7376SOL    HW233765   1.314   4.432  16.139  0.2975 -0.8543  0.4787
 7377SOL     OW33766   4.103   1.121  16.832  0.5809 -0.2784  0.0283
 7377SOL    HW133767   4.101   1.109  16.927  0.9493  1.0899  0.2142
 7377SOL    HW233768   4.172   1.185  16.815 -0.6288  1.4413  1.6687
 7378SOL     OW33769   0.985   3.454  10.884  0.1774  0.0423  0.7674
 7378SOL    HW133770   0.907   3.475  10.935 -0.4845  0.2778 -0.3493
 7378SOL    HW233771   1.050   3.514  10.921 -0.2928  0.4853  0.8746
 7379SOL     OW33772   2.963   3.698   1.725 -0.1952  0.4262 -0.2978
 7379SOL    HW133773   2.925   3.645   1.795 -0.1834 -0.0689 -0.6654
 7379SOL    HW233774   3.002   3.769   1.775 -0.2466  0.6981 -0.6423
 7380SOL     OW33775   2.380   2.781   3.880  0.4366 -0.0019  0.1410
 7380SOL    HW133776   2.322   2.790   3.956 -0.8279 -1.5167 -0.6508
 7380SOL    HW233777   2.377   2.687   3.863 -0.9636  0.1205 -0.2459
 7381SOL     OW33778   0.120   0.683   4.617  0.4847 -0.4468 -0.1642
 7381SOL    HW133779   0.204   0.709   4.579  0.5835  1.0521  1.0837
 7381SOL    HW233780   0.057   0.731   4.563  1.4600  2.1236  0.9898
 7382SOL     OW33781   0.264   4.228   2.890  0.0166  0.7442 -0.1794
 7382SOL    HW133782   0.286   4.319   2.870 -0.7843  0.6623 -1.3672
 7382SOL    HW233783   0.287   4.251   2.981  1.0078 -0.0565 -0.2241
 7383SOL     OW33784   2.298   0.167   2.662 -0.4621  0.7302 -0.2690
 7383SOL    HW133785   2.322   0.258   2.643  1.1669  0.7119  1.7753
 7383SOL    HW233786   2.205   0.166   2.641 -0.3746 -0.8318 -0.5981
 7384SOL     OW33787   3.154   3.755   7.754 -0.0198  0.0450 -0.5360
 7384SOL    HW133788   3.125   3.841   7.725 -0.5895  0.1905  0.4699
 7384SOL    HW233789   3.074   3.707   7.776  1.4822 -1.5565  1.3737
 7385SOL     OW33790   1.578   2.404   1.837 -0.2505  0.2014 -0.0072
 7385SOL    HW133791   1.597   2.486   1.792  1.3782  0.4568  1.1382
 7385SOL    HW233792   1.572   2.423   1.931  1.4700 -0.8132  0.3159
 7386SOL     OW33793   2.096   2.338   7.763 -0.6458  0.5582  0.1974
 7386SOL    HW133794   2.060   2.279   7.696 -1.8507  1.4672  0.0666
 7386SOL    HW233795   2.054   2.296   7.838  2.3186 -1.2071  0.8898
 7387SOL     OW33796   4.394   4.301   2.830  0.3101  0.0038 -0.0966
 7387SOL    HW133797   4.397   4.346   2.915 -1.3990  1.5099 -0.8278
 7387SOL    HW233798   4.486   4.305   2.804 -0.1971  2.5707 -1.5506
 7388SOL     OW33799   2.044   4.130   2.854  0.0237 -0.2774  0.0754
 7388SOL    HW133800   1.981   4.063   2.826 -1.1012 -0.2665  2.5744
 7388SOL    HW233801   2.014   4.198   2.793  0.2827  0.1248  0.3980
 7389SOL     OW33802   2.666   2.118  13.153  0.0672 -0.0736  0.1660
 7389SOL    HW133803   2.647   2.181  13.222  0.9625 -0.5362  0.8423
 7389SOL    HW233804   2.613   2.145  13.079 -0.8818  0.8388  1.1720
 7390SOL     OW33805   0.029   0.070   0.979 -0.4463 -0.4016 -0.5141
 7390SOL    HW133806   0.055   0.145   1.033 -3.9490  2.1557 -2.3734
 7390SOL    HW233807   0.103   0.083   0.920 -0.9586  1.1587 -0.8109
 7391SOL     OW33808   4.021   0.831  13.591  0.0597  0.0307 -0.1190
 7391SOL    HW133809   4.074   0.769  13.541  1.7406  0.1477  1.5140
 7391SOL    HW233810   4.035   0.920  13.559 -0.4227  0.1690  0.0604
 7392SOL     OW33811   0.926   0.947   8.752 -0.3100  0.0871  0.1365
 7392SOL    HW133812   0.887   0.966   8.667  0.1656 -0.0223 -0.1086
 7392SOL    HW233813   0.962   1.027   8.790 -1.5362  0.9475 -0.5137
 7393SOL     OW33814   3.671   4.626  13.232  0.3666  0.1025 -0.0413
 7393SOL    HW133815   3.734   4.684  13.275  0.6813 -0.5864  0.4266
 7393SOL    HW233816   3.648   4.571  13.307  1.4109  0.2119  0.3675
 7394SOL     OW33817   0.852   1.841   3.706  0.1342 -0.2802 -0.2135
 7394SOL    HW133818   0.759   1.848   3.684  0.0554  1.1092  0.6105
 7394SOL    HW233819   0.846   1.793   3.788 -1.0933 -2.2859 -1.4705
 7395SOL     OW33820   1.268   4.470  16.829  0.7542  0.3126  0.1649
 7395SOL    HW133821   1.332   4.507  16.889  3.0995 -0.2289 -2.0055
 7395SOL    HW233822   1.226   4.409  16.890  2.5805  0.0408  1.1287
 7396SOL     OW33823   1.868   0.066  12.921  0.5566  0.2904 -0.1400
 7396SOL    HW133824   1.864   0.101  12.831  0.5739  0.4605 -0.0757
 7396SOL    HW233825   1.961   0.057  12.937  0.5331 -0.3540 -0.3627
 7397SOL     OW33826   2.003   1.906   4.816  0.4659 -0.7890 -0.0237
 7397SOL    HW133827   2.089   1.874   4.788  0.2878  1.4108 -3.0034
 7397SOL    HW233828   1.987   1.854   4.895  0.8794 -0.3170  0.3664
 7398SOL     OW33829   1.177   3.755   5.401  0.6306 -0.1062  0.8500
 7398SOL    HW133830   1.254   3.811   5.401 -0.9598  2.0808 -2.0214
 7398SOL    HW233831   1.120   3.811   5.348  0.9219  0.1310  0.7862
 7399SOL     OW33832   2.436   3.579   1.075 -0.0335  0.3666 -0.2595
 7399SOL    HW133833   2.439   3.652   1.013  0.0026  1.1385  0.6422
 7399SOL    HW233834   2.474   3.620   1.153  1.1352  1.9905 -1.6803
 7400SOL     OW33835   3.074   2.764  16.368 -0.3174  0.1684  0.7081
 7400SOL    HW133836   3.000   2.727  16.416  1.7446 -2.1626  2.1128
 7400SOL    HW233837   3.033   2.840  16.326  0.6715  0.3974  0.1295
 7401SOL     OW33838   2.096   4.027   4.434  0.5163 -0.1142  0.4766
 7401SOL    HW133839   2.008   4.065   4.430  0.4048 -0.3762  0.4442
 7401SOL    HW233840   2.094   3.991   4.522 -0.4126  1.0943  0.9504
 7402SOL     OW33841   4.391   1.720  16.555 -0.8553  0.0912  0.0070
 7402SOL    HW133842   4.403   1.688  16.644  0.6096 -1.6167 -0.7986
 7402SOL    HW233843   4.360   1.643  16.506 -0.6486 -0.5954  0.9593
 7403SOL     OW33844   1.460   1.404   1.575 -0.3110 -0.3695  0.0810
 7403SOL    HW133845   1.389   1.454   1.614 -0.1612  0.1189 -0.2786
 7403SOL    HW233846   1.521   1.474   1.554 -2.3303  1.6585  0.9774
 7404SOL     OW33847   0.512   1.656   9.278 -0.4278 -0.0113 -0.5952
 7404SOL    HW133848   0.502   1.649   9.183  0.0876  1.0405 -0.7338
 7404SOL    HW233849   0.600   1.619   9.291  1.3210  3.1177 -3.2580
 7405SOL     OW33850   3.139   4.133   3.923 -0.4935  0.5737  0.7286
 7405SOL    HW133851   3.068   4.069   3.918 -0.8088  0.9952 -0.3627
 7405SOL    HW233852   3.219   4.080   3.928  0.3310  1.6336 -1.2059
 7406SOL     OW33853   0.451   2.041   8.834  0.0655 -0.3497  0.1186
 7406SOL    HW133854   0.458   1.965   8.891  1.2004  1.1299  1.9303
 7406SOL    HW233855   0.543   2.066   8.823 -0.2929  0.5881 -0.7116
 7407SOL     OW33856   0.763   2.388   8.034  0.5852 -0.5471 -0.2562
 7407SOL    HW133857   0.722   2.465   8.073  0.7953 -0.9701  0.7938
 7407SOL    HW233858   0.856   2.397   8.053  0.5936 -0.7815 -0.1890
 7408SOL     OW33859   0.405   0.765  11.538 -0.0203 -0.2677 -0.7058
 7408SOL    HW133860   0.431   0.731  11.623 -0.7373 -0.3291 -0.5051
 7408SOL    HW233861   0.448   0.850  11.538 -1.0539  0.2546 -0.5306
 7409SOL     OW33862   2.205   3.680   4.213  0.2112  0.4495  0.0518
 7409SOL    HW133863   2.208   3.758   4.159  0.0555  1.1984  1.1272
 7409SOL    HW233864   2.269   3.708   4.278  1.9355 -0.8062 -1.0957
 7410SOL     OW33865   4.263   2.704   4.504 -0.1468  0.7277 -0.4843
 7410SOL    HW133866   4.323   2.641   4.464 -2.5909 -0.1936 -2.7474
 7410SOL    HW233867   4.263   2.770   4.435 -1.5869 -1.0108 -2.1770
 7411SOL     OW33868   4.568   3.860   5.909 -0.0233  0.0208  0.2673
 7411SOL    HW133869   4.584   3.951   5.882  4.2990 -0.4580  1.2358
 7411SOL    HW233870   4.570   3.864   6.004  2.7260  0.4010  0.2092
 7412SOL     OW33871   1.770   3.102  15.408 -0.0266  0.4656 -0.6242
 7412SOL    HW133872   1.697   3.162  15.391 -1.2705 -1.0835 -0.6593
 7412SOL    HW233873   1.737   3.069  15.492 -2.5968  0.8556 -1.4924
 7413SOL     OW33874   1.698   3.188   2.388 -0.3551  0.1624 -0.9393
 7413SOL    HW133875   1.732   3.120   2.329 -0.2103 -0.8270  0.3061
 7413SOL    HW233876   1.752   3.170   2.464  1.6416  3.3661 -1.6056
 7414SOL     OW33877   4.561   2.778   3.010  0.8325  0.2254  0.1502
 7414SOL    HW133878   4.482   2.756   3.060  1.6829 -3.6743 -0.1743
 7414SOL    HW233879   4.571   2.873   3.009 -1.5251  0.4788  1.1493
 7415SOL     OW33880   4.103   4.013  13.047  0.0580 -0.5237 -0.0074
 7415SOL    HW133881   4.056   4.019  12.964 -3.0579  1.9010  1.9317
 7415SOL    HW233882   4.195   4.001  13.022  0.8909  0.9651  2.3310
 7416SOL     OW33883   1.887   3.490   1.224  0.1276 -0.0369  0.3841
 7416SOL    HW133884   1.896   3.585   1.225 -0.7372  0.0160  1.8673
 7416SOL    HW233885   1.955   3.469   1.159  0.7119 -0.9312  1.2722
 7417SOL     OW33886   1.278   0.193   6.832 -0.3098  0.6531 -0.6572
 7417SOL    HW133887   1.271   0.288   6.839  0.9125  0.8471 -2.1624
 7417SOL    HW233888   1.186   0.172   6.849  0.1532 -0.6293  0.2659
 7418SOL     OW33889   2.304   3.976  13.056 -0.0599  0.0765 -0.0034
 7418SOL    HW133890   2.326   4.069  13.066 -0.0748  0.2541 -1.6217
 7418SOL    HW233891   2.390   3.933  13.055  0.2179  0.6260 -0.1353
 7419SOL     OW33892   1.961   3.977   5.653 -0.4245  0.2244  0.3575
 7419SOL    HW133893   1.899   3.964   5.581  0.5424 -0.9315 -0.2729
 7419SOL    HW233894   1.896   3.990   5.721 -0.9058  3.0936 -0.6361
 7420SOL     OW33895   1.751   1.075   7.619 -0.2274  0.4471 -0.2711
 7420SOL    HW133896   1.721   1.017   7.689 -0.4055  2.3821  1.2444
 7420SOL    HW233897   1.833   1.104   7.658  0.8855 -0.4065 -1.9422
 7421SOL     OW33898   1.237   0.030   2.261  0.2313 -0.3770  0.0853
 7421SOL    HW133899   1.157   0.072   2.292  0.7524 -0.2216  1.2538
 7421SOL    HW233900   1.276   0.105   2.216  1.5219 -1.2316 -0.2125
 7422SOL     OW33901   2.513   0.406   1.037 -0.5925  0.1863 -0.9943
 7422SOL    HW133902   2.430   0.362   1.017  0.2307 -0.9752 -1.8705
 7422SOL    HW233903   2.528   0.372   1.126 -0.5992  2.1932 -0.2301
 7423SOL     OW33904   0.922   2.347   3.695 -0.4497  0.1053 -0.0610
 7423SOL    HW133905   0.882   2.434   3.688 -3.9488 -1.5218  0.1220
 7423SOL    HW233906   0.889   2.308   3.614 -1.0140 -0.1978  0.3138
 7424SOL     OW33907   1.285   1.478   3.411  0.3389 -0.6042  0.5312
 7424SOL    HW133908   1.249   1.566   3.414 -0.0884 -0.7449 -0.4746
 7424SOL    HW233909   1.354   1.489   3.346  0.2977 -0.6468  0.4803
 7425SOL     OW33910   1.342   2.192  11.036 -0.3227 -0.0449 -0.2771
 7425SOL    HW133911   1.249   2.188  11.057 -0.2363 -2.9009 -0.5231
 7425SOL    HW233912   1.382   2.207  11.122 -2.2437  1.3528  0.3794
 7426SOL     OW33913   1.098   3.156   1.800 -0.3514 -0.0105  0.6711
 7426SOL    HW133914   1.178   3.187   1.841 -0.7599 -0.2914  1.6623
 7426SOL    HW233915   1.110   3.153   1.705 -0.5347 -0.9948  0.6794
 7427SOL     OW33916   3.497   3.563   2.536 -0.5323  0.0524 -0.4596
 7427SOL    HW133917   3.492   3.530   2.625  1.1241  0.0280 -0.3584
 7427SOL    HW233918   3.407   3.554   2.506 -1.4829  0.7405  2.2207
 7428SOL     OW33919   3.796   0.070  13.916  1.1044  0.0653  0.5268
 7428SOL    HW133920   3.751   0.153  13.933 -0.1240 -0.2293 -1.2775
 7428SOL    HW233921   3.731   0.013  13.956 -1.2451  1.6069 -1.0977
 7429SOL     OW33922   2.495   4.535   2.776  0.0887 -0.2342 -0.4299
 7429SOL    HW133923   2.458   4.502   2.858  1.3332 -1.4304 -0.3314
 7429SOL    HW233924   2.472   4.627   2.763  0.0832 -0.1990 -0.1829
 7430SOL     OW33925   0.257   1.316   2.035  0.1572  0.6476  0.5982
 7430SOL    HW133926   0.177   1.275   2.067 -2.1248  2.1847 -3.1217
 7430SOL    HW233927   0.318   1.242   2.040  3.1422  2.8857 -2.2928
 7431SOL     OW33928   0.708   3.635  11.894 -0.0171 -0.3004 -0.5015
 7431SOL    HW133929   0.715   3.728  11.873  2.7371 -0.1436  1.1096
 7431SOL    HW233930   0.675   3.634  11.984 -2.5146 -0.0047 -1.4264
 7432SOL     OW33931   2.525   1.682  17.367  0.3369 -0.0582  0.5196
 7432SOL    HW133932   2.446   1.669  17.420  0.8189 -1.9067  0.8008
 7432SOL    HW233933   2.484   1.687  17.281 -0.3268  0.7255  0.8879
 7433SOL     OW33934   4.088   3.129  17.258 -0.1110  0.2710 -0.3984
 7433SOL    HW133935   4.112   3.038  17.243 -1.6795 -0.1642 -0.2748
 7433SOL    HW233936   4.001   3.141  17.220  0.0302  0.1526 -0.7619
 7434SOL     OW33937   2.578   2.515  17.641  0.2003 -0.0726 -0.2667
 7434SOL    HW133938   2.653   2.477  17.596  0.4849  0.3458 -0.1416
 7434SOL    HW233939   2.505   2.487  17.585  0.1090  1.4614 -0.9331
 7435SOL     OW33940   1.512   3.421   5.320  0.0566  0.6086  0.3128
 7435SOL    HW133941   1.593   3.373   5.337  0.8973  1.0828 -2.3093
 7435SOL    HW233942   1.452   3.349   5.341  1.6374 -1.2808 -1.7057
 7436SOL     OW33943   1.158   4.421   4.485  0.0257  0.1203 -0.4074
 7436SOL    HW133944   1.219   4.465   4.426  0.1276  0.7919  0.2055
 7436SOL    HW233945   1.182   4.453   4.572  0.9649 -1.9937  0.1135
 7437SOL     OW33946   2.616   1.312  11.033  0.0708  0.4037  0.3996
 7437SOL    HW133947   2.662   1.345  10.956  0.5452  0.6727  0.7991
 7437SOL    HW233948   2.537   1.366  11.035  0.1282  0.5752 -2.0089
 7438SOL     OW33949   1.058   2.498   2.759 -0.5128  0.2827 -0.0777
 7438SOL    HW133950   1.092   2.526   2.844  0.7588  1.3077 -0.9269
 7438SOL    HW233951   1.050   2.404   2.773  0.1279  0.3615  0.8283
 7439SOL     OW33952   3.268   2.056  17.301  0.2777  0.3644 -0.3683
 7439SOL    HW133953   3.310   2.054  17.215 -1.6180 -0.0315 -1.2777
 7439SOL    HW233954   3.253   2.150  17.308  1.4961  0.6388 -1.4458
 7440SOL     OW33955   3.721   0.136   6.377  0.2036 -0.7309 -0.7050
 7440SOL    HW133956   3.769   0.207   6.334  0.3296  0.6129  1.6180
 7440SOL    HW233957   3.783   0.065   6.362  1.8337  0.4773  0.3094
 7441SOL     OW33958   3.350   0.342   2.898  0.3474 -0.2008 -0.5224
 7441SOL    HW133959   3.370   0.349   2.805  1.3200  3.0459 -0.0675
 7441SOL    HW233960   3.259   0.313   2.896 -0.1226  1.1759  0.8782
 7442SOL     OW33961   2.303   2.542   9.029 -0.0247 -0.7013 -0.3177
 7442SOL    HW133962   2.393   2.550   8.997  0.5723  0.3874  1.6370
 7442SOL    HW233963   2.292   2.601   9.104  0.3047 -0.9796 -0.0486
 7443SOL     OW33964   1.498   3.734   2.760 -0.5613  0.0518  0.2498
 7443SOL    HW133965   1.473   3.680   2.684  1.7662 -1.9097  0.8878
 7443SOL    HW233966   1.538   3.668   2.816  1.0858  1.5025  0.7636
 7444SOL     OW33967   0.265   2.951   6.348  0.1163  0.2468 -0.2686
 7444SOL    HW133968   0.272   2.874   6.404  0.0657 -1.5971 -2.8432
 7444SOL    HW233969   0.290   3.023   6.407  0.5069  1.1696 -1.5579
 7445SOL     OW33970   0.645   1.915   9.094  0.6855 -0.5663 -0.3377
 7445SOL    HW133971   0.726   1.922   9.145 -0.3603 -0.6324  1.3240
 7445SOL    HW233972   0.603   1.996   9.122 -2.3149 -2.9131  1.8768
 7446SOL     OW33973   1.561   0.799   1.932  0.5447  0.0140  0.3088
 7446SOL    HW133974   1.480   0.786   1.982 -0.9299 -0.9312 -2.3807
 7446SOL    HW233975   1.573   0.894   1.939 -1.4608  0.2265  0.9200
 7447SOL     OW33976   1.938   0.729   6.771  0.2523  0.5267 -0.5200
 7447SOL    HW133977   1.847   0.698   6.769  0.6929 -0.6412 -2.0018
 7447SOL    HW233978   1.928   0.805   6.829  0.0012 -1.0345  1.4927
 7448SOL     OW33979   4.373   2.034   8.815  0.2705  1.1398 -0.2545
 7448SOL    HW133980   4.446   1.972   8.817 -1.2772 -0.6441  0.3896
 7448SOL    HW233981   4.392   2.088   8.737  0.2794 -0.7366 -1.5424
 7449SOL     OW33982   3.423   3.196  14.498  0.4258  0.1285 -0.1566
 7449SOL    HW133983   3.468   3.158  14.422 -0.1377 -0.2783 -0.2838
 7449SOL    HW233984   3.472   3.274  14.525 -0.4563  0.2141  1.1827
 7450SOL     OW33985   4.605   1.566   7.280 -0.3704  0.2809 -0.7463
 7450SOL    HW133986   4.633   1.482   7.316  1.8510  1.3124 -0.0765
 7450SOL    HW233987   4.656   1.624   7.337 -0.8991 -1.5665  1.6101
 7451SOL     OW33988   0.960   3.219   9.475 -0.4889 -0.2965  0.0538
 7451SOL    HW133989   0.955   3.127   9.501 -1.1527 -0.4821 -0.7387
 7451SOL    HW233990   0.867   3.242   9.484 -1.0022 -1.1698 -3.1636
 7452SOL     OW33991   3.039   3.087  16.948 -0.8583 -0.2039  0.0534
 7452SOL    HW133992   3.112   3.054  16.896 -0.9403 -0.9884  0.4386
 7452SOL    HW233993   2.978   3.015  16.935  0.2956 -0.9283 -1.4091
 7453SOL     OW33994   3.980   1.979   0.335  0.9441  0.4136 -0.5634
 7453SOL    HW133995   3.889   1.953   0.349  1.5764 -1.5569 -0.1393
 7453SOL    HW233996   4.002   2.027   0.415  2.2672  0.9548 -1.2424
 7454SOL     OW33997   4.503   4.107   9.545  0.2950 -0.4792 -0.3124
 7454SOL    HW133998   4.563   4.096   9.619 -0.1003  2.3722  0.4432
 7454SOL    HW233999   4.433   4.143   9.599  0.2005 -4.0412  1.9705
 7455SOL     OW34000   3.075   1.581   2.114 -0.9040  0.1428 -0.4551
 7455SOL    HW134001   3.145   1.618   2.060  0.4318 -1.6397  0.0538
 7455SOL    HW234002   3.129   1.540   2.182  0.6192  1.4837 -0.8589
 7456SOL     OW34003   2.594   1.816   2.390  0.4821  0.1859  0.2431
 7456SOL    HW134004   2.548   1.748   2.340  0.6815  0.9477 -0.9724
 7456SOL    HW234005   2.678   1.772   2.402 -0.8044 -2.3109  0.1554
 7457SOL     OW34006   2.168   0.717   3.622  0.7611 -0.1739  0.4689
 7457SOL    HW134007   2.166   0.736   3.528 -1.0830 -1.2330  0.2740
 7457SOL    HW234008   2.149   0.623   3.627 -0.5683  0.0907  0.3579
 7458SOL     OW34009   2.769   2.900   5.884  0.4400  0.4918  0.3726
 7458SOL    HW134010   2.846   2.955   5.899 -0.2971  1.6961 -0.3377
 7458SOL    HW234011   2.760   2.908   5.789  0.8809 -1.7953  0.1225
 7459SOL     OW34012   1.664   4.253   1.994  0.2168  0.1967  0.6258
 7459SOL    HW134013   1.613   4.307   1.934 -0.0991 -1.1202 -0.2937
 7459SOL    HW234014   1.718   4.320   2.036  0.3034  0.1158  0.6459
 7460SOL     OW34015   3.450   0.935   9.026 -0.3044  0.3252 -0.5779
 7460SOL    HW134016   3.407   0.854   8.996 -1.2729  1.5608 -2.4800
 7460SOL    HW234017   3.391   0.974   9.090 -0.0425  1.2871 -0.9378
 7461SOL     OW34018   1.683   2.809   8.852  0.2325 -0.0502  0.1041
 7461SOL    HW134019   1.667   2.768   8.767  0.5563 -1.4586  0.7282
 7461SOL    HW234020   1.626   2.758   8.909  0.6982 -1.1312 -0.3921
 7462SOL     OW34021   1.136   4.351   6.318 -0.0474 -0.4508 -0.2598
 7462SOL    HW134022   1.046   4.342   6.287 -0.1655  1.2286 -0.4140
 7462SOL    HW234023   1.153   4.445   6.313 -0.3610 -0.3454  0.6144
 7463SOL     OW34024   2.865   2.651   3.573  0.2031  0.2599  0.4876
 7463SOL    HW134025   2.852   2.678   3.664 -2.5752 -0.7634  0.3907
 7463SOL    HW234026   2.818   2.568   3.584 -1.2866  1.2237  1.5252
 7464SOL     OW34027   0.608   4.576   9.124 -0.1523  0.6228 -0.0463
 7464SOL    HW134028   0.571   4.536   9.203  0.0602 -1.1477 -0.8542
 7464SOL    HW234029   0.652   4.504   9.080 -0.2694  0.8386 -0.5115
 7465SOL     OW34030   1.908   0.783   9.176  0.7119 -0.0087  0.5198
 7465SOL    HW134031   1.821   0.814   9.198  1.6036  1.3806  2.0578
 7465SOL    HW234032   1.924   0.829   9.094  1.4808  0.7627  1.1037
 7466SOL     OW34033   4.162   0.579   2.500  0.4771  0.2993  0.0225
 7466SOL    HW134034   4.166   0.670   2.472  0.4493 -0.6873 -3.1369
 7466SOL    HW234035   4.071   0.556   2.480  1.0325 -0.3857 -1.7148
 7467SOL     OW34036   2.132   1.683  14.795  0.2904  0.0467  0.2840
 7467SOL    HW134037   2.115   1.725  14.879  2.6536  0.1037  0.7412
 7467SOL    HW234038   2.161   1.757  14.741  2.0145  1.2809  2.9269
 7468SOL     OW34039   1.120   0.750   2.243  0.2157 -0.1196 -0.1291
 7468SOL    HW134040   1.075   0.815   2.297 -1.3196  0.6637 -2.3085
 7468SOL    HW234041   1.116   0.678   2.305 -2.2624  0.6857  0.6632
 7469SOL     OW34042   3.141   4.026   2.487 -1.2125  0.0657  0.1289
 7469SOL    HW134043   3.070   3.973   2.523 -0.2469 -1.8433 -0.7992
 7469SOL    HW234044   3.160   4.096   2.550  1.1709  1.9033 -2.6510
 7470SOL     OW34045   2.830   2.168   5.756  0.0782  0.4395  0.5871
 7470SOL    HW134046   2.817   2.102   5.823 -1.8839 -1.8430 -2.0593
 7470SOL    HW234047   2.743   2.172   5.716 -0.5388 -1.3567  1.7682
 7471SOL     OW34048   1.948   0.386   4.611  0.4332 -0.3393  0.1840
 7471SOL    HW134049   1.948   0.320   4.681 -0.3015  1.5183  1.9262
 7471SOL    HW234050   1.895   0.341   4.546  0.3820  0.6280 -0.4507
 7472SOL     OW34051   3.189   3.370   3.034  0.2402 -0.5292  0.3587
 7472SOL    HW134052   3.147   3.455   3.024  0.7964 -0.3410 -0.3996
 7472SOL    HW234053   3.252   3.388   3.103 -0.4815  2.2495  0.2871
 7473SOL     OW34054   0.603   4.188   2.498 -0.3414  0.0601 -0.1379
 7473SOL    HW134055   0.543   4.114   2.490  0.3803 -0.4553 -0.8399
 7473SOL    HW234056   0.641   4.187   2.410 -0.4988 -0.1182 -0.2041
 7474SOL     OW34057   3.525   4.475   5.814  0.5351 -0.1529  0.7516
 7474SOL    HW134058   3.583   4.512   5.880  3.2489  0.9318 -2.2395
 7474SOL    HW234059   3.588   4.458   5.744 -1.0584  0.5631 -0.8415
 7475SOL     OW34060   0.855   3.589  17.528 -0.1784  0.0615  0.1746
 7475SOL    HW134061   0.793   3.657  17.502  1.0309  0.9794 -0.2976
 7475SOL    HW234062   0.798   3.534  17.582  1.7936 -0.4139  1.7492
 7476SOL     OW34063   0.685   3.129   1.705  0.1510 -0.0431  0.2114
 7476SOL    HW134064   0.769   3.094   1.736 -0.3437  0.3485  1.9919
 7476SOL    HW234065   0.679   3.217   1.741 -0.8633  0.3268 -0.8926
 7477SOL     OW34066   0.456   1.537   5.402 -0.0208  0.2164 -0.0923
 7477SOL    HW134067   0.494   1.558   5.317 -2.3380  1.5980 -0.7645
 7477SOL    HW234068   0.380   1.594   5.392 -1.1633 -1.3196 -0.1999
 7478SOL     OW34069   1.257   4.371   8.439  0.1836  0.2476  0.1386
 7478SOL    HW134070   1.248   4.466   8.431  1.7751  0.5585  1.9008
 7478SOL    HW234071   1.292   4.372   8.528  1.5962 -0.3219 -0.4174
 7479SOL     OW34072   4.082   0.265   5.972  0.5757  0.2205  0.1527
 7479SOL    HW134073   4.130   0.182   5.982  2.1152  1.1885  0.7575
 7479SOL    HW234074   4.132   0.326   6.026  0.3740  1.2844 -0.8451
 7480SOL     OW34075   2.192   2.021   2.664  0.1545  0.3803 -0.1577
 7480SOL    HW134076   2.211   1.927   2.671  1.8923  0.6719 -0.7904
 7480SOL    HW234077   2.114   2.025   2.719  0.6704  0.7418  0.5577
 7481SOL     OW34078   2.421   3.248   3.699  0.1602 -0.7422  0.2923
 7481SOL    HW134079   2.388   3.233   3.788 -0.1013  2.5800  0.7756
 7481SOL    HW234080   2.516   3.252   3.709  0.1847  1.1849 -0.6480
 7482SOL     OW34081   1.110   3.167   5.112  0.1501 -0.0264 -0.3043
 7482SOL    HW134082   1.148   3.224   5.179 -2.0837 -0.4406  1.2889
 7482SOL    HW234083   1.154   3.204   5.035 -0.4673 -1.2686 -1.2695
 7483SOL     OW34084   2.035   4.137   3.314  0.6578 -0.0162 -0.6272
 7483SOL    HW134085   1.961   4.119   3.256  0.0204  1.3132 -0.2225
 7483SOL    HW234086   2.112   4.110   3.263  1.2951  1.5874 -0.5231
 7484SOL     OW34087   4.009   0.953   9.522 -0.3913  0.0289 -0.0359
 7484SOL    HW134088   3.926   0.921   9.485 -1.1659  1.2922  0.6127
 7484SOL    HW234089   4.011   1.037   9.476  1.9805  1.7998  3.3009
 7485SOL     OW34090   1.879   4.728   6.741  0.5193 -0.1936 -0.6606
 7485SOL    HW134091   1.790   4.711   6.771 -0.5149  0.2041 -3.5411
 7485SOL    HW234092   1.868   0.031   6.656 -1.0270 -0.2627 -0.4977
 7486SOL     OW34093   0.238   2.383   6.583 -0.2629  0.0220 -0.2263
 7486SOL    HW134094   0.220   2.450   6.649 -0.7826  1.1775 -1.5297
 7486SOL    HW234095   0.325   2.397   6.547 -0.0236  1.4979  0.9236
 7487SOL     OW34096   3.147   4.458  11.892  0.0579  0.0225  0.1199
 7487SOL    HW134097   3.097   4.396  11.945 -0.4170  1.4047  1.2791
 7487SOL    HW234098   3.231   4.449  11.938  1.2757  2.0735 -1.7243
 7488SOL     OW34099   2.097   1.573  15.095 -0.4571  0.0828  0.1374
 7488SOL    HW134100   2.127   1.491  15.055  1.9729  0.1234  1.8836
 7488SOL    HW234101   2.133   1.568  15.183  0.4916  0.5808 -0.2205
 7489SOL     OW34102   3.040   0.342  15.759  0.0829  0.4642 -0.3511
 7489SOL    HW134103   2.964   0.397  15.741  1.1250  2.0767  0.1400
 7489SOL    HW234104   3.020   0.270  15.698 -0.0847 -0.2185  0.5180
 7490SOL     OW34105   0.220   1.960   6.575 -0.1396  0.2736 -0.0957
 7490SOL    HW134106   0.199   1.914   6.494 -0.0938  1.5473 -0.8265
 7490SOL    HW234107   0.274   1.896   6.622  0.0673  0.3806 -0.1874
 7491SOL     OW34108   0.273   4.708   3.662  0.0194 -0.3062 -0.2771
 7491SOL    HW134109   0.336   4.680   3.596  1.6983 -0.4320  1.3912
 7491SOL    HW234110   0.300   0.060   3.670 -0.6934 -0.2672  1.6630
 7492SOL     OW34111   3.679   3.911   1.498  0.2719  0.5621  0.1360
 7492SOL    HW134112   3.725   3.939   1.577 -0.3342 -2.3376  1.5017
 7492SOL    HW234113   3.726   3.970   1.439  0.2129 -1.3674 -1.8079
 7493SOL     OW34114   2.034   0.266   5.105  0.3072 -0.2037 -0.1320
 7493SOL    HW134115   2.095   0.192   5.111  1.6540  1.0256  1.1348
 7493SOL    HW234116   2.052   0.292   5.014 -0.0305  2.0736  0.4607
 7494SOL     OW34117   0.308   1.149   7.209  0.3877 -0.5050 -0.2660
 7494SOL    HW134118   0.398   1.177   7.218  0.3945 -0.6782  0.1925
 7494SOL    HW234119   0.261   1.184   7.285  0.5801  2.0011 -1.3299
 7495SOL     OW34120   1.999   2.110   5.963  0.4469 -0.7013 -0.0166
 7495SOL    HW134121   1.970   2.039   6.020 -1.4924  1.5683  1.8549
 7495SOL    HW234122   2.077   2.136   6.013  0.3386 -1.8585  0.7459
 7496SOL     OW34123   3.301   1.518   9.064 -0.3412 -0.3297  0.1678
 7496SOL    HW134124   3.304   1.438   9.116 -0.4665 -0.1911  0.3909
 7496SOL    HW234125   3.221   1.512   9.012  0.9256  1.0650 -1.9281
 7497SOL     OW34126   0.671   2.890   7.682  0.1475 -0.7442  0.1101
 7497SOL    HW134127   0.756   2.932   7.697  1.1705 -3.3842  1.6800
 7497SOL    HW234128   0.703   2.802   7.664  0.5826 -0.7461  0.8709
 7498SOL     OW34129   2.207   4.034   6.077 -0.3266 -0.0609  0.3193
 7498SOL    HW134130   2.274   3.967   6.063 -0.7362 -0.2573 -0.6581
 7498SOL    HW234131   2.158   4.000   6.152 -1.0226 -0.0697 -0.1393
 7499SOL     OW34132   1.293   2.638  11.976  0.5323 -0.0458  0.1218
 7499SOL    HW134133   1.299   2.690  11.896 -0.4959 -1.4916 -0.8936
 7499SOL    HW234134   1.307   2.551  11.939  0.7576  0.0716 -0.0747
 7500SOL     OW34135   2.942   0.112   3.038  0.1958  0.9256  0.0265
 7500SOL    HW134136   2.860   0.126   3.086  0.3778  1.8977  0.0419
 7500SOL    HW234137   2.996   0.182   3.075  0.5053  1.2145 -0.9843
 7501SOL     OW34138   2.708   3.876   3.149  0.2585 -0.2547 -0.5251
 7501SOL    HW134139   2.653   3.807   3.112 -0.3716 -0.3684  0.6041
 7501SOL    HW234140   2.738   3.920   3.070  0.1919 -0.1191 -0.4765
 7502SOL     OW34141   2.799   4.548  11.766  0.1914  0.2628 -0.3023
 7502SOL    HW134142   2.715   4.514  11.733  0.7694 -1.7823  0.3455
 7502SOL    HW234143   2.818   4.479  11.830  0.2231 -1.3538 -2.0368
 7503SOL     OW34144   3.941   0.431  11.431  0.0847 -0.7829 -0.0419
 7503SOL    HW134145   3.859   0.477  11.449 -0.6987 -2.2181  0.0537
 7503SOL    HW234146   3.912   0.373  11.361 -0.1621  2.6480 -2.7976
 7504SOL     OW34147   3.099   3.892  17.637 -0.1417 -0.5871 -0.4400
 7504SOL    HW134148   3.095   3.921  17.729  1.8100 -3.1865  0.4538
 7504SOL    HW234149   3.165   3.823  17.636 -0.4242 -0.8718  0.4046
 7505SOL     OW34150   4.528   3.135   8.127  0.2290 -0.6500  0.0824
 7505SOL    HW134151   4.595   3.199   8.151 -2.6353  1.8171  1.3584
 7505SOL    HW234152   4.530   3.079   8.205 -1.2715 -2.5589 -1.2387
 7506SOL     OW34153   1.100   3.680   6.937  0.4010  0.0549 -0.8543
 7506SOL    HW134154   1.171   3.627   6.975  0.4036  0.1930 -0.6656
 7506SOL    HW234155   1.036   3.669   7.008  0.3122 -0.1466 -0.9633
 7507SOL     OW34156   4.127   4.006   3.006 -0.1650  0.3512 -0.0025
 7507SOL    HW134157   4.169   3.958   2.936 -1.1976  0.4147 -0.6689
 7507SOL    HW234158   4.191   4.045   3.065 -1.8771  1.8387  0.8814
 7508SOL     OW34159   4.427   4.401   7.997 -0.2638  0.3463 -0.1504
 7508SOL    HW134160   4.500   4.358   7.953 -0.2854  1.6646 -1.4698
 7508SOL    HW234161   4.371   4.333   8.033  0.3011  0.0770  0.2233
 7509SOL     OW34162   4.562   3.949  16.160 -0.3273 -0.3066  0.0744
 7509SOL    HW134163   4.642   3.941  16.108  1.0745 -0.3512  2.2330
 7509SOL    HW234164   4.554   4.044  16.167 -2.2939 -0.6444  2.7124
 7510SOL     OW34165   1.767   1.740   3.191  0.5986 -0.0880  0.3847
 7510SOL    HW134166   1.713   1.773   3.262  0.9157 -2.5254  1.7518
 7510SOL    HW234167   1.811   1.817   3.154  0.1724 -1.9503 -4.0843
 7511SOL     OW34168   3.220   3.019  12.292 -0.6522 -0.1222  0.1530
 7511SOL    HW134169   3.316   3.016  12.286 -0.8065 -1.4337 -1.5812
 7511SOL    HW234170   3.196   3.033  12.384 -1.3246  0.8896 -0.1704
 7512SOL     OW34171   4.605   1.922  12.346 -0.2492 -0.6035 -0.2792
 7512SOL    HW134172   4.601   2.014  12.372  0.7818 -0.3841 -0.9097
 7512SOL    HW234173   4.652   1.913  12.264 -2.4524 -0.0840 -1.6030
 7513SOL     OW34174   0.170   3.026   5.149 -0.3602 -0.1854 -0.0253
 7513SOL    HW134175   0.228   3.102   5.144  1.2981 -1.5768 -1.9233
 7513SOL    HW234176   0.208   2.958   5.094  2.4415 -0.8358  2.7444
 7514SOL     OW34177   4.336   4.517  12.648 -0.7495  0.7680  0.3644
 7514SOL    HW134178   4.272   4.501  12.579 -0.2059  0.6355 -0.1025
 7514SOL    HW234179   4.360   4.426  12.663 -2.7419  0.2416  0.3029
 7515SOL     OW34180   3.862   0.492   7.544  0.3517  0.0161 -0.2229
 7515SOL    HW134181   3.950   0.498   7.582  0.5995  1.1066 -0.9615
 7515SOL    HW234182   3.881   0.514   7.453 -1.2760  2.4403  0.0434
 7516SOL     OW34183   1.282   3.755   4.294 -0.2243  0.0669 -0.1343
 7516SOL    HW134184   1.239   3.799   4.221 -2.5388 -0.5906  0.8372
 7516SOL    HW234185   1.290   3.668   4.254 -0.7207  1.1541 -2.6285
 7517SOL     OW34186   4.364   1.544   8.535 -0.0882  0.4747  0.0973
 7517SOL    HW134187   4.278   1.502   8.537 -0.4158  1.0038 -2.7689
 7517SOL    HW234188   4.356   1.634   8.565  4.0131  0.9969 -0.3861
 7518SOL     OW34189   3.512   0.527   1.961  0.0860  0.4238  0.1748
 7518SOL    HW134190   3.528   0.618   1.933 -0.8667  0.9395  1.3023
 7518SOL    HW234191   3.602   0.496   1.971  0.4603  1.6500  0.7110
 7519SOL     OW34192   2.657   0.973   6.569 -0.1487  0.2968  0.2478
 7519SOL    HW134193   2.636   1.065   6.553  0.1480  0.1330 -1.0380
 7519SOL    HW234194   2.749   0.967   6.545 -0.1268 -0.1800  0.4633
 7520SOL     OW34195   4.692   1.442  15.452 -0.3844  0.2859  0.2875
 7520SOL    HW134196   4.721   1.369  15.398  1.8865 -0.2729  2.2483
 7520SOL    HW234197   4.664   1.503  15.384  0.7992  1.3832  0.7888
 7521SOL     OW34198   0.324   1.815  11.543 -0.1688  0.2812  0.4095
 7521SOL    HW134199   0.241   1.803  11.498  1.2139 -0.7078 -1.8746
 7521SOL    HW234200   0.303   1.758  11.617 -0.9037  0.6207  0.4584
 7522SOL     OW34201   3.125   0.408  15.284 -0.2908 -0.4367 -0.6743
 7522SOL    HW134202   3.071   0.333  15.309  1.1946 -1.3626 -0.2270
 7522SOL    HW234203   3.144   0.384  15.194  0.1961  0.4068 -0.7993
 7523SOL     OW34204   4.587   0.434   5.686 -0.4136 -0.1694 -0.6017
 7523SOL    HW134205   4.594   0.483   5.605 -1.4060  1.5295  0.3415
 7523SOL    HW234206   4.493   0.418   5.697  0.0518 -1.4857  1.6490
 7524SOL     OW34207   1.449   0.696   2.824  0.2801  0.4973 -0.1043
 7524SOL    HW134208   1.368   0.742   2.846 -1.1440 -1.8424 -0.4916
 7524SOL    HW234209   1.511   0.767   2.842  1.8629 -0.1533 -3.0414
 7525SOL     OW34210   2.577   4.475   7.973  0.2661  0.0360 -0.0544
 7525SOL    HW134211   2.627   4.402   8.010  0.2581 -0.2604 -0.6301
 7525SOL    HW234212   2.499   4.436   7.934  0.2766  2.0823 -2.1305
 7526SOL     OW34213   2.882   0.589   4.159 -0.1593 -0.3819  0.8626
 7526SOL    HW134214   2.789   0.572   4.149 -0.3047 -0.3094  2.0973
 7526SOL    HW234215   2.889   0.611   4.251  0.8381 -2.4941  1.3137
 7527SOL     OW34216   3.355   0.339   5.916 -0.1388  0.1268 -0.0517
 7527SOL    HW134217   3.359   0.432   5.897 -2.4633  0.4381  0.9117
 7527SOL    HW234218   3.297   0.342   5.992  0.1940 -1.2074  0.2646
 7528SOL     OW34219   3.227   0.777   9.021 -0.1301  0.3075  0.3777
 7528SOL    HW134220   3.188   0.772   9.108 -1.1728 -1.5434 -0.2031
 7528SOL    HW234221   3.260   0.689   9.036  0.3719  0.7962  2.1744
 7529SOL     OW34222   0.025   3.315  10.134  0.2267 -0.1174  0.1045
 7529SOL    HW134223   0.117   3.309  10.108  0.4129 -0.4518  0.8552
 7529SOL    HW234224   0.003   3.229  10.170  1.1792 -0.8144 -0.9894
 7530SOL     OW34225   2.341   3.560   5.726 -0.2802  0.2874 -0.0550
 7530SOL    HW134226   2.343   3.566   5.822  1.8488 -1.2239 -0.0062
 7530SOL    HW234227   2.247   3.557   5.705 -0.2968  0.2538  0.0234
 7531SOL     OW34228   4.123   0.979  11.137 -0.0722 -0.0151  0.0778
 7531SOL    HW134229   4.187   1.010  11.073  0.6300 -2.3708 -0.3268
 7531SOL    HW234230   4.176   0.946  11.209 -0.7059  0.1824  0.6439
 7532SOL     OW34231   2.392   3.817   8.002  0.5908 -1.1246 -0.8283
 7532SOL    HW134232   2.326   3.768   7.952  1.5768 -3.0655 -0.2587
 7532SOL    HW234233   2.402   3.897   7.951  3.5270  0.3929  2.1367
 7533SOL     OW34234   3.859   0.927   9.231 -0.2358  0.0303  0.2454
 7533SOL    HW134235   3.866   1.021   9.215  1.4210  0.1306  1.5230
 7533SOL    HW234236   3.911   0.885   9.163  0.0187  1.2220 -0.3025
 7534SOL     OW34237   3.570   1.056   4.874 -0.4239  0.4832  0.2882
 7534SOL    HW134238   3.526   0.972   4.886 -1.1966  0.8419 -0.0015
 7534SOL    HW234239   3.659   1.037   4.844 -0.5076  0.4304  0.0721
 7535SOL     OW34240   2.148   3.218   9.050  0.1415  0.2681  0.3695
 7535SOL    HW134241   2.239   3.241   9.070 -0.1959  0.2359  1.9307
 7535SOL    HW234242   2.128   3.170   9.130 -0.1335  0.4470  0.4084
 7536SOL     OW34243   1.694   4.683   3.238 -0.0024  0.4344  0.2065
 7536SOL    HW134244   1.655   4.739   3.172  0.6792  0.3405 -0.2799
 7536SOL    HW234245   1.751   0.010   3.278  0.1894 -0.0617  0.7585
 7537SOL     OW34246   3.648   0.575   7.025  0.0278  0.6418 -0.0081
 7537SOL    HW134247   3.618   0.651   7.075 -2.3981 -0.8839  0.8436
 7537SOL    HW234248   3.627   0.499   7.079  1.1580 -0.4751 -1.1453
 7538SOL     OW34249   0.999   0.436   4.487  0.1104  0.2567 -0.0692
 7538SOL    HW134250   0.925   0.465   4.432 -0.5404  0.1694  0.7690
 7538SOL    HW234251   0.977   0.344   4.500 -0.5365  0.0812 -2.3704
 7539SOL     OW34252   3.509   0.614  14.790 -0.1001 -0.3891 -0.2344
 7539SOL    HW134253   3.569   0.557  14.838  0.1525  0.8152  0.8899
 7539SOL    HW234254   3.554   0.618  14.706  0.8747  0.8079  0.3441
 7540SOL     OW34255   1.532   1.298   8.618  0.4600  0.7299  0.1405
 7540SOL    HW134256   1.593   1.260   8.554 -0.7348 -1.8754  0.5335
 7540SOL    HW234257   1.501   1.212   8.647  1.7704  0.6674  1.3909
 7541SOL     OW34258   4.177   0.421   5.259 -0.1651 -0.0834 -0.3502
 7541SOL    HW134259   4.266   0.405   5.292  0.0741  0.1184 -0.8931
 7541SOL    HW234260   4.150   0.451   5.346 -1.5731  1.8080 -1.4497
 7542SOL     OW34261   4.503   1.326  15.628  0.6797  0.1476 -0.5745
 7542SOL    HW134262   4.498   1.244  15.579 -0.0120 -0.0203 -0.2245
 7542SOL    HW234263   4.556   1.387  15.576 -0.5356  0.1012 -1.8766
 7543SOL     OW34264   3.652   4.718   7.698 -0.2175  0.3930  0.3550
 7543SOL    HW134265   3.608   4.637   7.673  1.0265  0.9623 -3.6760
 7543SOL    HW234266   3.576   0.033   7.717 -1.2770 -1.2903  0.8691
 7544SOL     OW34267   2.940   2.360   3.373  0.3325  0.6112 -0.1214
 7544SOL    HW134268   2.925   2.448   3.340 -2.4712 -0.3462 -1.4148
 7544SOL    HW234269   2.934   2.373   3.468 -2.2899 -1.6453  0.0259
 7545SOL     OW34270   2.009   3.733   1.231 -0.2173  0.4859 -0.4027
 7545SOL    HW134271   1.945   3.794   1.267 -1.2031 -1.5374  1.2714
 7545SOL    HW234272   2.090   3.770   1.268 -0.7469  0.3006  0.9305
 7546SOL     OW34273   0.051   2.321   7.124  0.1643 -0.2571  0.1543
 7546SOL    HW134274   0.027   2.239   7.168 -0.8188 -2.2561 -4.1278
 7546SOL    HW234275   0.032   2.303   7.032  0.9108 -1.9617  0.3469
 7547SOL     OW34276   1.513   2.740   7.509 -0.1069  0.3311  0.4464
 7547SOL    HW134277   1.598   2.782   7.494  0.7292 -1.6904 -0.4642
 7547SOL    HW234278   1.483   2.725   7.419 -0.4887  1.0445  0.4511
 7548SOL     OW34279   4.715   3.220  12.791 -0.3716 -0.3733  0.0381
 7548SOL    HW134280   0.071   3.228  12.783 -0.3568 -0.9338 -0.3401
 7548SOL    HW234281   4.688   3.311  12.799  1.7024  0.2499 -0.1174
 7549SOL     OW34282   1.755   2.947   5.819 -0.6716  0.5661 -0.0491
 7549SOL    HW134283   1.755   2.905   5.733 -2.1150 -1.7176  1.0523
 7549SOL    HW234284   1.734   2.873   5.876 -0.9847  0.2279 -0.6061
 7550SOL     OW34285   3.122   4.198   8.616  0.1079 -0.3765  0.1917
 7550SOL    HW134286   3.217   4.187   8.605  0.2896  1.2108  0.1569
 7550SOL    HW234287   3.088   4.166   8.532  2.2916 -1.6293 -0.2157
 7551SOL     OW34288   0.153   2.534   6.303 -0.0939  0.2813 -0.0019
 7551SOL    HW134289   0.248   2.521   6.311 -0.3150 -1.2097  0.1810
 7551SOL    HW234290   0.142   2.587   6.382  2.1015  0.9004 -0.1051
 7552SOL     OW34291   3.528   4.645  11.638 -0.6476  0.2400  0.4868
 7552SOL    HW134292   3.474   4.617  11.563 -1.4276 -2.1119  1.9387
 7552SOL    HW234293   3.458   4.679  11.693  0.6379  1.9444  1.0538
 7553SOL     OW34294   0.900   1.821  16.179 -0.4237 -0.0013  0.2128
 7553SOL    HW134295   0.936   1.786  16.097  3.0066  0.1195  1.6522
 7553SOL    HW234296   0.900   1.916  16.167 -0.5163 -0.1675 -1.1133
 7554SOL     OW34297   3.940   2.221  11.585  0.2008 -0.0691 -0.1761
 7554SOL    HW134298   4.019   2.266  11.613  0.5310 -0.2778 -0.7757
 7554SOL    HW234299   3.907   2.284  11.521 -0.4164 -0.6928 -0.4769
 7555SOL     OW34300   3.485   4.185   4.681  0.3190  0.6142  0.1807
 7555SOL    HW134301   3.558   4.174   4.620 -0.4332  0.0608 -0.6150
 7555SOL    HW234302   3.493   4.278   4.699  1.2639  0.3892  0.9580
 7556SOL     OW34303   1.740   1.328  17.433  0.0329 -0.5021  0.1656
 7556SOL    HW134304   1.744   1.325  17.337 -1.1008 -3.2920  0.2083
 7556SOL    HW234305   1.689   1.405  17.456  1.8311  0.3422  1.3183
 7557SOL     OW34306   0.667   2.232   1.317  0.3433 -0.0445  0.3652
 7557SOL    HW134307   0.670   2.320   1.355 -1.3263  0.8266 -1.4864
 7557SOL    HW234308   0.620   2.194   1.391 -0.9668  0.8045 -0.0351
 7558SOL     OW34309   4.677   0.557   8.978 -0.2858 -0.1119 -0.1844
 7558SOL    HW134310   4.734   0.564   8.901 -1.1729  0.0137 -0.8426
 7558SOL    HW234311   4.680   0.648   9.006 -0.6045 -0.3068  0.4824
 7559SOL     OW34312   3.599   1.844   3.483  0.3183  0.3703  0.0610
 7559SOL    HW134313   3.638   1.758   3.465  1.1549  0.6203  0.6687
 7559SOL    HW234314   3.676   1.885   3.523  0.4505 -1.7275  2.0112
 7560SOL     OW34315   4.386   1.660   2.277  0.1676 -0.0244  0.0190
 7560SOL    HW134316   4.379   1.625   2.366  2.3246  0.2962  0.3183
 7560SOL    HW234317   4.379   1.578   2.229  0.1572  0.0438 -0.0966
 7561SOL     OW34318   1.892   2.525   2.101 -0.2551 -0.6979  0.1240
 7561SOL    HW134319   1.978   2.554   2.071  0.1000 -0.1712  1.6539
 7561SOL    HW234320   1.852   2.609   2.127  0.4748  0.0359 -1.1219
 7562SOL     OW34321   4.417   2.529   4.362  0.0763 -0.0542 -0.3818
 7562SOL    HW134322   4.486   2.595   4.355  0.1559  0.0967  1.9334
 7562SOL    HW234323   4.433   2.483   4.279 -0.0578  1.2365 -1.1323
 7563SOL     OW34324   3.968   1.711  11.312 -0.2983  0.1424 -0.1780
 7563SOL    HW134325   3.996   1.752  11.230 -0.5592  0.8095  0.0656
 7563SOL    HW234326   3.944   1.794  11.353 -1.6146 -0.6272  0.6261
 7564SOL     OW34327   1.150   0.601   4.674  0.3552 -0.1396 -0.2673
 7564SOL    HW134328   1.142   0.517   4.627  2.9077 -1.1422  1.0826
 7564SOL    HW234329   1.061   0.608   4.708 -0.8048 -0.6097 -3.2182
 7565SOL     OW34330   0.341   0.695   8.626 -0.3903 -0.4319  0.1358
 7565SOL    HW134331   0.383   0.733   8.703 -1.5870 -2.2012  1.6759
 7565SOL    HW234332   0.376   0.606   8.617 -1.1133 -0.6681 -0.3718
 7566SOL     OW34333   0.982   2.141   2.954  0.0407 -0.0682  0.0568
 7566SOL    HW134334   0.891   2.151   2.927  0.2486 -1.5657 -1.2482
 7566SOL    HW234335   1.023   2.153   2.868  0.2249  2.0084  0.4422
 7567SOL     OW34336   0.095   3.925   4.302 -0.4696  0.4280 -0.3217
 7567SOL    HW134337   0.001   3.938   4.316 -0.4657  1.2027 -1.0032
 7567SOL    HW234338   0.092   3.998   4.241 -3.0826  1.2706  0.7898
 7568SOL     OW34339   1.159   2.556   2.993 -0.2668  0.1243  0.7183
 7568SOL    HW134340   1.104   2.618   3.041  0.7616  1.4829  0.1326
 7568SOL    HW234341   1.202   2.496   3.053  1.4663  1.1476  0.4905
 7569SOL     OW34342   1.187   1.757   1.539  0.0166  0.2364 -0.0041
 7569SOL    HW134343   1.134   1.817   1.591  1.2378  2.1099 -0.9694
 7569SOL    HW234344   1.170   1.667   1.569  1.7993 -0.0717  0.0750
 7570SOL     OW34345   1.382   2.115  10.436 -0.0093 -0.1983 -0.0771
 7570SOL    HW134346   1.319   2.064  10.386  0.6982  0.4012 -1.5588
 7570SOL    HW234347   1.328   2.158  10.502 -0.5410 -1.4629  0.3146
 7571SOL     OW34348   2.535   4.632   7.544  0.1622 -0.3090 -0.1462
 7571SOL    HW134349   2.595   4.593   7.480  1.3942  1.3926 -0.0148
 7571SOL    HW234350   2.600   4.679   7.597 -3.4198  1.6099  2.5453
 7572SOL     OW34351   1.943   4.366  10.497 -0.1389 -0.1006  0.1112
 7572SOL    HW134352   1.965   4.274  10.506  0.6044  0.0207 -0.4403
 7572SOL    HW234353   1.987   4.386  10.414  0.8461  2.3593  1.2141
 7573SOL     OW34354   3.784   0.698  13.620  0.3924 -0.2338  0.1401
 7573SOL    HW134355   3.867   0.745  13.607 -0.0191  0.0307 -1.6325
 7573SOL    HW234356   3.830   0.618  13.644 -1.6657 -1.8067 -1.1573
 7574SOL     OW34357   3.972   4.007   4.546  0.4761 -0.2753 -0.5224
 7574SOL    HW134358   4.048   3.991   4.601  0.9457  0.0408 -1.0835
 7574SOL    HW234359   4.014   4.043   4.468  1.0129 -0.2196 -0.2047
 7575SOL     OW34360   3.964   3.094   2.505  0.1064 -0.5997 -0.2648
 7575SOL    HW134361   3.876   3.110   2.472  0.2788  0.0718 -0.3961
 7575SOL    HW234362   4.008   3.134   2.430 -0.8944 -2.0513 -1.6265
 7576SOL     OW34363   1.368   1.967   7.492  0.4231  1.0772  0.7433
 7576SOL    HW134364   1.452   1.998   7.525  0.8727 -0.2724  0.8772
 7576SOL    HW234365   1.315   2.046   7.480 -0.3714  0.0128 -2.9214
 7577SOL     OW34366   4.175   1.004   5.792 -0.6545 -0.3582 -0.1326
 7577SOL    HW134367   4.232   1.029   5.719 -1.0943  2.0686  0.3841
 7577SOL    HW234368   4.212   0.920   5.822  0.5196  0.6211  1.1482
 7578SOL     OW34369   3.546   1.922  15.654 -0.2767 -0.3188  0.4359
 7578SOL    HW134370   3.637   1.892  15.663  0.9761  4.3134  3.1549
 7578SOL    HW234371   3.495   1.854  15.698  1.0645 -0.6771  1.4660
 7579SOL     OW34372   4.383   1.417   2.136  0.1109  0.2933  0.2365
 7579SOL    HW134373   4.318   1.361   2.178  0.6690 -0.4289  0.1230
 7579SOL    HW234374   4.451   1.354   2.114 -0.2940 -0.0942  0.1048
 7580SOL     OW34375   4.595   1.906   5.149  0.4054 -0.2165 -0.2368
 7580SOL    HW134376   4.603   1.980   5.209  0.5878  0.5111 -1.1551
 7580SOL    HW234377   4.677   1.877   5.109  0.0015  1.5592 -2.3690
 7581SOL     OW34378   3.995   1.683  14.302  0.2317  0.0619 -0.2841
 7581SOL    HW134379   3.937   1.608  14.314  1.8318 -1.6849 -3.7216
 7581SOL    HW234380   4.056   1.658  14.372 -0.0598 -2.8165 -1.0771
 7582SOL     OW34381   3.498   1.288   2.240 -0.3043 -0.4217 -0.3457
 7582SOL    HW134382   3.470   1.366   2.289  1.6557 -0.8207  1.4039
 7582SOL    HW234383   3.569   1.324   2.187 -0.3392  0.9490  0.5285
 7583SOL     OW34384   2.972   0.650  11.735  0.5122 -0.1463 -0.5535
 7583SOL    HW134385   3.026   0.574  11.713 -2.8224 -2.5726 -0.4232
 7583SOL    HW234386   3.018   0.725  11.698  0.0530  1.0126  1.1935
 7584SOL     OW34387   2.461   0.219   2.134  0.1991 -0.0604  0.4488
 7584SOL    HW134388   2.421   0.286   2.078 -0.8544  0.0661  1.3536
 7584SOL    HW234389   2.513   0.180   2.064  0.2854  1.2248 -0.1965
 7585SOL     OW34390   2.904   1.273   3.157 -0.3288 -0.7311 -0.7202
 7585SOL    HW134391   2.934   1.222   3.081  1.0991 -0.7003 -0.1762
 7585SOL    HW234392   2.867   1.200   3.206 -3.7219  1.3220 -0.2422
 7586SOL     OW34393   0.296   3.130   6.551  0.3660  0.0670 -0.2018
 7586SOL    HW134394   0.278   3.126   6.645 -1.4257  0.8814 -0.5052
 7586SOL    HW234395   0.272   3.222   6.536 -2.4010 -0.6198 -0.1022
 7587SOL     OW34396   3.751   1.202   7.462 -0.5676  0.6590 -0.1084
 7587SOL    HW134397   3.748   1.275   7.524 -0.9750  0.1849  0.4327
 7587SOL    HW234398   3.803   1.242   7.392 -2.8519  2.6205 -0.7172
 7588SOL     OW34399   0.925   2.304  16.344  0.1427 -0.3033  0.0450
 7588SOL    HW134400   0.993   2.365  16.369 -0.3463  1.1248 -2.1099
 7588SOL    HW234401   0.845   2.343  16.379  1.2996  2.6034 -0.5487
 7589SOL     OW34402   1.518   1.914   9.098  0.1651 -0.0334 -0.3558
 7589SOL    HW134403   1.451   1.964   9.052 -0.8827  1.2482  2.5859
 7589SOL    HW234404   1.575   1.887   9.026 -0.2042  1.5661 -1.2607
 7590SOL     OW34405   3.992   0.644   9.989  0.1908 -0.3874  0.2722
 7590SOL    HW134406   4.066   0.620  10.044 -0.5376 -0.2210  1.3075
 7590SOL    HW234407   4.034   0.703   9.926  1.0976 -0.0576  1.1786
 7591SOL     OW34408   4.323   0.412  11.757  0.3608  0.4261  0.3582
 7591SOL    HW134409   4.325   0.507  11.752  0.4073  0.5499  2.4975
 7591SOL    HW234410   4.384   0.390  11.828  1.5784 -0.3878 -0.9569
 7592SOL     OW34411   2.368   1.547   9.042  0.1366 -0.0168 -0.0929
 7592SOL    HW134412   2.337   1.467   8.999 -2.5284 -0.5284  2.8263
 7592SOL    HW234413   2.300   1.605   9.007 -2.1158 -3.1806 -0.9533
 7593SOL     OW34414   3.746   2.680  10.139  0.1933  0.2438 -0.5531
 7593SOL    HW134415   3.734   2.682  10.044  0.2601 -0.9948 -0.5791
 7593SOL    HW234416   3.773   2.589  10.150  0.9215  0.5304  0.1079
 7594SOL     OW34417   0.729   0.412  17.397 -0.0934 -0.2168 -0.5134
 7594SOL    HW134418   0.820   0.398  17.370  0.5256  1.0189  0.9389
 7594SOL    HW234419   0.679   0.432  17.318 -0.0655 -0.6726 -0.6470
 7595SOL     OW34420   2.821   0.290   8.051  0.0611 -0.1961 -0.2060
 7595SOL    HW134421   2.807   0.384   8.041  1.5285  0.2534  2.1769
 7595SOL    HW234422   2.749   0.278   8.113 -0.1459  1.9356 -0.0355
 7596SOL     OW34423   0.559   1.019   8.164 -0.6901 -0.6773 -0.6340
 7596SOL    HW134424   0.480   0.970   8.142 -0.7430 -2.0262  2.4431
 7596SOL    HW234425   0.528   1.100   8.204  1.8714  0.2138 -0.4174
 7597SOL     OW34426   3.774   4.280  13.666  0.0847 -0.5899  0.1726
 7597SOL    HW134427   3.849   4.287  13.606  0.8643  0.3449  1.2471
 7597SOL    HW234428   3.730   4.202  13.632 -0.8204  1.4148 -3.2922
 7598SOL     OW34429   0.420   0.926   2.928  0.1355 -0.1247 -0.5718
 7598SOL    HW134430   0.509   0.934   2.896  0.9929 -2.0376  1.2874
 7598SOL    HW234431   0.376   0.879   2.857  0.0944 -2.9094  1.2836
 7599SOL     OW34432   0.387   3.998   2.488  0.2034 -0.3683  0.0906
 7599SOL    HW134433   0.330   4.046   2.548  0.2585  0.5846 -0.6107
 7599SOL    HW234434   0.321   3.941   2.450 -0.5322  0.4754  0.0993
 7600SOL     OW34435   1.795   3.305   1.922 -0.2393  0.1497 -0.3017
 7600SOL    HW134436   1.756   3.392   1.908 -1.2747 -0.3507 -0.5261
 7600SOL    HW234437   1.718   3.254   1.946 -0.6941  0.8151 -0.3249
 7601SOL     OW34438   3.109   4.669   3.317 -0.4395 -0.1112  0.5638
 7601SOL    HW134439   3.035   4.658   3.258 -0.6082 -1.0836  0.9551
 7601SOL    HW234440   3.167   0.003   3.297 -0.0057 -0.0557  2.0432
 7602SOL     OW34441   4.330   4.304   8.466  0.1510  0.0502  0.8666
 7602SOL    HW134442   4.304   4.362   8.538 -1.1726  3.4958 -2.3988
 7602SOL    HW234443   4.399   4.359   8.429 -1.3138  0.1393 -1.7545
 7603SOL     OW34444   0.428   0.202   5.190 -0.1901 -0.0390 -0.4800
 7603SOL    HW134445   0.462   0.132   5.134  0.2038 -0.1348 -0.1150
 7603SOL    HW234446   0.362   0.242   5.133  0.1716 -1.3007 -1.7895
 7604SOL     OW34447   3.698   4.212   8.990  0.2438  0.3441 -0.1483
 7604SOL    HW134448   3.778   4.244   8.948 -0.4149  0.9410 -0.9439
 7604SOL    HW234449   3.634   4.257   8.935 -0.0564 -0.0421 -0.1176
 7605SOL     OW34450   3.197   4.466   8.682  0.4273 -0.7838  0.3839
 7605SOL    HW134451   3.277   4.459   8.629 -1.5843 -0.6196 -2.6557
 7605SOL    HW234452   3.178   4.372   8.691 -0.6748 -0.7558 -1.8120
 7606SOL     OW34453   2.192   2.840  14.610  0.2947  0.5403  0.1185
 7606SOL    HW134454   2.149   2.767  14.654  1.2713  0.5798  1.1388
 7606SOL    HW234455   2.129   2.906  14.640  1.2588  1.0760  0.9761
 7607SOL     OW34456   3.054   2.979   8.857 -0.1341 -0.3712  0.0166
 7607SOL    HW134457   3.040   2.928   8.777 -1.0247  0.6502 -0.4966
 7607SOL    HW234458   3.148   2.996   8.849 -0.1310 -0.1281  0.5799
 7608SOL     OW34459   3.637   1.024  15.414 -0.0941  0.8227  0.1050
 7608SOL    HW134460   3.589   1.106  15.415 -1.4999  0.0622 -2.3297
 7608SOL    HW234461   3.608   0.975  15.491 -0.3849  1.8168  0.6290
 7609SOL     OW34462   2.341   4.737  13.747  0.3621  0.4155  0.0545
 7609SOL    HW134463   2.348   4.736  13.652  3.7922 -1.2519  0.3205
 7609SOL    HW234464   2.433   0.009  13.773  0.1376 -1.8000  1.7227
 7610SOL     OW34465   1.847   0.581   5.024 -0.4401  0.1613  0.0355
 7610SOL    HW134466   1.757   0.549   5.028 -1.4331  2.9698  0.3681
 7610SOL    HW234467   1.837   0.671   4.993  0.9351  1.2580  2.7698
 7611SOL     OW34468   0.543   2.757   1.424 -0.0334  0.4287  0.1052
 7611SOL    HW134469   0.489   2.749   1.503  0.2895  0.5063  0.3361
 7611SOL    HW234470   0.563   2.850   1.430  0.1059  0.3776  0.4566
 7612SOL     OW34471   4.409   4.186  11.611  0.3957  0.0821 -0.4781
 7612SOL    HW134472   4.410   4.108  11.555  0.5042  1.3769 -2.2982
 7612SOL    HW234473   4.360   4.154  11.686  0.6185  0.4426 -0.1754
 7613SOL     OW34474   0.739   2.017   5.890  0.0675  0.7156  0.1111
 7613SOL    HW134475   0.722   2.108   5.916  1.5600  0.6018  1.4967
 7613SOL    HW234476   0.781   1.976   5.966 -0.3925  0.0762  0.0194
 7614SOL     OW34477   4.273   3.352   2.562  0.1109 -0.1458  0.1486
 7614SOL    HW134478   4.354   3.324   2.604 -0.5882  0.1474  1.7129
 7614SOL    HW234479   4.223   3.409   2.622  0.9052 -0.6674  1.3023
 7615SOL     OW34480   4.074   2.846   0.264 -0.2742 -0.0586  0.1470
 7615SOL    HW134481   4.051   2.756   0.241  1.2934 -0.2920 -0.4861
 7615SOL    HW234482   3.995   2.865   0.316  0.1046  0.1199  0.6565
 7616SOL     OW34483   1.564   2.906   1.548  0.0230 -0.8420  0.6895
 7616SOL    HW134484   1.564   2.821   1.503 -1.2642 -0.8203  0.6575
 7616SOL    HW234485   1.483   2.931   1.505  0.6166  1.1875  0.7753
 7617SOL     OW34486   0.672   0.475   5.776 -0.0687 -0.3784 -0.2035
 7617SOL    HW134487   0.642   0.489   5.866 -0.8742  2.7343 -0.9717
 7617SOL    HW234488   0.694   0.564   5.748  1.4653 -0.6211  0.1904
 7618SOL     OW34489   4.153   0.605   9.030  0.5959 -0.1605 -0.6184
 7618SOL    HW134490   4.223   0.579   8.970 -0.0995 -1.9558 -0.6345
 7618SOL    HW234491   4.071   0.590   8.983  0.9210 -0.0455 -1.2252
 7619SOL     OW34492   3.029   4.029   0.101 -0.8433 -0.0271  0.6968
 7619SOL    HW134493   3.001   4.096   0.038 -0.7957 -1.2627 -0.6390
 7619SOL    HW234494   2.943   3.992   0.123 -0.6634 -0.6836  0.2919
 7620SOL     OW34495   3.171   3.449   4.760 -0.0985 -0.1165  0.2736
 7620SOL    HW134496   3.209   3.474   4.676  0.1165  2.2504  1.0864
 7620SOL    HW234497   3.088   3.490   4.735  0.1214 -1.6189 -2.9635
 7621SOL     OW34498   0.350   0.972  16.125 -0.0506 -0.0528  0.1829
 7621SOL    HW134499   0.377   1.035  16.057 -2.0538 -0.0321 -0.5864
 7621SOL    HW234500   0.428   0.967  16.180 -0.8026  2.1689  1.4330
 7622SOL     OW34501   1.189   3.363  14.273 -0.1887 -0.0918 -0.4492
 7622SOL    HW134502   1.207   3.345  14.181 -1.4676  1.7677 -1.0563
 7622SOL    HW234503   1.184   3.274  14.308  2.5341  0.0045  0.1279
 7623SOL     OW34504   3.911   1.995   7.878  0.1538  0.1127  0.7641
 7623SOL    HW134505   3.899   2.070   7.937 -0.4680  2.3557 -2.2177
 7623SOL    HW234506   3.882   1.923   7.934 -1.3975 -0.9697 -1.4437
 7624SOL     OW34507   4.716   2.782   1.859  0.1683  0.5996 -0.6361
 7624SOL    HW134508   4.734   2.717   1.791  0.7161  1.8803 -1.6960
 7624SOL    HW234509   0.036   2.764   1.932  0.2538 -3.5208 -1.7200
 7625SOL     OW34510   0.686   2.418  16.388  0.4419 -0.0141 -0.1488
 7625SOL    HW134511   0.625   2.474  16.436 -2.6025 -2.8228 -0.6555
 7625SOL    HW234512   0.646   2.398  16.303  2.0001  0.6925 -1.0410
 7626SOL     OW34513   1.237   0.426   4.369 -0.2077 -0.1293  0.2496
 7626SOL    HW134514   1.250   0.520   4.355 -1.4875  0.2691  1.7920
 7626SOL    HW234515   1.153   0.430   4.414 -1.2336 -0.7883 -1.6121
 7627SOL     OW34516   2.613   1.759   3.308 -0.5843 -0.4241 -0.5687
 7627SOL    HW134517   2.696   1.745   3.263  0.2491 -0.1043  0.8485
 7627SOL    HW234518   2.563   1.678   3.290 -1.9922  0.3472 -0.1667
 7628SOL     OW34519   3.725   4.238   3.035 -0.3283  0.0829 -0.2428
 7628SOL    HW134520   3.639   4.251   3.073 -0.1697  1.0586 -0.2145
 7628SOL    HW234521   3.745   4.330   3.016 -0.4765  0.2654  0.5051
 7629SOL     OW34522   4.291   2.431   1.286  0.4936 -0.0894  0.4373
 7629SOL    HW134523   4.209   2.459   1.326  0.8234  0.7516  0.5203
 7629SOL    HW234524   4.350   2.495   1.324  0.1494 -0.3731  1.4590
 7630SOL     OW34525   2.695   4.606   3.169  0.1432  0.4056  0.0227
 7630SOL    HW134526   2.733   4.677   3.220 -0.2018 -0.0392  0.9006
 7630SOL    HW234527   2.681   4.643   3.081  1.3597  1.1703  0.1669
 7631SOL     OW34528   0.293   4.062   1.680 -0.1434 -0.0909 -0.5500
 7631SOL    HW134529   0.242   4.054   1.600  0.8325  1.1683 -1.2885
 7631SOL    HW234530   0.353   4.135   1.667 -0.5995  0.5132  0.6534
 7632SOL     OW34531   1.025   1.628   6.806  0.2434 -0.0546  0.2602
 7632SOL    HW134532   1.113   1.591   6.801  0.2616  0.0288 -0.1008
 7632SOL    HW234533   1.044   1.719   6.829  0.0302 -0.0651  0.4654
 7633SOL     OW34534   1.657   2.153   3.757  0.0142 -0.3096  0.1621
 7633SOL    HW134535   1.633   2.142   3.849 -2.1223  2.4810 -0.0447
 7633SOL    HW234536   1.631   2.245   3.751  1.0134 -0.0338  0.1226
 7634SOL     OW34537   3.805   2.193   8.861  0.5233  0.1172 -0.5376
 7634SOL    HW134538   3.879   2.150   8.904 -0.6310 -0.8782  0.4537
 7634SOL    HW234539   3.855   2.222   8.785  0.9354  2.8093  0.7573
 7635SOL     OW34540   2.106   1.883  13.060 -0.3733 -0.7470 -0.2220
 7635SOL    HW134541   2.164   1.883  13.137 -0.7728  0.3411  0.0855
 7635SOL    HW234542   2.022   1.855  13.096 -0.2410 -2.3831 -1.2043
 7636SOL     OW34543   0.945   4.275   7.216  0.1377  0.5689  0.1500
 7636SOL    HW134544   1.001   4.260   7.292 -0.5965 -0.4855  0.4849
 7636SOL    HW234545   0.863   4.233   7.243 -0.0541  1.3268  0.7438
 7637SOL     OW34546   3.407   1.774  13.434  0.5818 -0.3354  0.1816
 7637SOL    HW134547   3.440   1.733  13.354  0.6159  0.9329 -0.4512
 7637SOL    HW234548   3.414   1.705  13.501 -0.5977 -0.5971  0.0491
 7638SOL     OW34549   3.957   1.725   0.570  0.2649 -0.5719  0.1634
 7638SOL    HW134550   3.884   1.784   0.550  0.5109  0.2875  1.7221
 7638SOL    HW234551   3.913   1.640   0.571  2.6017 -1.7482  1.6156
 7639SOL     OW34552   1.552   2.421   3.840 -0.1095  0.6567  0.1423
 7639SOL    HW134553   1.463   2.399   3.867  0.1131  0.1437  0.4532
 7639SOL    HW234554   1.577   2.497   3.892 -0.3517  0.2659  0.8202
 7640SOL     OW34555   2.221   2.713   3.168  0.2056 -0.6956 -0.1350
 7640SOL    HW134556   2.295   2.726   3.108 -0.4282  0.3389 -0.7026
 7640SOL    HW234557   2.211   2.623   3.199 -2.8231 -0.1214  0.6157
 7641SOL     OW34558   2.381   2.498   6.392 -0.2717 -0.4459 -0.3622
 7641SOL    HW134559   2.287   2.517   6.389 -0.7913 -3.0554 -0.7829
 7641SOL    HW234560   2.392   2.415   6.439  1.6393 -0.1538 -0.2922
 7642SOL     OW34561   4.325   1.064  11.662 -0.1179  0.1122  0.3912
 7642SOL    HW134562   4.325   1.128  11.592 -0.6799 -1.0606 -0.6644
 7642SOL    HW234563   4.293   1.098  11.746  0.3485  0.3001  0.4962
 7643SOL     OW34564   0.792   2.561   5.593  0.2393 -0.9431 -0.2591
 7643SOL    HW134565   0.727   2.630   5.583 -0.0912 -1.2490 -0.2548
 7643SOL    HW234566   0.770   2.504   5.519 -1.2465  1.2181 -1.4772
 7644SOL     OW34567   3.319   3.602  12.944  0.0746  0.2897  0.6114
 7644SOL    HW134568   3.385   3.562  13.002  0.0080 -0.0652  0.4387
 7644SOL    HW234569   3.270   3.636  13.019  0.8216 -0.8893  1.6358
 7645SOL     OW34570   2.069   3.297   5.839 -0.1380  0.0662  0.8380
 7645SOL    HW134571   1.995   3.355   5.822  1.0124  1.1876 -0.3248
 7645SOL    HW234572   2.054   3.264   5.928 -0.8046  0.5581  0.9044
 7646SOL     OW34573   4.389   4.256   9.795 -0.1294  0.1107  0.0508
 7646SOL    HW134574   4.318   4.197   9.822 -1.2594  0.7093 -1.7035
 7646SOL    HW234575   4.463   4.228   9.849  0.0155 -1.3108 -0.8883
 7647SOL     OW34576   4.286   3.823   6.264 -0.3359 -0.3924  0.3710
 7647SOL    HW134577   4.219   3.875   6.308 -2.5912 -0.3318 -3.1398
 7647SOL    HW234578   4.357   3.827   6.328 -2.4032  1.4463  2.5531
 7648SOL     OW34579   4.477   1.569  11.179 -0.4986  0.3936  0.0915
 7648SOL    HW134580   4.517   1.641  11.130 -0.7858 -1.8678 -3.4274
 7648SOL    HW234581   4.534   1.493  11.169 -1.6188 -0.5886  1.1083
 7649SOL     OW34582   4.024   2.099  13.342 -0.8108 -0.6128  0.9349
 7649SOL    HW134583   4.058   2.033  13.401 -1.0351  0.5935  2.4263
 7649SOL    HW234584   3.931   2.077  13.335 -1.1554  0.5476  1.6959
 7650SOL     OW34585   1.370   3.487   7.721  0.4112 -0.4176  0.7591
 7650SOL    HW134586   1.352   3.567   7.671  0.1402 -0.9944 -0.0532
 7650SOL    HW234587   1.282   3.465   7.751  0.8317 -0.6955  1.7790
 7651SOL     OW34588   2.350   3.982   6.523 -0.0402  0.2093 -0.4780
 7651SOL    HW134589   2.397   3.913   6.477  1.6331 -0.6085  2.4720
 7651SOL    HW234590   2.389   4.060   6.485  0.6416 -1.1989 -2.6374
 7652SOL     OW34591   3.437   0.279  10.026  0.1982  0.7277  0.1334
 7652SOL    HW134592   3.406   0.365  10.000 -0.4075 -0.0743 -1.8356
 7652SOL    HW234593   3.530   0.301  10.034  0.1776 -0.3126  2.9530
 7653SOL     OW34594   4.133   4.109   3.668 -0.1976 -0.4270  0.2964
 7653SOL    HW134595   4.099   4.020   3.671  3.2715 -1.7500  0.9831
 7653SOL    HW234596   4.177   4.111   3.582 -1.0240  2.7296 -0.0636
 7654SOL     OW34597   2.856   3.864   8.025  0.7383  0.0386  0.1788
 7654SOL    HW134598   2.878   3.825   8.109  1.0458  1.2002  0.6373
 7654SOL    HW234599   2.927   3.927   8.011  1.8552 -0.7960  2.0811
 7655SOL     OW34600   4.081   0.493   8.719 -0.0672 -0.3567 -0.4072
 7655SOL    HW134601   4.169   0.467   8.746 -0.7037 -1.8957  0.1895
 7655SOL    HW234602   4.105   0.568   8.665  0.4812 -1.5827 -1.8520
 7656SOL     OW34603   0.364   0.808   2.394 -0.7779  0.6603  0.5350
 7656SOL    HW134604   0.295   0.745   2.372 -1.8037  2.0332 -0.1291
 7656SOL    HW234605   0.322   0.890   2.370  0.4909  1.2166  0.2181
 7657SOL     OW34606   1.167   3.063   4.239  1.0272 -0.4860 -0.4779
 7657SOL    HW134607   1.078   3.051   4.270  1.0677 -0.7437 -0.4664
 7657SOL    HW234608   1.195   3.135   4.296 -1.6217 -1.6116  2.2064
 7658SOL     OW34609   3.190   0.868   3.873 -0.0822 -0.6035 -0.2888
 7658SOL    HW134610   3.265   0.822   3.834  1.5215  0.6714  1.3332
 7658SOL    HW234611   3.225   0.957   3.866  0.8619 -1.0208 -0.8242
 7659SOL     OW34612   2.267   2.829  10.056 -0.6904 -0.2109  0.0180
 7659SOL    HW134613   2.218   2.832   9.974  0.7276  0.6922 -0.7975
 7659SOL    HW234614   2.197   2.843  10.119 -1.0260  0.5894 -0.5282
 7660SOL     OW34615   4.028   3.347  11.747 -0.3573  0.2889  0.3023
 7660SOL    HW134616   3.989   3.431  11.771  0.1888  0.3926  0.8465
 7660SOL    HW234617   3.966   3.303  11.689  0.0003  0.2962 -0.0846
 7661SOL     OW34618   2.129   2.791   5.293 -0.6288  0.0186 -0.3135
 7661SOL    HW134619   2.143   2.840   5.212 -2.7600 -0.5839 -1.0349
 7661SOL    HW234620   2.061   2.730   5.264  1.2118 -1.4766 -1.4483
 7662SOL     OW34621   1.671   0.118  16.800  0.1626  0.9255  0.3441
 7662SOL    HW134622   1.743   0.135  16.739  0.9754  0.0013  1.0432
 7662SOL    HW234623   1.597   0.171  16.772 -1.5273 -1.6836 -0.1740
 7663SOL     OW34624   2.870   2.411   6.394  0.0060 -0.4660  0.1408
 7663SOL    HW134625   2.821   2.332   6.418 -0.6040 -0.2949 -0.5372
 7663SOL    HW234626   2.940   2.378   6.338  0.6289 -1.3030  1.4288
 7664SOL     OW34627   0.538   3.187  13.744 -0.5245  1.0892 -0.1965
 7664SOL    HW134628   0.629   3.208  13.767  0.7975 -2.2575 -2.3545
 7664SOL    HW234629   0.484   3.256  13.784 -0.2000  1.4078 -0.3066
 7665SOL     OW34630   1.346   3.675   2.134 -0.0145 -0.0362  0.3904
 7665SOL    HW134631   1.418   3.713   2.184  0.9361 -1.8872  0.4190
 7665SOL    HW234632   1.282   3.745   2.146  2.5791  2.8184 -2.7868
 7666SOL     OW34633   4.428   1.662   5.724 -0.2536 -0.1257 -0.2808
 7666SOL    HW134634   4.350   1.717   5.735  0.1311  0.4952 -0.6454
 7666SOL    HW234635   4.483   1.707   5.788  2.3113  0.2154 -2.7397
 7667SOL     OW34636   2.518   3.312   1.695  0.2466 -0.1196 -0.1557
 7667SOL    HW134637   2.425   3.336   1.698  0.4642  0.9970 -2.0066
 7667SOL    HW234638   2.543   3.375   1.627 -0.1447 -0.0971 -0.2778
 7668SOL     OW34639   0.246   2.757  11.262  0.4640  0.4921  0.0015
 7668SOL    HW134640   0.291   2.838  11.285  0.4144  0.5253 -0.0203
 7668SOL    HW234641   0.211   2.790  11.179  0.2295 -2.2016 -0.9695
 7669SOL     OW34642   3.334   4.131   4.403 -0.2074 -0.6382 -0.1247
 7669SOL    HW134643   3.338   4.186   4.482  1.1814 -1.5850  0.4524
 7669SOL    HW234644   3.291   4.197   4.349 -1.1501 -0.3833  0.9281
 7670SOL     OW34645   2.378   4.628   4.061 -0.0548  0.0938 -0.2878
 7670SOL    HW134646   2.459   4.674   4.082  0.1653  0.2808 -1.5350
 7670SOL    HW234647   2.362   4.642   3.968  0.2737  1.3579 -0.1554
 7671SOL     OW34648   2.550   0.249   5.491  0.0709  0.0118 -0.6978
 7671SOL    HW134649   2.563   0.176   5.430  0.5004  0.6100 -1.3293
 7671SOL    HW234650   2.631   0.233   5.539 -0.1790  0.2102 -0.2098
 7672SOL     OW34651   2.342   4.086   4.854  0.2393 -0.7395 -0.1899
 7672SOL    HW134652   2.420   4.122   4.896 -0.5238  0.3959  0.2665
 7672SOL    HW234653   2.347   4.149   4.782 -2.3455  1.1098  1.2556
 7673SOL     OW34654   4.693   4.404   9.730  0.2653 -0.0765 -0.1463
 7673SOL    HW134655   4.704   4.474   9.794  1.4446 -0.0015 -0.4350
 7673SOL    HW234656   4.599   4.386   9.736  0.2270  0.5773  1.2072
 7674SOL     OW34657   2.332   3.170   4.957 -0.2378 -0.2650  0.2999
 7674SOL    HW134658   2.298   3.257   4.937 -1.5718 -0.6493  0.9533
 7674SOL    HW234659   2.256   3.117   4.932  0.0412 -1.2324  1.5086
 7675SOL     OW34660   0.353   3.713  13.666 -0.2270  0.2066  0.4092
 7675SOL    HW134661   0.296   3.788  13.681  1.9706  1.8393  0.5734
 7675SOL    HW234662   0.409   3.706  13.743  0.4207  1.2336  0.0180
 7676SOL     OW34663   0.778   1.220  10.695 -0.1504  0.4598 -0.4977
 7676SOL    HW134664   0.772   1.162  10.620  1.9662  0.9851 -1.0521
 7676SOL    HW234665   0.805   1.305  10.661  0.2329  1.1623  1.5371
 7677SOL     OW34666   2.058   2.181   7.158  0.3800  0.7809 -0.2901
 7677SOL    HW134667   2.072   2.133   7.076 -0.4307 -1.1878  0.7116
 7677SOL    HW234668   2.140   2.175   7.206 -0.9132 -0.7707  1.7559
 7678SOL     OW34669   0.682   2.343   6.316 -0.7774 -0.2232 -0.0340
 7678SOL    HW134670   0.673   2.266   6.259 -3.2926 -0.8481  1.1629
 7678SOL    HW234671   0.770   2.376   6.302 -1.8020  2.5232  0.0094
 7679SOL     OW34672   2.935   0.968  16.883 -0.2139 -0.1748  0.7186
 7679SOL    HW134673   2.957   1.061  16.885 -0.1923 -0.1952  1.5331
 7679SOL    HW234674   2.928   0.944  16.976  0.6993 -1.3545  0.4784
 7680SOL     OW34675   0.470   4.386   6.748 -0.1963 -0.1533 -0.4419
 7680SOL    HW134676   0.561   4.414   6.763 -0.7485  0.3840  1.8722
 7680SOL    HW234677   0.431   4.468   6.717  0.8288  1.2652  2.0770
 7681SOL     OW34678   2.259   3.013   8.724  0.1643  0.9877 -0.3330
 7681SOL    HW134679   2.309   3.046   8.650  0.1840 -1.2606 -1.3101
 7681SOL    HW234680   2.245   2.923   8.696  0.8991  0.6946  0.2429
 7682SOL     OW34681   3.056   3.422   6.042  0.5618  0.5554 -0.1852
 7682SOL    HW134682   2.994   3.379   6.101  3.3157 -0.9259  1.6112
 7682SOL    HW234683   3.103   3.347   6.005 -1.0151 -0.9124  0.7837
 7683SOL     OW34684   2.687   1.154   4.684  0.4080 -0.0752  0.9940
 7683SOL    HW134685   2.594   1.144   4.660  0.6980 -1.1910  0.3313
 7683SOL    HW234686   2.732   1.144   4.600  0.0294  0.1175  0.7662
 7684SOL     OW34687   1.667   1.196  11.232 -0.0375 -0.3037 -0.1025
 7684SOL    HW134688   1.740   1.250  11.262  0.1766 -0.4756 -0.3212
 7684SOL    HW234689   1.714   1.118  11.202 -0.3488 -0.2671 -0.6861
 7685SOL     OW34690   2.599   2.106  10.562  0.2429 -0.5592  0.6533
 7685SOL    HW134691   2.513   2.088  10.599  0.3401 -0.5447  0.8883
 7685SOL    HW234692   2.658   2.106  10.638 -0.0479  1.7860  0.8922
 7686SOL     OW34693   3.087   2.762  17.178  0.0757 -0.0629 -0.0063
 7686SOL    HW134694   3.044   2.788  17.097 -1.0561 -1.0650  0.2562
 7686SOL    HW234695   3.171   2.802  17.155  0.0766  1.3542  2.4706
 7687SOL     OW34696   3.882   3.601   0.840 -0.2028  0.1288 -0.3848
 7687SOL    HW134697   3.829   3.524   0.862 -0.4865  0.4894  0.1904
 7687SOL    HW234698   3.913   3.623   0.928  1.8009 -0.2509 -1.0101
 7688SOL     OW34699   0.772   1.942   6.809  0.4536 -0.1705  0.1212
 7688SOL    HW134700   0.740   1.894   6.733 -0.3350  1.6798 -0.7258
 7688SOL    HW234701   0.745   2.030   6.782  0.1677 -0.2030  0.3106
 7689SOL     OW34702   1.498   3.933  14.433 -0.8685 -0.5965 -0.1939
 7689SOL    HW134703   1.489   3.987  14.354  1.0815 -0.4408 -0.3042
 7689SOL    HW234704   1.543   3.986  14.499  1.0356  0.3597 -2.2461
 7690SOL     OW34705   4.010   0.132   3.280 -0.4221 -0.2081  0.0031
 7690SOL    HW134706   3.968   0.046   3.270  0.3933 -0.6243  0.1138
 7690SOL    HW234707   4.066   0.124   3.357 -0.3744 -2.1400 -0.2240
 7691SOL     OW34708   0.494   4.448  15.355  0.1940 -0.2348 -0.3285
 7691SOL    HW134709   0.431   4.427  15.286  0.3353 -0.3872 -0.4109
 7691SOL    HW234710   0.550   4.370  15.360  0.9475  0.2657 -0.8507
 7692SOL     OW34711   0.849   0.419  10.886  0.9511  0.0667  0.2957
 7692SOL    HW134712   0.861   0.444  10.977  1.2584  0.2401  0.2073
 7692SOL    HW234713   0.769   0.367  10.883  0.8796  0.0487  3.4329
 7693SOL     OW34714   0.672   4.153   1.695  0.4071 -0.0061 -0.0183
 7693SOL    HW134715   0.676   4.062   1.726 -1.1486  0.3191  1.0863
 7693SOL    HW234716   0.637   4.190   1.776 -1.0985 -0.0414 -0.6502
 7694SOL     OW34717   1.103   4.437   9.813 -0.2662 -0.4767  0.0205
 7694SOL    HW134718   1.158   4.456   9.888 -1.8811  1.9090  0.5872
 7694SOL    HW234719   1.108   4.341   9.807  3.3200 -0.2438 -0.3382
 7695SOL     OW34720   2.449   2.633   4.210 -0.0387 -0.2354  0.2110
 7695SOL    HW134721   2.387   2.703   4.189 -0.7953 -0.7416  0.7437
 7695SOL    HW234722   2.536   2.673   4.214 -0.0372 -0.2933  0.8331
 7696SOL     OW34723   3.931   4.614   8.588  0.1714  0.0479  0.4528
 7696SOL    HW134724   3.918   4.562   8.509  0.3627  0.3923  0.1908
 7696SOL    HW234725   4.025   4.602   8.602  0.4248 -0.8867 -1.9624
 7697SOL     OW34726   3.298   3.417  14.731  0.3384  0.2124 -0.3920
 7697SOL    HW134727   3.226   3.376  14.780  0.1323  0.1212 -0.7754
 7697SOL    HW234728   3.370   3.417  14.794 -0.5445 -0.1563  0.6255
 7698SOL     OW34729   0.704   2.225   2.664 -0.3033  0.2842  0.7487
 7698SOL    HW134730   0.744   2.229   2.577  0.6436  0.0856  1.1751
 7698SOL    HW234731   0.685   2.131   2.659 -1.5169  0.6648 -1.6384
 7699SOL     OW34732   0.360   4.281   8.854 -0.7166  0.2402 -0.2830
 7699SOL    HW134733   0.287   4.284   8.916  1.6116 -1.2798  2.5107
 7699SOL    HW234734   0.334   4.342   8.784 -0.1375 -1.1119 -1.6697
 7700SOL     OW34735   3.282   2.165   9.537 -0.0875  0.6890 -0.8205
 7700SOL    HW134736   3.237   2.172   9.621  2.4111  3.5202  0.3296
 7700SOL    HW234737   3.232   2.217   9.474  1.0390  0.7109 -1.6903
 7701SOL     OW34738   3.696   2.621  13.271  0.2666  0.5933 -0.1427
 7701SOL    HW134739   3.666   2.538  13.308  4.2860 -0.1702  1.4639
 7701SOL    HW234740   3.728   2.666  13.349  0.9183 -0.6029  0.2781
 7702SOL     OW34741   2.042   2.700   9.214  0.0051  0.1115 -0.1655
 7702SOL    HW134742   2.014   2.774   9.160  0.8213  1.6650  1.5216
 7702SOL    HW234743   2.135   2.722   9.219 -0.1147  0.2667  1.6166
 7703SOL     OW34744   1.939   2.439   4.718 -0.2632  0.0736 -1.2956
 7703SOL    HW134745   2.012   2.430   4.656  1.4498 -0.2439  0.7568
 7703SOL    HW234746   1.888   2.365   4.685  0.0522 -1.0976  0.8892
 7704SOL     OW34747   1.868   4.353   4.001  0.4521  0.2866  0.1609
 7704SOL    HW134748   1.829   4.440   3.998  0.2536  0.1305 -1.6089
 7704SOL    HW234749   1.846   4.328   3.912  1.6078  0.0348 -0.0538
 7705SOL     OW34750   1.954   3.804   6.880  0.2626  0.1360  0.0597
 7705SOL    HW134751   1.907   3.826   6.961  2.0434 -0.4193  1.2548
 7705SOL    HW234752   1.915   3.875   6.829  0.3106  0.2185  0.1385
 7706SOL     OW34753   4.459   0.412   9.058 -0.1981  0.3741  0.9184
 7706SOL    HW134754   4.398   0.414   8.984  2.1849 -2.2840 -1.1094
 7706SOL    HW234755   4.522   0.472   9.018 -0.5535 -1.4550 -2.4083
 7707SOL     OW34756   3.379   0.855  14.641 -0.0726  0.0976  0.0379
 7707SOL    HW134757   3.369   0.919  14.711 -0.1582  0.1943 -0.0619
 7707SOL    HW234758   3.426   0.783  14.682 -1.1652  0.0811  1.2759
 7708SOL     OW34759   4.135   0.771  13.151  0.2058 -0.4702 -0.2411
 7708SOL    HW134760   4.107   0.680  13.167 -0.8977 -0.0206  0.3661
 7708SOL    HW234761   4.058   0.816  13.184  1.2297 -1.2317  3.1762
 7709SOL     OW34762   0.411   0.929  13.795  0.3345  0.0966 -0.3258
 7709SOL    HW134763   0.407   0.910  13.702  0.2828 -0.7404 -0.1480
 7709SOL    HW234764   0.506   0.924  13.806  0.5546  1.4040 -1.6574
 7710SOL     OW34765   2.826   2.714   4.529  0.4977  0.2276 -0.1096
 7710SOL    HW134766   2.800   2.757   4.610 -1.9643 -0.5244 -0.4935
 7710SOL    HW234767   2.753   2.743   4.475 -0.3689  0.9580  1.4641
 7711SOL     OW34768   4.625   3.833   8.009 -0.0034 -0.1569  0.0194
 7711SOL    HW134769   4.664   3.763   7.957  0.9383 -0.0848  0.6338
 7711SOL    HW234770   4.608   3.780   8.087 -1.7627 -0.6473 -0.6999
 7712SOL     OW34771   1.817   0.673   4.543 -0.2010 -0.4933 -0.0478
 7712SOL    HW134772   1.846   0.698   4.631  2.1693  0.6268 -1.1615
 7712SOL    HW234773   1.840   0.581   4.554  0.5573 -0.4569 -1.4144
 7713SOL     OW34774   0.453   3.396   6.309  0.2725 -0.0214 -0.2025
 7713SOL    HW134775   0.522   3.344   6.269 -1.2492 -3.1630  1.3016
 7713SOL    HW234776   0.489   3.483   6.329  1.9418 -0.9060  0.5900
 7714SOL     OW34777   4.720   1.778   7.409  0.1958  0.1136 -0.5167
 7714SOL    HW134778   4.732   1.792   7.503 -1.6579 -3.8799  0.3279
 7714SOL    HW234779   4.642   1.835   7.403 -0.1482 -0.1395  1.4413
 7715SOL     OW34780   3.550   3.790   9.220  0.3970 -0.0478 -0.2098
 7715SOL    HW134781   3.621   3.727   9.223  1.3836  0.9321 -3.4431
 7715SOL    HW234782   3.571   3.837   9.139 -1.8038 -1.6258 -1.7037
 7716SOL     OW34783   4.243   0.239   0.359 -0.7541  0.2387 -0.4188
 7716SOL    HW134784   4.298   0.238   0.281  2.4356  1.0526  1.8177
 7716SOL    HW234785   4.293   0.189   0.424 -0.5126  0.9889 -0.0217
 7717SOL     OW34786   4.630   2.272   6.064  0.5014 -0.1265  0.1790
 7717SOL    HW134787   4.652   2.205   6.129  1.3606 -0.9212 -0.9414
 7717SOL    HW234788   4.535   2.283   6.067  0.3635 -0.9475 -1.1143
 7718SOL     OW34789   2.765   2.327   0.626 -0.5779  0.1481 -0.1556
 7718SOL    HW134790   2.682   2.367   0.602 -1.0143 -0.4194  0.4070
 7718SOL    HW234791   2.819   2.403   0.649  1.4126 -1.4809  0.6683
 7719SOL     OW34792   3.834   2.222   7.422  0.3325  0.4568 -0.0852
 7719SOL    HW134793   3.788   2.179   7.494 -1.6287  2.6668  0.0036
 7719SOL    HW234794   3.793   2.309   7.428  0.2064  0.6634 -3.9255
 7720SOL     OW34795   1.344   4.558   1.524  0.0012  0.3344 -0.3466
 7720SOL    HW134796   1.349   4.604   1.608 -0.6600 -0.8054  0.3125
 7720SOL    HW234797   1.420   4.601   1.484  1.4178 -1.2281  0.6846
 7721SOL     OW34798   0.094   3.761   4.586  0.4544  0.3417  0.0308
 7721SOL    HW134799   0.137   3.830   4.535  0.2661 -1.1159 -2.0591
 7721SOL    HW234800   0.013   3.805   4.612  0.7282  0.1757  1.1711
 7722SOL     OW34801   0.515   0.103   3.894 -0.3613  0.0413  0.0909
 7722SOL    HW134802   0.538   0.020   3.851 -0.0819 -0.0819  0.4759
 7722SOL    HW234803   0.600   0.119   3.934 -0.3812 -0.7215  0.4380
 7723SOL     OW34804   0.280   0.540   6.533  0.0544  0.3092  0.1449
 7723SOL    HW134805   0.276   0.449   6.563 -1.8243 -0.0168 -1.0577
 7723SOL    HW234806   0.338   0.540   6.457 -1.0385 -0.9515 -0.6937
 7724SOL     OW34807   3.168   4.139   5.054 -0.1989  0.3271 -0.0072
 7724SOL    HW134808   3.185   4.067   5.115 -1.1417 -1.5629 -1.9688
 7724SOL    HW234809   3.160   4.213   5.114 -2.6223 -2.7950  3.5434
 7725SOL     OW34810   3.463   0.885   7.494  0.3560  0.5139 -0.5882
 7725SOL    HW134811   3.534   0.884   7.430 -1.8123  0.8156 -2.9638
 7725SOL    HW234812   3.476   0.811   7.553  1.2598  1.2160  0.0970
 7726SOL     OW34813   3.817   0.254  13.651  0.0605  0.6131 -0.1032
 7726SOL    HW134814   3.743   0.221  13.599 -0.9575  3.0184 -0.1793
 7726SOL    HW234815   3.815   0.195  13.726  0.5504 -1.4342 -1.7026
 7727SOL     OW34816   2.565   0.752   8.308 -0.9175 -0.1814  0.9478
 7727SOL    HW134817   2.617   0.696   8.366 -0.1033 -0.4705 -0.0661
 7727SOL    HW234818   2.489   0.694   8.313 -0.0442 -1.4331 -0.5988
 7728SOL     OW34819   0.807   1.224   7.394 -0.0397 -0.0382 -0.4898
 7728SOL    HW134820   0.826   1.276   7.316 -0.0680 -0.4334 -0.7576
 7728SOL    HW234821   0.820   1.289   7.463 -1.4162  0.6837 -0.9103
 7729SOL     OW34822   1.561   1.793   7.895 -0.5276  0.2323  0.0390
 7729SOL    HW134823   1.654   1.813   7.896 -0.4762  0.0233 -0.3539
 7729SOL    HW234824   1.556   1.709   7.940 -1.6368 -0.4792 -1.4072
 7730SOL     OW34825   1.341   3.573   8.711  0.0240  0.0828 -0.0298
 7730SOL    HW134826   1.347   3.591   8.805  0.8397  2.0547 -0.4638
 7730SOL    HW234827   1.334   3.663   8.680  1.4028 -0.1280 -0.9652
 7731SOL     OW34828   3.040   3.739   5.219 -0.0064  0.3251 -0.4889
 7731SOL    HW134829   2.984   3.718   5.144  0.6381 -1.3692 -0.4765
 7731SOL    HW234830   3.123   3.704   5.188  1.2704  3.1694 -0.3516
 7732SOL     OW34831   4.696   2.278   7.756  0.2471 -0.3430 -0.1666
 7732SOL    HW134832   4.692   2.191   7.797 -0.8442 -0.1032  0.2309
 7732SOL    HW234833   4.603   2.301   7.766 -0.0641 -1.0829 -1.3669
 7733SOL     OW34834   0.026   3.818   9.333 -0.1225  0.3360 -0.1488
 7733SOL    HW134835   4.714   3.899   9.330  1.6832  1.4829  0.0218
 7733SOL    HW234836   0.079   3.825   9.253  0.7299 -0.5228  0.3294
 7734SOL     OW34837   1.000   1.038   6.946 -0.7264 -0.2765 -0.6047
 7734SOL    HW134838   1.007   1.112   7.007  2.2156 -0.5405 -0.6443
 7734SOL    HW234839   1.088   1.002   6.939 -0.5129 -0.0955  1.2447
 7735SOL     OW34840   2.537   1.983   5.033 -0.3484 -0.0387  0.1643
 7735SOL    HW134841   2.490   2.062   5.059  0.2929  0.4048 -0.0108
 7735SOL    HW234842   2.620   2.001   5.078 -0.0218  1.3653 -1.0062
 7736SOL     OW34843   2.332   1.084  10.909  0.0693 -0.0563  0.3890
 7736SOL    HW134844   2.358   1.011  10.852  0.1864  0.5351 -0.3159
 7736SOL    HW234845   2.353   1.154  10.847 -2.4737  0.8910  0.6071
 7737SOL     OW34846   4.438   3.189  15.970 -0.1815 -0.1070 -0.2669
 7737SOL    HW134847   4.490   3.250  16.022 -1.8803  0.4446  0.7722
 7737SOL    HW234848   4.486   3.183  15.887  0.3983  1.5495 -0.0445
 7738SOL     OW34849   0.890   2.480   4.392  0.6060  0.3612 -0.0796
 7738SOL    HW134850   0.847   2.402   4.357 -0.0749  1.1459 -1.0111
 7738SOL    HW234851   0.973   2.482   4.344 -0.2408 -3.0422 -1.6443
 7739SOL     OW34852   3.664   4.388  10.293 -0.0815 -0.6829 -0.2877
 7739SOL    HW134853   3.606   4.395  10.218  1.5532  0.8942 -1.3787
 7739SOL    HW234854   3.598   4.350  10.352  0.8235 -1.0056  0.5163
 7740SOL     OW34855   3.971   0.019   8.217  0.0619 -0.3503  0.9537
 7740SOL    HW134856   3.941   4.729   8.131  0.1743  1.1911  0.4133
 7740SOL    HW234857   3.900   4.724   8.272  0.8961  2.2903  3.6562
 7741SOL     OW34858   2.247   4.221   7.181  0.3074  0.1205  0.5161
 7741SOL    HW134859   2.326   4.261   7.143 -2.8920  0.4605 -5.7082
 7741SOL    HW234860   2.206   4.186   7.103 -1.6170  0.3484  1.4257
 7742SOL     OW34861   2.055   0.227   8.643  0.6994  0.3544 -0.3148
 7742SOL    HW134862   2.010   0.146   8.620 -0.5049  0.4046  1.8229
 7742SOL    HW234863   1.977   0.268   8.681 -0.6520 -2.5406  0.0649
 7743SOL     OW34864   3.439   3.118  16.198  0.1593 -0.0782 -0.7682
 7743SOL    HW134865   3.432   3.203  16.153 -1.2488  0.1423 -0.1088
 7743SOL    HW234866   3.506   3.136  16.264 -1.3643 -3.8648  1.7301
 7744SOL     OW34867   3.765   1.412   7.630  0.0730 -0.1457 -0.7301
 7744SOL    HW134868   3.822   1.481   7.663  0.2873  0.4133 -2.2933
 7744SOL    HW234869   3.680   1.445   7.600 -0.2005  0.6273  0.9022
 7745SOL     OW34870   4.603   0.844   5.593  0.2202 -0.0735 -0.0755
 7745SOL    HW134871   4.637   0.925   5.554  1.7890  1.0130  3.6214
 7745SOL    HW234872   4.625   0.844   5.686  2.0199  3.6944 -0.5017
 7746SOL     OW34873   4.525   3.343   2.700 -0.3505 -0.5885 -0.2135
 7746SOL    HW134874   4.562   3.286   2.767  0.4198 -1.1625 -1.1213
 7746SOL    HW234875   4.576   3.424   2.699  0.3863 -1.0539 -0.1984
 7747SOL     OW34876   0.639   1.728  13.235  0.2001 -0.4654 -0.3511
 7747SOL    HW134877   0.625   1.808  13.183 -1.0422  0.8191  1.9421
 7747SOL    HW234878   0.552   1.692  13.215  0.6416 -0.7388 -1.7754
 7748SOL     OW34879   3.912   2.520   2.190  0.3251 -0.2992  0.7389
 7748SOL    HW134880   3.916   2.485   2.101 -0.7009 -0.8132  0.8991
 7748SOL    HW234881   3.992   2.471   2.212 -1.6083 -3.2086  1.3563
 7749SOL     OW34882   2.646   3.407  16.191 -0.4395 -0.0766  0.0586
 7749SOL    HW134883   2.695   3.361  16.258  3.2651  2.9405 -0.5653
 7749SOL    HW234884   2.691   3.492  16.192  0.2675 -0.4656  1.3514
 7750SOL     OW34885   1.307   0.724   0.985 -0.7537 -0.5046  0.4598
 7750SOL    HW134886   1.279   0.780   0.913 -0.2635 -1.2281 -0.2920
 7750SOL    HW234887   1.398   0.754   0.992 -0.9673  0.6574 -1.8973
 7751SOL     OW34888   1.729   2.929   4.018 -0.5106  0.2247  0.1808
 7751SOL    HW134889   1.794   2.909   4.087  0.6631  0.5972 -0.8144
 7751SOL    HW234890   1.697   3.018   4.029  0.6715  0.8279 -1.2998
 7752SOL     OW34891   3.487   4.492   4.722  0.0233  0.1854 -0.5740
 7752SOL    HW134892   3.451   4.523   4.639 -0.1737  1.6385  0.0519
 7752SOL    HW234893   3.562   4.551   4.729 -0.5775  0.8443  0.2581
 7753SOL     OW34894   1.277   2.903   7.223 -0.0249 -0.5920 -0.3102
 7753SOL    HW134895   1.236   2.860   7.298  0.6344  0.5216  0.6953
 7753SOL    HW234896   1.272   2.995   7.250  2.2095 -0.8942  1.1252
 7754SOL     OW34897   0.197   1.024   4.590 -0.2492  0.1184 -0.4456
 7754SOL    HW134898   0.103   1.020   4.578 -0.1504  2.1690 -1.9728
 7754SOL    HW234899   0.205   1.111   4.630 -1.3679 -0.1500  0.3370
 7755SOL     OW34900   0.130   0.734  12.751  0.7955  0.4291  0.1621
 7755SOL    HW134901   0.199   0.677  12.716  0.3653  0.5589 -0.8976
 7755SOL    HW234902   0.092   0.766  12.669  0.6540  2.1013  0.9029
 7756SOL     OW34903   1.302   1.939   4.418 -0.4575 -0.3808 -0.3615
 7756SOL    HW134904   1.249   2.002   4.468  0.1059 -1.2356  1.3296
 7756SOL    HW234905   1.245   1.934   4.342 -0.3621 -1.8435 -0.3298
 7757SOL     OW34906   0.318   4.144   9.817 -0.0724  0.1975  0.0633
 7757SOL    HW134907   0.392   4.100   9.775  0.8769  1.1724  0.7275
 7757SOL    HW234908   0.320   4.109   9.906  0.8439 -0.0947 -0.0701
 7758SOL     OW34909   0.035   4.564   7.734 -0.3794  0.6822  0.0145
 7758SOL    HW134910   0.030   4.639   7.674  2.7373  1.7406  1.1146
 7758SOL    HW234911   4.680   4.562   7.752 -0.6713  0.9006 -1.5159
 7759SOL     OW34912   3.156   4.102   4.785  0.0069  0.1289 -0.0537
 7759SOL    HW134913   3.176   4.109   4.878 -1.2564 -0.2418  0.2407
 7759SOL    HW234914   3.230   4.053   4.749 -0.8090 -0.1740 -1.3007
 7760SOL     OW34915   2.576   2.502   8.028  0.3557  0.2522  0.5671
 7760SOL    HW134916   2.587   2.572   7.964 -1.4842  0.5690  0.5957
 7760SOL    HW234917   2.659   2.455   8.024  1.4564  2.3778 -1.2025
 7761SOL     OW34918   2.901   2.848   5.048  0.0916  0.6185 -0.7679
 7761SOL    HW134919   2.976   2.793   5.071  0.1731  1.2202  0.3871
 7761SOL    HW234920   2.876   2.802   4.968 -0.9923 -0.3791  0.1361
 7762SOL     OW34921   1.522   1.853  13.553  0.4341  0.4131 -0.1351
 7762SOL    HW134922   1.436   1.819  13.527  0.0928 -0.5266  2.2128
 7762SOL    HW234923   1.591   1.787  13.547 -1.7409 -1.8706 -0.2922
 7763SOL     OW34924   2.317   0.787   3.844 -0.2830 -0.1242  0.7260
 7763SOL    HW134925   2.265   0.750   3.772 -0.3517  0.8756  0.2522
 7763SOL    HW234926   2.263   0.759   3.918  1.6432 -0.2693  2.0700
 7764SOL     OW34927   3.223   0.887  17.396  0.5105 -0.8071 -0.2156
 7764SOL    HW134928   3.177   0.939  17.461 -1.9289 -4.5663  1.0472
 7764SOL    HW234929   3.147   0.872  17.339  0.9515 -1.6580 -0.5773
 7765SOL     OW34930   4.135   3.205   7.067  0.0745 -0.4151 -0.1891
 7765SOL    HW134931   4.129   3.145   7.141  1.1756 -1.5609 -1.0237
 7765SOL    HW234932   4.049   3.209   7.024  0.3045 -1.0732 -0.7053
 7766SOL     OW34933   1.987   2.537   3.382  0.3758 -0.3211 -0.1248
 7766SOL    HW134934   2.075   2.537   3.345 -0.3810 -0.9323 -1.9385
 7766SOL    HW234935   2.013   2.557   3.472 -1.3260  3.2502 -0.4455
 7767SOL     OW34936   3.748   0.028   9.240  0.1497 -0.8373  0.3451
 7767SOL    HW134937   3.802   0.095   9.198  0.0076 -0.9109  0.0488
 7767SOL    HW234938   3.757   4.695   9.178  1.7222 -2.0084  1.9527
 7768SOL     OW34939   3.177   0.308   7.596 -0.1066 -0.0890 -0.1521
 7768SOL    HW134940   3.241   0.379   7.593 -0.7674  0.4097 -2.6622
 7768SOL    HW234941   3.203   0.253   7.523  0.7334  1.7765 -1.2605
 7769SOL     OW34942   1.275   4.125   3.786 -0.6590  0.2602  0.4544
 7769SOL    HW134943   1.186   4.094   3.768 -0.7501  2.4971 -3.0309
 7769SOL    HW234944   1.287   4.176   3.706 -0.7442 -1.2986 -0.5516
 7770SOL     OW34945   0.012   3.182   6.172  0.3952  0.4067 -0.6336
 7770SOL    HW134946   4.685   3.141   6.117  0.0210 -1.6709  1.3319
 7770SOL    HW234947   0.089   3.176   6.116  0.9963 -0.0695  0.2403
 7771SOL     OW34948   2.241   0.610   5.261  0.0656  0.1098 -0.0776
 7771SOL    HW134949   2.148   0.585   5.260 -0.0660  0.5900  0.5639
 7771SOL    HW234950   2.288   0.528   5.243  1.7945  1.5230 -1.9265
 7772SOL     OW34951   1.765   0.315   4.423 -0.3095 -0.2808 -0.8804
 7772SOL    HW134952   1.676   0.283   4.438 -0.9684  1.2922 -1.4252
 7772SOL    HW234953   1.814   0.246   4.377 -0.3880 -1.4632  0.8204
 7773SOL     OW34954   1.603   1.328   6.305  0.5308 -0.0114 -0.1178
 7773SOL    HW134955   1.694   1.318   6.277  0.2993 -1.3932 -0.3627
 7773SOL    HW234956   1.598   1.242   6.347  2.4234  0.1752  0.5041
 7774SOL     OW34957   0.351   0.907   0.873  0.2667  0.7241 -0.3061
 7774SOL    HW134958   0.344   0.914   0.968 -0.3214 -0.3123 -0.2716
 7774SOL    HW234959   0.343   0.997   0.841  0.7066  0.6248 -0.7062
 7775SOL     OW34960   4.007   1.120  13.481 -0.1457  0.1849  0.3751
 7775SOL    HW134961   4.090   1.149  13.444 -1.5785  0.2643 -2.8027
 7775SOL    HW234962   3.949   1.131  13.406  0.5548  0.6555 -0.0929
 7776SOL     OW34963   3.755   3.472  16.188 -0.0255 -0.3269  0.4511
 7776SOL    HW134964   3.671   3.519  16.192 -0.1989 -0.6763  0.9406
 7776SOL    HW234965   3.743   3.387  16.230 -0.7490 -0.9383 -0.9791
 7777SOL     OW34966   1.001   2.222   8.659 -0.7006 -0.0359 -0.0737
 7777SOL    HW134967   0.965   2.134   8.667 -1.9472  0.3247 -1.6876
 7777SOL    HW234968   1.051   2.212   8.577  1.0342  2.0753  0.7263
 7778SOL     OW34969   3.841   1.485   0.620 -0.8046 -0.6599  0.6592
 7778SOL    HW134970   3.786   1.438   0.558 -0.1530  0.7859 -1.0037
 7778SOL    HW234971   3.775   1.529   0.673  0.5505 -1.1004  2.7290
 7779SOL     OW34972   2.137   0.312   4.220 -0.2352  0.1327 -0.2244
 7779SOL    HW134973   2.212   0.264   4.184  0.7513  0.0647  1.9173
 7779SOL    HW234974   2.150   0.294   4.314 -1.4628  1.4518  0.1991
 7780SOL     OW34975   3.241   2.782   9.719  0.0576 -0.7392 -0.1789
 7780SOL    HW134976   3.299   2.712   9.748  0.3833 -0.4362 -0.0908
 7780SOL    HW234977   3.304   2.851   9.699 -1.8614  1.0739  0.0325
 7781SOL     OW34978   3.186   1.847   6.199  0.4453  0.0452 -0.2945
 7781SOL    HW134979   3.173   1.920   6.139 -2.1250 -0.5051 -0.3943
 7781SOL    HW234980   3.197   1.784   6.129 -4.6283 -0.6846 -0.4009
 7782SOL     OW34981   4.366   2.647  14.989 -0.2933 -0.1069  0.0783
 7782SOL    HW134982   4.393   2.702  15.062  2.8378  0.4236 -1.5213
 7782SOL    HW234983   4.390   2.557  15.012 -1.7351 -0.5231  0.0126
 7783SOL     OW34984   4.525   3.912   6.795  0.0144 -0.1081 -0.3871
 7783SOL    HW134985   4.586   3.985   6.784 -0.0652  0.2490  1.5962
 7783SOL    HW234986   4.485   3.945   6.876  0.0804 -2.3761  0.5683
 7784SOL     OW34987   0.604   4.347   7.639  0.1311  0.2777  0.1795
 7784SOL    HW134988   0.538   4.306   7.584  2.1535  0.7248 -2.6020
 7784SOL    HW234989   0.574   4.437   7.632 -2.5169 -0.4778  1.9587
 7785SOL     OW34990   0.711   1.526   4.095 -0.0113  0.4868 -0.3481
 7785SOL    HW134991   0.617   1.510   4.089  0.1452 -1.6064  2.6763
 7785SOL    HW234992   0.749   1.480   4.020 -2.7381  0.3472 -1.6408
 7786SOL     OW34993   0.365   3.710   9.641 -0.6245  0.0976  0.6086
 7786SOL    HW134994   0.394   3.796   9.612 -1.0566  0.7053  1.9936
 7786SOL    HW234995   0.387   3.650   9.570 -0.6029  0.1113  0.6037
 7787SOL     OW34996   1.698   0.058   1.785  0.2021  0.0175  0.7204
 7787SOL    HW134997   1.671   0.083   1.697  1.8070  0.5335  0.3749
 7787SOL    HW234998   1.655   0.127   1.836 -0.6857 -0.5586  0.7486
 7788SOL     OW34999   1.418   3.569   3.340  0.8020 -0.1033  0.0569
 7788SOL    HW135000   1.461   3.581   3.424  1.0232 -1.1908  0.1090
 7788SOL    HW235001   1.327   3.597   3.355  0.5592 -0.9091  0.1035
 7789SOL     OW35002   1.256   1.591   2.980  0.3280 -0.0334  0.0502
 7789SOL    HW135003   1.227   1.531   3.049  0.6426 -2.2908 -1.7842
 7789SOL    HW235004   1.169   1.613   2.947 -0.5473 -1.8358  1.1708
 7790SOL     OW35005   0.218   0.070   8.841  0.0132 -0.2007  0.3130
 7790SOL    HW135006   0.299   0.088   8.794  1.6341 -3.2680  1.9406
 7790SOL    HW235007   0.263   0.037   8.919  0.7002 -1.6875 -0.7101
 7791SOL     OW35008   3.162   2.120   5.118 -0.1317 -0.5201 -0.7474
 7791SOL    HW135009   3.244   2.161   5.143 -0.1783 -0.4217 -0.7543
 7791SOL    HW235010   3.179   2.026   5.118  4.0340  0.2238  1.5649
 7792SOL     OW35011   2.204   3.251   8.115  0.2646  0.0674 -0.3049
 7792SOL    HW135012   2.277   3.235   8.055  0.1763  1.0374 -0.6714
 7792SOL    HW235013   2.248   3.302   8.184  0.0637 -0.9139  0.5485
 7793SOL     OW35014   0.996   0.777  12.301  0.0424  0.1688 -0.3821
 7793SOL    HW135015   1.039   0.842  12.245 -3.3060  1.5283 -1.3718
 7793SOL    HW235016   1.069   0.745  12.354  1.0613  0.6005 -1.5232
 7794SOL     OW35017   3.283   1.906   5.456  0.0090 -0.2510  0.1976
 7794SOL    HW135018   3.282   2.001   5.466  0.7218  0.0776 -2.9321
 7794SOL    HW235019   3.237   1.872   5.533 -2.5109  1.3575 -0.6311
 7795SOL     OW35020   2.181   1.753   4.674  0.4484  0.0824  0.0740
 7795SOL    HW135021   2.170   1.741   4.580 -1.2904 -1.7435  0.5162
 7795SOL    HW235022   2.234   1.675   4.689  0.5530 -0.1383 -1.4513
 7796SOL     OW35023   1.734   1.943  13.094  0.2865 -0.3180 -0.0089
 7796SOL    HW135024   1.653   1.961  13.141  0.3572  1.2217 -0.4817
 7796SOL    HW235025   1.746   1.850  13.112 -2.9952 -1.0234 -1.4188
 7797SOL     OW35026   0.536   0.619   2.185  0.2977 -0.1428 -0.0337
 7797SOL    HW135027   0.521   0.699   2.235 -5.5235 -0.8311 -0.6928
 7797SOL    HW235028   0.524   0.660   2.099 -1.0533 -1.2655 -0.3857
 7798SOL     OW35029   4.423   2.303   6.658 -0.8256  0.3493  0.1212
 7798SOL    HW135030   4.351   2.251   6.623  0.6812 -0.7053 -1.4052
 7798SOL    HW235031   4.464   2.333   6.577 -1.2531 -0.8205 -0.5289
 7799SOL     OW35032   2.016   4.700   4.893 -0.1032  0.2498  0.5469
 7799SOL    HW135033   2.011   4.725   4.985 -0.0631 -1.4555  1.0275
 7799SOL    HW235034   2.056   4.613   4.903  0.3133  0.6710  2.5348
 7800SOL     OW35035   3.204   3.132   7.201  0.3181 -0.8789  0.2224
 7800SOL    HW135036   3.131   3.157   7.257 -1.5781 -0.9274 -2.1740
 7800SOL    HW235037   3.233   3.214   7.161 -0.7098 -1.0691 -0.9373
 7801SOL     OW35038   1.606   2.774   4.422 -0.2262 -0.0419  0.0993
 7801SOL    HW135039   1.518   2.810   4.408  0.0645  1.0946  1.1801
 7801SOL    HW235040   1.608   2.699   4.364 -0.6045  0.2728 -0.3259
 7802SOL     OW35041   3.481   0.453  11.237 -0.2057 -0.1032 -0.3057
 7802SOL    HW135042   3.396   0.484  11.205 -0.7089 -0.5423  0.6290
 7802SOL    HW235043   3.535   0.463  11.158 -0.0032  0.7597 -0.0564
 7803SOL     OW35044   1.064   3.370   3.990 -0.2321 -0.3013 -0.1767
 7803SOL    HW135045   0.993   3.357   3.927 -0.8758 -2.4105  0.9932
 7803SOL    HW235046   1.017   3.365   4.073 -0.3373  0.5757 -0.1815
 7804SOL     OW35047   2.619   1.410   1.976 -0.4541 -0.2779  0.1669
 7804SOL    HW135048   2.561   1.485   1.959 -1.5820 -0.5541  2.7097
 7804SOL    HW235049   2.572   1.339   1.931  1.5619 -0.8180 -1.0610
 7805SOL     OW35050   1.576   1.722   0.797 -0.1209  0.2516 -0.0970
 7805SOL    HW135051   1.647   1.675   0.840  1.6292  2.5522 -0.5048
 7805SOL    HW235052   1.621   1.734   0.713  0.5714  3.7724  0.7823
 7806SOL     OW35053   2.928   4.247   2.905 -0.2783  0.3769  0.3743
 7806SOL    HW135054   3.017   4.280   2.890  0.0810 -1.5298 -1.8065
 7806SOL    HW235055   2.883   4.329   2.891  1.3016  0.9420 -1.4713
 7807SOL     OW35056   4.139   4.211  16.045  0.1241  0.3973  0.4851
 7807SOL    HW135057   4.104   4.204  15.956  1.8460  0.2432 -0.1644
 7807SOL    HW235058   4.199   4.286  16.039 -0.0408  0.4788 -0.1729
 7808SOL     OW35059   2.241   1.174   7.095  0.3692 -0.0461 -0.1278
 7808SOL    HW135060   2.300   1.099   7.088 -0.0052 -0.0246 -3.5740
 7808SOL    HW235061   2.155   1.132   7.096  0.3609  0.0504  2.5623
 7809SOL     OW35062   2.245   3.195  14.285  0.6145 -0.6707  0.6842
 7809SOL    HW135063   2.309   3.225  14.220  0.4333 -2.6006 -0.3850
 7809SOL    HW235064   2.279   3.108  14.307  0.5536 -0.1996  2.6251
 7810SOL     OW35065   3.068   0.395   6.533  0.0856  0.2493 -0.1718
 7810SOL    HW135066   3.111   0.312   6.517 -1.1050 -0.4440  0.1943
 7810SOL    HW235067   3.009   0.367   6.603 -0.4845 -0.7640 -1.0535
 7811SOL     OW35068   4.150   2.100   0.161  0.5444 -0.3646 -0.0908
 7811SOL    HW135069   4.204   2.023   0.139 -0.6550 -1.0586 -0.6277
 7811SOL    HW235070   4.082   2.070   0.221 -0.4389 -1.5752 -1.7835
 7812SOL     OW35071   3.833   1.483  14.366  0.0918 -0.8673 -0.2886
 7812SOL    HW135072   3.804   1.392  14.356  0.3879 -1.0996  0.9668
 7812SOL    HW235073   3.744   1.517  14.358  0.0618 -0.1392  3.2976
 7813SOL     OW35074   4.139   4.527  16.634  0.4629 -0.4470  0.0103
 7813SOL    HW135075   4.151   4.439  16.598 -0.2539 -1.5937  2.5483
 7813SOL    HW235076   4.095   4.501  16.715 -1.5236  0.7247 -0.6954
 7814SOL     OW35077   4.010   3.483   4.311 -0.1493 -0.6027 -0.0855
 7814SOL    HW135078   3.953   3.445   4.245 -0.2481  2.0956 -1.5299
 7814SOL    HW235079   3.947   3.529   4.366  2.3139  0.7494  1.6084
 7815SOL     OW35080   3.117   2.121   8.781 -0.1437 -0.4414 -0.3170
 7815SOL    HW135081   3.122   2.027   8.795 -0.0756 -0.6980 -1.9695
 7815SOL    HW235082   3.028   2.149   8.803  0.6149  2.2579 -0.6587
 7816SOL     OW35083   3.248   3.636   9.873  0.0819 -0.1286  0.3258
 7816SOL    HW135084   3.273   3.581   9.799 -0.0051 -0.3311  0.4466
 7816SOL    HW235085   3.334   3.677   9.881 -0.4640  0.9354  0.6931
 7817SOL     OW35086   0.240   1.254  17.200  0.7369 -0.3730 -0.0983
 7817SOL    HW135087   0.159   1.210  17.226  1.3530 -1.9299 -0.7913
 7817SOL    HW235088   0.205   1.334  17.163 -0.3712 -0.5836  0.4975
 7818SOL     OW35089   3.037   2.011   7.463 -0.0759 -0.0033  0.3703
 7818SOL    HW135090   2.992   2.030   7.545 -2.3126  0.6058 -1.0203
 7818SOL    HW235091   3.119   2.061   7.474 -0.2371  0.3028  0.1746
 7819SOL     OW35092   3.856   4.030   0.778  0.5033  0.4744  0.0489
 7819SOL    HW135093   3.888   3.959   0.724 -0.9635 -0.3218  0.2138
 7819SOL    HW235094   3.879   3.995   0.864 -1.9696 -2.4065 -0.4533
 7820SOL     OW35095   0.374   3.572   0.884 -0.2120  0.0297  0.0396
 7820SOL    HW135096   0.295   3.518   0.888 -0.9011  0.8760 -2.1876
 7820SOL    HW235097   0.391   3.569   0.790 -0.1893  3.0530 -0.0641
 7821SOL     OW35098   3.985   1.899   3.807  0.2518  0.6751  0.2601
 7821SOL    HW135099   3.934   1.820   3.789 -1.3547  1.5402  0.9818
 7821SOL    HW235100   4.071   1.862   3.788 -0.4372 -0.9314  0.2310
 7822SOL     OW35101   3.064   0.720  16.903 -0.4689 -0.7155  0.3963
 7822SOL    HW135102   2.980   0.730  16.950  1.0325  5.1823  1.9086
 7822SOL    HW235103   3.040   0.697  16.814 -0.3532  3.0832 -0.6310
 7823SOL     OW35104   4.470   3.439  13.826 -0.2614  0.2921  0.3344
 7823SOL    HW135105   4.383   3.435  13.865 -0.1195  2.4191  0.8593
 7823SOL    HW235106   4.495   3.531  13.837 -1.8488  0.9352 -1.5616
 7824SOL     OW35107   4.647   3.732   5.355 -0.2344 -0.1916 -0.5791
 7824SOL    HW135108   4.578   3.770   5.410  1.3716  2.0614 -0.1348
 7824SOL    HW235109   4.624   3.639   5.353  1.3602 -0.5465 -1.9228
 7825SOL     OW35110   3.346   2.998  11.744 -0.5137  0.1716  0.2327
 7825SOL    HW135111   3.268   3.051  11.757 -1.0985 -0.3522 -1.1050
 7825SOL    HW235112   3.322   2.907  11.764  0.4384 -0.4661 -1.5016
 7826SOL     OW35113   0.903   3.547   3.555 -0.0447 -0.4694 -0.5674
 7826SOL    HW135114   0.834   3.533   3.619  0.4650 -1.6011 -0.2536
 7826SOL    HW235115   0.855   3.581   3.479 -0.5027 -0.2098 -0.1604
 7827SOL     OW35116   0.461   4.604   9.427 -0.5139 -0.1133  0.2632
 7827SOL    HW135117   0.399   4.533   9.413 -1.0347  0.2552  0.6805
 7827SOL    HW235118   0.539   4.554   9.452 -0.1880  0.8190  1.1262
 7828SOL     OW35119   4.161   2.900  15.014 -0.3140  0.1104 -0.5366
 7828SOL    HW135120   4.185   2.992  15.018 -0.6597  0.3848 -4.6020
 7828SOL    HW235121   4.129   2.884  15.103  0.3834  0.7089 -0.1843
 7829SOL     OW35122   4.373   1.460   3.623  0.0754  0.3035  0.3121
 7829SOL    HW135123   4.305   1.393   3.628 -0.7083  1.2270  2.0767
 7829SOL    HW235124   4.451   1.406   3.607 -0.0929  0.8401 -2.2776
 7830SOL     OW35125   2.375   3.097  12.590 -0.3196  0.2912  0.2415
 7830SOL    HW135126   2.298   3.040  12.581  0.8881 -1.2909  0.0992
 7830SOL    HW235127   2.344   3.151  12.663  1.1658  0.3585  0.8221
 7831SOL     OW35128   0.017   2.102   0.925  0.3945 -0.2276  0.2125
 7831SOL    HW135129   0.081   2.040   0.892 -0.0636 -0.6288  0.0765
 7831SOL    HW235130   0.045   2.177   0.872 -1.8951 -0.1007 -0.8704
 7832SOL     OW35131   2.986   0.525   3.873  0.1117  0.3402 -0.4089
 7832SOL    HW135132   3.015   0.497   3.959 -0.2756  3.0922  0.6096
 7832SOL    HW235133   2.985   0.448   3.816  1.0192  0.7724 -1.0100
 7833SOL     OW35134   0.229   3.911   9.155 -0.2102  0.4473 -0.3637
 7833SOL    HW135135   0.272   3.845   9.100  1.6985  1.1707  0.2573
 7833SOL    HW235136   0.186   3.963   9.086 -0.8797  0.8264  0.3471
 7834SOL     OW35137   3.541   3.336   8.298  0.4888 -0.1945 -0.0945
 7834SOL    HW135138   3.623   3.361   8.341 -0.7036  2.0356  0.8897
 7834SOL    HW235139   3.555   3.270   8.230  2.2064 -1.1819  1.2327
 7835SOL     OW35140   4.093   2.862   7.136 -0.2920 -0.0418 -0.1702
 7835SOL    HW135141   3.999   2.874   7.129 -0.3870 -0.2422  0.7404
 7835SOL    HW235142   4.116   2.800   7.067  0.8962  1.0609 -0.7733
 7836SOL     OW35143   3.016   0.836   9.938  0.1081 -0.3588 -0.0346
 7836SOL    HW135144   3.023   0.751   9.893  2.0326 -1.3534  2.1480
 7836SOL    HW235145   2.950   0.811  10.004  0.1620 -0.8185 -0.1511
 7837SOL     OW35146   3.228   2.621  16.561  0.1555 -0.0489  0.6774
 7837SOL    HW135147   3.166   2.652  16.496 -0.3682 -0.9610  0.7412
 7837SOL    HW235148   3.267   2.542  16.523 -1.1145 -0.2283 -0.2659
 7838SOL     OW35149   3.187   0.113   7.843  0.0169  0.5101  0.4567
 7838SOL    HW135150   3.092   0.107   7.854  0.0243 -1.4443 -0.4829
 7838SOL    HW235151   3.190   0.205   7.818 -1.1465 -0.0281 -1.6088
 7839SOL     OW35152   1.587   0.172  12.203 -0.2816  0.0258  0.1972
 7839SOL    HW135153   1.640   0.117  12.146 -0.9166  0.6898 -1.0560
 7839SOL    HW235154   1.598   0.256  12.157 -0.1175  0.1134  0.4007
 7840SOL     OW35155   0.400   3.031   1.284  0.4880 -0.0628  0.4095
 7840SOL    HW135156   0.419   3.039   1.377 -1.3004 -0.7080  0.8248
 7840SOL    HW235157   0.355   2.947   1.297 -0.5685  0.4750  0.2248
 7841SOL     OW35158   4.256   3.883   7.696  0.2368 -0.3337 -0.6851
 7841SOL    HW135159   4.235   3.976   7.705  3.2840  0.1318  1.5339
 7841SOL    HW235160   4.172   3.844   7.719 -0.1398  0.1399 -1.2854
 7842SOL     OW35161   3.561   2.133   3.495  0.0462  0.1329  0.2607
 7842SOL    HW135162   3.643   2.105   3.536 -0.7426 -2.6288 -0.0185
 7842SOL    HW235163   3.563   2.064   3.429 -0.3084  0.6399 -0.2750
 7843SOL     OW35164   4.200   1.986   3.490  0.1718  0.2296 -0.3845
 7843SOL    HW135165   4.228   2.075   3.510  0.8571  0.5464 -2.8010
 7843SOL    HW235166   4.265   1.929   3.532  2.4248  1.1656 -2.6032
 7844SOL     OW35167   2.378   0.757  16.127 -0.7751  0.4271 -0.7499
 7844SOL    HW135168   2.398   0.828  16.066 -0.4742 -0.3606 -1.5715
 7844SOL    HW235169   2.342   0.797  16.206  1.1827  0.3769  0.1687
 7845SOL     OW35170   2.058   1.505   6.816  0.3077 -0.4772  0.2001
 7845SOL    HW135171   1.988   1.534   6.875 -0.1595 -2.4550  0.6200
 7845SOL    HW235172   2.008   1.431   6.784  0.1472  0.3673 -1.4727
 7846SOL     OW35173   3.824   3.665  13.061 -0.4510  0.4600  0.2473
 7846SOL    HW135174   3.745   3.637  13.108  0.6366  0.0464  1.8086
 7846SOL    HW235175   3.851   3.594  13.003  0.7067  0.4500  0.8125
 7847SOL     OW35176   3.321   2.469   7.167  0.6587 -0.3364 -0.3001
 7847SOL    HW135177   3.288   2.520   7.093 -4.1627 -0.4499  1.8359
 7847SOL    HW235178   3.242   2.429   7.204  0.2308  0.4368 -0.3840
 7848SOL     OW35179   2.690   3.721  11.451 -0.0384 -0.0186 -0.3098
 7848SOL    HW135180   2.668   3.803  11.408  2.9269  2.0896  2.1902
 7848SOL    HW235181   2.711   3.674  11.370  0.9935  1.1956 -0.7399
 7849SOL     OW35182   4.093   2.393   5.780 -0.2430 -0.0324 -0.2403
 7849SOL    HW135183   4.106   2.468   5.722 -2.1497  1.4125  1.2294
 7849SOL    HW235184   4.078   2.330   5.710  0.1524 -0.6104  0.1939
 7850SOL     OW35185   3.442   1.913   0.201 -0.1266  0.6020 -0.3073
 7850SOL    HW135186   3.506   1.979   0.229  2.2226 -2.2139  0.9811
 7850SOL    HW235187   3.374   1.967   0.162 -1.2091  0.1461  0.9180
 7851SOL     OW35188   4.451   2.014   9.191  0.0644 -0.6565 -0.0546
 7851SOL    HW135189   4.497   2.053   9.117 -2.2530  2.0993 -0.0406
 7851SOL    HW235190   4.414   2.084   9.245  2.1495 -0.8338  1.6233
 7852SOL     OW35191   4.303   3.415  11.733  0.2031 -0.0801  0.3159
 7852SOL    HW135192   4.220   3.373  11.713 -0.8780  0.9591  2.6118
 7852SOL    HW235193   4.302   3.407  11.828  0.0595  0.2096  0.3404
 7853SOL     OW35194   4.227   1.492   9.889 -0.4789 -0.0883 -0.3007
 7853SOL    HW135195   4.311   1.447   9.897 -1.9226 -2.9630 -1.4487
 7853SOL    HW235196   4.209   1.483   9.795 -0.8343 -1.0118 -0.1372
 7854SOL     OW35197   3.041   3.016   9.713 -0.5543  0.2497 -0.7490
 7854SOL    HW135198   3.066   2.998   9.622 -2.6951 -1.7166 -0.9222
 7854SOL    HW235199   3.041   2.935   9.764  0.5709  0.5439 -0.2672
 7855SOL     OW35200   2.284   0.830   6.768  0.4416 -0.7832  0.4357
 7855SOL    HW135201   2.224   0.780   6.822  0.6267  0.0483  1.4171
 7855SOL    HW235202   2.225   0.899   6.737 -0.2139 -0.9299  1.3769
 7856SOL     OW35203   3.773   2.973   8.531 -0.1320  0.4056 -0.1901
 7856SOL    HW135204   3.809   2.922   8.603  2.3424 -0.9465 -2.3755
 7856SOL    HW235205   3.806   3.063   8.540 -0.3315  0.2090  2.3532
 7857SOL     OW35206   2.284   2.712   7.006 -0.4404 -0.0410 -0.3503
 7857SOL    HW135207   2.296   2.755   6.921  1.1617 -1.4938 -0.8528
 7857SOL    HW235208   2.342   2.761   7.065 -1.8639 -0.5853  1.4890
 7858SOL     OW35209   1.118   4.533   0.645 -0.4994 -0.3116 -0.2097
 7858SOL    HW135210   1.104   4.503   0.556  1.0215 -0.4704 -0.4057
 7858SOL    HW235211   1.171   4.461   0.679  0.8215  0.4330 -0.6682
 7859SOL     OW35212   4.336   3.854   9.525 -0.6201 -0.1274  0.2915
 7859SOL    HW135213   4.262   3.903   9.562 -0.6475 -0.1690  0.2915
 7859SOL    HW235214   4.400   3.925   9.529 -1.9360  0.9600  1.7440
 7860SOL     OW35215   3.305   4.542  12.157  0.0808  0.0121 -0.3852
 7860SOL    HW135216   3.229   4.600  12.150  0.3871  0.5455  0.6911
 7860SOL    HW235217   3.270   4.454  12.168 -0.1292 -0.0914 -1.8234
 7861SOL     OW35218   3.696   3.055  13.039  0.0253 -0.3845 -0.1515
 7861SOL    HW135219   3.744   2.977  13.067 -0.9987 -0.0859  2.4830
 7861SOL    HW235220   3.624   3.010  12.995 -0.9035  1.3592 -0.4099
 7862SOL     OW35221   1.749   0.097   4.710 -0.4342 -0.4957  0.3387
 7862SOL    HW135222   1.829   0.116   4.760 -0.6482 -0.2492  0.5817
 7862SOL    HW235223   1.706   0.182   4.716  3.9347  1.6979  0.6175
 7863SOL     OW35224   0.331   0.676   0.237  0.3791  0.1199 -0.4539
 7863SOL    HW135225   0.364   0.663   0.148  0.0448  1.9895 -0.8429
 7863SOL    HW235226   0.321   0.771   0.246 -0.0261  0.0649 -0.3608
 7864SOL     OW35227   1.231   4.043   5.672  0.0275 -0.3881  0.0859
 7864SOL    HW135228   1.323   4.070   5.669 -0.4818  1.2544 -0.4024
 7864SOL    HW235229   1.210   4.027   5.764  1.4613  0.7177  0.6082
 7865SOL     OW35230   3.491   2.996   0.003 -0.0355 -0.3488 -0.5288
 7865SOL    HW135231   3.407   3.037   0.024  0.6732 -0.0021  1.5693
 7865SOL    HW235232   3.534   3.027   0.082 -1.8801  0.2448  0.2346
 7866SOL     OW35233   1.774   3.102   6.934 -0.0951 -0.6212 -0.3078
 7866SOL    HW135234   1.863   3.068   6.924 -0.4287 -1.3611 -0.7622
 7866SOL    HW235235   1.770   3.152   6.853  1.5924  1.3434  0.8295
 7867SOL     OW35236   2.189   3.927   7.161 -0.7662  0.0932  0.6637
 7867SOL    HW135237   2.213   3.975   7.082  2.1444  2.3198  2.8953
 7867SOL    HW235238   2.266   3.870   7.157 -2.2388 -1.8717  0.5489
 7868SOL     OW35239   2.554   4.654  17.131 -0.2464 -0.2504  0.1829
 7868SOL    HW135240   2.642   4.626  17.105  0.1504 -1.1771  2.5207
 7868SOL    HW235241   2.522   4.715  17.065 -0.0809 -0.4620 -0.0962
 7869SOL     OW35242   4.007   0.775   9.725 -0.0561 -0.1709  0.5519
 7869SOL    HW135243   4.094   0.743   9.703  0.1080 -0.8717  2.1906
 7869SOL    HW235244   3.998   0.838   9.654 -3.6498 -0.2300  0.9485
 7870SOL     OW35245   1.120   3.012   6.944 -0.2567 -0.2087  0.2336
 7870SOL    HW135246   1.185   3.046   6.884 -0.4014 -1.5220 -0.6727
 7870SOL    HW235247   1.162   2.931   6.974  1.9162  1.0303  0.4831
 7871SOL     OW35248   2.220   0.069  11.183 -0.0300 -0.0322 -0.3375
 7871SOL    HW135249   2.180   0.029  11.260 -0.1146  0.6605 -0.0228
 7871SOL    HW235250   2.164   0.026  11.118  0.4820 -2.1483  0.6404
 7872SOL     OW35251   1.868   3.338   4.153  0.1168  0.2498  0.0217
 7872SOL    HW135252   1.863   3.363   4.245  1.9120 -1.9430  0.6980
 7872SOL    HW235253   1.948   3.378   4.120  0.9420 -1.7584 -0.3891
 7873SOL     OW35254   3.627   3.947  14.830 -0.3008  0.1020  0.2660
 7873SOL    HW135255   3.662   3.886  14.894  1.8275  2.1956  1.0710
 7873SOL    HW235256   3.533   3.944  14.851  0.2969 -2.3851  2.5637
 7874SOL     OW35257   2.046   1.771   7.189  0.4715  0.6775 -0.1488
 7874SOL    HW135258   2.087   1.686   7.209 -1.4096 -0.4187 -0.9458
 7874SOL    HW235259   2.115   1.811   7.137  0.3730  0.0009 -0.8072
 7875SOL     OW35260   0.489   0.897   7.383  0.3289 -0.1168  0.1156
 7875SOL    HW135261   0.547   0.945   7.324  0.9608  1.7278  2.2342
 7875SOL    HW235262   0.497   0.958   7.456 -1.1020  1.4053 -0.9959
 7876SOL     OW35263   2.497   3.774   3.004  0.4281 -0.1965  0.3490
 7876SOL    HW135264   2.442   3.820   2.941  0.9335  1.0881  0.8564
 7876SOL    HW235265   2.447   3.696   3.029 -0.8253  0.5853  0.2952
 7877SOL     OW35266   1.890   0.093   3.337  0.4646  0.6130 -0.1958
 7877SOL    HW135267   1.949   0.072   3.265  1.4700 -1.6145  1.2870
 7877SOL    HW235268   1.932   0.049   3.411 -0.2049 -0.1493 -0.2627
 7878SOL     OW35269   3.858   4.256   6.964  0.8165  0.2805 -0.0261
 7878SOL    HW135270   3.930   4.213   7.011  1.9270  0.9431 -1.1072
 7878SOL    HW235271   3.797   4.184   6.945  0.0862  1.0962 -0.7363
 7879SOL     OW35272   2.258   1.296  14.977  0.0278  0.3081 -0.6248
 7879SOL    HW135273   2.298   1.243  15.046 -3.0585 -2.1123 -0.6844
 7879SOL    HW235274   2.205   1.230  14.932  0.7758 -1.0646  0.4897
 7880SOL     OW35275   1.930   3.040  14.982  0.1071  0.1926 -0.0493
 7880SOL    HW135276   1.838   3.059  14.962 -0.7522 -3.1096  0.7979
 7880SOL    HW235277   1.923   3.014  15.074  1.9112  3.0520  0.8949
 7881SOL     OW35278   3.292   4.188   2.652 -0.0819  0.2300 -0.1114
 7881SOL    HW135279   3.248   4.267   2.682 -0.8203  0.6864 -2.3803
 7881SOL    HW235280   3.366   4.176   2.712  1.0903 -0.4205 -1.7093
 7882SOL     OW35281   1.870   1.851   3.806  0.2269  0.7291  0.5910
 7882SOL    HW135282   1.948   1.854   3.862  0.4278 -1.7734  0.4186
 7882SOL    HW235283   1.790   1.872   3.854  0.0796  1.2130  0.1394
 7883SOL     OW35284   0.938   4.114   1.671  0.6057 -0.2714  0.0386
 7883SOL    HW135285   0.846   4.139   1.678  0.6761 -0.0196  0.0438
 7883SOL    HW235286   0.983   4.177   1.616 -1.7623 -0.5611 -2.2041
 7884SOL     OW35287   2.188   0.909  11.474 -0.2448  0.1369  0.1152
 7884SOL    HW135288   2.116   0.966  11.500 -1.1594 -0.5609 -0.9091
 7884SOL    HW235289   2.259   0.970  11.456  0.7021 -0.7245  0.9279
 7885SOL     OW35290   2.435   4.027   5.208 -0.4618 -0.3026  0.0421
 7885SOL    HW135291   2.472   3.960   5.265  1.0625  1.0655  0.6901
 7885SOL    HW235292   2.386   3.978   5.142 -0.1971 -0.5213  0.0079
 7886SOL     OW35293   3.533   4.167   8.328  0.2620 -0.0877  0.3566
 7886SOL    HW135294   3.453   4.116   8.343  0.3533  0.1896  1.8532
 7886SOL    HW235295   3.594   4.104   8.366 -2.4037 -1.8498  1.7792
 7887SOL     OW35296   1.693   2.813   7.911 -0.1089 -0.1893  0.5589
 7887SOL    HW135297   1.709   2.853   7.996  1.6866 -0.8591  0.5405
 7887SOL    HW235298   1.604   2.842   7.893 -0.3603 -1.5314 -0.3711
 7888SOL     OW35299   1.385   1.196  13.130  0.2065  0.3916 -0.2312
 7888SOL    HW135300   1.307   1.168  13.177  1.6866 -0.9995  1.3808
 7888SOL    HW235301   1.458   1.191  13.192 -0.3808 -0.0704  0.4226
 7889SOL     OW35302   0.517   0.537   1.089  0.7589  0.2641 -0.0021
 7889SOL    HW135303   0.491   0.519   1.179  1.2732  1.2967  0.3616
 7889SOL    HW235304   0.579   0.608   1.106 -0.5814  1.4080  0.0957
 7890SOL     OW35305   2.407   1.987   2.049 -0.6750  0.1188 -0.4589
 7890SOL    HW135306   2.381   2.058   1.990  0.1227 -0.4592 -1.4934
 7890SOL    HW235307   2.472   1.949   1.991 -0.8473  0.0444 -0.6042
 7891SOL     OW35308   0.537   4.604  13.270 -0.1629 -0.2421 -0.5613
 7891SOL    HW135309   0.456   4.597  13.320 -1.8569  0.0687 -3.2488
 7891SOL    HW235310   0.537   4.695  13.240  0.1967 -0.6054 -1.6928
 7892SOL     OW35311   3.535   4.688   9.010 -0.2819  0.2875 -0.1859
 7892SOL    HW135312   3.471   4.662   9.076 -0.1402 -0.3313 -0.2932
 7892SOL    HW235313   3.477   4.730   8.947  1.9530 -1.1311 -3.1514
 7893SOL     OW35314   3.814   2.452   8.616  0.4066  0.2147 -0.0246
 7893SOL    HW135315   3.899   2.492   8.598  0.1700  0.2557 -1.0107
 7893SOL    HW235316   3.808   2.489   8.704  0.5582 -1.2768  0.6273
 7894SOL     OW35317   3.470   0.656   4.498 -0.2530 -0.3001  0.4007
 7894SOL    HW135318   3.481   0.715   4.424  3.2397 -0.3334  0.8658
 7894SOL    HW235319   3.381   0.621   4.492 -0.3815  0.3111 -1.1600
 7895SOL     OW35320   3.948   2.233   9.463  0.8231  0.1439 -0.1583
 7895SOL    HW135321   3.885   2.250   9.393  2.0723  2.1822 -0.8143
 7895SOL    HW235322   3.917   2.293   9.531 -0.0771  0.1313 -0.5591
 7896SOL     OW35323   3.384   2.136  12.325  0.1481  0.3343  0.2466
 7896SOL    HW135324   3.353   2.053  12.291  1.2632 -0.2880  0.7712
 7896SOL    HW235325   3.406   2.194  12.252 -0.5563  0.9988  0.5634
 7897SOL     OW35326   3.784   4.138  14.704 -0.2325 -0.0912 -0.1375
 7897SOL    HW135327   3.718   4.093  14.758  1.6260 -0.6215  1.7121
 7897SOL    HW235328   3.861   4.127  14.760  0.6803 -0.3937 -1.4569
 7898SOL     OW35329   3.025   3.209   4.417 -0.1857  0.3135 -0.0012
 7898SOL    HW135330   3.064   3.291   4.387 -1.1058  0.1983 -1.5418
 7898SOL    HW235331   2.931   3.229   4.418  0.0706  1.3023  3.3903
 7899SOL     OW35332   2.730   4.164   7.795  0.2035  0.0701 -0.3799
 7899SOL    HW135333   2.772   4.096   7.742  0.4098  0.6379 -0.9423
 7899SOL    HW235334   2.706   4.230   7.730  0.2244 -0.9750 -1.4478
 7900SOL     OW35335   2.105   4.197   7.962 -0.4919 -0.5050  0.4006
 7900SOL    HW135336   2.013   4.179   7.982 -0.2399 -2.5133 -0.2375
 7900SOL    HW235337   2.103   4.154   7.877 -0.6249 -0.8196  0.5607
 7901SOL     OW35338   4.194   4.541   8.255 -0.0406  0.1779 -0.5025
 7901SOL    HW135339   4.121   4.479   8.260  0.2051 -0.1394 -0.8113
 7901SOL    HW235340   4.167   4.627   8.287 -1.1305 -0.2608 -0.2665
 7902SOL     OW35341   2.970   4.376   3.786  0.5072  0.1403  0.0658
 7902SOL    HW135342   2.985   4.345   3.697  0.8921  0.6611 -0.0483
 7902SOL    HW235343   3.022   4.314   3.838 -0.7209 -1.0895 -0.1935
 7903SOL     OW35344   0.406   1.630  13.105 -0.1242 -0.8099 -0.9263
 7903SOL    HW135345   0.415   1.602  13.014  0.0004 -0.6409 -0.9649
 7903SOL    HW235346   0.330   1.577  13.129 -0.4960 -0.0063 -0.3384
 7904SOL     OW35347   4.155   2.697   8.969 -0.0146 -0.0183 -0.1817
 7904SOL    HW135348   4.249   2.691   8.953  0.5433  1.0724  2.6992
 7904SOL    HW235349   4.139   2.609   9.002 -0.3182  0.1560  0.1433
 7905SOL     OW35350   1.905   3.782   2.276  0.1088  0.0596 -0.1494
 7905SOL    HW135351   1.988   3.744   2.248  0.9038  0.3461  1.8566
 7905SOL    HW235352   1.850   3.761   2.201  0.8160 -0.6182 -0.4752
 7906SOL     OW35353   0.694   0.792   2.460 -0.2133 -0.3011  0.2778
 7906SOL    HW135354   0.606   0.774   2.492  0.5741 -1.8607  1.5546
 7906SOL    HW235355   0.736   0.723   2.511 -0.4186  1.0338  2.2649
 7907SOL     OW35356   0.759   1.510   9.265  0.1902  0.4031 -0.0409
 7907SOL    HW135357   0.816   1.575   9.224  0.4880 -1.2011 -2.1968
 7907SOL    HW235358   0.817   1.461   9.321  0.1391  0.4018  0.0107
 7908SOL     OW35359   3.728   3.165   8.124  0.0560  0.2206 -0.3604
 7908SOL    HW135360   3.731   3.088   8.180  2.0770  0.0258 -0.7494
 7908SOL    HW235361   3.812   3.203   8.148 -0.7561  1.7671  0.0803
 7909SOL     OW35362   0.445   2.224   4.804  0.6871  0.4136 -0.5658
 7909SOL    HW135363   0.475   2.315   4.795  0.6452  0.7302  2.7264
 7909SOL    HW235364   0.491   2.202   4.884  0.3210  1.4273 -0.0764
 7910SOL     OW35365   4.453   3.015   8.376 -0.3566  0.1875 -0.1485
 7910SOL    HW135366   4.537   3.044   8.411 -0.8360 -0.2935  1.3877
 7910SOL    HW235367   4.454   2.923   8.401  0.4882  0.1259 -0.4069
 7911SOL     OW35368   3.764   1.056   8.212 -0.0383 -0.3247  0.1299
 7911SOL    HW135369   3.709   1.097   8.145 -1.7900 -0.5607  1.4347
 7911SOL    HW235370   3.704   1.032   8.283 -0.0481  0.4753  0.3970
 7912SOL     OW35371   2.120   0.728   6.253  0.2032  0.6469 -0.2033
 7912SOL    HW135372   2.137   0.725   6.347 -0.4892 -2.0868 -0.1616
 7912SOL    HW235373   2.195   0.695   6.203 -1.9995 -0.1243 -3.0064
 7913SOL     OW35374   2.097   3.363   6.930 -0.0600  0.6720 -0.1427
 7913SOL    HW135375   2.008   3.386   6.956  0.6524  2.5475  0.6720
 7913SOL    HW235376   2.091   3.368   6.834  0.5024  2.1139 -0.1028
 7914SOL     OW35377   4.361   4.387   6.317 -0.1576  0.4560  0.5061
 7914SOL    HW135378   4.425   4.318   6.335 -1.3924 -0.8904 -0.2147
 7914SOL    HW235379   4.311   4.394   6.398  2.5614 -0.6791  2.2865
 7915SOL     OW35380   2.705   3.760   4.702 -0.2992  0.3566  0.2935
 7915SOL    HW135381   2.682   3.851   4.679  0.8487  0.7584  0.7637
 7915SOL    HW235382   2.623   3.713   4.684 -0.1740 -0.4582  1.8805
 7916SOL     OW35383   0.996   4.164   8.725 -0.1072  0.4671 -0.2246
 7916SOL    HW135384   1.058   4.191   8.658 -0.7250  0.9145 -0.6185
 7916SOL    HW235385   0.940   4.241   8.719 -1.5852 -0.5975 -0.3319
 7917SOL     OW35386   0.598   0.943   4.581 -0.1637 -0.0293 -0.2307
 7917SOL    HW135387   0.573   0.869   4.637  0.1438  0.2585  0.2876
 7917SOL    HW235388   0.683   0.967   4.617 -0.1468  1.5837 -1.3496
 7918SOL     OW35389   1.406   2.612   8.780  0.7390 -0.8829  0.1716
 7918SOL    HW135390   1.420   2.650   8.867  0.2811 -1.0980  0.3390
 7918SOL    HW235391   1.328   2.558   8.792  2.1183 -3.0963 -0.7774
 7919SOL     OW35392   0.339   0.061   7.826 -0.7170  0.1396  0.2020
 7919SOL    HW135393   0.417   0.116   7.815 -0.9772  0.7856  1.5352
 7919SOL    HW235394   0.345   0.023   7.739  2.0587  4.1288 -1.3460
 7920SOL     OW35395   3.417   0.944   2.777 -0.2689 -0.1565 -0.2477
 7920SOL    HW135396   3.395   1.028   2.737 -1.3724 -0.7672 -0.9208
 7920SOL    HW235397   3.482   0.906   2.718  0.9371 -1.4975  1.9432
 7921SOL     OW35398   2.242   1.507   3.813  0.0116 -0.1559 -0.1732
 7921SOL    HW135399   2.160   1.555   3.803 -0.0465 -0.6307 -1.9699
 7921SOL    HW235400   2.254   1.500   3.719  2.5561  0.3203  0.1338
 7922SOL     OW35401   2.146   2.155   8.317  0.3693 -0.0848 -0.0196
 7922SOL    HW135402   2.181   2.168   8.405 -2.0405  0.4356  0.8544
 7922SOL    HW235403   2.105   2.069   8.331 -2.4374  1.0539 -1.2278
 7923SOL     OW35404   3.555   2.838   5.665  0.6538  0.3202  0.0505
 7923SOL    HW135405   3.645   2.807   5.652  1.4922  2.7377  0.2265
 7923SOL    HW235406   3.563   2.926   5.629  0.9906  0.8713  1.4444
 7924SOL     OW35407   1.378   2.454  10.581 -0.4557 -0.0378 -0.1166
 7924SOL    HW135408   1.364   2.546  10.557  1.5174  0.7630  1.7542
 7924SOL    HW235409   1.290   2.419  10.594 -0.0124 -0.5013  1.5609
 7925SOL     OW35410   0.279   3.170   1.834  0.1043 -0.3402 -0.1107
 7925SOL    HW135411   0.338   3.238   1.865  0.3325 -0.8298  0.5272
 7925SOL    HW235412   0.204   3.200   1.883 -1.0304  1.2591 -2.8276
 7926SOL     OW35413   1.973   3.354   2.321  0.3012  0.2517  0.5746
 7926SOL    HW135414   1.891   3.316   2.292  0.3186  0.9866 -0.4274
 7926SOL    HW235415   1.993   3.293   2.392 -1.3856 -0.1910  0.6660
 7927SOL     OW35416   3.370   3.588   4.129  0.1621 -0.1139 -0.1502
 7927SOL    HW135417   3.450   3.585   4.183 -0.0231  1.5699  0.2116
 7927SOL    HW235418   3.306   3.636   4.181  0.3644  0.3317 -0.3083
 7928SOL     OW35419   1.528   2.490   5.364 -0.0995 -0.1806 -0.3149
 7928SOL    HW135420   1.618   2.467   5.340  0.9235  1.7421  1.6680
 7928SOL    HW235421   1.505   2.422   5.428  0.7533 -0.6094 -0.4586
 7929SOL     OW35422   2.606   1.844   8.529  0.3504  0.3987  0.0672
 7929SOL    HW135423   2.686   1.794   8.545 -0.7854 -1.0936  1.1229
 7929SOL    HW235424   2.654   1.925   8.512  0.3537  0.6105  1.0919
 7930SOL     OW35425   4.454   4.266   0.579 -0.2038 -0.4317  0.6785
 7930SOL    HW135426   4.512   4.314   0.520  0.0599 -1.1662  0.3481
 7930SOL    HW235427   4.470   4.176   0.553 -0.3533  0.0753 -1.1834
 7931SOL     OW35428   1.174   1.303   6.761 -0.3696  0.2692 -0.2652
 7931SOL    HW135429   1.103   1.354   6.723 -0.2666  2.3117  2.2771
 7931SOL    HW235430   1.245   1.305   6.698 -0.1258  1.2434  0.0352
 7932SOL     OW35431   2.405   1.862   5.414 -0.0198  0.1808 -0.2822
 7932SOL    HW135432   2.446   1.888   5.496  1.3757  0.7603 -1.1480
 7932SOL    HW235433   2.323   1.911   5.413  0.9962  1.8685  0.1089
 7933SOL     OW35434   4.099   2.263   7.340 -0.0579  0.2229 -0.7485
 7933SOL    HW135435   4.006   2.241   7.351  0.0707  0.7179  1.3144
 7933SOL    HW235436   4.100   2.346   7.387 -2.3032  0.1006 -0.4797
 7934SOL     OW35437   0.423   0.099   8.680  0.6494 -0.3848 -0.0266
 7934SOL    HW135438   0.481   0.154   8.629  0.4947 -0.2966 -0.1075
 7934SOL    HW235439   0.443   0.013   8.642 -0.0058 -0.2301 -0.7271
 7935SOL     OW35440   0.493   0.408   2.604 -0.1354  0.5034  0.1573
 7935SOL    HW135441   0.423   0.356   2.565 -1.3454  1.9505  0.3998
 7935SOL    HW235442   0.524   0.356   2.679  1.5646 -0.0371 -0.9325
 7936SOL     OW35443   2.179   4.351   6.417  0.1364 -0.1360 -0.6118
 7936SOL    HW135444   2.135   4.436   6.426  0.3973 -0.0200 -0.4375
 7936SOL    HW235445   2.266   4.388   6.408  0.4455 -0.9383 -0.9040
 7937SOL     OW35446   1.298   1.627   7.769  0.0447  0.2837 -0.1004
 7937SOL    HW135447   1.288   1.633   7.864  0.8325 -4.7228  0.2939
 7937SOL    HW235448   1.266   1.539   7.754  1.3189 -0.4178  1.2729
 7938SOL     OW35449   4.290   2.938   2.772 -0.3715  0.4905  0.1725
 7938SOL    HW135450   4.219   2.876   2.755  0.5430 -0.7032  0.6735
 7938SOL    HW235451   4.283   2.933   2.867  2.8458 -0.4102  0.3678
 7939SOL     OW35452   2.121   2.343   9.068 -0.0805  0.6548  0.3636
 7939SOL    HW135453   2.100   2.350   9.161  0.5627  1.5940  0.4326
 7939SOL    HW235454   2.212   2.373   9.072  0.1686  0.0879 -0.9295
 7940SOL     OW35455   2.251   3.399   1.336 -0.4747 -0.5067  0.2456
 7940SOL    HW135456   2.219   3.396   1.245 -1.2798 -1.0132  0.5353
 7940SOL    HW235457   2.344   3.396   1.313 -0.3887  2.2866  0.2199
 7941SOL     OW35458   3.111   0.893   5.883 -0.1680  0.2861  0.5046
 7941SOL    HW135459   3.048   0.889   5.955 -1.1808 -1.8527 -0.4991
 7941SOL    HW235460   3.191   0.866   5.928  1.0621  1.9278 -0.6954
 7942SOL     OW35461   4.555   2.449  12.719 -0.4221 -0.1259  0.2582
 7942SOL    HW135462   4.498   2.493  12.656 -0.6871 -3.5354 -1.8802
 7942SOL    HW235463   4.611   2.519  12.753 -1.9701  1.9513 -1.4162
 7943SOL     OW35464   3.239   2.178   8.529  0.0032  0.8476 -0.2710
 7943SOL    HW135465   3.330   2.157   8.549 -1.4157 -2.5012  2.6631
 7943SOL    HW235466   3.206   2.206   8.614 -0.0745 -2.4420  0.7815
 7944SOL     OW35467   0.707   3.370   7.611  0.3335 -0.5923  0.3266
 7944SOL    HW135468   0.678   3.294   7.561  0.6583 -1.8154  2.0416
 7944SOL    HW235469   0.690   3.356   7.704  2.4266  0.8837  0.9538
 7945SOL     OW35470   0.609   0.540  12.775  0.4850  0.9108 -0.0710
 7945SOL    HW135471   0.625   0.446  12.776 -0.5769  0.7516  0.9830
 7945SOL    HW235472   0.610   0.557  12.869 -0.8811 -0.1250  0.1270
 7946SOL     OW35473   1.616   1.057   4.437  0.1490  0.2463  0.4266
 7946SOL    HW135474   1.528   1.092   4.453  0.1033 -0.1254  0.9803
 7946SOL    HW235475   1.638   1.005   4.514  1.0990  0.4318  0.2791
 7947SOL     OW35476   1.193   3.378   7.995  0.6718  0.5873 -0.3854
 7947SOL    HW135477   1.266   3.432   8.026  1.5491 -0.3219 -0.8361
 7947SOL    HW235478   1.113   3.426   8.014 -0.7366 -1.4187 -1.2496
 7948SOL     OW35479   0.706   3.187   7.403 -0.2570  0.2522  0.1956
 7948SOL    HW135480   0.798   3.207   7.421 -0.4649  1.8183 -0.4470
 7948SOL    HW235481   0.717   3.093   7.387  0.9767  0.8977 -2.7224
 7949SOL     OW35482   1.036   2.466   8.031  0.3460  0.4176 -0.2799
 7949SOL    HW135483   1.121   2.507   8.015 -1.3408  3.7353 -0.8984
 7949SOL    HW235484   1.041   2.386   7.978  1.0085 -0.2821  0.8338
 7950SOL     OW35485   2.471   2.019   4.198 -0.1233 -0.0132 -0.6124
 7950SOL    HW135486   2.502   2.097   4.150 -2.6574  1.6493  0.4696
 7950SOL    HW235487   2.516   1.957   4.141 -0.9685 -0.9751 -0.2249
 7951SOL     OW35488   1.839   1.715   6.259 -0.2764 -0.1928 -0.5712
 7951SOL    HW135489   1.849   1.721   6.354  0.4218  0.8279 -0.7023
 7951SOL    HW235490   1.755   1.670   6.253  0.0595 -0.3175 -4.4316
 7952SOL     OW35491   3.539   3.220   4.382 -0.0805  0.8809 -0.4261
 7952SOL    HW135492   3.501   3.254   4.301  1.1417  1.8323 -0.5865
 7952SOL    HW235493   3.464   3.194   4.437  0.1382 -0.8218 -0.9176
 7953SOL     OW35494   2.527   3.788   1.259 -0.2168 -0.4105 -0.0996
 7953SOL    HW135495   2.567   3.786   1.346 -0.8270 -1.2310  0.1694
 7953SOL    HW235496   2.583   3.844   1.206 -0.9316 -2.0372 -2.5475
 7954SOL     OW35497   0.927   0.612  17.156 -0.3599  0.2863 -0.2474
 7954SOL    HW135498   0.945   0.664  17.235 -1.4804 -2.1056  1.6100
 7954SOL    HW235499   0.923   0.523  17.192 -1.3132  0.4695  0.1062
 7955SOL     OW35500   3.342   4.014   7.759  0.7019 -0.0526 -0.2281
 7955SOL    HW135501   3.356   3.937   7.704 -0.9856 -1.4021  1.1931
 7955SOL    HW235502   3.296   4.073   7.700  1.0665  0.3959 -0.0622
 7956SOL     OW35503   3.541   0.636   0.507 -0.3943 -0.1627 -0.6773
 7956SOL    HW135504   3.493   0.560   0.473 -0.8995  0.3872 -1.1822
 7956SOL    HW235505   3.482   0.671   0.573  0.0499  0.8046 -0.7872
 7957SOL     OW35506   0.592   0.623   6.648 -0.0354 -0.4263 -0.3445
 7957SOL    HW135507   0.599   0.706   6.601 -3.0419  0.2905  0.4484
 7957SOL    HW235508   0.504   0.595   6.625 -0.3931 -0.6834  1.2780
 7958SOL     OW35509   2.050   2.286  12.645 -0.0972  0.4669 -0.3434
 7958SOL    HW135510   2.118   2.253  12.586 -0.1144 -1.1269  0.5408
 7958SOL    HW235511   2.086   2.308  12.731  0.6603 -0.5218 -0.4034
 7959SOL     OW35512   1.924   4.026   3.802  0.4134  0.2010  0.3452
 7959SOL    HW135513   2.018   4.026   3.781 -0.5760 -0.2847 -4.1779
 7959SOL    HW235514   1.922   3.970   3.880 -1.3154 -1.6960 -1.0633
 7960SOL     OW35515   2.580   2.204   6.140  0.1772  0.3265  0.3558
 7960SOL    HW135516   2.608   2.283   6.094  0.0160 -1.9921 -3.6947
 7960SOL    HW235517   2.489   2.230   6.153 -0.0039 -0.0438 -0.1650
 7961SOL     OW35518   2.580   4.087   3.270  0.0088  1.1041  0.3953
 7961SOL    HW135519   2.627   4.017   3.224  0.3144  1.8101 -0.3597
 7961SOL    HW235520   2.609   4.168   3.227 -0.3840  0.3322 -1.3096
 7962SOL     OW35521   3.883   1.748   7.042 -0.1519  0.0534  0.0462
 7962SOL    HW135522   3.929   1.676   7.084 -1.4224  0.0610  1.4597
 7962SOL    HW235523   3.948   1.782   6.980  3.0121 -2.7042  1.8779
 7963SOL     OW35524   2.557   3.134   7.709  0.2983 -0.2690 -0.4037
 7963SOL    HW135525   2.526   3.163   7.623 -0.8913 -2.9204 -0.8828
 7963SOL    HW235526   2.637   3.083   7.697 -0.4026 -1.3312 -0.5871
 7964SOL     OW35527   1.263   0.456   8.763 -0.0725  0.1888 -0.0511
 7964SOL    HW135528   1.247   0.549   8.776 -1.4588 -0.4262  2.7736
 7964SOL    HW235529   1.193   0.421   8.818 -0.0740 -1.8708 -1.3655
 7965SOL     OW35530   3.155   2.393   3.997 -0.1971 -0.1241  0.1638
 7965SOL    HW135531   3.212   2.465   4.025  2.7936 -2.4895  0.2372
 7965SOL    HW235532   3.069   2.426   4.022 -0.0624  1.5988 -1.6847
 7966SOL     OW35533   1.575   1.652   2.024 -0.1399 -0.2236 -0.0649
 7966SOL    HW135534   1.586   1.588   1.953  2.1088 -1.1451  1.0851
 7966SOL    HW235535   1.480   1.663   2.026  0.1480  1.8833  2.3103
 7967SOL     OW35536   0.012   4.508   6.191 -0.0014 -0.1141 -0.1022
 7967SOL    HW135537   0.021   4.529   6.284 -0.7297 -1.2163  0.2149
 7967SOL    HW235538   0.089   4.452   6.182 -1.0460 -1.2370 -1.9784
 7968SOL     OW35539   2.116   2.917   6.430 -0.2802 -0.0433 -0.4752
 7968SOL    HW135540   2.079   2.829   6.428 -0.7783  0.1347  0.8435
 7968SOL    HW235541   2.151   2.926   6.342  1.4843  0.0700  0.2385
 7969SOL     OW35542   2.703   0.760   5.421 -0.1273 -0.1057 -0.1126
 7969SOL    HW135543   2.712   0.706   5.343  0.5875 -2.1883  1.4108
 7969SOL    HW235544   2.611   0.787   5.417 -0.1660 -0.0336  1.1256
 7970SOL     OW35545   2.646   0.251  15.193 -0.5443  0.1753 -0.0590
 7970SOL    HW135546   2.624   0.158  15.185 -1.6528  0.3053  1.3527
 7970SOL    HW235547   2.714   0.262  15.127  0.7191 -1.7925  0.9103
 7971SOL     OW35548   3.828   3.026  12.272  0.3809  0.0045 -0.3583
 7971SOL    HW135549   3.820   3.028  12.177  0.2867  0.6118 -0.3382
 7971SOL    HW235550   3.868   3.110  12.295 -2.5220  1.5911 -1.0914
 7972SOL     OW35551   0.359   1.310   5.897 -0.1530 -0.4954 -0.3176
 7972SOL    HW135552   0.375   1.217   5.881  0.6291 -0.5189  0.6461
 7972SOL    HW235553   0.275   1.302   5.941 -0.1243 -2.8345 -0.6752
 7973SOL     OW35554   0.951   0.561  16.254  0.5332 -0.1141  0.1746
 7973SOL    HW135555   0.951   0.560  16.158 -0.3999  1.8109  0.1491
 7973SOL    HW235556   0.957   0.468  16.273  0.8562 -0.4284 -1.4606
 7974SOL     OW35557   0.094   2.326   3.623  1.2174 -0.0942  0.4516
 7974SOL    HW135558   0.066   2.397   3.566 -1.9762 -1.6954  0.0371
 7974SOL    HW235559   0.074   2.261   3.556  0.3231  0.6663 -0.0143
 7975SOL     OW35560   2.662   2.907  11.802  0.5294  0.0287  0.2068
 7975SOL    HW135561   2.725   2.837  11.819  2.0879  1.0601 -1.4029
 7975SOL    HW235562   2.697   2.966  11.868 -1.6981  2.1619 -0.5253
 7976SOL     OW35563   1.310   1.578   6.861 -0.3121 -0.5724  0.4990
 7976SOL    HW135564   1.373   1.556   6.792 -0.5509  1.0119 -0.2324
 7976SOL    HW235565   1.356   1.638   6.921 -1.9685 -2.1319  3.3397
 7977SOL     OW35566   1.759   0.970  13.089  0.9507 -0.2489 -0.8069
 7977SOL    HW135567   1.787   1.023  13.163 -2.4598  0.7675 -0.2246
 7977SOL    HW235568   1.820   1.006  13.025 -0.7887  1.9322 -1.2150
 7978SOL     OW35569   1.504   4.603  13.385  0.7221  0.1394 -0.5125
 7978SOL    HW135570   1.456   4.663  13.441 -0.5714 -0.3535 -1.1032
 7978SOL    HW235571   1.530   4.537  13.448  1.7393  0.0530 -1.0185
 7979SOL     OW35572   4.241   1.542   9.620 -0.4045 -0.1314  0.4571
 7979SOL    HW135573   4.336   1.550   9.608 -0.6528  1.1944 -0.6903
 7979SOL    HW235574   4.220   1.635   9.616  0.7563  0.0650 -1.0479
 7980SOL     OW35575   2.136   1.782   9.250  0.4266  0.3065  0.1572
 7980SOL    HW135576   2.045   1.793   9.223 -0.2446  0.4757  2.4185
 7980SOL    HW235577   2.115   1.757   9.340 -2.1725 -2.2121 -1.1275
 7981SOL     OW35578   1.700   2.152   3.473  0.1875  0.0034  0.6297
 7981SOL    HW135579   1.673   2.104   3.551 -2.0660  0.9848  0.4732
 7981SOL    HW235580   1.792   2.169   3.494  0.7101  1.1482 -2.4622
 7982SOL     OW35581   1.419   0.633   3.985 -0.1570  0.3942 -0.2312
 7982SOL    HW135582   1.331   0.649   3.951 -0.0953 -0.7036 -0.9114
 7982SOL    HW235583   1.416   0.667   4.074 -1.2025 -4.4973  1.5986
 7983SOL     OW35584   3.186   2.606   2.134  0.2700 -0.2702  0.1820
 7983SOL    HW135585   3.241   2.536   2.098 -0.1201 -0.7299  0.4809
 7983SOL    HW235586   3.129   2.544   2.180  0.7835 -0.2819  0.8075
 7984SOL     OW35587   2.244   1.165   7.410  0.3756 -0.7507 -0.6348
 7984SOL    HW135588   2.318   1.207   7.367  0.8969 -1.9016 -0.8602
 7984SOL    HW235589   2.244   1.221   7.487 -2.5001 -0.2124 -1.0105
 7985SOL     OW35590   2.249   3.120   7.040 -0.5643 -0.3299 -0.3487
 7985SOL    HW135591   2.183   3.172   6.994 -0.2605 -0.4674 -0.9341
 7985SOL    HW235592   2.304   3.189   7.077 -0.7887 -1.1782  1.6153
 7986SOL     OW35593   0.206   1.923   8.791 -0.1973  0.3380 -0.0765
 7986SOL    HW135594   0.190   1.919   8.697 -0.6348 -1.2768  0.0624
 7986SOL    HW235595   0.277   1.987   8.789  0.1965 -0.0360  1.4071
 7987SOL     OW35596   4.593   2.110  14.796 -0.2494 -0.3197 -0.1195
 7987SOL    HW135597   4.511   2.158  14.800 -0.7602 -1.1481 -0.7621
 7987SOL    HW235598   4.618   2.112  14.704 -0.8560 -1.1808 -0.3023
 7988SOL     OW35599   4.004   4.698   5.455 -0.2953 -0.2816  0.8970
 7988SOL    HW135600   3.948   4.692   5.533 -0.9070  1.7153  0.6031
 7988SOL    HW235601   4.084   4.713   5.506 -0.3140 -0.2528  0.9180
 7989SOL     OW35602   4.319   2.946   1.596 -0.3987 -0.4041  0.7894
 7989SOL    HW135603   4.272   2.925   1.676 -3.0427  0.4438 -0.5503
 7989SOL    HW235604   4.408   2.942   1.630 -0.6706 -1.4913  1.3974
 7990SOL     OW35605   1.042   0.765   9.034  0.5216  0.0959  0.4072
 7990SOL    HW135606   1.071   0.855   9.046  0.9520 -0.0040  0.1115
 7990SOL    HW235607   0.990   0.765   9.115 -0.8555 -0.4512 -0.4712
 7991SOL     OW35608   0.539   2.239   7.945  0.0359  0.1674 -0.0028
 7991SOL    HW135609   0.577   2.224   7.858 -1.1616 -2.9549  0.0197
 7991SOL    HW235610   0.593   2.310   7.979  0.5015  0.4236 -1.2596
 7992SOL     OW35611   0.358   0.937   7.774 -0.2559  0.2014 -0.5617
 7992SOL    HW135612   0.415   0.861   7.765  0.3693  0.4703  1.1842
 7992SOL    HW235613   0.426   1.001   7.752 -0.1724 -0.0644 -1.0730
 7993SOL     OW35614   2.238   2.571   4.948  0.6517  0.2370 -0.3945
 7993SOL    HW135615   2.224   2.590   4.856  0.7301 -0.9662 -0.6555
 7993SOL    HW235616   2.284   2.487   4.949  0.8909  0.3817  0.6006
 7994SOL     OW35617   1.328   4.731   5.713  0.3442  0.1087  0.4335
 7994SOL    HW135618   1.281   4.708   5.793 -0.1540  1.2775  0.4775
 7994SOL    HW235619   1.264   4.717   5.643 -0.9987  1.1363  1.4694
 7995SOL     OW35620   0.541   2.335   5.619 -0.3676 -0.4547  0.0816
 7995SOL    HW135621   0.455   2.295   5.627 -0.4038 -0.6755 -1.3648
 7995SOL    HW235622   0.517   2.427   5.613 -2.6586 -1.1927 -1.7817
 7996SOL     OW35623   3.862   1.848  10.563  0.9839 -0.5537 -0.3279
 7996SOL    HW135624   3.851   1.801  10.480 -0.7310 -1.0237  0.1762
 7996SOL    HW235625   3.848   1.779  10.627  0.2257  0.3292  0.4659
 7997SOL     OW35626   0.814   0.185  11.142 -0.5588 -0.7620 -0.9313
 7997SOL    HW135627   0.841   0.176  11.051  1.5138 -1.4253 -0.2701
 7997SOL    HW235628   0.875   0.125  11.186  0.6409  0.4423 -0.9542
 7998SOL     OW35629   3.733   4.285  10.597  0.0449 -0.7127  0.0510
 7998SOL    HW135630   3.676   4.280  10.674  1.0290 -0.2553  0.8116
 7998SOL    HW235631   3.662   4.284  10.534 -0.0599  1.0244  0.1380
 7999SOL     OW35632   0.145   4.181   7.690  0.3962 -0.0885 -0.4050
 7999SOL    HW135633   0.193   4.105   7.721  0.4488  1.2000  2.6312
 7999SOL    HW235634   0.156   4.170   7.595 -2.0538 -0.5833 -0.6418
 8000SOL     OW35635   2.629   3.512  16.492 -0.2632 -0.1517 -0.2007
 8000SOL    HW135636   2.567   3.576  16.457  1.0300  1.2938  0.1389
 8000SOL    HW235637   2.611   3.502  16.586  2.1523  2.7568  0.5936
 8001SOL     OW35638   0.136   3.826   8.655 -0.3103  0.2880  0.5276
 8001SOL    HW135639   0.071   3.889   8.623  1.6337  1.7941 -0.4823
 8001SOL    HW235640   0.185   3.815   8.573 -1.2054  0.4583 -0.0306
 8002SOL     OW35641   4.276   2.826   0.917 -0.5614  0.0770 -0.5279
 8002SOL    HW135642   4.239   2.738   0.912 -2.4383  0.8165  0.7632
 8002SOL    HW235643   4.252   2.857   0.830  0.3647 -0.3209 -0.9317
 8003SOL     OW35644   0.259   2.919   6.078 -0.4724 -0.3062  0.1452
 8003SOL    HW135645   0.275   2.943   6.170 -0.4709  2.7230 -0.6444
 8003SOL    HW235646   0.246   3.004   6.037 -2.1169 -0.9601 -0.7014
 8004SOL     OW35647   3.580   0.301  16.473 -0.2499 -0.8244  0.6186
 8004SOL    HW135648   3.580   0.218  16.521 -1.3217 -0.5804  1.0333
 8004SOL    HW235649   3.660   0.303  16.420 -1.5044  0.0255 -1.2316
 8005SOL     OW35650   3.566   0.409   3.033 -0.1383  0.8635 -0.0083
 8005SOL    HW135651   3.617   0.356   2.971  0.6825  0.6602  0.8471
 8005SOL    HW235652   3.478   0.382   3.005 -0.7328  2.3489  0.4645
 8006SOL     OW35653   3.119   1.821   5.678  0.2242 -0.1444  0.3497
 8006SOL    HW135654   3.121   1.726   5.678 -0.5319 -0.1659 -1.2793
 8006SOL    HW235655   3.062   1.835   5.753  0.3082 -0.0598  0.3975
 8007SOL     OW35656   1.661   3.791   6.074  0.3228  0.1830  0.1447
 8007SOL    HW135657   1.572   3.756   6.060 -0.0453  1.0016  0.4459
 8007SOL    HW235658   1.650   3.827   6.162  0.5152 -0.7707  0.5666
 8008SOL     OW35659   4.638   2.617   5.092  0.1302  0.4694 -0.1860
 8008SOL    HW135660   4.582   2.653   5.023  0.7078 -1.8471 -1.8440
 8008SOL    HW235661   4.584   2.634   5.169 -1.9550  1.2074 -1.8127
 8009SOL     OW35662   0.476   4.631   9.696  0.2738 -0.1103 -0.4028
 8009SOL    HW135663   0.561   4.665   9.724  0.2643 -0.1107 -0.3726
 8009SOL    HW235664   0.491   4.645   9.603  2.1262  0.2391 -0.0594
 8010SOL     OW35665   4.735   3.572   8.404 -0.0243  0.8672  0.3670
 8010SOL    HW135666   0.072   3.629   8.416 -0.1485  1.1727 -0.2826
 8010SOL    HW235667   0.003   3.533   8.491 -0.1828  1.6047  0.7108
 8011SOL     OW35668   3.515   2.019   2.132  0.7169  0.1358  0.5460
 8011SOL    HW135669   3.446   2.010   2.197  1.0111  0.8134  0.9581
 8011SOL    HW235670   3.582   1.973   2.183 -1.3895 -1.9505  1.3737
 8012SOL     OW35671   2.627   0.929  15.688  0.1634 -0.6349  0.4221
 8012SOL    HW135672   2.606   0.909  15.596  2.5989  0.1048 -0.3029
 8012SOL    HW235673   2.648   1.022  15.698  3.3852 -1.3305  0.0846
 8013SOL     OW35674   1.485   0.816  16.760  0.2589  0.0700 -0.1937
 8013SOL    HW135675   1.459   0.904  16.787  2.2335  0.4841  0.3508
 8013SOL    HW235676   1.400   0.778  16.736 -0.6107  1.2891  0.9885
 8014SOL     OW35677   4.317   1.302  13.437  0.2439 -0.4556  0.8259
 8014SOL    HW135678   4.312   1.267  13.348 -0.7919  0.4818  0.5182
 8014SOL    HW235679   4.408   1.332  13.436  0.4368 -1.1381 -1.3489
 8015SOL     OW35680   2.741   3.135  12.443 -0.0747 -0.0612 -0.1037
 8015SOL    HW135681   2.672   3.184  12.399 -0.9436 -0.3176  0.9741
 8015SOL    HW235682   2.720   3.152  12.535 -0.4986 -0.6196 -0.1006
 8016SOL     OW35683   2.996   4.111  15.947 -0.2163 -0.1302 -0.1140
 8016SOL    HW135684   2.953   4.101  15.862  1.4449  0.6514 -1.0348
 8016SOL    HW235685   3.017   4.020  15.970 -0.5630 -0.0870  0.3763
 8017SOL     OW35686   2.321   1.866   7.585 -0.7066 -0.4098  0.2129
 8017SOL    HW135687   2.337   1.951   7.627 -1.7909 -0.2124  0.2510
 8017SOL    HW235688   2.306   1.820   7.667 -1.0045  0.3661  0.5941
 8018SOL     OW35689   1.395   1.356  12.418 -0.0468  0.3625 -0.1142
 8018SOL    HW135690   1.395   1.451  12.421 -1.1855  0.3309  0.6326
 8018SOL    HW235691   1.371   1.346  12.510  0.8518 -0.1182  0.0690
 8019SOL     OW35692   2.195   0.111   1.740  0.5271 -0.6533  0.3188
 8019SOL    HW135693   2.251   0.065   1.803  0.8395  1.2512  1.4378
 8019SOL    HW235694   2.112   0.115   1.788 -0.6781  1.4454 -1.9370
 8020SOL     OW35695   0.357   0.938   5.653  0.1894  0.4133  0.1013
 8020SOL    HW135696   0.420   1.010   5.652  1.2730 -0.5313  0.4374
 8020SOL    HW235697   0.387   0.894   5.732 -0.6091 -0.7796 -0.2547
 8021SOL     OW35698   3.625   0.730   2.635 -0.3038 -0.2305  0.4554
 8021SOL    HW135699   3.615   0.638   2.658  1.6812 -1.1772 -2.4219
 8021SOL    HW235700   3.577   0.726   2.552 -1.4300 -0.2603  1.1136
 8022SOL     OW35701   4.491   3.821   4.936 -0.0044  0.3338  0.9769
 8022SOL    HW135702   4.477   3.726   4.938 -1.9084  0.6373  2.6963
 8022SOL    HW235703   4.573   3.841   4.981  0.7299  0.4723 -0.4444
 8023SOL     OW35704   3.024   4.063   7.970 -0.0628  0.5727  0.2889
 8023SOL    HW135705   2.975   4.126   7.917  2.9839  1.4842 -1.4144
 8023SOL    HW235706   3.084   4.117   8.021 -0.6901 -0.4002  2.0676
 8024SOL     OW35707   4.117   2.357   2.267  0.5296  0.5641 -0.1432
 8024SOL    HW135708   4.122   2.264   2.246  2.1629  0.5455  0.3508
 8024SOL    HW235709   4.061   2.354   2.345  1.8547 -1.4627  0.7301
 8025SOL     OW35710   2.917   0.400   7.585 -0.0547 -0.4311 -0.5714
 8025SOL    HW135711   3.007   0.378   7.610 -0.0480 -2.7032 -2.5993
 8025SOL    HW235712   2.871   0.342   7.645  1.5934 -0.5000  0.6455
 8026SOL     OW35713   0.641   3.796  17.490 -0.1810  0.3721 -0.3905
 8026SOL    HW135714   0.595   3.841  17.419 -1.8646 -0.0243  0.4470
 8026SOL    HW235715   0.596   3.712  17.481 -1.3175  0.9629 -0.1940
 8027SOL     OW35716   2.678   1.525   2.274 -0.0171 -0.0816 -0.1618
 8027SOL    HW135717   2.699   1.444   2.229 -1.2749 -0.6234  0.2480
 8027SOL    HW235718   2.588   1.538   2.245  0.1616  1.7416  0.1166
 8028SOL     OW35719   3.388   4.494   4.223  0.5652  0.0446  0.7077
 8028SOL    HW135720   3.477   4.458   4.223  0.3072 -0.6043  2.9688
 8028SOL    HW235721   3.328   4.419   4.220  0.3156  0.1992  1.8024
 8029SOL     OW35722   1.868   1.889   5.481  0.9464  0.4815  0.3601
 8029SOL    HW135723   1.844   1.902   5.573 -0.4665  0.4435 -0.0046
 8029SOL    HW235724   1.780   1.875   5.446  2.1772 -0.2889 -2.4283
 8030SOL     OW35725   4.281   2.926   3.046 -0.8649 -0.0914  0.2277
 8030SOL    HW135726   4.214   2.892   3.105  0.5584 -0.7317  1.4822
 8030SOL    HW235727   4.313   2.992   3.107 -0.1022 -1.9328  1.8581
 8031SOL     OW35728   3.425   1.991  13.098 -0.1273  0.3435  0.3827
 8031SOL    HW135729   3.495   2.033  13.048 -0.7412 -0.4896 -1.1885
 8031SOL    HW235730   3.397   2.061  13.158 -1.1333  1.0485 -0.9060
 8032SOL     OW35731   1.529   0.303  16.643  0.4942  0.1938 -0.1538
 8032SOL    HW135732   1.459   0.241  16.624  1.2062  0.2748 -3.0418
 8032SOL    HW235733   1.559   0.321  16.554  1.8340 -1.2314  0.0224
 8033SOL     OW35734   3.458   1.545  13.544 -0.0554 -0.4081 -0.6731
 8033SOL    HW135735   3.394   1.475  13.553 -0.0699 -0.4928 -1.4722
 8033SOL    HW235736   3.529   1.498  13.589  1.9551  1.6200 -1.6916
 8034SOL     OW35737   1.536   3.788  12.258 -0.8255 -0.3924  0.4631
 8034SOL    HW135738   1.548   3.841  12.336 -0.8384 -0.8257  0.7615
 8034SOL    HW235739   1.609   3.728  12.274 -0.4219 -0.2552 -0.8911
 8035SOL     OW35740   4.611   0.760   2.376 -0.0762 -0.0305 -0.3039
 8035SOL    HW135741   4.558   0.719   2.444  0.6548  0.8677  0.7977
 8035SOL    HW235742   4.645   0.840   2.416 -1.3846  0.3791 -0.0166
 8036SOL     OW35743   4.569   4.247   1.188  0.0011 -0.7769 -0.2149
 8036SOL    HW135744   4.522   4.303   1.126 -1.0435 -0.7581  0.5787
 8036SOL    HW235745   4.593   4.308   1.257  0.3715 -0.1563 -0.8938
 8037SOL     OW35746   4.048   3.180  15.415 -0.0673 -0.2130  0.2332
 8037SOL    HW135747   4.038   3.221  15.329  2.2290 -1.1146 -0.4790
 8037SOL    HW235748   4.030   3.253  15.474  1.0074  0.3868 -0.1733
 8038SOL     OW35749   0.953   1.096  11.216 -0.0335 -0.4616  0.0787
 8038SOL    HW135750   0.883   1.135  11.268  0.5684 -2.3212  2.3126
 8038SOL    HW235751   0.942   1.153  11.141 -0.0490 -1.4658 -0.6752
 8039SOL     OW35752   2.370   4.341   7.860 -0.1404  0.1807  0.3489
 8039SOL    HW135753   2.345   4.390   7.781  1.8623 -0.8193 -0.9109
 8039SOL    HW235754   2.302   4.363   7.924  0.1704 -0.9010  1.0398
 8040SOL     OW35755   4.589   3.707   9.958  0.7169  0.9206 -0.5758
 8040SOL    HW135756   4.603   3.786   9.906  0.4468  0.3796 -1.4591
 8040SOL    HW235757   4.678   3.705   9.993  1.1892  3.5904 -1.6377
 8041SOL     OW35758   4.050   1.088  13.132  0.2954 -0.0387  0.8533
 8041SOL    HW135759   4.052   1.084  13.036 -0.9662  0.4292  0.8106
 8041SOL    HW235760   4.119   1.153  13.146 -0.0199  0.8410 -1.6298
 8042SOL     OW35761   2.227   4.675   2.523 -0.4352 -0.0323 -0.0816
 8042SOL    HW135762   2.291   4.737   2.558 -1.0575  0.1712  0.7044
 8042SOL    HW235763   2.282   4.636   2.455  0.0900  1.3696 -0.4750
 8043SOL     OW35764   0.641   0.311   3.040 -0.3053 -0.2567 -0.1856
 8043SOL    HW135765   0.691   0.230   3.044 -0.4700 -0.2231  2.5309
 8043SOL    HW235766   0.658   0.344   3.128  0.7592 -0.4884 -0.3074
 8044SOL     OW35767   3.909   2.610   0.195  0.3124 -0.0652  0.0092
 8044SOL    HW135768   3.961   2.575   0.123 -0.1465  0.6252 -0.6518
 8044SOL    HW235769   3.830   2.629   0.145  0.1494 -0.6902  0.0288
 8045SOL     OW35770   0.694   1.667   5.962 -0.1343 -0.6160  0.3401
 8045SOL    HW135771   0.655   1.580   5.953 -2.6051  0.4701  0.4810
 8045SOL    HW235772   0.636   1.699   6.031  0.7512  0.6220  0.5189
 8046SOL     OW35773   2.980   0.991  11.258 -0.1665  0.5045 -0.2520
 8046SOL    HW135774   3.017   0.919  11.206 -1.7547 -1.8152  1.8025
 8046SOL    HW235775   2.921   1.031  11.194 -3.5050 -3.5331  0.2662
 8047SOL     OW35776   4.071   2.420   7.749 -0.2349  0.6360  0.1284
 8047SOL    HW135777   3.995   2.450   7.700  0.4538 -0.7276 -1.7479
 8047SOL    HW235778   4.062   2.324   7.748 -1.3381  0.7550 -0.7705
 8048SOL     OW35779   0.976   3.666   6.091  0.0491 -0.2841 -0.5790
 8048SOL    HW135780   0.988   3.633   6.180 -1.5526  0.7505  0.0126
 8048SOL    HW235781   0.881   3.671   6.084 -0.0661 -0.3108  0.9620
 8049SOL     OW35782   2.742   0.750   3.349 -0.2906 -0.2943 -0.0292
 8049SOL    HW135783   2.660   0.774   3.393 -1.2614 -3.6817  0.0770
 8049SOL    HW235784   2.731   0.656   3.330  1.0214  0.0615 -2.5503
 8050SOL     OW35785   3.891   4.460   9.363 -0.0301  0.1524  0.0300
 8050SOL    HW135786   3.961   4.395   9.371  0.8015  1.1136  0.5532
 8050SOL    HW235787   3.906   4.485   9.272 -2.7122 -1.1874 -0.7882
 8051SOL     OW35788   2.541   1.189   6.036 -0.5361 -0.1344  0.0776
 8051SOL    HW135789   2.617   1.142   6.002 -1.1192 -1.5871  0.7925
 8051SOL    HW235790   2.542   1.150   6.124  3.0744  0.0009  0.0778
 8052SOL     OW35791   2.070   2.921   2.192 -0.4838 -0.2604  0.1799
 8052SOL    HW135792   2.105   2.851   2.137 -0.6558 -0.6006  0.5008
 8052SOL    HW235793   2.155   2.957   2.217  0.5210 -1.5223 -1.4523
 8053SOL     OW35794   0.250   1.234   0.572 -0.2878  0.2151  0.1481
 8053SOL    HW135795   0.200   1.278   0.640  2.1805  0.4818  1.7694
 8053SOL    HW235796   0.334   1.279   0.576  1.2327 -2.7585  1.2034
 8054SOL     OW35797   1.574   4.116  15.353 -0.1501 -0.0264 -0.1406
 8054SOL    HW135798   1.600   4.028  15.327  0.9223  0.3250 -0.2854
 8054SOL    HW235799   1.656   4.139  15.398 -0.7742 -2.4229  2.2386
 8055SOL     OW35800   1.491   3.768   5.442 -0.2173 -0.3748  0.1835
 8055SOL    HW135801   1.587   3.769   5.436 -0.0732  0.7022  2.7092
 8055SOL    HW235802   1.481   3.829   5.515 -3.4025 -0.6128 -0.0887
 8056SOL     OW35803   1.577   1.759  12.473  0.3289 -0.0292  0.3797
 8056SOL    HW135804   1.545   1.830  12.529  0.1498  0.2329 -0.0565
 8056SOL    HW235805   1.657   1.735  12.521 -0.3321 -0.4810  1.2555
 8057SOL     OW35806   2.205   4.734   8.020  0.1903  0.0337  0.2417
 8057SOL    HW135807   2.146   0.039   8.080 -0.5841  0.4233 -0.8179
 8057SOL    HW235808   2.192   0.058   7.950  0.0729  0.9859  1.1275
 8058SOL     OW35809   0.546   0.644   7.324  0.4159 -0.3400 -0.3268
 8058SOL    HW135810   0.514   0.733   7.340 -0.0140 -0.6613  0.5982
 8058SOL    HW235811   0.555   0.646   7.229  0.6924 -0.2415 -0.2991
 8059SOL     OW35812   1.093   3.144   1.501  0.2709  0.4242 -0.8668
 8059SOL    HW135813   1.035   3.105   1.435  1.8744 -2.2070 -0.7120
 8059SOL    HW235814   1.112   3.230   1.463  1.0520  0.1934 -0.9880
 8060SOL     OW35815   2.244   1.318   8.222 -0.0988  0.4412  0.5535
 8060SOL    HW135816   2.161   1.273   8.202  0.3942 -0.6944  1.0602
 8060SOL    HW235817   2.246   1.336   8.316  1.2088 -0.3639  0.6808
 8061SOL     OW35818   0.832   4.303   2.057 -0.5280 -0.0351  0.2642
 8061SOL    HW135819   0.780   4.254   2.121 -0.5349  0.1366  0.3904
 8061SOL    HW235820   0.767   4.352   2.007  1.6446  0.2837 -2.2221
 8062SOL     OW35821   1.695   1.223   1.692  0.7022 -0.1271  0.7912
 8062SOL    HW135822   1.769   1.162   1.696  0.4110 -0.4700  0.9677
 8062SOL    HW235823   1.730   1.280   1.624 -0.2321 -0.5288 -0.0278
 8063SOL     OW35824   3.357   0.104   2.138 -0.6075 -0.3956  0.9675
 8063SOL    HW135825   3.427   0.135   2.081 -1.4400  0.6231  0.4946
 8063SOL    HW235826   3.410   0.079   2.214  1.1724  1.3244  0.2955
 8064SOL     OW35827   4.594   0.834  13.349 -0.7722 -0.0359 -0.3567
 8064SOL    HW135828   4.536   0.906  13.322 -2.4270 -0.9280  0.7696
 8064SOL    HW235829   4.668   0.864  13.296  0.5679 -0.9206  1.0302
 8065SOL     OW35830   4.148   2.951   6.587 -0.1316 -0.0214 -0.0733
 8065SOL    HW135831   4.234   2.923   6.558 -0.9513 -0.9289 -1.6627
 8065SOL    HW235832   4.166   2.954   6.681 -0.9542 -0.1406  0.0897
 8066SOL     OW35833   2.558   2.186  17.200  0.2933  0.1481  0.4453
 8066SOL    HW135834   2.601   2.101  17.194  2.5380  1.5367 -3.4859
 8066SOL    HW235835   2.479   2.171  17.148  0.2574 -2.1089  1.1294
 8067SOL     OW35836   0.482   3.024   7.202 -0.0585 -0.1547 -0.2440
 8067SOL    HW135837   0.573   3.029   7.230 -0.8661  1.6062  2.0069
 8067SOL    HW235838   0.491   2.987   7.113  3.5051 -3.2815  1.3905
 8068SOL     OW35839   2.966   0.899  17.148  0.1753  0.0455 -0.1465
 8068SOL    HW135840   2.950   0.902  17.243 -0.0093  0.5813 -0.1966
 8068SOL    HW235841   3.036   0.962  17.129  0.7396  0.3021  2.7622
 8069SOL     OW35842   1.595   3.892   6.694  0.2167 -0.2251 -0.7432
 8069SOL    HW135843   1.529   3.885   6.625 -1.4039 -0.3308  0.8376
 8069SOL    HW235844   1.677   3.920   6.653  1.1097  1.6748  2.3693
 8070SOL     OW35845   0.530   3.533  15.307 -0.7802  0.2143  0.6706
 8070SOL    HW135846   0.475   3.587  15.250 -1.0651 -0.5017  0.2522
 8070SOL    HW235847   0.562   3.603  15.363  2.6546 -1.3567  0.7012
 8071SOL     OW35848   2.707   1.823   7.757  0.2060 -0.2099 -0.1652
 8071SOL    HW135849   2.698   1.728   7.754 -2.7468  0.0957 -0.6087
 8071SOL    HW235850   2.687   1.837   7.850 -0.1746  0.8335 -0.4064
 8072SOL     OW35851   4.109   4.179  12.448  0.0015  0.0766 -0.1289
 8072SOL    HW135852   4.143   4.119  12.514  0.4378  1.7739  1.1936
 8072SOL    HW235853   4.161   4.146  12.375  1.0805  0.9586  0.2402
 8073SOL     OW35854   0.218   0.147  13.079 -0.1961 -0.4051  0.8862
 8073SOL    HW135855   0.135   0.190  13.095  0.2044  0.9063 -0.4729
 8073SOL    HW235856   0.284   0.204  13.040 -0.4797 -0.9319 -0.3725
 8074SOL     OW35857   4.596   2.050   4.469  0.9039  0.1094  0.1084
 8074SOL    HW135858   4.534   2.058   4.541 -1.4853  0.3285 -1.9929
 8074SOL    HW235859   4.655   2.124   4.482  0.7835  0.2989 -0.4464
 8075SOL     OW35860   3.568   0.773   1.866  0.1091  0.1093  0.1865
 8075SOL    HW135861   3.487   0.747   1.822 -0.2395  0.5280  0.5867
 8075SOL    HW235862   3.625   0.819   1.804  2.5706 -1.0280  1.5795
 8076SOL     OW35863   1.436   4.261   0.889  0.4250  0.7593  0.3224
 8076SOL    HW135864   1.401   4.212   0.964 -0.5978 -1.1304 -1.3909
 8076SOL    HW235865   1.357   4.266   0.836  0.0713  1.6987  0.9347
 8077SOL     OW35866   4.339   0.805   5.660 -0.5189  0.0467  0.0833
 8077SOL    HW135867   4.422   0.839   5.627 -0.5861  0.1621  0.0334
 8077SOL    HW235868   4.309   0.768   5.577  0.8507 -0.9020  0.0060
 8078SOL     OW35869   2.587   0.757   5.124  0.0206  0.6333  0.3183
 8078SOL    HW135870   2.619   0.668   5.110 -3.5267 -0.4601 -0.8509
 8078SOL    HW235871   2.631   0.791   5.046  0.4540 -1.5873 -0.3843
 8079SOL     OW35872   0.721   3.843   4.705  0.2287  0.3716  0.9530
 8079SOL    HW135873   0.764   3.920   4.742  0.4398  0.8737 -0.3213
 8079SOL    HW235874   0.633   3.847   4.743  0.1619  2.1779  0.6167
 8080SOL     OW35875   3.803   4.657   5.624 -0.0274  0.2102 -0.3606
 8080SOL    HW135876   3.789   4.677   5.716  1.5543  0.2879 -0.1332
 8080SOL    HW235877   3.751   4.577   5.621  0.7070 -0.2824 -0.0131
 8081SOL     OW35878   3.114   0.340   4.098  0.2366  0.6097  0.5328
 8081SOL    HW135879   3.096   0.406   4.165  0.2723 -0.2842  1.4214
 8081SOL    HW235880   3.204   0.315   4.118  0.8465  2.0072 -0.4411
 8082SOL     OW35881   3.162   2.013   9.254  0.0104  0.5583 -0.4143
 8082SOL    HW135882   3.254   2.036   9.250  0.2997  0.1190  3.2678
 8082SOL    HW235883   3.165   1.970   9.340 -0.8262 -0.0027 -0.6667
 8083SOL     OW35884   4.071   1.104   8.661  0.0913 -0.0334 -0.0765
 8083SOL    HW135885   4.105   1.169   8.722 -0.4917  0.8672 -0.7168
 8083SOL    HW235886   3.976   1.117   8.658 -0.1979 -0.9971  5.4039
 8084SOL     OW35887   2.745   1.791   3.554  0.0122 -0.1416  0.0889
 8084SOL    HW135888   2.698   1.780   3.471  0.0892 -2.4613  0.3492
 8084SOL    HW235889   2.676   1.772   3.618 -1.0281  0.6497 -0.8088
 8085SOL     OW35890   0.348   3.676   2.808 -0.1156  0.4127 -0.1715
 8085SOL    HW135891   0.258   3.691   2.779  0.3385  0.6379 -1.4927
 8085SOL    HW235892   0.386   3.763   2.820  0.5362 -0.6228  5.2711
 8086SOL     OW35893   3.263   4.726   3.802  0.5014  0.3825  0.0036
 8086SOL    HW135894   3.219   0.013   3.721  0.6412 -1.9210 -0.8076
 8086SOL    HW235895   3.294   4.638   3.785 -0.4359  0.1295 -0.3991
 8087SOL     OW35896   1.536   3.324   0.463  0.0994  0.5183  0.2157
 8087SOL    HW135897   1.561   3.396   0.405 -0.5890  0.2664 -0.4072
 8087SOL    HW235898   1.598   3.345   0.532  0.7877  0.9947 -0.5383
 8088SOL     OW35899   1.282   3.516   4.155  0.6887  0.3993  0.3525
 8088SOL    HW135900   1.375   3.495   4.145  1.1206  1.7927  1.4889
 8088SOL    HW235901   1.257   3.516   4.063 -0.0972  0.1554  0.5635
 8089SOL     OW35902   4.128   3.946   2.333 -0.3140 -0.0721  0.0597
 8089SOL    HW135903   4.108   4.032   2.370 -2.3181  0.6573 -2.6569
 8089SOL    HW235904   4.160   3.912   2.416 -1.5983  1.4698  1.1940
 8090SOL     OW35905   2.836   1.520   0.266 -0.0578 -0.0964  0.2580
 8090SOL    HW135906   2.776   1.515   0.192 -0.9484  2.3616  0.8369
 8090SOL    HW235907   2.921   1.527   0.224 -1.4840  0.3157 -2.5578
 8091SOL     OW35908   0.880   0.719  12.570 -1.1535  0.2080  0.7575
 8091SOL    HW135909   0.959   0.674  12.601  0.1615 -0.3339 -3.3040
 8091SOL    HW235910   0.888   0.717  12.474 -3.0144  2.6821  0.5627
 8092SOL     OW35911   4.217   3.803   2.807 -0.6912  0.6898 -0.1851
 8092SOL    HW135912   4.298   3.767   2.843 -0.2011  1.0286 -0.9709
 8092SOL    HW235913   4.161   3.732   2.839  0.1535 -0.1904 -0.6578
 8093SOL     OW35914   0.312   0.431   0.370 -0.0021  0.0709 -0.5776
 8093SOL    HW135915   0.318   0.521   0.337 -0.2150  0.8390  1.5080
 8093SOL    HW235916   0.222   0.407   0.353  0.5384 -1.6789 -0.9133
 8094SOL     OW35917   3.283   4.605  10.193 -0.1406 -0.1670  0.6140
 8094SOL    HW135918   3.337   4.632  10.119 -0.6514 -1.6890 -0.3087
 8094SOL    HW235919   3.290   4.673  10.261  0.9935  0.3438 -0.0125
 8095SOL     OW35920   0.252   2.762   5.393 -0.0212  0.4673  0.8987
 8095SOL    HW135921   0.296   2.847   5.397  1.3079 -0.1698 -0.0709
 8095SOL    HW235922   0.161   2.790   5.387 -0.3872 -0.9154 -0.0826
 8096SOL     OW35923   2.933   1.228   3.468  0.3221  0.8768  0.1806
 8096SOL    HW135924   2.996   1.275   3.523  1.6231 -0.2403 -0.3519
 8096SOL    HW235925   2.871   1.299   3.448  1.0164  1.3133 -0.3855
 8097SOL     OW35926   0.150   1.059   9.232  0.4224  0.1293 -0.2919
 8097SOL    HW135927   0.193   1.119   9.292 -2.7038  2.9089 -0.8007
 8097SOL    HW235928   0.061   1.049   9.267  0.9585 -0.8927  0.7622
 8098SOL     OW35929   1.606   0.863   4.638 -0.5757  0.0201  0.2708
 8098SOL    HW135930   1.676   0.813   4.597 -0.3413  0.4219  0.1824
 8098SOL    HW235931   1.606   0.833   4.729 -0.0125  0.2780  0.3525
 8099SOL     OW35932   4.534   2.889   0.873 -0.1258  0.2870 -0.3536
 8099SOL    HW135933   4.581   2.817   0.915  1.8585  2.5230  1.3321
 8099SOL    HW235934   4.443   2.869   0.896  1.1775 -2.8707  2.0868
 8100SOL     OW35935   3.812   3.619   4.460  0.0055 -0.3814 -0.0603
 8100SOL    HW135936   3.818   3.697   4.516  4.4985  0.1355 -1.2547
 8100SOL    HW235937   3.819   3.546   4.521  1.5244 -0.2282 -0.0364
 8101SOL     OW35938   0.710   1.884   2.097 -0.1960  0.2078  0.2979
 8101SOL    HW135939   0.638   1.946   2.086  0.6510  1.1158 -0.1596
 8101SOL    HW235940   0.725   1.903   2.189 -2.0380 -0.6684  0.7752
 8102SOL     OW35941   4.384   3.135   4.167  0.6009 -0.2654 -0.0915
 8102SOL    HW135942   4.378   3.137   4.072  2.3539 -2.3359 -0.2389
 8102SOL    HW235943   4.295   3.163   4.188  1.3273  1.5193  0.6223
 8103SOL     OW35944   1.433   3.598   2.534 -0.7770 -0.2824 -0.4402
 8103SOL    HW135945   1.377   3.525   2.556 -0.6035 -0.9178 -2.0723
 8103SOL    HW235946   1.481   3.564   2.458 -0.3865 -0.7196  0.0066
 8104SOL     OW35947   2.019   2.895   3.075  0.3245 -0.1202  0.3880
 8104SOL    HW135948   2.079   2.831   3.114 -0.1201 -1.0889 -0.5521
 8104SOL    HW235949   2.027   2.876   2.982  0.6282  0.8737  0.1994
 8105SOL     OW35950   2.224   3.585   2.632  0.1762  0.0846  0.2897
 8105SOL    HW135951   2.197   3.520   2.566 -0.9808  0.0362  0.8089
 8105SOL    HW235952   2.148   3.642   2.642 -0.0041 -0.2169  0.6273
 8106SOL     OW35953   4.196   3.892   3.295 -0.2801  0.0088 -0.3276
 8106SOL    HW135954   4.138   3.965   3.315  2.3940  2.5366 -1.7085
 8106SOL    HW235955   4.284   3.921   3.319  1.5923 -2.7788 -3.9324
 8107SOL     OW35956   1.093   1.941  15.783 -0.5804  0.1422  0.0166
 8107SOL    HW135957   1.151   1.996  15.730 -2.4231  1.2250 -0.8947
 8107SOL    HW235958   1.104   1.974  15.872 -0.0035 -0.1406  0.0542
 8108SOL     OW35959   0.714   4.607   4.600 -0.6073 -0.2598 -0.1474
 8108SOL    HW135960   0.659   4.595   4.678  0.1856 -1.7484  0.1922
 8108SOL    HW235961   0.800   4.604   4.641 -0.9977 -1.3238  0.5941
 8109SOL     OW35962   2.683   2.899  15.665  0.1193 -0.1086 -0.5045
 8109SOL    HW135963   2.603   2.849  15.649 -0.6643  0.2228  2.2312
 8109SOL    HW235964   2.656   2.987  15.693 -0.8827 -1.1456  1.7994
 8110SOL     OW35965   2.995   3.406   5.094 -0.5687  0.3983 -0.2430
 8110SOL    HW135966   2.999   3.320   5.053  1.1944  1.2184 -1.7501
 8110SOL    HW235967   3.066   3.394   5.157 -0.6568 -0.0103 -0.2233
 8111SOL     OW35968   3.633   4.231   6.221 -0.2342  0.3246 -0.4086
 8111SOL    HW135969   3.643   4.326   6.213  0.1623  0.1724 -1.6118
 8111SOL    HW235970   3.713   4.210   6.269 -0.8639 -0.0580  0.4769
 8112SOL     OW35971   0.133   3.940   8.888  0.3602  0.1349 -0.3405
 8112SOL    HW135972   0.122   3.864   8.831  0.1886  1.0392 -1.5160
 8112SOL    HW235973   0.220   3.968   8.862  0.7260 -0.6711  0.0199
 8113SOL     OW35974   3.363   3.992   5.629  0.0934  0.2716 -0.2201
 8113SOL    HW135975   3.268   3.994   5.640 -0.2540  0.4194 -3.2611
 8113SOL    HW235976   3.377   4.083   5.605  0.2768 -0.2818 -2.1822
 8114SOL     OW35977   4.491   3.007   4.570 -0.3292  0.5176  0.2744
 8114SOL    HW135978   4.477   3.088   4.521 -0.0084 -0.4246 -1.3545
 8114SOL    HW235979   4.520   2.944   4.504 -0.4098  0.5011  0.2548
 8115SOL     OW35980   2.270   2.877   4.096  0.1113  0.1026  0.0621
 8115SOL    HW135981   2.278   2.972   4.093  0.3980  0.1071  1.2733
 8115SOL    HW235982   2.178   2.868   4.122 -0.3797 -0.5530 -1.8218
 8116SOL     OW35983   0.481   0.738  12.433  0.0672 -0.1080  0.7220
 8116SOL    HW135984   0.515   0.748  12.344  0.2399  0.2811  0.8337
 8116SOL    HW235985   0.498   0.820  12.479 -0.1138 -0.8952  2.2043
 8117SOL     OW35986   3.862   3.846   8.261  0.2433 -0.3223  0.1322
 8117SOL    HW135987   3.771   3.827   8.237 -0.1976  0.9208  0.7848
 8117SOL    HW235988   3.854   3.918   8.324  2.1533 -1.0937  1.2455
 8118SOL     OW35989   3.785   3.474   4.686  0.1343 -0.4314  0.6009
 8118SOL    HW135990   3.718   3.435   4.743 -1.1110  1.7312  0.6093
 8118SOL    HW235991   3.851   3.407   4.703  0.5783  0.3208  1.8447
 8119SOL     OW35992   2.156   3.596   6.311 -1.1796 -0.5339  0.1238
 8119SOL    HW135993   2.080   3.539   6.298 -1.5120 -0.1105  0.1949
 8119SOL    HW235994   2.196   3.562   6.391  1.5808 -0.2071 -1.0965
 8120SOL     OW35995   0.924   1.230  10.981 -0.3844  0.1013 -0.5357
 8120SOL    HW135996   0.870   1.298  10.940  0.0475 -0.0280 -1.3048
 8120SOL    HW235997   0.964   1.177  10.913  0.0185  2.1253 -1.8854
 8121SOL     OW35998   1.713   3.709   6.372 -0.1626 -0.2053  0.0603
 8121SOL    HW135999   1.710   3.634   6.313 -1.8374  0.9641 -1.3366
 8121SOL    HW236000   1.633   3.760   6.359 -0.1821 -0.9720 -2.6756
 8122SOL     OW36001   1.922   2.300   1.797 -0.0059 -0.1543 -0.0127
 8122SOL    HW136002   1.888   2.226   1.845 -1.0303  2.2696  2.9747
 8122SOL    HW236003   1.872   2.368   1.843  0.7511  1.5305 -1.6448
 8123SOL     OW36004   1.497   2.860   2.490  1.1638 -0.6192 -0.4330
 8123SOL    HW136005   1.505   2.868   2.585 -1.5582 -0.3529 -0.2259
 8123SOL    HW236006   1.585   2.840   2.459  0.6438 -1.7849 -1.1602
 8124SOL     OW36007   3.868   1.669   3.761  0.3283  0.6488 -0.1823
 8124SOL    HW136008   3.787   1.624   3.738  0.1097  0.9118  0.0620
 8124SOL    HW236009   3.933   1.638   3.698  1.1872  1.1112  0.4801
 8125SOL     OW36010   2.282   3.051   1.993  0.4925 -0.0873  0.1136
 8125SOL    HW136011   2.227   3.047   1.915 -1.0834  0.8337  1.1657
 8125SOL    HW236012   2.317   2.962   1.986  3.3866  1.1722 -1.2246
 8126SOL     OW36013   0.343   0.273  14.903 -0.1819 -0.0920  0.3463
 8126SOL    HW136014   0.380   0.309  14.822 -0.9663 -1.9940 -0.8715
 8126SOL    HW236015   0.391   0.329  14.964 -1.5034  0.2594  1.0460
 8127SOL     OW36016   4.141   2.623   3.933  0.1678 -0.2338  0.2213
 8127SOL    HW136017   4.182   2.546   3.972  1.3820  1.1026  1.6151
 8127SOL    HW236018   4.115   2.662   4.017 -0.7161  0.7185 -0.4888
 8128SOL     OW36019   4.666   4.322  11.234  0.0005  0.2625  0.4120
 8128SOL    HW136020   4.637   4.295  11.321 -0.6044 -0.1468  0.0803
 8128SOL    HW236021   4.619   4.406  11.239 -2.2101 -0.8703 -1.6104
 8129SOL     OW36022   1.344   2.662   8.492  0.7191  0.0713  0.0452
 8129SOL    HW136023   1.440   2.665   8.493  0.6986  0.8221 -0.1005
 8129SOL    HW236024   1.332   2.567   8.500 -0.8682  0.1261 -1.5977
 8130SOL     OW36025   3.197   2.987   2.352 -0.4287 -0.4760  0.3009
 8130SOL    HW136026   3.118   3.036   2.375 -0.5023  0.4760 -2.0074
 8130SOL    HW236027   3.163   2.938   2.278  0.0254  0.8879 -0.8091
 8131SOL     OW36028   1.771   2.744   2.196 -0.0452 -0.1611 -0.2928
 8131SOL    HW136029   1.786   2.739   2.290 -3.8509 -0.6728  0.3214
 8131SOL    HW236030   1.677   2.724   2.188 -0.3532  1.3931 -0.6519
 8132SOL     OW36031   4.304   1.171   4.474 -0.3218 -0.1371 -0.5602
 8132SOL    HW136032   4.237   1.113   4.509 -1.6031  0.9694 -1.1937
 8132SOL    HW236033   4.259   1.255   4.465  3.3261  1.7501 -1.5523
 8133SOL     OW36034   3.849   3.587   3.062  0.4802  0.0134  0.0418
 8133SOL    HW136035   3.779   3.558   3.003 -0.2988 -1.3873  1.6632
 8133SOL    HW236036   3.814   3.557   3.146 -1.3334  0.4619 -0.5453
 8134SOL     OW36037   1.036   0.830  16.283 -0.2052  0.3882 -0.5802
 8134SOL    HW136038   0.977   0.756  16.296  0.6093 -0.0755  0.4407
 8134SOL    HW236039   1.082   0.830  16.367  2.0990  1.8351 -1.8481
 8135SOL     OW36040   2.861   3.617   3.952 -0.1984  0.1960 -0.2956
 8135SOL    HW136041   2.781   3.656   3.988 -0.9458 -0.8932 -0.7467
 8135SOL    HW236042   2.897   3.574   4.029 -0.6687  1.7385  0.7718
 8136SOL     OW36043   0.015   2.292   7.466  0.4636  0.0164  0.2794
 8136SOL    HW136044   4.730   2.219   7.409  1.8241  0.9169 -1.4309
 8136SOL    HW236045   4.666   2.327   7.485  1.6102  2.2638  1.5063
 8137SOL     OW36046   2.840   1.225   9.385 -0.1523  0.2636  0.7321
 8137SOL    HW136047   2.746   1.245   9.393 -0.5979 -1.0110 -1.2354
 8137SOL    HW236048   2.856   1.259   9.297 -0.4683 -1.0897  0.1473
 8138SOL     OW36049   3.378   2.599   9.888  0.0792  0.3662  0.3596
 8138SOL    HW136050   3.432   2.556   9.821 -0.7979 -1.3071  0.7327
 8138SOL    HW236051   3.439   2.605   9.962  2.6664  0.6927 -1.7850
 8139SOL     OW36052   4.694   4.655   4.623 -0.1889 -0.1622  0.0942
 8139SOL    HW136053   4.668   4.581   4.568  1.5733 -1.2863  0.7507
 8139SOL    HW236054   4.616   4.654   4.679  1.9639  3.2271  3.1850
 8140SOL     OW36055   0.866   3.069  12.223  0.2972  0.5221  0.4506
 8140SOL    HW136056   0.824   3.152  12.200 -1.4314 -0.9324 -1.6046
 8140SOL    HW236057   0.861   3.077  12.318  0.2581  0.3777  0.4603
 8141SOL     OW36058   1.021   4.107  15.779  0.4485 -0.4936 -0.0883
 8141SOL    HW136059   1.046   4.018  15.757  0.4045 -0.0395 -1.9908
 8141SOL    HW236060   0.966   4.136  15.706 -1.5439  0.0777  1.6347
 8142SOL     OW36061   0.773   0.521  11.611  0.6207  0.2990 -0.3025
 8142SOL    HW136062   0.764   0.611  11.641 -0.7705  0.3905 -1.0301
 8142SOL    HW236063   0.813   0.485  11.691 -2.0353 -0.2007  0.8010
 8143SOL     OW36064   0.957   1.181   9.673 -0.1727  0.1465  0.4579
 8143SOL    HW136065   0.906   1.132   9.608  2.0552 -2.3025  0.5274
 8143SOL    HW236066   0.959   1.112   9.740 -0.6239  0.0074  0.3279
 8144SOL     OW36067   1.190   1.922   5.698  0.1351 -0.1176 -0.3191
 8144SOL    HW136068   1.111   1.910   5.751  0.3737 -0.0793  0.0469
 8144SOL    HW236069   1.203   1.832   5.667  0.5767  0.7962 -2.8168
 8145SOL     OW36070   3.013   4.602   7.223  0.1427  0.1015 -1.0923
 8145SOL    HW136071   2.943   4.638   7.169 -1.0714 -0.2689  0.2269
 8145SOL    HW236072   3.017   4.664   7.296  0.6917 -0.4512 -0.6525
 8146SOL     OW36073   0.563   0.642   1.913  0.0228 -0.2227 -0.2468
 8146SOL    HW136074   0.626   0.580   1.875  1.0657  1.3074 -1.0732
 8146SOL    HW236075   0.597   0.727   1.885  0.9043 -0.8680 -1.1655
 8147SOL     OW36076   1.030   2.540   5.730 -0.7366 -0.2008 -0.2468
 8147SOL    HW136077   0.965   2.581   5.673  1.0049  0.2516 -1.9190
 8147SOL    HW236078   1.046   2.450   5.701 -2.5199 -0.8241  0.7022
 8148SOL     OW36079   3.252   3.413   7.168 -0.5520  0.3297 -0.3341
 8148SOL    HW136080   3.217   3.425   7.256  0.4440  1.9936 -0.1621
 8148SOL    HW236081   3.189   3.463   7.116 -4.1625 -1.4096  2.4058
 8149SOL     OW36082   1.552   0.620   9.983 -0.2028 -0.3786 -0.1023
 8149SOL    HW136083   1.485   0.574   9.933 -1.5830 -1.2470  2.5679
 8149SOL    HW236084   1.604   0.542  10.004  0.7003  0.0590 -0.7019
 8150SOL     OW36085   3.740   0.097   7.335 -0.1964 -0.1347 -0.5454
 8150SOL    HW136086   3.812   0.153   7.306 -0.9105  1.4561  0.7771
 8150SOL    HW236087   3.703   0.136   7.414  2.7246 -0.8423  1.1689
 8151SOL     OW36088   1.505   2.066   2.315  0.3532  0.1895 -0.9668
 8151SOL    HW136089   1.453   2.124   2.370  2.4797 -1.4261  2.7555
 8151SOL    HW236090   1.510   2.098   2.225 -0.0647  2.5653 -0.1301
 8152SOL     OW36091   4.445   3.662   7.139 -0.1788  0.5612  0.4031
 8152SOL    HW136092   4.504   3.620   7.201 -1.3932 -0.1760  1.0641
 8152SOL    HW236093   4.362   3.635   7.179 -0.4877 -1.3312 -1.5108
 8153SOL     OW36094   3.070   3.020   9.448  0.0492 -0.0272  0.7802
 8153SOL    HW136095   3.063   2.954   9.379 -0.6582 -0.1261  0.9422
 8153SOL    HW236096   3.057   3.094   9.389  1.9939  0.9321  1.5476
 8154SOL     OW36097   2.331   3.277   9.560  0.5818  0.3118 -0.1560
 8154SOL    HW136098   2.417   3.279   9.601  1.1680 -0.1323 -1.3533
 8154SOL    HW236099   2.291   3.343   9.615  0.6800  1.7391 -1.7925
 8155SOL     OW36100   0.671   3.543  16.831 -0.2898  0.2994  0.2933
 8155SOL    HW136101   0.649   3.522  16.921  1.8398  0.6819  0.8910
 8155SOL    HW236102   0.663   3.638  16.820  0.0966  0.3821  0.7417
 8156SOL     OW36103   4.606   4.413   9.147 -0.1823  0.1843  0.8153
 8156SOL    HW136104   4.557   4.351   9.093  0.5530  1.6524 -1.5117
 8156SOL    HW236105   4.619   4.354   9.222  0.1990 -1.5595 -0.6083
 8157SOL     OW36106   1.694   1.903  15.235 -0.1102 -0.3249  0.5337
 8157SOL    HW136107   1.781   1.865  15.223 -0.2217 -0.7049  0.9215
 8157SOL    HW236108   1.723   1.984  15.277  0.4139 -0.5027  0.5194
 8158SOL     OW36109   3.375   4.581   4.500 -0.1728  0.1359 -0.5609
 8158SOL    HW136110   3.325   4.501   4.487  0.4904 -0.4919  0.8540
 8158SOL    HW236111   3.421   4.575   4.416  0.9133  1.9209 -0.0981
 8159SOL     OW36112   1.365   3.151   7.260 -0.0947  0.0583 -0.1500
 8159SOL    HW136113   1.450   3.132   7.219 -0.4071 -1.6085 -0.0216
 8159SOL    HW236114   1.383   3.234   7.304 -0.2649 -1.0070  1.9228
 8160SOL     OW36115   3.045   3.583   5.435 -0.2129  0.1892  0.0058
 8160SOL    HW136116   3.041   3.635   5.355 -3.5613 -2.1234 -1.3142
 8160SOL    HW236117   3.015   3.647   5.500  0.7088 -1.0293  1.6340
 8161SOL     OW36118   2.271   1.126   3.756  0.0569 -0.6214  0.4932
 8161SOL    HW136119   2.314   1.044   3.781 -0.2721 -1.1857 -0.7564
 8161SOL    HW236120   2.222   1.090   3.682  1.6630 -0.6336 -0.5858
 8162SOL     OW36121   1.129   0.125   3.565  0.6275  0.6835  0.1803
 8162SOL    HW136122   1.173   0.042   3.584  0.7756  1.1222  1.7508
 8162SOL    HW236123   1.090   0.134   3.652  2.1879  2.0082  0.7449
 8163SOL     OW36124   3.735   0.305   8.028 -0.1090 -0.2725 -0.5863
 8163SOL    HW136125   3.640   0.301   8.043 -0.1098  2.0861  0.0793
 8163SOL    HW236126   3.761   0.366   8.097 -1.0364 -0.3644 -0.1441
 8164SOL     OW36127   3.884   3.075   7.885  0.3250  0.5204  0.2789
 8164SOL    HW136128   3.958   3.134   7.900  0.9119 -0.5265  1.4495
 8164SOL    HW236129   3.808   3.128   7.907 -1.4273 -2.2278  0.8884
 8165SOL     OW36130   3.608   2.751   6.799 -0.2582  0.3466  0.3852
 8165SOL    HW136131   3.651   2.683   6.747 -0.4660  0.1478  0.4757
 8165SOL    HW236132   3.616   2.821   6.734  2.7879 -0.4741 -0.1382
 8166SOL     OW36133   3.871   1.091  10.267  0.3434  0.3667 -0.1948
 8166SOL    HW136134   3.824   1.033  10.207  0.0445  0.0348  0.3555
 8166SOL    HW236135   3.936   1.032  10.307  0.1609 -0.6768 -1.4230
 8167SOL     OW36136   1.164   2.466   8.850  0.0479 -0.4380 -0.1851
 8167SOL    HW136137   1.140   2.390   8.797 -0.8304 -0.1692 -0.1750
 8167SOL    HW236138   1.091   2.526   8.835 -1.7725 -2.5172  0.4015
 8168SOL     OW36139   4.183   2.730   8.375 -0.0262 -0.5514  0.4099
 8168SOL    HW136140   4.122   2.670   8.332  1.4181 -1.4505 -0.4228
 8168SOL    HW236141   4.163   2.806   8.321  0.2756 -0.3607  0.5694
 8169SOL     OW36142   4.151   4.010   6.401  0.1615 -0.5146 -0.5242
 8169SOL    HW136143   4.118   4.096   6.426  2.1182 -0.1128  0.6400
 8169SOL    HW236144   4.126   3.964   6.481  1.7443 -0.8804 -0.2402
 8170SOL     OW36145   1.671   3.152   7.172 -0.1885 -0.3333  0.6574
 8170SOL    HW136146   1.738   3.208   7.209  1.2061 -0.6752 -1.3602
 8170SOL    HW236147   1.704   3.135   7.084 -0.1811  3.0938  0.0061
 8171SOL     OW36148   2.075   1.566   5.034  0.1419  0.0129 -0.3669
 8171SOL    HW136149   2.023   1.589   5.111  1.0749  1.7981 -0.2835
 8171SOL    HW236150   2.133   1.494   5.059  0.5892  1.0524  1.5639
 8172SOL     OW36151   0.355   1.164   4.169 -0.1485  0.0503 -0.7966
 8172SOL    HW136152   0.283   1.101   4.167  1.7106 -2.0600  0.1385
 8172SOL    HW236153   0.305   1.240   4.198 -1.7680 -0.1364 -3.0104
 8173SOL     OW36154   4.583   1.380   5.243 -0.1227 -0.0883  0.5072
 8173SOL    HW136155   4.575   1.428   5.160 -0.1392 -0.0218  0.5475
 8173SOL    HW236156   4.495   1.347   5.262 -0.7787  1.3742  0.0248
 8174SOL     OW36157   4.661   0.315   7.880 -0.6062  0.1224  0.6845
 8174SOL    HW136158   4.702   0.239   7.840  0.0799 -0.2006  2.0032
 8174SOL    HW236159   4.569   0.289   7.870 -0.5766  0.0704  0.5498
 8175SOL     OW36160   2.026   3.297  12.216  0.0697  0.1282 -0.0291
 8175SOL    HW136161   2.008   3.346  12.136 -0.5058  2.7857  1.7126
 8175SOL    HW236162   2.084   3.228  12.184 -0.9024  0.3024 -2.1314
 8176SOL     OW36163   2.885   4.658  14.432  0.4146 -0.2676  0.1206
 8176SOL    HW136164   2.947   4.708  14.379 -0.4647 -0.1526 -0.7840
 8176SOL    HW236165   2.799   4.681  14.397  0.5617 -0.7978 -0.5776
 8177SOL     OW36166   3.300   3.715   6.390 -0.2947 -0.1060 -0.7608
 8177SOL    HW136167   3.278   3.657   6.463 -2.0270 -0.4505 -1.5473
 8177SOL    HW236168   3.389   3.737   6.416 -0.4951  2.4100 -2.1811
 8178SOL     OW36169   1.387   3.457  10.841 -0.3681 -0.3574 -0.4582
 8178SOL    HW136170   1.433   3.378  10.868  2.3942  0.8894 -1.5114
 8178SOL    HW236171   1.406   3.455  10.747  1.1713  0.9832 -0.1680
 8179SOL     OW36172   3.244   1.127  12.892 -0.0446 -0.1094 -0.2244
 8179SOL    HW136173   3.294   1.084  12.822 -0.0567  0.1681 -0.4018
 8179SOL    HW236174   3.224   1.217  12.868 -0.5020  0.0428  0.7618
 8180SOL     OW36175   0.540   1.201  11.184 -0.0439  0.0225 -0.1553
 8180SOL    HW136176   0.445   1.218  11.182 -0.1347 -0.1780  1.7591
 8180SOL    HW236177   0.564   1.253  11.108 -0.5457 -0.8908 -0.9338
 8181SOL     OW36178   2.935   4.296   7.081  0.4104  0.2087  0.5705
 8181SOL    HW136179   2.996   4.236   7.037  0.7148  1.5388 -0.8213
 8181SOL    HW236180   2.943   4.381   7.037 -1.2681  0.3510  0.5463
 8182SOL     OW36181   3.524   3.282   4.113 -0.2042 -0.3541 -0.0801
 8182SOL    HW136182   3.453   3.238   4.065 -0.7163  0.7870 -0.3747
 8182SOL    HW236183   3.493   3.372   4.110  0.6533 -0.0663 -0.2222
 8183SOL     OW36184   1.690   0.412  16.024  0.3290  0.6126 -0.1442
 8183SOL    HW136185   1.636   0.344  16.063 -2.9182  1.6100 -2.8108
 8183SOL    HW236186   1.650   0.417  15.937  2.6177  1.0542 -1.1643
 8184SOL     OW36187   0.959   0.247   1.057 -0.1445  0.1744 -0.0661
 8184SOL    HW136188   0.933   0.161   1.023  2.4256 -0.3354 -0.7314
 8184SOL    HW236189   0.880   0.296   1.082  1.1321  2.0866  0.2721
 8185SOL     OW36190   2.231   2.476   2.358 -0.1788  0.3245  0.1933
 8185SOL    HW136191   2.200   2.472   2.448 -1.0292  1.4422 -0.0347
 8185SOL    HW236192   2.320   2.511   2.357 -0.6436  1.4815 -1.6153
 8186SOL     OW36193   0.475   2.646  10.744  0.1400 -0.0258  0.0326
 8186SOL    HW136194   0.441   2.667  10.831  0.9662  1.1176  0.0781
 8186SOL    HW236195   0.483   2.551  10.744  1.1923  0.0461 -1.1182
 8187SOL     OW36196   4.296   4.596   2.849 -0.4746 -0.0341  0.5176
 8187SOL    HW136197   4.363   4.570   2.786  0.6284  2.0455  0.8284
 8187SOL    HW236198   4.213   4.618   2.809  1.2830  1.8102 -2.1088
 8188SOL     OW36199   0.577   4.690   5.670 -0.1279  0.5318 -0.4839
 8188SOL    HW136200   0.614   0.032   5.635 -0.3258  1.3042  1.0918
 8188SOL    HW236201   0.507   4.733   5.720 -0.7085  0.4566 -1.2288
 8189SOL     OW36202   1.439   0.892   6.405  0.0394  0.7459  0.2124
 8189SOL    HW136203   1.470   0.882   6.314 -0.8307  0.7044 -0.0819
 8189SOL    HW236204   1.426   0.800   6.428  1.7953  0.3227 -0.4246
 8190SOL     OW36205   0.825   2.678   2.749  0.2308  0.2946 -0.0139
 8190SOL    HW136206   0.828   2.667   2.844  1.2925  0.3400 -0.0376
 8190SOL    HW236207   0.915   2.648   2.734  0.8340  1.9823  0.1935
 8191SOL     OW36208   3.591   2.984  16.829 -0.1509  0.0883  0.1553
 8191SOL    HW136209   3.558   2.920  16.766 -3.0487  2.2956 -0.5213
 8191SOL    HW236210   3.608   2.926  16.904 -0.0529 -0.2043 -0.0912
 8192SOL     OW36211   1.236   2.159   4.208 -0.1113  0.8498 -0.0565
 8192SOL    HW136212   1.164   2.182   4.150 -1.9060  1.0631  2.2625
 8192SOL    HW236213   1.256   2.068   4.185 -1.0802  1.0880 -1.8237
 8193SOL     OW36214   1.169   0.387  10.163  0.0554  0.5266 -1.0358
 8193SOL    HW136215   1.110   0.323  10.122  0.8331  0.4255 -1.9876
 8193SOL    HW236216   1.131   0.397  10.250  2.0100  0.8681 -0.2390
 8194SOL     OW36217   3.720   2.475  12.383  0.2841 -0.1222 -0.0072
 8194SOL    HW136218   3.707   2.559  12.338 -2.4661 -0.9982 -0.8750
 8194SOL    HW236219   3.791   2.492  12.444  1.4598 -0.0852 -1.3841
 8195SOL     OW36220   4.099   3.164  14.910 -0.1672 -0.0240 -0.4956
 8195SOL    HW136221   4.130   3.101  14.845 -4.2810 -0.2598 -2.2098
 8195SOL    HW236222   4.036   3.218  14.864  0.9069 -0.5601 -2.5841
 8196SOL     OW36223   0.513   2.892   5.023  0.2043 -0.0604 -0.0190
 8196SOL    HW136224   0.537   2.913   5.113 -1.1534  1.2543  0.0396
 8196SOL    HW236225   0.546   2.802   5.022 -2.7282 -1.1492  0.3270
 8197SOL     OW36226   2.106   1.625   8.263 -0.0746  0.4608  0.3211
 8197SOL    HW136227   2.163   1.579   8.201 -1.1488 -0.6271  0.1442
 8197SOL    HW236228   2.026   1.624   8.211 -0.2662  0.3490  0.6224
 8198SOL     OW36229   0.940   0.014   0.697  0.5146  0.7036 -0.3526
 8198SOL    HW136230   0.922   4.737   0.604 -0.7424  1.4801 -0.2261
 8198SOL    HW236231   1.003   4.680   0.702 -0.1676  0.1776  0.4797
 8199SOL     OW36232   3.519   0.537   0.934 -0.7191  0.3410 -0.1622
 8199SOL    HW136233   3.487   0.579   0.854 -3.4852 -1.8645 -0.1834
 8199SOL    HW236234   3.614   0.548   0.928 -0.7849  0.3636 -1.2427
 8200SOL     OW36235   0.393   2.850   4.682 -0.4452  0.0004  0.2252
 8200SOL    HW136236   0.359   2.907   4.613  1.7432  1.1225  0.0846
 8200SOL    HW236237   0.358   2.899   4.756 -2.6785  0.5827 -1.2148
 8201SOL     OW36238   0.215   4.488   8.619 -0.1231 -0.3347  0.0082
 8201SOL    HW136239   0.179   4.569   8.655  0.9624 -0.0147  0.3587
 8201SOL    HW236240   0.137   4.432   8.609 -0.8246  0.5818  0.3495
 8202SOL     OW36241   3.974   2.532  12.575  0.1369  0.7833 -0.3192
 8202SOL    HW136242   3.898   2.531  12.634  0.9440  2.4519  0.7482
 8202SOL    HW236243   3.977   2.622  12.545 -0.7056  2.1849  3.7821
 8203SOL     OW36244   3.670   4.499   6.772  0.1630 -0.4432 -0.1484
 8203SOL    HW136245   3.624   4.583   6.774  2.0873  0.5830  0.6358
 8203SOL    HW236246   3.759   4.534   6.764  0.4912 -1.2421  0.0877
 8204SOL     OW36247   4.027   1.120   9.780 -0.4583 -0.2927 -0.6678
 8204SOL    HW136248   4.078   1.097   9.857 -1.0069  0.5651 -0.0507
 8204SOL    HW236249   4.040   1.043   9.724  1.6009  1.4523 -2.5942
 8205SOL     OW36250   4.363   1.457   3.298  0.5447  0.0061 -0.4012
 8205SOL    HW136251   4.447   1.437   3.256 -0.1914  0.4977 -2.0838
 8205SOL    HW236252   4.304   1.452   3.223 -0.1868  4.5753 -0.1012
 8206SOL     OW36253   2.589   3.766   1.549  0.5421 -0.2730 -0.3345
 8206SOL    HW136254   2.591   3.733   1.639  1.1552 -3.2542 -1.4370
 8206SOL    HW236255   2.567   3.857   1.565  0.4752 -0.4501  0.5560
 8207SOL     OW36256   4.014   1.936   7.383 -0.3094  0.0441  0.1950
 8207SOL    HW136257   3.983   2.022   7.412  3.9037  1.3922  0.6220
 8207SOL    HW236258   3.942   1.875   7.398 -0.1897 -0.0955  0.1930
 8208SOL     OW36259   2.111   0.584  15.996  0.6649  0.1095 -0.4253
 8208SOL    HW136260   2.073   0.603  16.081 -1.7268 -0.6203 -1.3375
 8208SOL    HW236261   2.040   0.620  15.943 -0.1955 -0.1798  0.5531
 8209SOL     OW36262   3.314   1.555   8.438 -0.4852 -0.4139 -0.2239
 8209SOL    HW136263   3.344   1.466   8.418  0.0965  0.1023 -1.6288
 8209SOL    HW236264   3.381   1.578   8.503 -0.8160 -0.1562  0.0255
 8210SOL     OW36265   0.027   3.392   7.769  0.0989  0.2599 -0.1316
 8210SOL    HW136266   4.698   3.335   7.806 -0.2921  0.1338 -1.0455
 8210SOL    HW236267   0.009   3.363   7.680 -1.4127 -0.2683  0.3322
 8211SOL     OW36268   3.891   0.358   5.518 -0.4828 -0.2290  0.2308
 8211SOL    HW136269   3.962   0.423   5.520  0.7089 -1.4966 -1.1118
 8211SOL    HW236270   3.923   0.293   5.580 -1.1245 -0.3155  0.4690
 8212SOL     OW36271   2.892   0.030   6.332  0.1724 -0.1325  0.5772
 8212SOL    HW136272   2.854   4.688   6.297 -1.1987  0.6998  0.1199
 8212SOL    HW236273   2.890   0.085   6.254 -0.0874 -0.8819  0.0563
 8213SOL     OW36274   3.655   1.387  13.646  0.5337  0.1836 -0.2630
 8213SOL    HW136275   3.638   1.294  13.659  3.4065  0.1889  3.1665
 8213SOL    HW236276   3.733   1.392  13.700  0.3261 -0.4658  0.0963
 8214SOL     OW36277   4.324   3.702  13.953 -0.3173  0.2328 -0.0595
 8214SOL    HW136278   4.373   3.767  13.903 -1.9580  1.5195 -0.0004
 8214SOL    HW236279   4.318   3.757  14.032  0.0004 -1.3161  1.0466
 8215SOL     OW36280   0.905   4.621   1.776 -0.7559  0.0945  0.0476
 8215SOL    HW136281   0.915   4.703   1.824 -2.0810  0.2897 -0.0125
 8215SOL    HW236282   0.863   4.650   1.695  2.9516 -0.1145 -1.9743
 8216SOL     OW36283   2.072   1.503  15.604  0.4846 -0.0424 -0.2271
 8216SOL    HW136284   2.110   1.443  15.667 -1.9072 -1.4133 -0.0694
 8216SOL    HW236285   2.024   1.442  15.547 -1.1541 -0.9124  2.0741
 8217SOL     OW36286   3.043   2.257   6.218  0.0757  0.4735 -0.3371
 8217SOL    HW136287   3.139   2.256   6.220  0.0037 -4.4709 -0.3834
 8217SOL    HW236288   3.030   2.198   6.144 -0.5912  2.7447 -2.0168
 8218SOL     OW36289   2.772   3.093  11.977 -0.3296 -0.4993 -0.6019
 8218SOL    HW136290   2.783   3.024  12.043  0.6873 -0.5751 -0.8430
 8218SOL    HW236291   2.819   3.170  12.010  0.9384 -1.1511 -0.8857
 8219SOL     OW36292   1.723   1.455  14.323  0.2239 -0.3427 -0.2050
 8219SOL    HW136293   1.754   1.388  14.262  3.3121  1.5131 -0.6672
 8219SOL    HW236294   1.753   1.424  14.408 -1.4241 -3.2022 -0.6663
 8220SOL     OW36295   0.947   3.001  11.336  0.4143 -0.4472 -0.0440
 8220SOL    HW136296   0.903   3.066  11.390  0.2032 -1.0283  0.4913
 8220SOL    HW236297   0.927   2.926  11.392  2.7237 -1.1026 -0.0836
 8221SOL     OW36298   1.593   0.145  10.928  0.3230 -0.3938 -0.5138
 8221SOL    HW136299   1.672   0.166  10.977 -0.0183 -2.1132  0.7466
 8221SOL    HW236300   1.628   0.135  10.840  0.2135  1.1247 -0.7375
 8222SOL     OW36301   2.399   2.123   2.476 -0.0042  0.0557 -0.4829
 8222SOL    HW136302   2.421   2.215   2.492 -0.2459 -0.4316  2.8264
 8222SOL    HW236303   2.346   2.104   2.554 -1.2728 -0.9030 -1.5767
 8223SOL     OW36304   2.219   3.014  12.172  0.3114 -0.6869  0.6654
 8223SOL    HW136305   2.289   3.004  12.237 -0.2673  0.8436  1.5078
 8223SOL    HW236306   2.262   3.059  12.099 -1.3389 -1.2440 -0.6420
 8224SOL     OW36307   1.683   4.368  16.464 -0.5006  0.4440  0.1436
 8224SOL    HW136308   1.620   4.427  16.505  0.6990  0.3307  2.1340
 8224SOL    HW236309   1.629   4.324  16.398  1.4176 -1.4260 -0.1783
 8225SOL     OW36310   0.185   2.047   5.404 -0.7961 -0.1917 -0.4772
 8225SOL    HW136311   0.130   2.121   5.429 -0.1362  0.5642 -1.2589
 8225SOL    HW236312   0.135   1.980   5.451  0.8048 -0.1342  1.3293
 8226SOL     OW36313   0.909   3.246   3.773  0.2010 -0.0416  0.2509
 8226SOL    HW136314   0.897   3.268   3.681  2.6267  1.7621  0.3604
 8226SOL    HW236315   0.991   3.196   3.763  1.2363  1.5618  0.7361
 8227SOL     OW36316   4.014   0.840   9.031 -0.3666 -0.4963 -0.0302
 8227SOL    HW136317   4.066   0.763   9.051 -0.8752 -0.9440 -0.4439
 8227SOL    HW236318   4.083   0.906   9.015 -0.9768  0.1586  0.0251
 8228SOL     OW36319   0.195   1.559   5.715  0.4652 -0.2318  0.1067
 8228SOL    HW136320   0.186   1.470   5.683  0.9675  0.7908 -2.8105
 8228SOL    HW236321   0.115   1.607   5.692 -0.7487 -1.7143  1.2766
 8229SOL     OW36322   3.628   0.071   3.577 -0.1142 -0.1102 -0.2445
 8229SOL    HW136323   3.546   0.118   3.595  1.3888  2.3690  0.1495
 8229SOL    HW236324   3.601   0.008   3.510 -1.2019 -1.2556  1.2751
 8230SOL     OW36325   1.460   1.604   3.961  1.2065  0.0849 -0.0118
 8230SOL    HW136326   1.481   1.537   4.027  0.2232 -0.5462 -0.3475
 8230SOL    HW236327   1.509   1.683   3.984  4.1591 -2.3079  1.9025
 8231SOL     OW36328   2.184   2.007   3.255  0.4841 -0.8635 -0.2396
 8231SOL    HW136329   2.115   2.024   3.190  0.9484 -1.7854 -0.9715
 8231SOL    HW236330   2.252   1.972   3.198  0.1972  0.3238 -1.3087
 8232SOL     OW36331   1.392   1.276   6.601 -0.2066  0.2772 -0.9163
 8232SOL    HW136332   1.451   1.205   6.575  2.3680  0.9788  3.0997
 8232SOL    HW236333   1.324   1.234   6.548 -0.8174 -0.0460  0.1365
 8233SOL     OW36334   1.630   2.775   0.451 -0.2119 -0.4951  0.3709
 8233SOL    HW136335   1.621   2.748   0.542 -0.7793 -1.1195  0.1344
 8233SOL    HW236336   1.576   2.709   0.406 -2.0244  2.4047 -1.7168
 8234SOL     OW36337   3.371   2.011   4.767 -0.6192  0.3183  0.2381
 8234SOL    HW136338   3.306   1.941   4.769 -0.7539  0.4226 -0.4644
 8234SOL    HW236339   3.455   1.965   4.759 -1.6435 -1.0501 -2.8871
 8235SOL     OW36340   2.203   2.942  10.815  0.2703 -0.2899 -0.4992
 8235SOL    HW136341   2.182   2.877  10.882  1.3268  0.7614  0.8523
 8235SOL    HW236342   2.298   2.943  10.824  0.2149 -2.1928  0.1707
 8236SOL     OW36343   3.914   0.938   3.410 -0.3266 -0.8157  0.1120
 8236SOL    HW136344   3.849   0.878   3.373 -2.0469  2.0138 -1.4750
 8236SOL    HW236345   3.897   1.003   3.342 -1.2410  0.0655  1.1797
 8237SOL     OW36346   4.561   3.450   3.458 -0.1400  0.1806  0.4694
 8237SOL    HW136347   4.487   3.394   3.436  0.4619 -0.7401  0.8181
 8237SOL    HW236348   4.542   3.469   3.550  2.2748  0.3756  0.9435
 8238SOL     OW36349   4.607   0.613   3.603 -0.5032  0.9777  0.3153
 8238SOL    HW136350   4.685   0.616   3.547 -0.6279  3.1329  0.2594
 8238SOL    HW236351   4.644   0.658   3.680  0.9164 -0.2832  0.3739
 8239SOL     OW36352   4.228   2.127  17.035 -0.5050 -0.1558 -0.7286
 8239SOL    HW136353   4.273   2.195  17.086  0.2625 -1.3878  0.2307
 8239SOL    HW236354   4.137   2.124  17.062 -0.2547 -1.0261  0.0103
 8240SOL     OW36355   0.619   0.072   2.237 -0.0520 -0.1277 -0.5180
 8240SOL    HW136356   0.590   0.011   2.305 -1.1659  1.7513  0.7150
 8240SOL    HW236357   0.533   0.093   2.199 -0.4068  1.0692  0.9283
 8241SOL     OW36358   4.706   1.338  16.033 -0.3386 -0.7364 -0.5479
 8241SOL    HW136359   4.610   1.340  16.042 -0.2473 -0.7458  0.3457
 8241SOL    HW236360   4.715   1.355  15.939  0.3052  2.1102  0.0209
 8242SOL     OW36361   4.475   2.581   6.434 -0.2694 -0.5806  0.5630
 8242SOL    HW136362   4.527   2.549   6.359  0.0760 -0.0271  0.5630
 8242SOL    HW236363   4.404   2.520   6.416 -0.4034  0.1655 -1.5158
 8243SOL     OW36364   4.016   3.861   0.283 -0.0167 -0.0967  0.1176
 8243SOL    HW136365   4.041   3.811   0.361  1.2814  0.1831 -0.1312
 8243SOL    HW236366   3.947   3.804   0.248 -0.8725 -0.5136  2.4659
 8244SOL     OW36367   3.512   0.148   3.981 -0.1578  0.3954 -0.2365
 8244SOL    HW136368   3.431   0.111   3.945  0.1290  1.8069 -2.3203
 8244SOL    HW236369   3.493   0.242   3.978 -1.4401  0.1180 -1.2449
 8245SOL     OW36370   3.129   1.494   5.730  0.0362  0.0814  0.4257
 8245SOL    HW136371   3.094   1.440   5.801 -0.8031  1.2639  0.9286
 8245SOL    HW236372   3.222   1.506   5.750 -0.2391  1.0201  1.1453
 8246SOL     OW36373   2.709   1.440   4.381 -0.4411 -0.3584 -0.4500
 8246SOL    HW136374   2.670   1.352   4.375 -1.2429 -0.0365  0.0622
 8246SOL    HW236375   2.726   1.455   4.288 -0.8056  1.1425 -0.2744
 8247SOL     OW36376   2.466   0.117   5.143  0.3225  0.4051 -0.1278
 8247SOL    HW136377   2.531   0.131   5.074  0.6469  0.5583  0.2070
 8247SOL    HW236378   2.521   0.092   5.218 -0.1325 -0.0361  0.0577
 8248SOL     OW36379   0.114   0.255  12.624  0.1813  0.2649 -0.4180
 8248SOL    HW136380   0.189   0.276  12.680  1.3951 -2.8310 -0.8610
 8248SOL    HW236381   0.090   0.346  12.606  0.5428  0.8043  1.8444
 8249SOL     OW36382   1.092   1.930   8.247 -0.5851  0.0719 -0.6043
 8249SOL    HW136383   1.028   1.902   8.182 -0.8810 -1.2359  0.2362
 8249SOL    HW236384   1.086   2.026   8.252  0.3201  0.0790  0.3491
 8250SOL     OW36385   4.018   1.802  16.453  0.0710  0.4039 -0.1859
 8250SOL    HW136386   4.066   1.853  16.518  3.0342 -2.6936  0.0527
 8250SOL    HW236387   3.995   1.872  16.392  1.3909 -1.1141 -2.4235
 8251SOL     OW36388   1.806   3.819   8.061  0.5946 -0.3028  0.1404
 8251SOL    HW136389   1.769   3.753   8.118 -1.0649  0.9532  0.5142
 8251SOL    HW236390   1.748   3.892   8.083  2.7501  1.1363  1.0412
 8252SOL     OW36391   1.471   2.962   1.812 -0.4245  0.3551 -0.0318
 8252SOL    HW136392   1.483   2.932   1.722  1.2422  0.2468  0.2188
 8252SOL    HW236393   1.520   3.043   1.795 -0.0335  0.3733  1.1781
 8253SOL     OW36394   0.862   2.065   4.509  0.3117 -0.6767 -0.5832
 8253SOL    HW136395   0.829   2.053   4.598  0.5576 -0.5174 -0.4721
 8253SOL    HW236396   0.810   2.005   4.455  2.9206 -2.2911 -1.3009
 8254SOL     OW36397   2.557   3.213  14.287  0.4309  0.2196  0.0643
 8254SOL    HW136398   2.607   3.201  14.367 -1.1792  3.7165  1.5565
 8254SOL    HW236399   2.611   3.271  14.234 -1.8183  2.3842  0.1633
 8255SOL     OW36400   1.190   0.765  17.674  0.2367 -0.4343  0.0213
 8255SOL    HW136401   1.128   0.712  17.724 -1.2274  1.3146  0.0288
 8255SOL    HW236402   1.255   0.700  17.645 -1.4380 -1.5111 -1.3533
 8256SOL     OW36403   3.362   3.248   7.976 -0.4245  0.1702 -0.2525
 8256SOL    HW136404   3.336   3.340   7.970 -0.1065  0.1198 -2.2206
 8256SOL    HW236405   3.286   3.213   8.023 -0.2765  0.8526  0.4946
 8257SOL     OW36406   4.115   2.803  13.186  0.0634  0.2377  0.2944
 8257SOL    HW136407   4.095   2.718  13.225 -1.3113 -0.2060 -1.3979
 8257SOL    HW236408   4.049   2.861  13.223  1.0217  1.7505 -0.3750
 8258SOL     OW36409   1.011   1.157   4.864 -0.2174 -0.3021 -0.3553
 8258SOL    HW136410   0.947   1.173   4.934  0.3075 -3.8600  0.9223
 8258SOL    HW236411   1.086   1.123   4.912 -0.8757  0.6326  1.3614
 8259SOL     OW36412   2.063   2.114   4.211 -0.5179  0.0811  0.6658
 8259SOL    HW136413   2.043   2.024   4.189  0.7589  0.2013 -0.9929
 8259SOL    HW236414   1.997   2.139   4.275  0.3683  1.1207  1.1974
 8260SOL     OW36415   0.517   1.353  10.883 -0.1904 -0.2686 -0.3626
 8260SOL    HW136416   0.478   1.429  10.839  1.2755  0.9939  0.5244
 8260SOL    HW236417   0.592   1.328  10.830  0.2667 -2.3664  1.2696
 8261SOL     OW36418   0.570   4.059   5.935  0.0793  0.4353  0.3975
 8261SOL    HW136419   0.566   4.071   5.840 -0.0257  2.3254  0.6334
 8261SOL    HW236420   0.481   4.080   5.963  0.4907  2.4874  0.1397
 8262SOL     OW36421   3.676   4.437   5.107  0.8415  0.3303  0.3599
 8262SOL    HW136422   3.708   4.475   5.188 -2.8123 -1.8283  2.8073
 8262SOL    HW236423   3.588   4.405   5.128 -0.3121  2.6133 -0.9805
 8263SOL     OW36424   0.242   4.651   2.436 -0.0262 -0.4139  0.4815
 8263SOL    HW136425   0.186   4.711   2.387 -1.1475 -1.7070  0.1868
 8263SOL    HW236426   0.298   4.624   2.362  1.2561  0.8208  1.0006
 8264SOL     OW36427   2.739   1.708   5.743  0.0576  0.0879  0.0807
 8264SOL    HW136428   2.795   1.748   5.809  1.3735  0.4285 -1.2562
 8264SOL    HW236429   2.735   1.621   5.784 -0.3551 -0.0091 -0.1614
 8265SOL     OW36430   3.552   4.080   7.455 -0.4154  0.3580  0.0243
 8265SOL    HW136431   3.506   4.163   7.444  1.3472  1.2782 -0.4023
 8265SOL    HW236432   3.618   4.111   7.518 -0.4281  1.4525 -0.5019
 8266SOL     OW36433   3.368   2.586  11.774  0.1941 -1.2500  0.3040
 8266SOL    HW136434   3.306   2.654  11.802  1.9495  0.3752  0.1658
 8266SOL    HW236435   3.308   2.512  11.765  0.3164 -1.4554  1.1379
 8267SOL     OW36436   4.202   4.370   6.100 -0.6790  0.2131  0.1132
 8267SOL    HW136437   4.123   4.363   6.153  0.2384 -0.6290  1.3935
 8267SOL    HW236438   4.267   4.392   6.166  0.1503 -1.5758 -0.0993
 8268SOL     OW36439   3.044   4.163   8.896  0.1579 -0.6723 -0.1096
 8268SOL    HW136440   3.112   4.158   8.829  0.1974  0.8279 -0.1815
 8268SOL    HW236441   2.980   4.217   8.850  2.3012  1.4754 -0.5291
 8269SOL     OW36442   3.100   0.900   6.690 -0.4201  0.3840 -0.0434
 8269SOL    HW136443   3.100   0.805   6.702 -0.6217  0.6941  2.4602
 8269SOL    HW236444   3.086   0.906   6.596 -0.5883 -1.5964 -0.1477
 8270SOL     OW36445   4.454   2.362  14.784  0.3792 -0.2995  0.0576
 8270SOL    HW136446   4.503   2.431  14.739  1.4191 -0.5940  0.7334
 8270SOL    HW236447   4.397   2.324  14.717  0.4266  0.2388 -0.2906
 8271SOL     OW36448   0.263   1.148  10.719 -0.5424 -0.0819 -0.5585
 8271SOL    HW136449   0.182   1.132  10.670  0.2351 -0.8152 -1.5954
 8271SOL    HW236450   0.262   1.241  10.739  1.2487  0.2527 -2.0302
 8272SOL     OW36451   2.485   2.368  17.404  0.3583 -0.1203  0.1114
 8272SOL    HW136452   2.494   2.449  17.356  2.0073  0.0045  0.5937
 8272SOL    HW236453   2.537   2.309  17.349  0.5924 -2.7488  3.1386
 8273SOL     OW36454   1.542   2.001   4.281 -0.2298  0.0892  0.2953
 8273SOL    HW136455   1.458   1.967   4.311 -0.9065 -1.5443 -3.3528
 8273SOL    HW236456   1.581   2.019   4.366 -0.8391  1.8274  0.2089
 8274SOL     OW36457   1.421   1.032  11.241  0.0458 -0.6323 -0.4107
 8274SOL    HW136458   1.480   0.985  11.300 -0.7335 -0.7522  0.2770
 8274SOL    HW236459   1.473   1.112  11.240 -0.4078 -0.3435 -0.6282
 8275SOL     OW36460   3.808   2.801  11.830 -0.6708  0.0361  0.2579
 8275SOL    HW136461   3.715   2.791  11.849 -0.6043  1.8583  1.5474
 8275SOL    HW236462   3.820   2.723  11.775  0.8752  0.4225  0.0599
 8276SOL     OW36463   2.573   4.022   0.092 -0.1585  0.2604 -0.5006
 8276SOL    HW136464   2.643   4.085   0.080 -0.5897  0.9856  0.7464
 8276SOL    HW236465   2.629   3.948   0.116 -1.1064 -1.0281 -2.2131
 8277SOL     OW36466   1.399   4.295   6.995 -0.1977  0.1415  0.4851
 8277SOL    HW136467   1.311   4.330   7.010 -0.1913  0.4947 -0.2912
 8277SOL    HW236468   1.426   4.252   7.075 -1.5337 -0.4286  0.6339
 8278SOL     OW36469   1.981   3.675   4.374  0.1703 -0.0296  0.1292
 8278SOL    HW136470   2.061   3.665   4.322 -0.0768  0.1573 -0.2928
 8278SOL    HW236471   1.938   3.721   4.302 -0.5649 -0.5763  0.2173
 8279SOL     OW36472   0.911   3.185   3.083  0.0262 -0.2177  0.2130
 8279SOL    HW136473   0.865   3.108   3.052  0.3893  0.6393 -2.4611
 8279SOL    HW236474   0.847   3.224   3.143  0.3246 -0.5030  0.7123
 8280SOL     OW36475   1.463   2.400   2.113 -0.2619 -0.3003 -0.4973
 8280SOL    HW136476   1.482   2.435   2.200  2.3622 -0.9171 -0.8274
 8280SOL    HW236477   1.367   2.404   2.106 -0.1630 -1.1700 -2.5731
 8281SOL     OW36478   1.675   3.541   2.890 -0.1078  0.4983 -0.2929
 8281SOL    HW136479   1.708   3.451   2.886 -0.0756  0.5193 -0.4953
 8281SOL    HW236480   1.612   3.528   2.962  1.0058 -0.9327  0.4379
 8282SOL     OW36481   4.561   4.638   5.588 -0.0329  0.5250  0.4487
 8282SOL    HW136482   4.649   4.669   5.608  0.0614 -0.5076  1.5902
 8282SOL    HW236483   4.515   4.627   5.671 -0.9902 -1.0704 -0.2753
 8283SOL     OW36484   0.939   1.597  14.027 -1.0357 -0.7377 -0.6668
 8283SOL    HW136485   1.008   1.662  14.013 -1.1830 -0.9206 -2.2189
 8283SOL    HW236486   0.870   1.658  14.054 -1.4055 -1.2082 -0.5494
 8284SOL     OW36487   2.320   2.672   7.455 -0.0566  0.0041  0.8681
 8284SOL    HW136488   2.227   2.649   7.452  0.2562 -1.2467  0.5216
 8284SOL    HW236489   2.338   2.610   7.526 -1.1000 -0.5606  0.6490
 8285SOL     OW36490   1.764   3.542  11.387 -0.3835  0.9112 -0.2485
 8285SOL    HW136491   1.798   3.580  11.468  1.3163 -1.3883  0.1226
 8285SOL    HW236492   1.674   3.526  11.415  0.1517  0.4522  1.1607
 8286SOL     OW36493   0.809   3.583   4.758  0.2343  0.1882  0.2836
 8286SOL    HW136494   0.868   3.564   4.685  2.4537  0.1702  2.0935
 8286SOL    HW236495   0.776   3.673   4.753  0.8773  0.3400 -1.3849
 8287SOL     OW36496   3.797   1.355   3.047 -0.3051  0.3711  0.2173
 8287SOL    HW136497   3.732   1.425   3.040 -1.8741 -1.0441  0.5502
 8287SOL    HW236498   3.741   1.278   3.053  1.4476 -1.0258 -1.2320
 8288SOL     OW36499   4.260   3.454   4.401  0.2399 -0.2885  0.0826
 8288SOL    HW136500   4.286   3.364   4.379 -0.2323 -0.2905 -0.4411
 8288SOL    HW236501   4.169   3.466   4.375  0.0788 -1.9188 -0.1056
 8289SOL     OW36502   4.499   4.521   6.099 -0.4141 -0.1870  0.2987
 8289SOL    HW136503   4.450   4.498   6.178 -0.1932 -0.0620  0.4728
 8289SOL    HW236504   4.587   4.489   6.119  0.0911  0.6456 -0.5721
 8290SOL     OW36505   1.039   4.101   3.336 -0.4734 -0.3909 -0.1919
 8290SOL    HW136506   1.008   4.089   3.246 -2.5155 -1.6433  0.6775
 8290SOL    HW236507   1.113   4.041   3.341  1.2004  1.5059 -2.1522
 8291SOL     OW36508   3.547   4.398  16.951 -0.5895 -0.5588  0.5122
 8291SOL    HW136509   3.524   4.314  16.911 -1.7320  0.1644 -0.3456
 8291SOL    HW236510   3.539   4.385  17.046 -2.7342 -0.1783  0.3829
 8292SOL     OW36511   4.082   1.028  12.824 -0.0571 -0.1171  0.8107
 8292SOL    HW136512   4.159   0.975  12.805 -0.5256 -0.1542 -1.0010
 8292SOL    HW236513   4.017   0.972  12.784 -1.0107  0.5842  1.3718
 8293SOL     OW36514   3.472   4.289   8.069  0.1072  0.2398  0.3818
 8293SOL    HW136515   3.548   4.270   8.014  0.1471 -0.1003  0.5528
 8293SOL    HW236516   3.501   4.258   8.154  0.5384 -0.1142  0.1082
 8294SOL     OW36517   3.824   2.327   4.420  0.3872  0.5052 -0.2923
 8294SOL    HW136518   3.838   2.419   4.438 -0.4791  0.8268 -1.2444
 8294SOL    HW236519   3.732   2.319   4.447  0.3962  0.9980 -0.1178
 8295SOL     OW36520   0.249   1.394  15.475  0.4706  0.4822 -0.1125
 8295SOL    HW136521   0.278   1.479  15.443  1.3577 -0.3348 -1.5166
 8295SOL    HW236522   0.190   1.363  15.406  0.9063 -1.1499  0.2320
 8296SOL     OW36523   1.574   2.093  12.923 -0.0649  0.4839  0.4883
 8296SOL    HW136524   1.658   2.056  12.952 -0.6399  0.3462  1.9859
 8296SOL    HW236525   1.511   2.035  12.966 -0.6380  0.3739 -0.5053
 8297SOL     OW36526   3.434   1.258   4.466  0.0249 -0.6060  0.3450
 8297SOL    HW136527   3.422   1.351   4.487 -1.5635 -0.4641 -1.2261
 8297SOL    HW236528   3.342   1.236   4.453 -0.1729  0.1202  0.5166
 8298SOL     OW36529   4.152   2.563   5.602 -0.6543  0.8790 -0.0405
 8298SOL    HW136530   4.106   2.545   5.520  0.9012 -2.1309 -0.2969
 8298SOL    HW236531   4.156   2.658   5.601  1.1352  0.7953 -1.9046
 8299SOL     OW36532   1.740   1.722   8.105  0.2610  1.0940  0.6099
 8299SOL    HW136533   1.815   1.697   8.051 -0.4015 -0.8017  0.5476
 8299SOL    HW236534   1.716   1.632   8.128 -0.7092  1.3686  0.6683
 8300SOL     OW36535   0.522   1.697   6.891  0.4531  0.0165  0.3554
 8300SOL    HW136536   0.493   1.708   6.982 -2.2135 -0.1036 -0.4715
 8300SOL    HW236537   0.609   1.733   6.905  0.3816  0.2568  0.1812
 8301SOL     OW36538   1.921   3.020   4.999  0.7846  0.8700 -0.2414
 8301SOL    HW136539   1.886   2.942   4.956  0.7884  0.9709 -0.4263
 8301SOL    HW236540   2.012   2.992   5.011  0.3822 -0.1786  0.4137
 8302SOL     OW36541   0.079   0.423   6.798 -0.1969  0.1396 -0.0721
 8302SOL    HW136542   0.011   0.399   6.861  1.5044 -1.2722  1.2361
 8302SOL    HW236543   0.157   0.398   6.849 -0.2125 -0.0492 -0.1414
 8303SOL     OW36544   1.684   1.858  17.048  0.7593  0.1483 -0.5089
 8303SOL    HW136545   1.719   1.936  17.005  1.4890  0.1306  0.0527
 8303SOL    HW236546   1.744   1.842  17.120  1.1480  1.7798 -0.4742
 8304SOL     OW36547   1.562   2.845   8.185  0.0613 -0.0728 -0.4640
 8304SOL    HW136548   1.653   2.873   8.198  1.3380 -2.7349 -3.7126
 8304SOL    HW236549   1.581   2.753   8.168 -0.1836 -0.3327  0.6600
 8305SOL     OW36550   3.858   3.381   2.660  0.2944 -0.1152 -0.2533
 8305SOL    HW136551   3.783   3.333   2.696  0.0240 -0.1707 -0.8956
 8305SOL    HW236552   3.926   3.316   2.676 -0.9134 -1.1459  0.6771
 8306SOL     OW36553   0.504   2.129   1.804  0.3830  0.5017 -0.3583
 8306SOL    HW136554   0.487   2.035   1.817 -0.8981  1.0159  1.5227
 8306SOL    HW236555   0.587   2.143   1.850  1.3674 -2.5785 -1.1720
 8307SOL     OW36556   3.852   1.678  11.800 -0.3541  0.4346 -0.1432
 8307SOL    HW136557   3.877   1.586  11.789  1.8225  0.9813  0.2373
 8307SOL    HW236558   3.766   1.677  11.842 -0.7997  0.9670 -1.0342
 8308SOL     OW36559   1.431   1.722   5.608 -0.4246  0.6964  0.0995
 8308SOL    HW136560   1.486   1.646   5.592 -1.8029 -0.2653  0.0087
 8308SOL    HW236561   1.342   1.692   5.592 -0.6612  0.8995  1.0063
 8309SOL     OW36562   2.766   3.851  12.493  0.4169 -0.2773  0.3557
 8309SOL    HW136563   2.696   3.881  12.551 -0.3116  0.5533 -0.9413
 8309SOL    HW236564   2.759   3.924  12.431 -0.6303 -0.4651  0.2573
 8310SOL     OW36565   4.059   2.257   5.545  0.4609 -0.4845 -0.2211
 8310SOL    HW136566   4.008   2.180   5.520  0.2676  0.1674 -1.8083
 8310SOL    HW236567   4.025   2.323   5.485 -0.5869 -0.5719  0.2811
 8311SOL     OW36568   0.742   0.969   6.511 -0.2249 -0.1991 -0.3793
 8311SOL    HW136569   0.732   1.020   6.430 -1.6384 -0.9460 -0.6773
 8311SOL    HW236570   0.697   0.889   6.483 -2.1333 -0.1278  2.4767
 8312SOL     OW36571   0.129   4.637   0.410  0.1395 -0.3559  0.1254
 8312SOL    HW136572   0.104   4.642   0.502  0.6233 -0.8422  0.2801
 8312SOL    HW236573   0.160   4.547   0.407 -1.4739 -0.8972 -0.1883
 8313SOL     OW36574   3.362   3.933  14.909  0.3680 -0.0231 -0.5478
 8313SOL    HW136575   3.290   3.996  14.914 -0.1187 -0.7236  1.4060
 8313SOL    HW236576   3.373   3.929  15.004 -0.0794  1.7516 -0.4079
 8314SOL     OW36577   3.071   1.156  16.504  0.3287  0.0495 -0.7664
 8314SOL    HW136578   2.984   1.171  16.467 -0.1114  0.7736  0.5672
 8314SOL    HW236579   3.076   1.235  16.558 -0.5950 -0.9816  0.8074
 8315SOL     OW36580   1.426   3.920   8.125 -0.6507  0.5897  0.0700
 8315SOL    HW136581   1.408   4.007   8.160 -3.2829  0.1914 -0.2897
 8315SOL    HW236582   1.509   3.907   8.170  0.5169  3.3608 -1.3120
 8316SOL     OW36583   1.508   1.557   8.025 -0.2681  0.7392 -0.0304
 8316SOL    HW136584   1.418   1.584   8.040 -0.3630  0.3769  0.0490
 8316SOL    HW236585   1.536   1.498   8.094  0.9343 -0.2440 -1.3621
 8317SOL     OW36586   0.942   0.193   1.390 -0.2476  0.0981  0.0055
 8317SOL    HW136587   1.035   0.210   1.398  0.4572 -3.7430  0.0116
 8317SOL    HW236588   0.929   0.231   1.303  0.1499  2.6110  1.0377
 8318SOL     OW36589   3.510   3.771  15.947  0.1503 -0.1518  0.0642
 8318SOL    HW136590   3.565   3.754  15.870 -0.2351  1.0396 -0.4782
 8318SOL    HW236591   3.429   3.813  15.918 -0.1454  0.9233  2.4610
 8319SOL     OW36592   1.250   0.517   1.137  0.2449 -0.0877 -0.1363
 8319SOL    HW136593   1.230   0.435   1.092  0.5163  0.6729 -1.6499
 8319SOL    HW236594   1.273   0.581   1.069  1.9922  0.3235  0.8355
 8320SOL     OW36595   4.521   3.909   8.370  0.4050 -0.8080  0.3738
 8320SOL    HW136596   4.542   3.847   8.300 -1.3284  0.3059 -1.1374
 8320SOL    HW236597   4.443   3.949   8.332  0.6012  1.4463  2.3381
 8321SOL     OW36598   0.769   3.645   7.925 -0.1256  0.2917  0.0786
 8321SOL    HW136599   0.709   3.601   7.984 -0.4622  0.1750 -0.3554
 8321SOL    HW236600   0.804   3.713   7.983 -0.2492  2.1586 -2.0394
 8322SOL     OW36601   0.101   1.988   4.680  0.2628  0.1539 -0.5845
 8322SOL    HW136602   0.020   1.996   4.730  0.0240 -0.6765 -0.8317
 8322SOL    HW236603   0.162   1.997   4.753  1.5978 -1.7549 -1.4473
 8323SOL     OW36604   1.488   0.669  11.355 -1.1132  0.0025 -0.6586
 8323SOL    HW136605   1.436   0.655  11.276  0.7467 -0.1035 -1.8775
 8323SOL    HW236606   1.477   0.584  11.397  0.2028 -0.0045 -0.3240
 8324SOL     OW36607   3.053   3.310   6.581  0.3205  0.2262 -0.0826
 8324SOL    HW136608   2.999   3.256   6.638 -0.8976  1.2217 -0.2932
 8324SOL    HW236609   3.008   3.390   6.607  2.3831  1.4972 -0.4991
 8325SOL     OW36610   4.718   2.648   7.594 -0.7305  0.2875 -0.6370
 8325SOL    HW136611   0.000   2.585   7.526 -0.0670 -0.2686  0.0971
 8325SOL    HW236612   4.636   2.685   7.562 -1.0857  0.5241  0.5408
 8326SOL     OW36613   2.093   2.698   4.705 -0.2669  0.2275 -0.4354
 8326SOL    HW136614   2.025   2.633   4.722 -0.8419  0.5288 -1.5764
 8326SOL    HW236615   2.051   2.770   4.753 -0.1277 -0.0461  0.0856
 8327SOL     OW36616   3.122   3.379  14.936 -0.7270 -0.0962  0.1798
 8327SOL    HW136617   3.182   3.378  15.011 -0.2148 -0.2703 -0.2312
 8327SOL    HW236618   3.057   3.314  14.963 -1.1988 -0.4905 -1.9389
 8328SOL     OW36619   3.633   3.659   6.926  0.3274  0.3386  0.3130
 8328SOL    HW136620   3.665   3.637   7.013 -2.5755 -0.6432  1.1326
 8328SOL    HW236621   3.691   3.621   6.860  1.6086  2.5610  0.1649
 8329SOL     OW36622   2.702   0.610   7.782  0.2408  0.0031 -0.6491
 8329SOL    HW136623   2.758   0.589   7.707  0.4496  2.0094 -1.0492
 8329SOL    HW236624   2.636   0.541   7.785  0.5695 -0.3675 -2.0414
 8330SOL     OW36625   1.549   2.748   9.677 -0.2239  0.5453  0.3068
 8330SOL    HW136626   1.614   2.699   9.626 -1.1754 -0.9575  0.5478
 8330SOL    HW236627   1.588   2.836   9.680 -2.0949  1.4107 -0.8291
 8331SOL     OW36628   2.014   1.419   9.065  0.5580  0.4160  0.3649
 8331SOL    HW136629   2.072   1.492   9.089  2.1497 -0.0740 -2.0102
 8331SOL    HW236630   2.083   1.353   9.066  0.4956  0.3359 -0.9203
 8332SOL     OW36631   1.551   3.819   0.975  0.3161 -0.3955 -0.3198
 8332SOL    HW136632   1.573   3.727   0.989  0.2925  0.2116  3.6379
 8332SOL    HW236633   1.602   3.850   0.900  0.6007 -1.4547 -0.5644
 8333SOL     OW36634   4.178   2.709  14.820  0.3099  0.0228 -0.4315
 8333SOL    HW136635   4.250   2.677  14.874  0.1692 -0.3386 -0.4567
 8333SOL    HW236636   4.159   2.789  14.869 -2.5016 -1.1696  0.4436
 8334SOL     OW36637   0.839   3.094   5.088 -0.3043  0.1496  0.2453
 8334SOL    HW136638   0.928   3.125   5.105  1.3714 -2.9149 -2.7446
 8334SOL    HW236639   0.854   3.005   5.056 -1.3820  0.3270 -0.7632
 8335SOL     OW36640   0.931   3.030   4.356 -0.6771  0.0660 -0.5286
 8335SOL    HW136641   0.887   2.988   4.430  1.2458  1.1924  1.2908
 8335SOL    HW236642   0.857   3.079   4.321 -1.4315 -1.1652 -0.6665
 8336SOL     OW36643   1.445   2.221   2.713  0.0271 -0.4294  0.2374
 8336SOL    HW136644   1.456   2.134   2.752 -3.5690 -0.5740  0.8845
 8336SOL    HW236645   1.471   2.270   2.791 -2.0031  1.1890 -0.1174
 8337SOL     OW36646   2.746   2.095   6.344 -0.4440 -0.0703 -0.2157
 8337SOL    HW136647   2.794   2.045   6.277  0.7567  1.1440 -0.2562
 8337SOL    HW236648   2.671   2.124   6.292  0.0894  0.8022 -0.4952
 8338SOL     OW36649   1.042   2.931   5.295 -0.1365 -0.5309 -0.4144
 8338SOL    HW136650   1.076   2.859   5.242  1.2825 -0.6500  0.6490
 8338SOL    HW236651   1.052   3.002   5.233  0.4825 -0.9569 -0.8062
 8339SOL     OW36652   0.874   0.016   0.956 -0.2664 -0.0911  0.1590
 8339SOL    HW136653   0.784   0.049   0.950 -0.3435 -0.7162 -2.1115
 8339SOL    HW236654   0.901   0.044   0.868  2.2820 -0.0003  0.9844
 8340SOL     OW36655   1.491   1.048   1.645  0.1275 -0.1785  0.0544
 8340SOL    HW136656   1.420   1.068   1.706  0.2620 -3.1686  1.1881
 8340SOL    HW236657   1.563   1.105   1.672  2.0400 -2.0619 -1.1303
 8341SOL     OW36658   1.607   3.999  13.429 -0.0802  0.0364 -0.6266
 8341SOL    HW136659   1.646   4.071  13.477 -1.1986 -0.3999  0.9385
 8341SOL    HW236660   1.641   3.933  13.489  0.1144  2.6860  2.1650
 8342SOL     OW36661   3.837   3.694   0.147 -0.9549  0.3620 -0.5576
 8342SOL    HW136662   3.807   3.675   0.058 -2.5777  1.5118 -0.2605
 8342SOL    HW236663   3.842   3.606   0.185 -0.0076  0.7618  0.2508
 8343SOL     OW36664   1.746   4.394   4.980  0.0567  0.1861  0.4444
 8343SOL    HW136665   1.792   4.359   4.903 -0.1272 -0.6341  0.7115
 8343SOL    HW236666   1.822   4.410   5.036 -0.6748  0.9710  1.2075
 8344SOL     OW36667   0.745   4.045   6.573 -0.6580  0.5058  0.2604
 8344SOL    HW136668   0.689   4.037   6.651  0.4638  0.7242  1.0952
 8344SOL    HW236669   0.834   4.055   6.604  0.2151  2.5608 -2.9814
 8345SOL     OW36670   4.050   4.389   3.025 -0.3333  0.1135 -0.1113
 8345SOL    HW136671   3.959   4.413   3.045 -0.8633 -2.2257  0.2957
 8345SOL    HW236672   4.097   4.457   3.073  0.1537  1.3031 -2.2882
 8346SOL     OW36673   2.966   3.641   7.226  0.2055 -0.7029 -0.0400
 8346SOL    HW136674   2.963   3.637   7.130 -0.3016  1.1899 -0.1156
 8346SOL    HW236675   3.028   3.713   7.239  0.4720 -0.4957 -2.3904
 8347SOL     OW36676   0.335   2.919  16.488 -0.2778  0.1017 -0.5287
 8347SOL    HW136677   0.382   2.990  16.444 -0.4351 -0.3037 -1.3458
 8347SOL    HW236678   0.251   2.923  16.443  0.8357  0.6947 -2.5458
 8348SOL     OW36679   3.787   0.700  10.400 -0.8084  0.1951  0.2350
 8348SOL    HW136680   3.771   0.608  10.378 -1.1919  0.6171 -1.2364
 8348SOL    HW236681   3.754   0.740  10.320  1.8311 -0.2293 -1.0511
 8349SOL     OW36682   1.909   0.117   4.307 -0.5160  0.1982 -0.0975
 8349SOL    HW136683   1.954   0.047   4.353 -0.8346 -0.8962 -1.4579
 8349SOL    HW236684   1.916   0.091   4.215  2.5376  0.1596  0.1527
 8350SOL     OW36685   1.086   2.294   5.617  0.0700 -0.1318 -0.1449
 8350SOL    HW136686   1.108   2.202   5.633 -2.3521 -0.6026  0.5992
 8350SOL    HW236687   1.031   2.276   5.541 -0.5442 -0.9875  0.4967
 8351SOL     OW36688   1.607   3.639  12.636  0.0640 -0.1217  0.5237
 8351SOL    HW136689   1.693   3.603  12.614  0.3504  1.8223 -1.4994
 8351SOL    HW236690   1.558   3.562  12.607 -0.6006  0.1364  0.9571
 8352SOL     OW36691   3.124   1.969  16.658 -0.3662 -0.5836  0.3496
 8352SOL    HW136692   3.140   1.934  16.570 -0.1338 -0.3801  0.3096
 8352SOL    HW236693   3.036   1.935  16.677 -0.0104 -0.2286  2.5492
 8353SOL     OW36694   2.981   1.626   4.775 -0.1173 -0.2492  0.0836
 8353SOL    HW136695   2.909   1.632   4.711 -0.8698 -1.0193  0.8585
 8353SOL    HW236696   2.984   1.537   4.808  0.1031 -0.9098 -1.7214
 8354SOL     OW36697   4.115   1.061   7.381 -0.0436 -0.0526  0.3121
 8354SOL    HW136698   4.124   1.148   7.344  0.3447 -0.1557  0.1646
 8354SOL    HW236699   4.119   1.078   7.475  0.6479 -0.3863  0.3476
 8355SOL     OW36700   2.689   3.633   2.094  0.3422  0.1594  0.5617
 8355SOL    HW136701   2.774   3.612   2.055 -0.6833  0.5641 -1.9152
 8355SOL    HW236702   2.673   3.550   2.139 -2.8634  0.3119 -0.2801
 8356SOL     OW36703   0.856   1.690   6.345  0.0278 -0.1488 -0.0890
 8356SOL    HW136704   0.938   1.699   6.393  0.3277 -1.2989 -0.3800
 8356SOL    HW236705   0.888   1.649   6.265  0.0628  1.9825 -1.1700
 8357SOL     OW36706   2.100   3.547  12.519  0.0135  0.0829 -0.1792
 8357SOL    HW136707   2.076   3.565  12.610 -0.0224 -1.6974  0.1608
 8357SOL    HW236708   2.187   3.585  12.508  0.0396 -0.1153 -0.6589
 8358SOL     OW36709   3.223   2.814   3.491  0.5447 -0.3016 -0.2702
 8358SOL    HW136710   3.284   2.788   3.421  0.9895 -1.3282  0.5082
 8358SOL    HW236711   3.201   2.730   3.531  0.6095 -0.0136  0.3639
 8359SOL     OW36712   1.633   3.992   3.779 -0.5404 -0.1602  0.4158
 8359SOL    HW136713   1.575   3.965   3.850 -0.1554  0.2841  0.8979
 8359SOL    HW236714   1.722   4.009   3.810 -0.1162 -0.5145 -0.6151
 8360SOL     OW36715   1.149   3.132   3.622 -0.3391  0.5696  0.1445
 8360SOL    HW136716   1.235   3.091   3.632 -1.3005 -1.2758  0.8955
 8360SOL    HW236717   1.167   3.188   3.547 -3.1587  1.6702  0.2716
 8361SOL     OW36718   3.740   2.849   2.407 -0.1321 -0.6833 -0.2501
 8361SOL    HW136719   3.738   2.945   2.403  4.2717 -0.5132  1.7869
 8361SOL    HW236720   3.688   2.825   2.484 -0.6735  1.2133 -0.0289
 8362SOL     OW36721   3.011   1.577   7.833  0.3069  0.2705  0.1357
 8362SOL    HW136722   2.963   1.495   7.849  1.4888 -0.4313  0.0809
 8362SOL    HW236723   2.970   1.620   7.758 -1.4680 -0.4955  0.6662
 8363SOL     OW36724   4.443   3.783   7.551  0.2789  0.4578 -0.2297
 8363SOL    HW136725   4.379   3.839   7.595  0.8220 -0.5452  1.8333
 8363SOL    HW236726   4.447   3.710   7.612 -2.0124 -0.5135 -1.2197
 8364SOL     OW36727   4.419   4.364  15.795 -0.0223 -0.1736  0.0389
 8364SOL    HW136728   4.425   4.325  15.707 -0.7333  0.7649 -0.4223
 8364SOL    HW236729   4.511   4.350  15.818 -0.4463  0.0410  1.7974
 8365SOL     OW36730   1.520   4.009   3.301  0.3193  0.4398  0.3311
 8365SOL    HW136731   1.583   3.979   3.235 -0.9001 -2.4462  0.4666
 8365SOL    HW236732   1.551   3.960   3.378  0.0429  0.3430  0.3794
 8366SOL     OW36733   2.853   3.909   2.503 -0.5154  0.6704  0.7322
 8366SOL    HW136734   2.889   3.847   2.567  1.8504  0.5862 -0.6762
 8366SOL    HW236735   2.766   3.911   2.543 -0.5013  0.4062  0.7752
 8367SOL     OW36736   0.457   0.051   5.887  0.3865 -0.5707 -0.0172
 8367SOL    HW136737   0.364   0.033   5.870  0.1117 -1.1256  2.0259
 8367SOL    HW236738   0.460   4.720   5.952  1.5048  1.2111  1.8678
 8368SOL     OW36739   0.841   0.648  12.023  0.4907 -0.4478 -0.6102
 8368SOL    HW136740   0.853   0.743  12.023 -0.4663 -0.3277  0.9214
 8368SOL    HW236741   0.840   0.639  12.119  0.6421  1.5183 -0.4095
 8369SOL     OW36742   0.618   2.181  13.801  0.1735  0.0882  0.5087
 8369SOL    HW136743   0.616   2.212  13.711  0.3187 -2.5753 -0.4098
 8369SOL    HW236744   0.648   2.259  13.848 -1.7116  0.4550  1.1282
 8370SOL     OW36745   2.167   2.128   6.910  0.0013  0.6747 -0.3909
 8370SOL    HW136746   2.086   2.108   6.862 -0.7736  1.8196  0.4346
 8370SOL    HW236747   2.195   2.214   6.878 -0.0234  0.6909 -0.3684
 8371SOL     OW36748   2.191   2.402   5.435  0.9313 -0.1861 -0.1303
 8371SOL    HW136749   2.233   2.470   5.382 -1.0609  0.0356 -1.4100
 8371SOL    HW236750   2.125   2.373   5.372 -2.2191  1.2099  2.5072
 8372SOL     OW36751   0.180   3.144   3.380  0.5040 -0.3617  0.0222
 8372SOL    HW136752   0.199   3.197   3.303 -1.9516  0.6750  0.1117
 8372SOL    HW236753   0.230   3.066   3.356  2.1181 -0.1203  2.6498
 8373SOL     OW36754   2.053   3.080   3.878 -0.1541 -0.0313 -0.5759
 8373SOL    HW136755   2.000   3.154   3.849 -0.8678 -0.0542  0.7048
 8373SOL    HW236756   2.132   3.132   3.861  0.9454 -1.3891  0.4037
 8374SOL     OW36757   1.351   0.224   8.397  0.3064  0.1876  0.0693
 8374SOL    HW136758   1.308   0.213   8.312  0.6360  2.2432 -0.3613
 8374SOL    HW236759   1.302   0.161   8.450  0.4870 -1.3973 -1.6326
 8375SOL     OW36760   2.023   3.692  13.169 -0.0498  0.4306  0.3398
 8375SOL    HW136761   1.969   3.730  13.101  1.2140 -2.5198 -2.3012
 8375SOL    HW236762   2.076   3.763  13.205  1.5313 -0.1714 -0.8062
 8376SOL     OW36763   1.500   0.990  12.965 -0.4692 -0.0838 -0.1335
 8376SOL    HW136764   1.586   0.961  12.995  0.1485  1.6385 -0.2517
 8376SOL    HW236765   1.484   1.063  13.024  2.2013  0.8485 -0.5757
 8377SOL     OW36766   3.162   0.011   6.788 -0.0069 -0.1747  0.2703
 8377SOL    HW136767   3.256   0.033   6.785 -1.0867  4.0481 -2.3076
 8377SOL    HW236768   3.136   0.037   6.700  0.4546  2.1905  0.8242
 8378SOL     OW36769   3.549   2.849   9.655 -0.2148 -0.0830 -0.0168
 8378SOL    HW136770   3.520   2.935   9.625 -0.7373  0.4812  2.1469
 8378SOL    HW236771   3.568   2.804   9.572  1.6017  1.8092 -0.6402
 8379SOL     OW36772   3.397   4.595   5.524  0.5946 -0.3517  0.4472
 8379SOL    HW136773   3.349   4.513   5.510 -0.2146  0.1447  0.3803
 8379SOL    HW236774   3.403   4.586   5.619  4.0573  0.2492  0.2924
 8380SOL     OW36775   3.107   1.383   3.625  0.5739  0.1408 -0.4108
 8380SOL    HW136776   3.166   1.456   3.610  0.1782  0.8319  1.3764
 8380SOL    HW236777   3.131   1.372   3.717  2.0509 -2.8294 -1.1404
 8381SOL     OW36778   4.206   2.473   6.364 -0.0417  0.3701  0.0491
 8381SOL    HW136779   4.186   2.533   6.292 -1.6546 -1.2439 -0.8646
 8381SOL    HW236780   4.183   2.386   6.329 -0.6663  0.7245 -0.4187
 8382SOL     OW36781   3.686   3.464  16.524 -0.6304 -0.6398  0.0773
 8382SOL    HW136782   3.728   3.387  16.487 -0.1921  1.8276 -4.6244
 8382SOL    HW236783   3.618   3.422  16.577 -1.8849 -1.1033 -1.8817
 8383SOL     OW36784   3.526   0.822   6.901  0.0059  0.3308  0.2450
 8383SOL    HW136785   3.512   0.807   6.995  0.0745  3.3350  0.7450
 8383SOL    HW236786   3.442   0.856   6.870  0.4604  2.5181  1.4022
 8384SOL     OW36787   1.900   0.927   8.031  0.0454 -0.4581  0.2572
 8384SOL    HW136788   1.865   1.001   7.981  0.1900  0.5119  1.5787
 8384SOL    HW236789   1.925   0.879   7.952 -1.2957 -0.0576 -0.4065
 8385SOL     OW36790   0.180   0.884   7.438 -0.1330 -0.0440  0.7261
 8385SOL    HW136791   0.193   0.979   7.446  1.2418 -0.1381 -0.3514
 8385SOL    HW236792   0.183   0.882   7.343 -0.4093 -2.1642  0.7730
 8386SOL     OW36793   0.149   1.362  15.212  0.2613 -0.4779  0.4217
 8386SOL    HW136794   0.094   1.421  15.162 -1.7195 -0.9038  2.0888
 8386SOL    HW236795   0.100   1.280  15.210 -0.3263 -0.1015 -0.3955
 8387SOL     OW36796   2.090   1.178   5.448  0.6874 -0.1931  0.2476
 8387SOL    HW136797   2.075   1.181   5.543  2.6301 -0.3021  0.5535
 8387SOL    HW236798   2.120   1.088   5.436 -0.0870  0.1157 -4.1730
 8388SOL     OW36799   3.157   2.188   5.430 -0.1318  0.4368 -0.1312
 8388SOL    HW136800   3.177   2.225   5.344  3.2249  0.0537  0.4896
 8388SOL    HW236801   3.066   2.210   5.450 -0.8108 -1.8575 -0.6306
 8389SOL     OW36802   0.132   4.484  10.486 -0.7156 -0.1809 -0.2661
 8389SOL    HW136803   0.058   4.423  10.487 -1.4576  0.7281  0.7946
 8389SOL    HW236804   0.196   4.420  10.457  1.6842  1.1820  1.9945
 8390SOL     OW36805   1.134   0.224  11.084  0.4460  0.2725  0.8264
 8390SOL    HW136806   1.097   0.189  11.165  0.6370 -0.4806  0.5879
 8390SOL    HW236807   1.092   0.177  11.013 -2.0379 -0.2678  2.6609
 8391SOL     OW36808   2.485   0.726   2.263  0.2181 -0.9341  0.3303
 8391SOL    HW136809   2.552   0.674   2.219  0.6635  0.9098 -1.1915
 8391SOL    HW236810   2.427   0.655   2.289 -2.8695  1.2870 -0.3392
 8392SOL     OW36811   3.637   0.435   3.435  0.2297  0.7459 -0.5826
 8392SOL    HW136812   3.693   0.493   3.486 -1.2145 -0.5865  2.5121
 8392SOL    HW236813   3.699   0.407   3.367  0.6376 -3.1056  1.3478
 8393SOL     OW36814   2.785   2.808   0.094 -0.3093 -0.3620  0.2772
 8393SOL    HW136815   2.814   2.836   0.008  0.1660  0.1881  0.6180
 8393SOL    HW236816   2.860   2.751   0.110  0.3194  0.9319  1.8639
 8394SOL     OW36817   2.530   3.991   4.136  0.5740 -0.2692  1.1948
 8394SOL    HW136818   2.523   4.045   4.215  1.3672 -2.4721  2.7696
 8394SOL    HW236819   2.604   4.034   4.092 -3.1160  1.6372 -3.1456
 8395SOL     OW36820   1.036   1.897   6.892 -0.7725  0.1354 -0.3671
 8395SOL    HW136821   1.076   1.983   6.902 -1.6499  0.2071  2.4283
 8395SOL    HW236822   0.942   1.913   6.878 -1.1112 -1.2057  0.4233
 8396SOL     OW36823   2.997   3.458   6.971  0.2688  0.0465 -0.0173
 8396SOL    HW136824   3.005   3.365   6.991 -1.8511 -0.0548  0.4243
 8396SOL    HW236825   2.924   3.468   6.910  1.4024  1.0493 -1.2159
 8397SOL     OW36826   2.676   0.730   6.986 -0.1726  0.0045  0.1544
 8397SOL    HW136827   2.705   0.652   6.939  0.4501 -0.7329  1.7799
 8397SOL    HW236828   2.756   0.782   6.996 -0.6001  0.4275  1.4051
 8398SOL     OW36829   4.718   4.002  10.067  0.5332  0.3942  0.1698
 8398SOL    HW136830   0.039   3.933  10.039 -0.9298 -0.7483 -0.1364
 8398SOL    HW236831   0.036   4.036  10.136  0.8046 -2.3797  1.3023
 8399SOL     OW36832   3.941   3.874  16.984 -0.3044 -0.2292 -0.0767
 8399SOL    HW136833   3.955   3.882  16.890  2.8906  1.9676  0.5718
 8399SOL    HW236834   3.941   3.779  16.997 -0.8727 -0.0415  1.3439
 8400SOL     OW36835   1.653   3.548   2.358 -0.9233  0.5752  0.1166
 8400SOL    HW136836   1.683   3.541   2.448 -1.3559 -0.4394  0.1750
 8400SOL    HW236837   1.667   3.460   2.323  2.5138  1.3888 -0.5728
 8401SOL     OW36838   2.151   3.783   7.609 -0.7362 -0.1328 -0.3712
 8401SOL    HW136839   2.125   3.711   7.551 -1.8837  1.7634 -2.2161
 8401SOL    HW236840   2.160   3.737   7.693  2.4319 -0.6829 -0.9999
 8402SOL     OW36841   3.030   2.742  16.700  0.3314  0.2017 -0.6098
 8402SOL    HW136842   2.960   2.694  16.656 -1.9466  1.0109  2.0919
 8402SOL    HW236843   3.096   2.701  16.645 -0.7385 -0.4811 -1.3901
 8403SOL     OW36844   3.289   0.685   3.366  0.9032  0.5885 -0.1956
 8403SOL    HW136845   3.254   0.667   3.279  1.1271 -1.2038  0.0911
 8403SOL    HW236846   3.332   0.604   3.394  0.7891  0.2629 -0.9652
 8404SOL     OW36847   2.095   4.582   2.945 -0.3560  0.2735 -0.1142
 8404SOL    HW136848   2.190   4.585   2.932 -0.5971  2.8216 -1.3905
 8404SOL    HW236849   2.080   4.490   2.922  0.0182  0.1354  0.2051
 8405SOL     OW36850   1.307   4.507   7.880  0.4395  0.5982  0.4649
 8405SOL    HW136851   1.390   4.460   7.884 -1.7553 -3.5012 -1.7594
 8405SOL    HW236852   1.306   4.566   7.956  0.5307  1.4558 -0.2023
 8406SOL     OW36853   1.634   3.398   1.211  0.1160 -0.1457 -0.7208
 8406SOL    HW136854   1.606   3.438   1.293  1.6761 -0.3827 -0.0585
 8406SOL    HW236855   1.728   3.415   1.203 -0.0280  1.0022  0.0438
 8407SOL     OW36856   3.326   1.021   6.778  0.3720 -0.3619  0.6046
 8407SOL    HW136857   3.248   0.970   6.758 -0.1599 -0.2615  2.4004
 8407SOL    HW236858   3.305   1.099   6.727  0.8347 -0.5020  0.1995
 8408SOL     OW36859   0.374   4.563   7.027 -0.0945  0.6558  0.2274
 8408SOL    HW136860   0.366   4.624   6.954 -0.4718  1.0068  0.5626
 8408SOL    HW236861   0.416   4.618   7.093 -0.3636 -0.2649  1.1675
 8409SOL     OW36862   0.577   0.171   7.853  0.1416 -0.0275 -0.3030
 8409SOL    HW136863   0.606   0.245   7.905 -0.3728  1.4296 -2.0872
 8409SOL    HW236864   0.633   0.184   7.776  0.3493 -2.9383 -0.6612
 8410SOL     OW36865   0.418   4.154  17.609 -0.2064 -0.5190 -0.3158
 8410SOL    HW136866   0.336   4.204  17.609  0.1095  0.0114  1.3886
 8410SOL    HW236867   0.471   4.187  17.537 -0.5300  2.4996  0.8106
 8411SOL     OW36868   3.452   0.919   4.375  0.5687 -0.0938 -0.0483
 8411SOL    HW136869   3.494   0.931   4.290 -0.0831 -1.3205 -0.5343
 8411SOL    HW236870   3.361   0.922   4.346  0.4942  3.5080  0.5409
 8412SOL     OW36871   2.663   4.565   6.372  0.3978  0.3016  0.0607
 8412SOL    HW136872   2.679   4.471   6.378 -0.2736  0.2295  0.7433
 8412SOL    HW236873   2.706   4.576   6.288 -2.6173 -0.1538 -1.5309
 8413SOL     OW36874   4.440   1.078  15.195  0.3438 -0.2672 -0.4939
 8413SOL    HW136875   4.427   1.141  15.124 -0.7492 -0.3459 -0.3780
 8413SOL    HW236876   4.347   1.058  15.206  0.4643 -0.9337 -0.6966
 8414SOL     OW36877   1.461   3.996   0.006 -0.2299 -0.1604  0.2967
 8414SOL    HW136878   1.452   4.049  17.680 -1.7857  0.4194  0.8571
 8414SOL    HW236879   1.510   4.056   0.062  1.9163 -1.0024 -0.6927
 8415SOL     OW36880   0.660   2.576  15.415 -0.6240 -0.2467 -0.3319
 8415SOL    HW136881   0.630   2.602  15.328  1.8915  0.7488 -0.9287
 8415SOL    HW236882   0.578   2.576  15.463 -0.7913  0.0375 -0.6256
 8416SOL     OW36883   0.846   4.497  14.262 -0.3971  0.0028  0.3450
 8416SOL    HW136884   0.941   4.483  14.257 -0.4186  0.7531 -2.0368
 8416SOL    HW236885   0.812   4.415  14.226  0.8147 -0.0563 -0.6589
 8417SOL     OW36886   4.137   2.342   5.247  0.6646  0.0391  0.1668
 8417SOL    HW136887   4.173   2.366   5.162  0.9748  0.1059  0.3144
 8417SOL    HW236888   4.170   2.254   5.265 -0.5422 -0.4895 -0.2606
 8418SOL     OW36889   3.846   0.279   8.485 -0.4388 -0.4633  0.1297
 8418SOL    HW136890   3.861   0.324   8.402  0.7100  0.2107  0.7140
 8418SOL    HW236891   3.816   0.349   8.542 -0.4691 -0.8433  0.5769
 8419SOL     OW36892   2.611   0.353   6.437  0.2742 -0.1134  0.1272
 8419SOL    HW136893   2.642   0.283   6.493 -0.1107 -0.3266  0.0706
 8419SOL    HW236894   2.581   0.412   6.506 -2.7211 -0.9020 -0.4956
 8420SOL     OW36895   4.072   4.689   4.175 -0.2603 -0.2674 -0.4187
 8420SOL    HW136896   4.148   0.002   4.149  0.2041  0.2306  1.8634
 8420SOL    HW236897   4.025   4.696   4.093  0.4818 -1.1303 -0.9132
 8421SOL     OW36898   3.944   1.917   8.774  0.4581  0.2005  0.1131
 8421SOL    HW136899   3.998   1.940   8.850 -0.1689  1.2594  0.2304
 8421SOL    HW236900   3.948   2.005   8.737 -0.0485  0.9428  1.7892
 8422SOL     OW36901   4.302   0.206   4.472  0.0658 -0.0723 -0.2088
 8422SOL    HW136902   4.364   0.206   4.544  1.7680 -2.8981 -1.6608
 8422SOL    HW236903   4.254   0.282   4.505  1.7703 -0.7356  3.7430
 8423SOL     OW36904   2.816   2.059   2.584  0.2130  0.3086  0.2266
 8423SOL    HW136905   2.830   1.999   2.510  0.1363  1.9208 -1.1009
 8423SOL    HW236906   2.727   2.035   2.608  0.0494  0.0750 -0.5976
 8424SOL     OW36907   1.138   1.986  16.062 -0.6390 -0.5132 -0.3237
 8424SOL    HW136908   1.084   2.032  16.126 -0.7674  2.3625 -2.4877
 8424SOL    HW236909   1.209   1.964  16.123 -2.9646  1.7691  3.1848
 8425SOL     OW36910   4.654   2.675   3.268  0.3553  0.1470  0.4030
 8425SOL    HW136911   4.602   2.753   3.250  0.5724 -0.0367 -1.0290
 8425SOL    HW236912   4.647   2.622   3.188  0.6152 -0.8629  1.0399
 8426SOL     OW36913   1.496   1.095  16.564 -0.4859 -0.0958  0.5226
 8426SOL    HW136914   1.455   1.025  16.614 -3.2384 -0.6925 -2.5740
 8426SOL    HW236915   1.525   1.153  16.634 -2.8609  2.0400 -0.2319
 8427SOL     OW36916   1.724   1.955  16.743  0.6354  0.2906  0.4462
 8427SOL    HW136917   1.647   2.006  16.720 -0.6321 -2.1720 -0.7310
 8427SOL    HW236918   1.700   1.874  16.697 -2.1339  1.2195  0.2857
 8428SOL     OW36919   1.393   1.228   4.505  0.6380 -0.0222 -1.0383
 8428SOL    HW136920   1.374   1.236   4.598 -3.4932 -2.1924 -1.7008
 8428SOL    HW236921   1.314   1.256   4.460  1.2979  2.1169 -0.8558
 8429SOL     OW36922   0.070   1.504   8.758  0.2256  0.6963 -0.2005
 8429SOL    HW136923   0.118   1.564   8.815 -0.0887  1.0429 -0.3007
 8429SOL    HW236924   0.038   1.440   8.823 -1.1845  1.1155 -0.4781
 8430SOL     OW36925   0.495   3.005   1.862  0.2232 -0.5005  0.5671
 8430SOL    HW136926   0.414   3.053   1.848  0.0106 -1.5577 -1.7955
 8430SOL    HW236927   0.563   3.049   1.812 -0.4124 -2.2336 -1.7951
 8431SOL     OW36928   0.576   3.688   2.442  0.1475  0.1221  0.0436
 8431SOL    HW136929   0.555   3.595   2.435 -1.4967  0.6957 -2.8886
 8431SOL    HW236930   0.492   3.735   2.444 -0.2831 -0.8466  4.1038
 8432SOL     OW36931   2.423   0.394   6.206  0.1851  0.6985  0.1070
 8432SOL    HW136932   2.470   0.310   6.213 -1.4701 -0.2552 -0.2344
 8432SOL    HW236933   2.447   0.417   6.296  2.4194  1.3091 -0.6257
 8433SOL     OW36934   0.982   0.872   7.970  0.3686  0.0419 -0.1149
 8433SOL    HW136935   0.992   0.777   7.980  2.2324  0.1899 -0.4438
 8433SOL    HW236936   1.074   0.895   7.987 -0.3718  4.9544 -2.7429
 8434SOL     OW36937   2.517   0.302  11.660 -0.4156  0.7975  0.5441
 8434SOL    HW136938   2.430   0.265  11.674  0.2584 -0.5715  1.0961
 8434SOL    HW236939   2.490   0.391  11.686 -0.5288  0.4863  1.4806
 8435SOL     OW36940   1.585   0.063   4.026 -0.1342  0.3840  0.3524
 8435SOL    HW136941   1.610   0.118   3.952  0.2386  2.3748  1.9401
 8435SOL    HW236942   1.591   0.128   4.096  1.6408  1.2723 -0.6307
 8436SOL     OW36943   0.238   3.436   4.431  0.1471  0.2048  0.2061
 8436SOL    HW136944   0.225   3.463   4.522  1.9424  1.4578  0.1005
 8436SOL    HW236945   0.203   3.515   4.389 -0.9958 -0.0879  0.6100
 8437SOL     OW36946   0.848   1.278   8.249 -0.3019  0.1324  0.0185
 8437SOL    HW136947   0.864   1.221   8.174  1.3571 -0.7183  1.0339
 8437SOL    HW236948   0.765   1.239   8.276  0.6541  0.3432  3.2327
 8438SOL     OW36949   3.802   0.186   2.418 -0.5490  0.2981 -0.3853
 8438SOL    HW136950   3.804   0.105   2.468  0.7951  2.2443  2.7744
 8438SOL    HW236951   3.895   0.209   2.413  0.7756 -4.8927  1.1085
 8439SOL     OW36952   0.929   2.934   7.684  0.3395  0.1397  0.2398
 8439SOL    HW136953   0.999   2.870   7.676 -0.0064  0.1292 -2.7512
 8439SOL    HW236954   0.974   3.018   7.682  0.1301  0.2479  0.0883
 8440SOL     OW36955   0.159   1.612  10.973  0.2317 -0.2160 -0.1533
 8440SOL    HW136956   0.254   1.608  10.958  0.5337  0.3253  1.6108
 8440SOL    HW236957   0.141   1.701  10.943 -0.5103 -0.5966 -0.8125
 8441SOL     OW36958   2.840   4.246  16.734 -0.4631 -0.3559  0.4281
 8441SOL    HW136959   2.841   4.217  16.825 -3.8180  0.3020  0.6832
 8441SOL    HW236960   2.757   4.211  16.699  1.2425 -2.3150 -1.6661
 8442SOL     OW36961   0.731   0.691  14.665 -0.0422 -0.3825  0.2449
 8442SOL    HW136962   0.698   0.746  14.736 -1.0572  2.2900 -2.3378
 8442SOL    HW236963   0.826   0.696  14.675 -0.1787  3.3331 -0.3820
 8443SOL     OW36964   2.150   3.805  17.056  0.5168 -0.0068  0.0382
 8443SOL    HW136965   2.080   3.832  17.116  3.6962  3.0188  2.3758
 8443SOL    HW236966   2.176   3.888  17.016 -1.8654  1.0619  0.6692
 8444SOL     OW36967   3.796   3.997   1.726 -0.4634 -0.0461  0.0972
 8444SOL    HW136968   3.888   3.969   1.723 -0.3699 -0.1682  3.8143
 8444SOL    HW236969   3.780   3.969   1.816  0.4583 -0.7314  0.0560
 8445SOL     OW36970   4.143   2.901   5.594  0.6984  0.6856 -0.3221
 8445SOL    HW136971   4.121   2.875   5.505  0.4608 -1.1384  0.2749
 8445SOL    HW236972   4.059   2.934   5.628 -0.5660  0.0959 -2.8138
 8446SOL     OW36973   0.939   4.629  12.103  0.0641 -0.2994 -0.0199
 8446SOL    HW136974   1.002   4.615  12.033  1.1216  0.6953  0.7259
 8446SOL    HW236975   0.930   4.724  12.088 -0.8470 -0.4958 -0.7015
 8447SOL     OW36976   2.802   2.377  12.558 -0.0700 -0.6930 -0.2734
 8447SOL    HW136977   2.889   2.360  12.522  0.2205  0.3676 -0.0441
 8447SOL    HW236978   2.812   2.466  12.590 -1.0493 -0.6628 -0.0640
 8448SOL     OW36979   0.201   4.397   3.388  0.2429 -0.8946  0.3795
 8448SOL    HW136980   0.187   4.333   3.458 -1.7431 -0.7240  0.1425
 8448SOL    HW236981   0.114   4.414   3.352  1.0859  0.9596 -0.7536
 8449SOL     OW36982   0.598   0.148   6.131  0.4946 -0.5691 -0.4479
 8449SOL    HW136983   0.680   0.100   6.124 -0.1981 -1.7254 -0.6815
 8449SOL    HW236984   0.541   0.105   6.067  1.0828 -0.9251 -0.7222
 8450SOL     OW36985   3.017   2.523   8.067 -0.0161 -0.6882  0.2597
 8450SOL    HW136986   3.075   2.592   8.099 -0.1125 -0.7856  0.6382
 8450SOL    HW236987   2.934   2.571   8.074 -0.5695 -1.8615  1.6719
 8451SOL     OW36988   1.486   0.602   1.303  0.7332  0.7643  0.3209
 8451SOL    HW136989   1.437   0.654   1.366 -1.3661  0.2566 -0.8881
 8451SOL    HW236990   1.420   0.588   1.235  0.3483  1.6289  0.5171
 8452SOL     OW36991   2.849   0.141   4.220 -0.6411 -0.0192  0.3583
 8452SOL    HW136992   2.783   0.209   4.234  2.1557  2.6467  0.4139
 8452SOL    HW236993   2.898   0.150   4.301 -0.2476  1.0513  0.0071
 8453SOL     OW36994   2.931   1.123   4.218 -0.2115  0.3963  0.0268
 8453SOL    HW136995   2.887   1.184   4.159  2.0487  0.4304 -1.5881
 8453SOL    HW236996   2.994   1.098   4.151  1.7334  0.9859  1.6531
 8454SOL     OW36997   2.944   1.142   6.763  0.0557  0.0330  0.4757
 8454SOL    HW136998   3.010   1.076   6.742  0.4566  0.2815  0.9550
 8454SOL    HW236999   2.956   1.220   6.709 -0.6339  0.1690  0.5174
 8455SOL     OW37000   4.441   4.175   6.041  0.3017  0.5380  0.1797
 8455SOL    HW137001   4.353   4.140   6.053  1.0761 -0.3706  3.3029
 8455SOL    HW237002   4.414   4.265   6.020  0.7118  0.3588 -1.0815
 8456SOL     OW37003   3.153   3.998  11.687 -0.9384 -0.0990 -0.3305
 8456SOL    HW137004   3.199   3.916  11.668  0.9750  0.6739  1.0299
 8456SOL    HW237005   3.167   4.005  11.781 -2.2312 -1.6368 -0.0194
 8457SOL     OW37006   3.071   0.668   9.238 -0.4001  0.0112  0.1509
 8457SOL    HW137007   2.989   0.655   9.285 -1.0376 -0.9811 -1.2119
 8457SOL    HW237008   3.133   0.624   9.295 -0.1678  0.6219  0.3713
 8458SOL     OW37009   3.727   2.310  14.611  0.2269 -0.5057 -0.3079
 8458SOL    HW137010   3.806   2.354  14.644 -0.3596  1.3543 -1.3962
 8458SOL    HW237011   3.741   2.222  14.647  0.8206 -0.4922 -0.4948
 8459SOL     OW37012   2.896   3.466  13.765 -0.8389 -0.6080  0.0318
 8459SOL    HW137013   2.869   3.472  13.673  0.0209  0.7404 -0.1290
 8459SOL    HW237014   2.925   3.375  13.773 -2.7072 -1.3146 -1.2821
 8460SOL     OW37015   4.268   4.276   5.746 -0.5204 -0.4751 -0.1744
 8460SOL    HW137016   4.205   4.252   5.678 -0.4664  2.0242 -1.1249
 8460SOL    HW237017   4.236   4.222   5.818  1.2731  1.1520  1.8703
 8461SOL     OW37018   1.820   3.412   5.950  0.6009 -0.1603 -0.0954
 8461SOL    HW137019   1.759   3.416   5.877 -0.8973 -2.4747  1.0576
 8461SOL    HW237020   1.808   3.318   5.962 -1.7063  0.2447  0.7790
 8462SOL     OW37021   4.180   0.828   7.709  0.0901 -0.0166 -0.3491
 8462SOL    HW137022   4.216   0.830   7.798 -0.4179  0.9877 -0.1737
 8462SOL    HW237023   4.250   0.885   7.677 -1.2653 -0.2527 -3.7260
 8463SOL     OW37024   1.708   4.479  10.569 -0.7882 -0.6238  0.0571
 8463SOL    HW137025   1.730   4.503  10.659 -0.5326 -0.8244  0.0473
 8463SOL    HW237026   1.786   4.431  10.542 -0.6636 -2.2856  3.3730
 8464SOL     OW37027   2.263   3.915  12.370 -0.1158  0.3031  0.2678
 8464SOL    HW137028   2.328   3.850  12.343  1.1419  0.2517  3.3309
 8464SOL    HW237029   2.237   3.869  12.450 -1.2905  1.1846  0.3908
 8465SOL     OW37030   4.584   4.027   4.353 -0.2070  0.4891 -0.0221
 8465SOL    HW137031   4.537   3.981   4.284  1.3008  1.4485 -1.7062
 8465SOL    HW237032   4.527   4.101   4.372 -1.4103  0.4204 -3.3626
 8466SOL     OW37033   4.719   1.194   4.984 -0.0034 -0.1485 -0.2302
 8466SOL    HW137034   4.642   1.207   4.929  1.1414  0.7739 -1.6254
 8466SOL    HW237035   4.681   1.212   5.070 -1.1742 -2.9467 -0.1570
 8467SOL     OW37036   2.310   4.720   8.492 -0.1401  0.1298 -0.0741
 8467SOL    HW137037   2.239   0.041   8.468 -0.7968 -0.1327  1.2077
 8467SOL    HW237038   2.386   0.015   8.446 -0.1700  1.4614  0.8633
 8468SOL     OW37039   0.210   1.352  12.898 -0.0819 -0.2292  0.2399
 8468SOL    HW137040   0.305   1.344  12.903 -0.4798 -2.5447  4.0772
 8468SOL    HW237041   0.192   1.281  12.836 -0.6876  0.3880 -0.2898
 8469SOL     OW37042   4.287   1.286  13.165 -0.0348  0.0434 -0.2536
 8469SOL    HW137043   4.251   1.372  13.139 -0.7750 -0.0840  0.3314
 8469SOL    HW237044   4.353   1.277  13.097 -1.3335  2.7011 -1.8796
 8470SOL     OW37045   4.178   3.341   6.520  0.0986 -0.2319  0.3994
 8470SOL    HW137046   4.208   3.334   6.611  0.6618  0.6261  0.2855
 8470SOL    HW237047   4.262   3.333   6.475  0.2322 -1.1375  0.8128
 8471SOL     OW37048   3.928   4.572   6.699  0.3810  0.7540  0.1343
 8471SOL    HW137049   3.978   4.493   6.723 -0.2522 -0.0227 -1.0749
 8471SOL    HW237050   3.987   4.641   6.729 -1.6555  2.3652  0.4460
 8472SOL     OW37051   3.931   3.371  15.622 -1.1667  0.3308  0.3285
 8472SOL    HW137052   3.854   3.409  15.581 -1.4124 -1.3818 -0.7814
 8472SOL    HW237053   3.895   3.356  15.710  0.4194  0.8263  1.0630
 8473SOL     OW37054   1.738   0.866   4.980  0.2620  1.0480  0.7558
 8473SOL    HW137055   1.810   0.892   4.923  1.4791  1.4397  2.4618
 8473SOL    HW237056   1.751   0.906   5.066  1.1906  1.0077  0.6307
 8474SOL     OW37057   2.992   3.564   3.701 -0.1502 -0.0539 -0.1529
 8474SOL    HW137058   2.935   3.538   3.774 -0.0812 -1.6160 -0.6639
 8474SOL    HW237059   2.924   3.556   3.634 -0.6035  1.7228  0.0793
 8475SOL     OW37060   1.536   2.735   6.232  0.1729  0.1227  0.7203
 8475SOL    HW137061   1.475   2.780   6.290 -1.4858 -1.1438 -0.0466
 8475SOL    HW237062   1.545   2.652   6.277  0.6260 -0.5762 -0.6560
 8476SOL     OW37063   4.376   1.411   5.627  0.2724  0.3888  0.1019
 8476SOL    HW137064   4.282   1.421   5.640  0.6404  2.6552  1.0418
 8476SOL    HW237065   4.418   1.491   5.659 -1.7129  1.8695 -0.9635
 8477SOL     OW37066   3.028   3.146   5.017  0.1420  0.1272  0.4354
 8477SOL    HW137067   3.112   3.100   5.005 -0.1372  0.1694 -1.5295
 8477SOL    HW237068   2.969   3.077   4.986  0.8439  0.1949 -1.0132
 8478SOL     OW37069   1.653   3.640   3.764  0.4519 -0.0435 -0.0925
 8478SOL    HW137070   1.729   3.678   3.720 -1.5899  0.7231 -2.9582
 8478SOL    HW237071   1.601   3.599   3.695  0.0284 -0.0914  0.2597
 8479SOL     OW37072   1.303   1.296   8.051 -0.2129 -0.4743 -0.5280
 8479SOL    HW137073   1.377   1.237   8.037 -2.2145 -3.6294  2.0546
 8479SOL    HW237074   1.262   1.279   7.965  0.4657  0.0770 -0.9528
 8480SOL     OW37075   0.970   2.276   6.539  0.0422 -0.0528 -0.3244
 8480SOL    HW137076   0.953   2.212   6.469 -1.5611 -1.3385  1.2486
 8480SOL    HW237077   0.907   2.257   6.608  0.8980 -0.4627  0.3472
 8481SOL     OW37078   2.884   0.261   6.749  0.0918 -0.1583  0.1914
 8481SOL    HW137079   2.835   0.325   6.801  0.2196  1.1888 -1.3412
 8481SOL    HW237080   2.919   0.209   6.821  0.7225 -0.0205 -0.0172
 8482SOL     OW37081   0.319   2.462   1.558  0.0560 -0.1780  0.0408
 8482SOL    HW137082   0.288   2.473   1.648  1.1701 -1.0364  0.5309
 8482SOL    HW237083   0.353   2.546   1.528 -1.2315  0.3427  0.0167
 8483SOL     OW37084   4.129   1.356  11.483  0.0313  0.0495  0.4266
 8483SOL    HW137085   4.093   1.288  11.540  0.9112  0.4089  1.3981
 8483SOL    HW237086   4.051   1.398  11.446  0.7238  0.4348 -0.5937
 8484SOL     OW37087   0.675   0.281   8.145  0.3964 -0.9306 -0.0465
 8484SOL    HW137088   0.744   0.334   8.105  0.5961 -1.2643 -0.1439
 8484SOL    HW237089   0.667   0.314   8.235 -1.3165 -0.6047 -0.3189
 8485SOL     OW37090   3.493   4.085   5.201  0.0081 -0.4685  0.0062
 8485SOL    HW137091   3.497   4.145   5.127 -2.2107  0.1346  0.3750
 8485SOL    HW237092   3.466   4.003   5.159 -0.1726 -0.0608 -0.6697
 8486SOL     OW37093   0.893   2.857   5.779  0.3171  0.0571  0.1442
 8486SOL    HW137094   0.805   2.835   5.748  0.5426 -0.3969 -0.1765
 8486SOL    HW237095   0.958   2.870   5.710  3.0216  0.1664  2.7583
 8487SOL     OW37096   0.292   3.988   5.165 -0.0238 -0.0662 -0.4004
 8487SOL    HW137097   0.343   3.911   5.189 -0.5441 -0.4545 -0.5662
 8487SOL    HW237098   0.216   3.972   5.220  0.5427 -1.3236  0.0104
 8488SOL     OW37099   3.466   2.880   5.187  0.3674 -0.1633  0.0411
 8488SOL    HW137100   3.398   2.943   5.214 -0.6975 -1.8942  1.4072
 8488SOL    HW237101   3.467   2.824   5.264  1.0325  0.5033  0.5073
 8489SOL     OW37102   4.556   0.195  12.685 -0.0227 -0.3177 -0.0493
 8489SOL    HW137103   4.539   0.215  12.777 -1.7454  1.8977 -0.8253
 8489SOL    HW237104   4.635   0.144  12.699  0.3301  0.5445  1.0788
 8490SOL     OW37105   4.465   2.227   2.204  0.4362 -0.0017 -0.8435
 8490SOL    HW137106   4.433   2.271   2.125  0.6086 -0.4348 -1.1501
 8490SOL    HW237107   4.557   2.236   2.180  0.0247  4.0766 -0.9112
 8491SOL     OW37108   3.200   0.657   9.599 -0.5598 -0.0892 -0.0803
 8491SOL    HW137109   3.226   0.595   9.531  2.0514  1.0828 -0.1299
 8491SOL    HW237110   3.242   0.738   9.571  1.5195 -0.1061  3.0361
 8492SOL     OW37111   1.647   0.962  15.662  0.5324  0.1691  0.0768
 8492SOL    HW137112   1.589   0.894  15.697  2.3176 -0.6222  1.5127
 8492SOL    HW237113   1.636   0.961  15.567  1.2681 -1.8489 -0.0026
 8493SOL     OW37114   3.799   0.040  15.687 -0.1810  0.0035 -0.2782
 8493SOL    HW137115   3.722   0.032  15.629  0.7592 -1.3747 -1.3560
 8493SOL    HW237116   3.855   4.725  15.631  1.0937  1.1197 -0.0622
 8494SOL     OW37117   1.095   3.240   6.752  0.1347 -0.0043  0.0530
 8494SOL    HW137118   1.017   3.276   6.796 -0.8669 -2.3784  0.2204
 8494SOL    HW237119   1.159   3.297   6.795 -0.9003 -0.2121  1.8625
 8495SOL     OW37120   2.833   2.368  11.176  0.7776  0.0623 -0.0827
 8495SOL    HW137121   2.917   2.325  11.159  0.8847  0.5081 -0.6813
 8495SOL    HW237122   2.873   2.442  11.221 -1.0538 -0.3547  2.2035
 8496SOL     OW37123   2.281   4.159   8.395  0.0076  0.2251  0.6903
 8496SOL    HW137124   2.297   4.065   8.387  0.5950  0.5729 -2.2687
 8496SOL    HW237125   2.301   4.194   8.308  1.2208 -1.7578  0.1702
 8497SOL     OW37126   0.673   1.249   2.594  0.0029 -0.3463 -0.1416
 8497SOL    HW137127   0.655   1.185   2.663 -0.1124  0.9664  1.0542
 8497SOL    HW237128   0.744   1.292   2.643 -0.8714  1.8480 -0.8211
 8498SOL     OW37129   3.636   0.137   4.553  0.3127 -0.0787  0.3116
 8498SOL    HW137130   3.650   0.071   4.621  1.1635  0.3128  0.5242
 8498SOL    HW237131   3.611   0.206   4.613  0.8861 -0.3993  0.9207
 8499SOL     OW37132   0.743   2.284   4.277  0.4176 -0.1111 -0.3812
 8499SOL    HW137133   0.725   2.249   4.190 -1.2461  0.2743 -0.2020
 8499SOL    HW237134   0.764   2.207   4.331 -0.5469  0.6865  1.1459
 8500SOL     OW37135   4.319   2.783   8.079  0.6895  0.4696 -1.2586
 8500SOL    HW137136   4.379   2.835   8.026  1.5471  2.2425  1.4458
 8500SOL    HW237137   4.238   2.809   8.035  0.7349 -0.0790 -1.6661
 8501SOL     OW37138   4.239   2.632   6.143  0.0487  0.0386 -0.3079
 8501SOL    HW137139   4.186   2.698   6.188 -0.8273 -1.5031  0.9202
 8501SOL    HW237140   4.295   2.690   6.092 -0.8778  0.1622 -1.2055
 8502SOL     OW37141   1.659   1.038   3.573 -0.1813 -0.3347  0.2008
 8502SOL    HW137142   1.630   0.953   3.608 -1.7296  0.3413  0.5688
 8502SOL    HW237143   1.697   1.071   3.654 -2.3112  1.1093  0.5960
 8503SOL     OW37144   4.052   1.486   1.629 -0.0084 -0.1921  0.2813
 8503SOL    HW137145   3.990   1.457   1.563  2.2623  2.0283 -2.8467
 8503SOL    HW237146   4.130   1.512   1.579  0.9751  0.8399  2.3311
 8504SOL     OW37147   3.549   3.175  17.188 -0.2435 -0.3890 -0.1523
 8504SOL    HW137148   3.472   3.120  17.201  0.2308 -0.9623  0.2482
 8504SOL    HW237149   3.535   3.194  17.095 -0.8722  0.2701  0.0812
 8505SOL     OW37150   3.995   4.726   5.169  0.4478  0.0433 -0.4126
 8505SOL    HW137151   4.055   0.059   5.152 -1.0113  1.0770 -1.2287
 8505SOL    HW237152   4.012   4.717   5.263  0.0230 -1.4846 -0.4777
 8506SOL     OW37153   3.680   2.916   0.665  0.2558  0.4428  0.1782
 8506SOL    HW137154   3.595   2.871   0.672 -0.3382  1.3110 -1.4372
 8506SOL    HW237155   3.725   2.881   0.741  0.6775  2.4636  0.8586
 8507SOL     OW37156   3.383   4.245   4.926  0.3479  0.3117 -0.5143
 8507SOL    HW137157   3.422   4.195   4.855 -0.0900  0.8412 -1.1289
 8507SOL    HW237158   3.310   4.193   4.958  0.9821 -0.7477 -0.8204
 8508SOL     OW37159   1.898   2.141   9.294 -0.4952  0.0453  0.0646
 8508SOL    HW137160   1.955   2.089   9.351  0.0104 -1.2303 -1.6257
 8508SOL    HW237161   1.812   2.102   9.310 -0.2587  0.7557  3.2381
 8509SOL     OW37162   0.839   3.064   0.726 -0.2745  0.2714  0.1908
 8509SOL    HW137163   0.822   3.011   0.649 -3.0597  1.5315 -0.0963
 8509SOL    HW237164   0.763   3.043   0.780  0.0559  0.4163  0.7136
 8510SOL     OW37165   3.865   1.951  10.899 -0.1942 -0.2947 -0.0816
 8510SOL    HW137166   3.898   2.040  10.886  0.9350 -0.6356  0.4677
 8510SOL    HW237167   3.795   1.975  10.960 -1.4366 -0.1265 -1.5701
 8511SOL     OW37168   3.161   1.392  10.202 -0.2601 -0.9213 -0.4466
 8511SOL    HW137169   3.144   1.319  10.143 -1.0196 -1.4536  0.4350
 8511SOL    HW237170   3.082   1.445  10.186 -0.4062 -0.3450  2.0599
 8512SOL     OW37171   2.842   0.403  16.730 -0.2527  0.5289 -0.4576
 8512SOL    HW137172   2.857   0.445  16.645 -0.1963  1.5335  0.0499
 8512SOL    HW237173   2.891   0.322  16.712 -0.7675  0.4662 -1.5498
 8513SOL     OW37174   0.011   1.961  12.104  0.1474 -0.4336  0.0673
 8513SOL    HW137175   0.023   2.050  12.137  0.7548 -0.7969  0.8436
 8513SOL    HW237176   0.044   1.969  12.014 -0.4621 -0.3177 -0.1473
 8514SOL     OW37177   3.581   1.666  10.618  0.0472  0.1345 -0.2952
 8514SOL    HW137178   3.636   1.704  10.686  1.0253 -1.7425 -0.0277
 8514SOL    HW237179   3.555   1.581  10.655  1.0437  1.1759  2.8181
 8515SOL     OW37180   2.664   2.348   5.017 -0.4350 -0.2988  0.4609
 8515SOL    HW137181   2.690   2.264   4.979 -0.3338 -0.4957  0.9730
 8515SOL    HW237182   2.579   2.322   5.050  0.6037  0.8582  4.0746
 8516SOL     OW37183   2.556   2.806  16.623  0.5541  0.0260  1.0082
 8516SOL    HW137184   2.563   2.720  16.581 -0.2755  0.5301 -0.1734
 8516SOL    HW237185   2.565   2.863  16.547 -0.4185  0.6812  1.3879
 8517SOL     OW37186   1.640   4.268  10.232 -0.2260  0.7032  0.4671
 8517SOL    HW137187   1.562   4.215  10.249 -0.0542  0.0795 -0.6534
 8517SOL    HW237188   1.619   4.360  10.247  1.2403  1.2660 -0.8578
 8518SOL     OW37189   3.100   0.749   6.387 -0.0234 -0.4105  0.2508
 8518SOL    HW137190   3.014   0.735   6.349 -0.2648  0.6802  0.3909
 8518SOL    HW237191   3.161   0.686   6.348  0.3364  0.2487 -0.2553
 8519SOL     OW37192   4.347   3.101   5.521  0.1340  0.0135  0.4214
 8519SOL    HW137193   4.292   3.026   5.546 -1.8486  1.1912 -0.3895
 8519SOL    HW237194   4.435   3.067   5.537  0.0051  0.1519  1.4604
 8520SOL     OW37195   1.995   0.799  11.002 -0.5318  0.1240 -0.0202
 8520SOL    HW137196   2.004   0.867  11.069  1.4251 -1.0215  0.8896
 8520SOL    HW237197   2.027   0.722  11.049  2.1380  0.7687 -0.7500
 8521SOL     OW37198   2.528   2.667  15.565 -0.2332  0.1754  0.3682
 8521SOL    HW137199   2.542   2.572  15.558 -0.4605  0.2186 -0.6261
 8521SOL    HW237200   2.579   2.700  15.491 -0.7318 -0.2613 -0.1672
 8522SOL     OW37201   3.784   2.665  16.412 -0.1857  0.5082 -0.1138
 8522SOL    HW137202   3.691   2.668  16.388  0.0280 -1.6546 -1.2199
 8522SOL    HW237203   3.782   2.572  16.435 -1.3380  0.6600  0.3859
 8523SOL     OW37204   1.588   0.908  11.418  0.0985 -0.3744  0.1753
 8523SOL    HW137205   1.555   0.823  11.391 -0.1778 -0.0395 -0.5416
 8523SOL    HW237206   1.645   0.887  11.492 -0.6480 -1.2991  0.4856
 8524SOL     OW37207   2.477   4.353   4.059 -0.1576  0.3046 -0.1493
 8524SOL    HW137208   2.569   4.356   4.033 -0.2066  0.0897 -0.3511
 8524SOL    HW237209   2.462   4.447   4.059 -3.1629 -0.1680 -1.0091
 8525SOL     OW37210   4.078   3.194   4.362 -0.3202  0.0674 -0.2021
 8525SOL    HW137211   4.021   3.120   4.381  0.2956 -0.0741  1.0559
 8525SOL    HW237212   4.101   3.217   4.452  1.6640 -1.3590 -0.3414
 8526SOL     OW37213   4.417   1.720   5.226 -0.2243 -0.4403 -0.0125
 8526SOL    HW137214   4.500   1.767   5.218  2.2923 -5.2603 -2.1910
 8526SOL    HW237215   4.443   1.647   5.170  0.4713 -1.8814  2.1871
 8527SOL     OW37216   0.863   3.356   4.192 -0.3949 -0.7953 -0.5774
 8527SOL    HW137217   0.871   3.313   4.276  0.4581  0.1371 -0.1761
 8527SOL    HW237218   0.774   3.392   4.195  0.5082  1.2415  1.5278
 8528SOL     OW37219   3.069   0.390  17.128 -0.0856  0.5472 -0.5988
 8528SOL    HW137220   3.097   0.473  17.165 -1.8232  0.9035 -0.1131
 8528SOL    HW237221   3.119   0.384  17.047  0.5377 -0.5747 -0.1353
 8529SOL     OW37222   4.710   3.131   0.064 -0.1302 -0.3373 -0.5551
 8529SOL    HW137223   0.009   3.050   0.029  1.4508  0.3482 -0.4511
 8529SOL    HW237224   4.650   3.163  17.750  0.7719 -0.7835 -1.5720
 8530SOL     OW37225   4.738   4.223   2.334 -0.0294 -0.3431  0.2897
 8530SOL    HW137226   4.655   4.175   2.330 -0.7210  0.6557  2.6307
 8530SOL    HW237227   0.052   4.159   2.287  1.2680 -0.0451  1.3415
 8531SOL     OW37228   2.354   4.004   4.386  0.0738  0.6138  0.4535
 8531SOL    HW137229   2.382   4.088   4.349  0.1723 -0.2005 -1.3251
 8531SOL    HW237230   2.267   4.028   4.417  0.1130 -0.8984  1.7121
 8532SOL     OW37231   3.661   1.552   3.442 -0.2061 -0.1009  0.1897
 8532SOL    HW137232   3.595   1.514   3.385  0.6018 -4.2100  2.0370
 8532SOL    HW237233   3.741   1.529   3.396  0.8832  4.2798 -0.1003
 8533SOL     OW37234   2.660   0.526   2.183  0.0962  0.2985 -0.3341
 8533SOL    HW137235   2.657   0.432   2.195  0.5241  0.2219 -0.8147
 8533SOL    HW237236   2.724   0.528   2.112  0.0189  1.0491 -0.3873
 8534SOL     OW37237   3.943   0.858   2.194 -0.3388  0.1856 -0.0281
 8534SOL    HW137238   4.024   0.808   2.191 -2.1576 -2.8380  0.8048
 8534SOL    HW237239   3.908   0.809   2.268 -1.2201 -0.4771 -0.8657
 8535SOL     OW37240   1.931   3.594   0.756  0.4215 -0.4179  0.6277
 8535SOL    HW137241   1.925   3.687   0.736  0.3016 -0.6542 -0.4221
 8535SOL    HW237242   2.026   3.583   0.752  0.4270  0.4833 -1.4945
 8536SOL     OW37243   2.711   3.231  13.143 -0.1401 -0.3108 -0.5910
 8536SOL    HW137244   2.632   3.178  13.159 -1.1901  0.7307 -2.2303
 8536SOL    HW237245   2.676   3.292  13.078 -0.9249  0.5125  0.6029
 8537SOL     OW37246   1.755   1.244   9.083  0.1670 -0.1310  0.2490
 8537SOL    HW137247   1.817   1.315   9.066 -0.9840  0.9679  0.7108
 8537SOL    HW237248   1.685   1.279   9.029  0.6364  0.7285  0.1985
 8538SOL     OW37249   2.670   1.646   3.792  0.4201  0.0641  0.5167
 8538SOL    HW137250   2.637   1.577   3.734  0.4701  0.6808 -0.2407
 8538SOL    HW237251   2.584   1.688   3.799 -0.3329 -1.0180 -2.3263
 8539SOL     OW37252   3.619   2.684   7.592 -0.8660  0.4550 -0.1082
 8539SOL    HW137253   3.614   2.756   7.529 -2.5490 -0.8021 -1.3738
 8539SOL    HW237254   3.626   2.730   7.676  1.6054  2.3919 -1.3655
 8540SOL     OW37255   4.100   4.289   1.909  0.0873  0.2288 -0.5888
 8540SOL    HW137256   4.144   4.373   1.893  0.4175  0.6826  2.6929
 8540SOL    HW237257   4.172   4.229   1.921 -0.1785  0.3408  1.4416
 8541SOL     OW37258   0.261   0.357   7.256  0.2442 -0.3094  0.4061
 8541SOL    HW137259   0.313   0.379   7.178 -1.4289 -0.1865 -0.6758
 8541SOL    HW237260   0.330   0.363   7.322 -0.7377 -3.2723  1.6829
 8542SOL     OW37261   2.656   1.755  15.277  0.1332  0.0456  0.1009
 8542SOL    HW137262   2.689   1.712  15.356 -0.6590  2.2533  1.6486
 8542SOL    HW237263   2.567   1.724  15.263 -0.3009  1.7375 -0.8797
 8543SOL     OW37264   3.239   2.811   9.074 -1.1137 -0.1442 -0.2588
 8543SOL    HW137265   3.263   2.844   9.161 -0.1408 -1.6896  0.0754
 8543SOL    HW237266   3.269   2.884   9.019  2.7252 -2.1743 -0.9075
 8544SOL     OW37267   3.999   3.322   7.664  0.3245  0.0728  0.0976
 8544SOL    HW137268   4.026   3.302   7.574  2.6079 -0.2339  0.8508
 8544SOL    HW237269   3.946   3.398   7.640 -0.0186 -0.3825 -0.5980
 8545SOL     OW37270   4.578   4.532   0.903  0.3511 -0.9874  0.2247
 8545SOL    HW137271   4.590   4.627   0.900 -0.6010 -0.7613  3.5606
 8545SOL    HW237272   4.542   4.506   0.819 -0.1618 -0.6432  0.3412
 8546SOL     OW37273   2.301   2.899   5.467  0.0438 -0.0089 -0.9193
 8546SOL    HW137274   2.236   2.864   5.406  0.5425 -0.6421 -1.0825
 8546SOL    HW237275   2.248   2.903   5.546  0.4988 -0.0030 -0.6134
 8547SOL     OW37276   0.257   0.482  15.811  0.6268  0.1600  0.0238
 8547SOL    HW137277   0.213   0.444  15.887 -0.2900  2.1290  0.4531
 8547SOL    HW237278   0.212   0.563  15.790  0.0587  0.4729  2.4637
 8548SOL     OW37279   0.058   1.696   4.887 -0.3953 -0.1034  0.5489
 8548SOL    HW137280   0.119   1.656   4.949  0.0124 -0.0572  0.1710
 8548SOL    HW237281   0.088   1.660   4.804 -2.5200  1.6879 -1.0249
 8549SOL     OW37282   4.554   4.000   9.292 -0.0525 -0.8635  0.6059
 8549SOL    HW137283   4.503   4.048   9.228  0.3386  0.0459  0.9754
 8549SOL    HW237284   4.547   4.043   9.377  1.3935 -1.7262  1.1745
 8550SOL     OW37285   0.671   3.354   6.643  0.0303  0.3195  1.3609
 8550SOL    HW137286   0.753   3.390   6.609 -1.0369  1.8332  0.3774
 8550SOL    HW237287   0.695   3.311   6.725  0.2999 -1.3933  0.3808
 8551SOL     OW37288   0.449   0.731   9.080  0.7711  0.3415 -0.2354
 8551SOL    HW137289   0.529   0.723   9.132 -0.9256 -1.8643  2.0402
 8551SOL    HW237290   0.392   0.768   9.148 -0.1121 -0.5838 -0.4703
 8552SOL     OW37291   2.437   3.256  14.613  0.0947  0.3389  0.2541
 8552SOL    HW137292   2.492   3.178  14.616 -2.3434 -1.3755  0.4930
 8552SOL    HW237293   2.471   3.306  14.687  1.6346 -2.2943  1.3261
 8553SOL     OW37294   1.344   4.127   7.209  0.3274 -0.0982 -0.0448
 8553SOL    HW137295   1.368   4.058   7.271 -2.2240  0.9942  2.1482
 8553SOL    HW237296   1.253   4.100   7.203  0.8056 -2.1491  1.7336
 8554SOL     OW37297   3.229   2.712   8.127  0.5050 -0.0265  0.1203
 8554SOL    HW137298   3.254   2.801   8.155  1.4828 -0.7680  1.5964
 8554SOL    HW237299   3.313   2.668   8.140  0.6048  0.2451  0.4249
 8555SOL     OW37300   3.343   2.110   0.039  0.0808  0.1472  0.2504
 8555SOL    HW137301   3.341   2.089  17.699 -1.0979  1.6260 -0.0565
 8555SOL    HW237302   3.249   2.127   0.036 -0.0777 -0.7061  0.4210
 8556SOL     OW37303   3.974   2.868   3.485 -0.2371  0.1236  0.0574
 8556SOL    HW137304   4.000   2.813   3.559  1.0798  0.7857  0.0860
 8556SOL    HW237305   3.881   2.854   3.467 -0.1463  0.2163 -0.4807
 8557SOL     OW37306   4.310   1.053   4.766  0.3863  0.4062  0.7506
 8557SOL    HW137307   4.226   1.045   4.720  1.6260  1.8059 -1.6955
 8557SOL    HW237308   4.323   0.968   4.809 -0.7443 -1.7310 -3.1227
 8558SOL     OW37309   4.293   0.183   8.713 -0.8980 -0.1699  0.0751
 8558SOL    HW137310   4.236   0.131   8.769 -1.8859  0.2857 -0.5116
 8558SOL    HW237311   4.339   0.112   8.667  3.1294  2.3237  0.2530
 8559SOL     OW37312   3.976   2.548   8.203  0.4576 -0.5072 -0.4339
 8559SOL    HW137313   4.035   2.532   8.129 -0.0043  0.1128 -0.9328
 8559SOL    HW237314   4.003   2.474   8.258  0.5228 -1.0221 -1.1648
 8560SOL     OW37315   0.549   4.079   0.696  0.7072 -0.0067 -1.3802
 8560SOL    HW137316   0.601   4.025   0.636  1.8898  1.4878 -1.7068
 8560SOL    HW237317   0.585   4.047   0.779 -0.5950 -0.3727 -0.9559
 8561SOL     OW37318   0.134   2.957  13.853  0.2856  0.4647 -0.3627
 8561SOL    HW137319   0.214   2.942  13.802  0.0902  0.4232 -0.6524
 8561SOL    HW237320   0.172   3.026  13.907  1.4633 -0.1639 -0.3746
 8562SOL     OW37321   2.464   0.577   4.898  0.0659 -0.1287 -0.7003
 8562SOL    HW137322   2.508   0.662   4.902 -3.1296  1.4310  1.4499
 8562SOL    HW237323   2.527   0.524   4.947 -0.7732  1.5843  2.2587
 8563SOL     OW37324   1.335   4.286   0.257 -0.1368 -0.2072  0.1189
 8563SOL    HW137325   1.362   4.259   0.169  0.3743  0.7687 -0.0246
 8563SOL    HW237326   1.375   4.217   0.309  0.9688  0.0363 -0.4041
 8564SOL     OW37327   1.702   1.858   1.923 -0.4694 -0.3270 -0.1719
 8564SOL    HW137328   1.658   1.789   1.973 -0.1900 -0.6155 -0.3221
 8564SOL    HW237329   1.659   1.842   1.839 -1.4910 -2.7345  0.8083
 8565SOL     OW37330   1.477   3.488  17.387 -0.2441 -0.6286 -0.1574
 8565SOL    HW137331   1.490   3.474  17.481 -0.8752 -0.2154 -0.0109
 8565SOL    HW237332   1.566   3.495  17.352  0.1979 -1.4345  0.7756
 8566SOL     OW37333   1.453   2.490   4.921 -0.3479  0.3422 -0.2303
 8566SOL    HW137334   1.506   2.559   4.961 -1.4691  1.8017 -1.2508
 8566SOL    HW237335   1.428   2.531   4.838 -0.7649 -0.7275 -0.6379
 8567SOL     OW37336   2.503   3.997   8.615  0.1787 -0.3306 -0.0925
 8567SOL    HW137337   2.503   3.958   8.702  1.0048  0.1050  0.0972
 8567SOL    HW237338   2.567   4.065   8.633  3.5459 -3.9493  1.7275
 8568SOL     OW37339   0.620   0.911   1.841 -0.2832 -0.0363 -0.8556
 8568SOL    HW137340   0.530   0.943   1.850 -0.1967 -0.0433  0.0435
 8568SOL    HW237341   0.636   0.925   1.747  3.5212 -1.2927 -0.3953
 8569SOL     OW37342   3.797   1.745   6.561 -0.0838  0.6193 -0.4349
 8569SOL    HW137343   3.779   1.694   6.640 -2.4895  2.8707  0.4615
 8569SOL    HW237344   3.892   1.741   6.559 -0.0424  1.2280  0.7147
 8570SOL     OW37345   1.494   3.234   5.628 -0.1694 -0.2400 -0.5365
 8570SOL    HW137346   1.583   3.259   5.653 -0.6304  2.5555 -1.6081
 8570SOL    HW237347   1.468   3.175   5.699  2.0814 -0.9395 -0.2886
 8571SOL     OW37348   2.083   2.791  15.851 -0.2836 -0.0868  0.2030
 8571SOL    HW137349   2.110   2.865  15.797  1.0126 -1.1104 -0.5667
 8571SOL    HW237350   2.150   2.729  15.821  0.2694  0.2109  0.7993
 8572SOL     OW37351   3.378   1.447   6.550 -0.3939 -0.4333  0.2932
 8572SOL    HW137352   3.358   1.505   6.477  0.6918 -0.3329  0.0822
 8572SOL    HW237353   3.338   1.501   6.618  0.6098  0.0294  0.5113
 8573SOL     OW37354   0.236   3.469  14.720 -0.7783  0.0540 -0.0892
 8573SOL    HW137355   0.142   3.456  14.708 -0.9879  0.3838  1.2341
 8573SOL    HW237356   0.233   3.473  14.815 -0.4812  1.4818 -0.1424
 8574SOL     OW37357   0.915   0.162   2.431  0.4324  0.5676  0.2865
 8574SOL    HW137358   0.914   0.068   2.410  3.5820  0.3327  1.1779
 8574SOL    HW237359   0.870   0.172   2.514 -0.4719  1.7941 -0.3550
 8575SOL     OW37360   2.876   3.138   6.676 -0.1624  0.0147 -0.1100
 8575SOL    HW137361   2.889   3.071   6.610  0.5722 -0.3736  0.4369
 8575SOL    HW237362   2.783   3.161   6.681  0.2968  1.6738  1.0416
 8576SOL     OW37363   4.207   0.585  10.149 -0.3807  0.0342  0.5687
 8576SOL    HW137364   4.192   0.517  10.215 -1.7280  0.5847  0.8407
 8576SOL    HW237365   4.259   0.649  10.197 -1.7125  2.5353 -1.2558
 8577SOL     OW37366   2.635   4.275   7.279 -0.0335  0.4945 -0.0705
 8577SOL    HW137367   2.643   4.181   7.293 -3.5505 -0.0488 -1.7023
 8577SOL    HW237368   2.544   4.295   7.304 -0.1349 -1.2060  0.9075
 8578SOL     OW37369   0.367   2.833  15.537  0.2201 -0.3760  1.0444
 8578SOL    HW137370   0.279   2.853  15.505  0.0581 -0.7117  1.2786
 8578SOL    HW237371   0.422   2.882  15.476  0.5404  1.0148  2.4466
 8579SOL     OW37372   4.401   0.427   2.459  0.1035 -0.0172  0.0888
 8579SOL    HW137373   4.339   0.497   2.436 -1.1471 -2.0174 -2.6520
 8579SOL    HW237374   4.358   0.388   2.535  0.2783 -0.7384 -0.1892
 8580SOL     OW37375   3.236   4.460   7.174  0.6196 -0.9493 -0.1357
 8580SOL    HW137376   3.201   4.472   7.086 -0.2251  2.2395  0.6501
 8580SOL    HW237377   3.166   4.507   7.219 -0.1454 -1.7139 -0.5222
 8581SOL     OW37378   3.805   2.927   5.250  0.1052  0.1640 -0.5296
 8581SOL    HW137379   3.803   3.023   5.251  0.7077  0.1779 -0.6761
 8581SOL    HW237380   3.742   2.904   5.182  0.5061  0.2773 -0.9357
 8582SOL     OW37381   0.411   1.856   3.466  0.3974  0.5854  0.3108
 8582SOL    HW137382   0.463   1.825   3.541  1.9173  0.6571 -0.7194
 8582SOL    HW237383   0.484   1.891   3.415  1.8551 -2.2633  0.4717
 8583SOL     OW37384   0.736   1.932   0.615 -0.1047  0.5156 -0.1354
 8583SOL    HW137385   0.822   1.891   0.606 -1.1074 -1.3362 -1.3419
 8583SOL    HW237386   0.739   1.970   0.702  0.8284  0.2074 -0.0361
 8584SOL     OW37387   4.398   4.040   8.146  0.3103  0.0681 -0.0144
 8584SOL    HW137388   4.457   4.109   8.176  0.0269  0.2083  0.2138
 8584SOL    HW237389   4.428   4.019   8.058 -0.8733  0.6702 -0.5546
 8585SOL     OW37390   1.701   2.627   9.437  0.0357  0.3203  0.5990
 8585SOL    HW137391   1.715   2.552   9.380  1.6744  0.2797  1.0529
 8585SOL    HW237392   1.792   2.655   9.451 -0.1292  0.2976  1.7006
 8586SOL     OW37393   1.727   1.595  12.907  0.0372  0.4206  0.0700
 8586SOL    HW137394   1.723   1.666  12.843 -0.2270  0.1693 -0.1937
 8586SOL    HW237395   1.636   1.602  12.937  0.2262  0.3902  0.6448
 8587SOL     OW37396   1.722   2.947   5.184 -0.6025  0.0665 -0.4062
 8587SOL    HW137397   1.784   3.000   5.135 -1.3243  1.6799  0.3946
 8587SOL    HW237398   1.640   2.991   5.162 -0.7043  0.4157  0.6422
 8588SOL     OW37399   1.994   3.041   0.779 -0.1783 -0.2825  0.5500
 8588SOL    HW137400   2.085   3.014   0.793 -0.4832  0.1103  3.4221
 8588SOL    HW237401   1.978   3.094   0.857  4.2196  2.4836 -0.4205
 8589SOL     OW37402   2.497   0.403   7.711  0.3208  0.5894 -0.3021
 8589SOL    HW137403   2.551   0.341   7.759  2.1774  0.9971 -1.8683
 8589SOL    HW237404   2.534   0.405   7.623  1.6407  1.4425  0.2807
 8590SOL     OW37405   4.112   2.229   8.060 -0.7358 -0.1426 -0.3625
 8590SOL    HW137406   4.125   2.319   8.031 -0.9380  0.6273  1.9535
 8590SOL    HW237407   4.190   2.215   8.114 -1.0141  1.1752  0.3837
 8591SOL     OW37408   3.309   0.555  11.787 -0.3622  0.4659  0.0336
 8591SOL    HW137409   3.265   0.476  11.818  2.6575 -0.8859  0.9680
 8591SOL    HW237410   3.303   0.556  11.692 -0.7302 -1.5755  0.0344
 8592SOL     OW37411   4.726   2.539   3.480  0.0173  0.2002 -0.0091
 8592SOL    HW137412   4.642   2.576   3.507 -0.1329 -0.6220  0.6361
 8592SOL    HW237413   4.715   2.576   3.393 -0.1554 -0.8803 -0.4487
 8593SOL     OW37414   4.093   0.668   4.614 -0.5567 -0.5225  0.2799
 8593SOL    HW137415   4.003   0.691   4.637 -0.9191 -2.1896  0.4852
 8593SOL    HW237416   4.146   0.743   4.641 -1.2421 -0.0860  0.4271
 8594SOL     OW37417   1.383   4.123   1.102  0.0364  0.0973  0.2400
 8594SOL    HW137418   1.328   4.137   1.179  1.0346 -0.1886  1.0156
 8594SOL    HW237419   1.454   4.069   1.138  0.6217  0.5359 -0.2603
 8595SOL     OW37420   2.475   2.945  10.822 -0.3524  0.1822  0.1166
 8595SOL    HW137421   2.465   3.031  10.863 -1.5704 -0.6044  1.4848
 8595SOL    HW237422   2.570   2.950  10.827 -0.5004  3.6542 -0.4478
 8596SOL     OW37423   4.599   4.187   6.726 -0.1527 -0.2484  0.7443
 8596SOL    HW137424   4.568   4.192   6.636  2.0148 -1.2561 -0.0523
 8596SOL    HW237425   4.674   4.130   6.710 -0.5572 -0.5857  0.0549
 8597SOL     OW37426   4.246   2.065   7.026 -0.1894  0.0767  0.0470
 8597SOL    HW137427   4.312   2.086   7.092 -0.8226 -1.2002  1.0826
 8597SOL    HW237428   4.293   2.081   6.944  0.8050  1.5992  0.9071
 8598SOL     OW37429   4.717   1.084  14.382  0.0114 -0.5895  0.3119
 8598SOL    HW137430   0.027   1.101  14.462 -2.4587 -1.6522  2.0622
 8598SOL    HW237431   4.657   1.158  14.380  0.3615 -0.3357 -1.1911
 8599SOL     OW37432   3.637   1.152   2.894 -0.0940 -0.2559 -0.0365
 8599SOL    HW137433   3.543   1.171   2.902  0.1281  0.2502  1.5010
 8599SOL    HW237434   3.639   1.092   2.820  1.3738  0.1016 -0.2983
 8600SOL     OW37435   1.939   1.330  11.197 -0.6102  0.3351  0.0729
 8600SOL    HW137436   2.002   1.270  11.157  0.1987  0.0025  1.8359
 8600SOL    HW237437   1.995   1.392  11.244  0.7813 -1.9952  1.4455
 8601SOL     OW37438   0.960   3.568   6.359 -0.4591 -0.0136  0.3988
 8601SOL    HW137439   0.925   3.645   6.405 -2.3215 -0.2965 -0.5242
 8601SOL    HW237440   0.954   3.505   6.431  1.2348 -2.5006 -1.6536
 8602SOL     OW37441   1.233   4.140  13.036 -0.3088  0.3016 -0.0188
 8602SOL    HW137442   1.303   4.193  12.998 -1.7315  0.4300 -2.4594
 8602SOL    HW237443   1.253   4.143  13.130 -2.0884 -0.3351  0.3735
 8603SOL     OW37444   1.367   4.198   3.209  0.5125  0.2073 -0.1483
 8603SOL    HW137445   1.428   4.228   3.142 -0.8051  3.0094 -0.1223
 8603SOL    HW237446   1.427   4.133   3.245  0.5027  0.1432 -0.2496
 8604SOL     OW37447   0.740   0.432   5.376  0.1028  0.2739 -0.0238
 8604SOL    HW137448   0.765   0.491   5.305  0.1445  1.0289  0.6170
 8604SOL    HW237449   0.665   0.475   5.417 -1.2178 -0.7467 -1.3439
 8605SOL     OW37450   0.499   3.946   3.695 -0.0498 -0.1322 -0.2315
 8605SOL    HW137451   0.462   3.914   3.778 -0.4388  1.2410  0.1206
 8605SOL    HW237452   0.446   3.905   3.627  1.2448 -0.6912 -0.9064
 8606SOL     OW37453   0.267   3.624   9.874  0.5633 -0.4187  0.2729
 8606SOL    HW137454   0.315   3.541   9.868 -0.0712 -0.7490 -0.1688
 8606SOL    HW237455   0.293   3.658   9.788  0.1071  1.4399  0.8673
 8607SOL     OW37456   3.287   2.716   2.806 -0.0144  0.1676 -0.3242
 8607SOL    HW137457   3.216   2.694   2.866 -1.2899  2.1539 -1.1294
 8607SOL    HW237458   3.342   2.769   2.864  0.5288 -1.8401  1.0036
 8608SOL     OW37459   1.715   2.195   6.262 -0.2665 -0.1293 -0.3297
 8608SOL    HW137460   1.685   2.215   6.350 -0.3729 -0.0241 -0.3906
 8608SOL    HW237461   1.699   2.101   6.265  0.9532 -0.3277  0.2298
 8609SOL     OW37462   1.942   1.033  11.444  0.0407 -0.0352 -0.0688
 8609SOL    HW137463   1.874   0.972  11.471 -0.2792  0.9109  1.2616
 8609SOL    HW237464   1.918   1.100  11.508 -0.9210  0.3304 -0.8125
 8610SOL     OW37465   3.301   1.112   5.658  0.7242  0.5478 -0.3523
 8610SOL    HW137466   3.253   1.082   5.581  0.2267 -0.7398  0.4778
 8610SOL    HW237467   3.235   1.173   5.690 -0.9760 -1.6298  0.2480
 8611SOL     OW37468   3.519   3.466   2.782 -0.2546 -0.2601 -0.4062
 8611SOL    HW137469   3.500   3.535   2.846 -0.6664  1.0023 -1.8854
 8611SOL    HW237470   3.608   3.443   2.807 -1.2906 -1.8583  1.7639
 8612SOL     OW37471   1.346   3.061  13.203  0.0719  0.6920  0.0301
 8612SOL    HW137472   1.271   3.010  13.236  0.3937  0.1723 -0.0452
 8612SOL    HW237473   1.401   3.063  13.282  0.0199 -0.0743  0.0920
 8613SOL     OW37474   2.268   4.174  13.684 -0.3421 -0.2808  0.5661
 8613SOL    HW137475   2.240   4.236  13.751 -1.3699 -1.3808  1.1560
 8613SOL    HW237476   2.241   4.221  13.605 -3.4545  1.3787  2.6119
 8614SOL     OW37477   0.280   0.012  10.310  0.1318  0.0781 -0.2755
 8614SOL    HW137478   0.337   4.704  10.370  0.1988  0.7065  0.1514
 8614SOL    HW237479   0.200   4.699  10.316  0.5363 -0.6787 -1.3589
 8615SOL     OW37480   1.522   1.760  11.863 -0.6298 -0.6434 -1.1150
 8615SOL    HW137481   1.606   1.716  11.848  0.3176  0.7030  0.2624
 8615SOL    HW237482   1.502   1.747  11.956  1.4433  0.2657 -0.5437
 8616SOL     OW37483   3.632   3.212   6.902 -0.3088 -0.4463  0.0051
 8616SOL    HW137484   3.708   3.191   6.957 -0.3150 -1.9952 -0.5740
 8616SOL    HW237485   3.588   3.276   6.958  1.3140  1.4612 -0.9014
 8617SOL     OW37486   3.295   3.192   4.744  0.1405  0.5951  0.0901
 8617SOL    HW137487   3.221   3.250   4.764 -0.9642 -0.5883 -0.5949
 8617SOL    HW237488   3.277   3.124   4.809  1.1046 -0.0401 -0.3250
 8618SOL     OW37489   1.315   0.521  17.437  0.6190 -0.1434 -0.8229
 8618SOL    HW137490   1.372   0.578  17.386  1.7827  0.0321  0.6830
 8618SOL    HW237491   1.356   0.513  17.523 -0.8079  0.2228 -0.1077
 8619SOL     OW37492   4.198   1.037   6.784  0.1461  0.0740 -0.0519
 8619SOL    HW137493   4.266   1.066   6.723  0.6256  0.8717  0.8559
 8619SOL    HW237494   4.246   1.003   6.860  0.4367 -0.4423 -0.4678
 8620SOL     OW37495   1.435   2.822   3.073 -1.1490  0.3643  0.5752
 8620SOL    HW137496   1.518   2.786   3.101 -1.3309 -0.3345  0.2203
 8620SOL    HW237497   1.416   2.875   3.150 -0.7047 -0.5332  1.2970
 8621SOL     OW37498   1.866   3.312   3.451 -0.3838 -0.6640 -0.0839
 8621SOL    HW137499   1.790   3.258   3.471  0.2749 -0.8328  2.0176
 8621SOL    HW237500   1.903   3.263   3.378 -1.4268 -0.2928 -0.8578
 8622SOL     OW37501   0.007   1.380   9.035  0.4770  0.1171 -0.9681
 8622SOL    HW137502   0.101   1.396   9.044  0.3079  1.1515 -1.1167
 8622SOL    HW237503   4.728   1.301   9.087 -0.8219  0.5718 -0.7174
 8623SOL     OW37504   1.443   1.132   7.676  0.1303 -0.8660 -0.2134
 8623SOL    HW137505   1.536   1.155   7.679 -0.0787  0.2910 -2.0099
 8623SOL    HW237506   1.432   1.144   7.582 -0.8726 -0.4264 -0.0376
 8624SOL     OW37507   0.997   2.187   2.261  0.4187  0.1530  0.1235
 8624SOL    HW137508   0.927   2.142   2.309  0.2117  0.6501  0.2859
 8624SOL    HW237509   0.976   2.278   2.280 -0.1817 -0.5578  2.9682
 8625SOL     OW37510   1.399   0.613   7.101  0.0258 -0.2360 -0.3036
 8625SOL    HW137511   1.347   0.575   7.030  1.7722 -0.8603 -1.2532
 8625SOL    HW237512   1.476   0.557   7.094  0.2704 -0.0171  0.6497
 8626SOL     OW37513   0.017   2.975   3.010 -0.5491  0.2903  0.5048
 8626SOL    HW137514   0.059   2.924   3.079 -0.2371 -0.8438 -0.5289
 8626SOL    HW237515   0.058   2.941   2.931  0.2014 -0.1960  1.1037
 8627SOL     OW37516   2.461   1.861   4.401 -0.0519  0.0819 -0.4862
 8627SOL    HW137517   2.448   1.927   4.334  0.7103 -1.9634 -2.6648
 8627SOL    HW237518   2.547   1.881   4.439 -0.9212  0.6437  1.1863
 8628SOL     OW37519   1.803   4.258   5.702 -0.6610 -0.2304 -0.2035
 8628SOL    HW137520   1.878   4.261   5.762  0.0006 -0.1464 -1.0288
 8628SOL    HW237521   1.738   4.294   5.762  1.0900  1.3648  0.7417
 8629SOL     OW37522   2.136   0.203   1.476  0.0554 -0.0734  0.2966
 8629SOL    HW137523   2.198   0.277   1.475 -0.3244  0.2038 -1.6464
 8629SOL    HW237524   2.158   0.163   1.560  0.1752  1.6489  1.0995
 8630SOL     OW37525   3.149   1.247   7.987 -0.2135  0.5155  0.4455
 8630SOL    HW137526   3.106   1.230   7.903  0.3509 -0.9137  0.4440
 8630SOL    HW237527   3.094   1.195   8.046  0.3268 -1.1027 -0.4931
 8631SOL     OW37528   4.322   2.646   2.139  0.1265  0.1166  0.6617
 8631SOL    HW137529   4.340   2.606   2.224 -0.4538  0.0040  0.7368
 8631SOL    HW237530   4.378   2.589   2.086 -1.1267 -0.2213 -0.3037
 8632SOL     OW37531   1.244   3.919   3.339  0.4964 -0.1756 -0.0971
 8632SOL    HW137532   1.253   3.871   3.257 -1.1017 -3.0226  1.3751
 8632SOL    HW237533   1.326   3.967   3.336 -0.0510  0.7550 -0.3786
 8633SOL     OW37534   3.390   2.051   4.486 -0.2418  0.0005  0.0174
 8633SOL    HW137535   3.356   2.042   4.575 -1.0879 -0.4423 -0.3486
 8633SOL    HW237536   3.428   2.139   4.480  0.3475 -0.4893 -3.3477
 8634SOL     OW37537   0.621   1.155   5.180  0.7703  0.3810 -0.2085
 8634SOL    HW137538   0.620   1.075   5.233  0.6534  0.7530  0.3606
 8634SOL    HW237539   0.610   1.205   5.261 -1.4154  0.2164 -0.4167
 8635SOL     OW37540   4.738   3.572   3.988  0.4784  0.7113  0.9483
 8635SOL    HW137541   4.704   3.493   4.030  2.4456 -0.2586  0.6757
 8635SOL    HW237542   4.661   3.629   3.997 -2.1308 -2.6935  0.3237
 8636SOL     OW37543   1.419   1.362   2.945 -0.4440  0.1343  0.0043
 8636SOL    HW137544   1.494   1.418   2.965  0.8921 -1.6501  0.0043
 8636SOL    HW237545   1.352   1.430   2.931 -2.7607 -2.0918  0.3680
 8637SOL     OW37546   2.715   0.588   1.665 -0.6613 -0.2527  0.6074
 8637SOL    HW137547   2.691   0.681   1.668 -1.9801 -0.5703 -0.1577
 8637SOL    HW237548   2.741   0.572   1.755  1.6969  2.4515  0.3972
 8638SOL     OW37549   2.801   0.082  16.759  0.2144  0.4848  0.3723
 8638SOL    HW137550   2.734   0.023  16.725  0.8314  1.6469 -2.9241
 8638SOL    HW237551   2.810   0.042  16.845 -2.3593  0.4358  0.5980
 8639SOL     OW37552   2.677   0.292   2.900  0.2515  0.2355 -0.3363
 8639SOL    HW137553   2.619   0.354   2.855  2.2159  2.0882 -0.3363
 8639SOL    HW237554   2.758   0.342   2.889  1.2044 -1.1933  0.1682
 8640SOL     OW37555   4.188   0.062   1.985  0.1605 -0.1667 -0.3072
 8640SOL    HW137556   4.143   4.719   1.963 -1.2839  0.2815  0.9752
 8640SOL    HW237557   4.255   0.069   1.917  1.0286 -1.5382  0.3960
 8641SOL     OW37558   3.502   4.685   5.059  0.0774  0.1739  0.4704
 8641SOL    HW137559   3.562   4.639   5.001  1.4774 -0.2732  2.3110
 8641SOL    HW237560   3.525   4.659   5.148  0.6887 -1.1363 -0.0771
 8642SOL     OW37561   0.653   2.419   7.471 -0.7459  0.6079 -0.0916
 8642SOL    HW137562   0.580   2.475   7.499 -1.0921 -0.5041  1.2302
 8642SOL    HW237563   0.712   2.485   7.436 -0.6549  0.6873  0.2131
 8643SOL     OW37564   3.780   0.805   6.087  0.2411 -0.3985  0.2087
 8643SOL    HW137565   3.693   0.816   6.049  0.6794  2.3065 -0.0848
 8643SOL    HW237566   3.771   0.737   6.153  0.9082  0.0561  0.7710
 8644SOL     OW37567   0.735   0.771   4.138 -0.1852  0.3010 -0.0906
 8644SOL    HW137568   0.653   0.776   4.088 -1.0775  0.5172  1.3869
 8644SOL    HW237569   0.773   0.859   4.143 -1.8956  1.0710 -0.7468
 8645SOL     OW37570   3.970   4.135  17.062  0.0149  0.5561  0.0277
 8645SOL    HW137571   3.902   4.153  16.997  0.8282  0.7031 -0.7813
 8645SOL    HW237572   3.991   4.046  17.036 -1.0938  0.4045 -0.3668
 8646SOL     OW37573   4.004   3.136  14.325  0.0006 -0.1670  0.6794
 8646SOL    HW137574   4.003   3.041  14.329 -1.8551 -0.1528  0.2284
 8646SOL    HW237575   3.975   3.158  14.237 -2.5254  1.0311  1.8114
 8647SOL     OW37576   2.710   1.223   5.779 -0.4099  0.0539 -0.3200
 8647SOL    HW137577   2.722   1.136   5.818 -1.4780  0.6310  1.2863
 8647SOL    HW237578   2.747   1.276   5.850 -0.4116 -0.5343  0.1249
 8648SOL     OW37579   3.946   2.329  16.665  0.0555  0.4031 -0.1155
 8648SOL    HW137580   3.993   2.379  16.732 -0.0561 -0.7281  0.8214
 8648SOL    HW237581   3.981   2.241  16.679  0.2655  0.1998 -1.8956
 8649SOL     OW37582   1.319   4.665   4.187  0.1610  0.4501  0.1917
 8649SOL    HW137583   1.319   4.677   4.092  1.2897  0.1296  0.1505
 8649SOL    HW237584   1.272   0.006   4.212 -0.3899  0.1219  0.1994
 8650SOL     OW37585   0.870   0.061   5.852 -0.2261 -0.3047  0.6503
 8650SOL    HW137586   0.819   4.728   5.814  0.1358 -0.4002  0.3418
 8650SOL    HW237587   0.895   0.020   5.934  1.6409 -3.3149 -1.4087
 8651SOL     OW37588   0.649   2.756   1.833  0.0832  0.0894 -0.4294
 8651SOL    HW137589   0.624   2.848   1.835  1.0743  0.3868 -1.5966
 8651SOL    HW237590   0.723   2.765   1.773 -0.2037 -0.8663 -0.9313
 8652SOL     OW37591   3.723   4.229   8.004 -0.2062  0.5358  0.4581
 8652SOL    HW137592   3.723   4.141   8.040  0.6140  0.1913 -0.3881
 8652SOL    HW237593   3.798   4.274   8.043  0.5338 -2.5190  2.5742
 8653SOL     OW37594   1.057   0.126   5.529 -0.2279 -0.2854 -0.2617
 8653SOL    HW137595   1.121   0.066   5.492  1.2911 -0.7674  3.1363
 8653SOL    HW237596   1.012   0.059   5.581  0.1627  0.4618  1.0481
 8654SOL     OW37597   0.157   1.487   7.341 -0.0018  0.8219 -0.2347
 8654SOL    HW137598   0.089   1.424   7.365  1.6221 -1.0883 -0.6694
 8654SOL    HW237599   0.178   1.517   7.430 -0.0354  0.6084 -0.1558
 8655SOL     OW37600   1.667   1.077   3.193 -0.0857 -0.3896 -0.4768
 8655SOL    HW137601   1.690   1.008   3.256  1.3891 -1.1159 -1.7989
 8655SOL    HW237602   1.714   1.052   3.113  0.5689 -0.1256 -0.1772
 8656SOL     OW37603   1.508   2.712   2.213 -0.4977 -0.3157  0.0820
 8656SOL    HW137604   1.459   2.705   2.131 -3.5174  2.0413  1.6791
 8656SOL    HW237605   1.453   2.783   2.246 -0.6202 -0.7954  0.8981
 8657SOL     OW37606   1.331   0.690   9.626  0.6956 -0.9282  0.5251
 8657SOL    HW137607   1.406   0.684   9.567  0.7908  0.6129  0.4742
 8657SOL    HW237608   1.308   0.598   9.634 -1.7579 -0.4139 -0.6648
 8658SOL     OW37609   0.057   0.675   7.183 -0.4048 -0.0528 -0.0279
 8658SOL    HW137610   0.061   0.765   7.152 -0.1261 -0.8423 -2.3238
 8658SOL    HW237611   0.062   0.680   7.278 -2.6866  0.4225  0.0707
 8659SOL     OW37612   2.991   0.207   4.436  0.1649 -0.4885 -0.2196
 8659SOL    HW137613   3.003   0.300   4.458  1.9539 -1.1178  1.5140
 8659SOL    HW237614   3.078   0.173   4.458  0.6669  0.1636 -1.2034
 8660SOL     OW37615   0.014   3.554   4.910  0.2803 -0.0953  0.8513
 8660SOL    HW137616   4.657   3.552   4.914  0.1886 -1.8432 -2.4050
 8660SOL    HW237617   0.040   3.630   4.962 -2.6886  1.6248 -0.1791
 8661SOL     OW37618   3.372   1.143  16.843 -0.1265  0.3592 -0.2908
 8661SOL    HW137619   3.456   1.112  16.876  0.1599  1.2038 -0.2324
 8661SOL    HW237620   3.312   1.081  16.884 -1.7034  0.6094 -2.2467
 8662SOL     OW37621   0.828   3.166   7.929  0.1910  0.4665 -0.8134
 8662SOL    HW137622   0.738   3.174   7.898 -0.5875 -1.3911  0.9689
 8662SOL    HW237623   0.884   3.182   7.853 -0.3069  0.5567 -1.1562
 8663SOL     OW37624   0.621   0.910   2.192 -0.4172 -0.4542 -0.0349
 8663SOL    HW137625   0.704   0.905   2.144 -0.0011  1.8484  0.4454
 8663SOL    HW237626   0.646   0.869   2.275  1.3917 -0.7885 -0.7508
 8664SOL     OW37627   3.628   0.459   2.630 -0.4430  0.1822 -0.1730
 8664SOL    HW137628   3.664   0.434   2.545 -1.1250 -0.4297 -0.2795
 8664SOL    HW237629   3.663   0.389   2.684  0.5678  1.3802  0.7156
 8665SOL     OW37630   2.748   3.991   1.771 -0.1210  0.3941  0.6138
 8665SOL    HW137631   2.801   3.911   1.764  0.2578  0.6611  0.4434
 8665SOL    HW237632   2.688   3.991   1.696 -0.0216 -0.6607  0.5233
 8666SOL     OW37633   1.646   3.907   7.356  0.9938  0.2991  0.0010
 8666SOL    HW137634   1.567   3.926   7.406 -0.9119 -0.2471 -2.7735
 8666SOL    HW237635   1.707   3.866   7.417 -0.9013 -1.2090  0.8845
 8667SOL     OW37636   1.342   0.659   5.031  0.4869  0.1162 -0.0785
 8667SOL    HW137637   1.435   0.640   5.014  1.0722  0.2163  2.9954
 8667SOL    HW237638   1.316   0.568   5.049  0.3431 -0.1784 -1.8638
 8668SOL     OW37639   4.356   3.103   3.578  0.4703  0.3538  0.4506
 8668SOL    HW137640   4.339   3.197   3.571  2.7086  0.6588 -0.7856
 8668SOL    HW237641   4.279   3.079   3.629 -0.4182 -0.7799 -1.4249
 8669SOL     OW37642   2.448   4.543   5.219  0.0797 -0.1312  0.0036
 8669SOL    HW137643   2.459   4.449   5.232  2.7263 -0.0113 -1.3421
 8669SOL    HW237644   2.355   4.530   5.241 -0.1124  0.8480 -0.2314
 8670SOL     OW37645   1.567   3.751  17.683  0.0171 -0.3743  0.3961
 8670SOL    HW137646   1.500   3.820  17.689 -0.5859 -1.0441  1.4873
 8670SOL    HW237647   1.612   3.771   0.011 -0.0542 -0.4727  0.4593
 8671SOL     OW37648   1.303   3.597  11.219  0.4258  0.1890  0.2589
 8671SOL    HW137649   1.391   3.613  11.186 -0.4506  2.7810 -0.8994
 8671SOL    HW237650   1.309   3.505  11.193  1.6701  0.1081  0.8776
 8672SOL     OW37651   0.296   0.167   4.926 -0.0055 -0.1596 -0.1279
 8672SOL    HW137652   0.233   0.101   4.956 -0.6934  0.7308  0.3970
 8672SOL    HW237653   0.288   0.138   4.836  1.2204 -2.1424  0.4009
 8673SOL     OW37654   1.279   1.386  10.985 -0.2712  0.0674 -0.2862
 8673SOL    HW137655   1.229   1.363  11.063 -1.4730  3.7450  0.0177
 8673SOL    HW237656   1.367   1.362  11.014 -0.4449 -1.0420 -0.6800
 8674SOL     OW37657   1.947   0.369   7.473 -0.2169 -0.1506 -0.4204
 8674SOL    HW137658   2.002   0.433   7.428  0.2181  0.2896  0.7329
 8674SOL    HW237659   1.944   0.406   7.561 -0.5236 -1.1542 -0.0085
 8675SOL     OW37660   0.272   0.497   3.678  0.2197 -0.1371 -0.2180
 8675SOL    HW137661   0.251   0.417   3.724  0.2114 -0.9299 -1.5899
 8675SOL    HW237662   0.308   0.547   3.751 -0.9400  2.2142 -1.2184
 8676SOL     OW37663   0.141   0.946   7.176  0.2194  0.6223  0.4036
 8676SOL    HW137664   0.094   1.029   7.188 -1.9239 -0.5657  0.0646
 8676SOL    HW237665   0.227   0.989   7.174 -0.6309  2.2351 -1.2858
 8677SOL     OW37666   3.016   1.926   9.035  0.2296 -0.5873  0.5895
 8677SOL    HW137667   3.069   1.889   8.965  1.3899  0.1855  1.0478
 8677SOL    HW237668   3.079   1.957   9.101 -0.4982  1.0870  0.4956
 8678SOL     OW37669   2.806   1.641   2.719  0.3378  0.6390  0.2333
 8678SOL    HW137670   2.854   1.623   2.639  1.0672  1.7960  0.4054
 8678SOL    HW237671   2.752   1.713   2.685  0.0504  0.4493  0.2828
 8679SOL     OW37672   3.722   2.449   3.115  0.1179  0.4111 -0.0702
 8679SOL    HW137673   3.719   2.369   3.064  0.1224  1.4438 -1.7008
 8679SOL    HW237674   3.632   2.452   3.146 -0.2352 -1.3791 -0.9466
 8680SOL     OW37675   2.826   4.684   8.575  0.3924  0.3388 -0.7916
 8680SOL    HW137676   2.836   0.036   8.548  1.4419 -0.1336 -1.9703
 8680SOL    HW237677   2.856   4.685   8.666  2.0050 -0.5378 -1.3214
 8681SOL     OW37678   0.542   1.195  15.770 -0.0649  0.2193  0.0982
 8681SOL    HW137679   0.576   1.115  15.729 -0.2784 -0.6350  1.5881
 8681SOL    HW237680   0.506   1.149  15.846 -1.1110 -1.8423 -1.6230
 8682SOL     OW37681   0.462   0.382   4.932  0.0410 -0.4740  0.4888
 8682SOL    HW137682   0.413   0.301   4.933 -1.6427  0.5284 -0.8455
 8682SOL    HW237683   0.483   0.413   4.844 -0.6198 -2.6346 -0.4022
 8683SOL     OW37684   3.140   0.206  11.363  0.0832  0.0837  0.3683
 8683SOL    HW137685   3.146   0.116  11.330  1.1274  0.2820  0.0018
 8683SOL    HW237686   3.100   0.197  11.450 -2.0069  0.0302 -0.6169
 8684SOL     OW37687   0.102   2.485   7.862  0.1151 -0.1076  0.1414
 8684SOL    HW137688   0.166   2.433   7.814  0.4371 -1.1854  1.7250
 8684SOL    HW237689   0.024   2.436   7.835  0.3683  0.1626 -1.0542
 8685SOL     OW37690   2.785   0.298   3.485  0.1271 -1.1996  0.5396
 8685SOL    HW137691   2.877   0.285   3.508  0.2760  0.6602  0.9928
 8685SOL    HW237692   2.743   0.217   3.515  0.5400 -1.4448  0.4655
 8686SOL     OW37693   0.849   2.395   4.635 -0.1322  0.1501 -0.1491
 8686SOL    HW137694   0.828   2.314   4.590  1.7682  0.6047 -1.8460
 8686SOL    HW237695   0.893   2.437   4.561 -0.6045 -1.5356 -1.3606
 8687SOL     OW37696   3.826   1.202   5.603 -0.3002  0.3721 -0.0803
 8687SOL    HW137697   3.850   1.116   5.636  2.1465  0.3969 -1.8112
 8687SOL    HW237698   3.731   1.201   5.610 -0.2660  0.1316  0.3485
 8688SOL     OW37699   3.156   2.626   9.478  0.7491 -0.1121 -0.6534
 8688SOL    HW137700   3.235   2.637   9.425  3.1619 -3.7916  2.2268
 8688SOL    HW237701   3.107   2.705   9.456  1.1565  0.1368 -0.6570
 8689SOL     OW37702   4.415   1.779   6.382  0.2130 -0.3827  1.0399
 8689SOL    HW137703   4.376   1.756   6.297 -0.1432  2.1368  0.5174
 8689SOL    HW237704   4.448   1.864   6.354  0.2950 -0.7409  0.0413
 8690SOL     OW37705   0.812   2.593   3.628  0.2705 -0.2317 -0.4173
 8690SOL    HW137706   0.752   2.574   3.556 -0.6478  1.7439 -0.1974
 8690SOL    HW237707   0.763   2.657   3.681  2.3209  0.6613  0.3825
 8691SOL     OW37708   4.004   4.452   3.791  0.4592 -0.5671 -0.0053
 8691SOL    HW137709   3.921   4.495   3.771  0.7344  0.3365  0.8444
 8691SOL    HW237710   4.047   4.517   3.846 -0.8421 -0.0295  0.3713
 8692SOL     OW37711   3.507   2.310   8.179  0.3330 -0.1005 -0.6317
 8692SOL    HW137712   3.413   2.291   8.178  0.1068  1.0470 -1.1575
 8692SOL    HW237713   3.515   2.337   8.271  1.8989  1.1207 -1.1303
 8693SOL     OW37714   2.993   1.316  12.017 -0.0736 -0.3760  0.1709
 8693SOL    HW137715   3.043   1.264  11.954 -0.8231 -0.1459 -0.6139
 8693SOL    HW237716   2.979   1.246  12.081 -1.8855 -0.7062 -0.5856
 8694SOL     OW37717   1.424   2.313  13.999 -0.3149  0.0521 -0.2259
 8694SOL    HW137718   1.422   2.404  13.967  1.9505  0.3581  0.5310
 8694SOL    HW237719   1.330   2.299  13.990 -0.2085 -0.3708 -0.6885
 8695SOL     OW37720   2.735   0.605   7.519 -0.0088 -0.1234 -0.2087
 8695SOL    HW137721   2.750   0.532   7.460 -2.1414  0.4293 -1.4417
 8695SOL    HW237722   2.816   0.653   7.538  0.2329 -0.8201  0.4853
 8696SOL     OW37723   3.637   1.563   7.442  0.5526 -0.1637  0.0109
 8696SOL    HW137724   3.695   1.636   7.420  1.9331 -0.6570  1.9814
 8696SOL    HW237725   3.563   1.618   7.470  0.3717  0.0832 -0.9379
 8697SOL     OW37726   1.198   3.455   9.950 -0.1811 -0.1417 -0.5596
 8697SOL    HW137727   1.134   3.387   9.930 -1.5750  0.2995  2.4379
 8697SOL    HW237728   1.265   3.441   9.883  0.0034  0.0716 -0.4165
 8698SOL     OW37729   0.083   3.769  10.762  0.5268 -0.0012  0.0409
 8698SOL    HW137730   0.167   3.762  10.807  1.5502  0.4347 -1.8078
 8698SOL    HW237731   0.023   3.745  10.833  0.4481 -1.3875 -0.5027
 8699SOL     OW37732   0.037   1.078   8.301  0.2202 -0.2827  0.1763
 8699SOL    HW137733   0.053   0.998   8.251  0.9018 -0.2964  0.4138
 8699SOL    HW237734   0.053   1.066   8.395  2.0535 -0.1902 -0.1351
 8700SOL     OW37735   3.435   3.188   9.183 -0.0913 -0.3358 -0.6659
 8700SOL    HW137736   3.438   3.271   9.230  0.0822 -0.5685 -0.2691
 8700SOL    HW237737   3.417   3.217   9.093  1.8440  0.0621 -0.9300
 8701SOL     OW37738   1.369   4.423   4.285 -0.7120 -0.0543  0.0162
 8701SOL    HW137739   1.360   4.508   4.242  0.1780  0.2635  0.4715
 8701SOL    HW237740   1.460   4.423   4.313 -1.2571 -1.0823  1.7722
 8702SOL     OW37741   1.146   4.022   7.582 -0.3945  0.2499 -0.4346
 8702SOL    HW137742   1.116   4.086   7.647 -1.1595  1.2580 -1.7693
 8702SOL    HW237743   1.070   4.034   7.525 -2.5639 -1.9624  1.9506
 8703SOL     OW37744   1.194   2.680  15.617 -0.5165 -0.2894 -0.1777
 8703SOL    HW137745   1.251   2.748  15.652 -1.7961  1.4738 -1.5034
 8703SOL    HW237746   1.157   2.635  15.693  0.8712  1.0359  1.2707
 8704SOL     OW37747   1.777   0.782   0.990 -0.0975  0.2145 -0.0580
 8704SOL    HW137748   1.770   0.821   1.077 -1.3074 -1.9974  0.8654
 8704SOL    HW237749   1.807   0.850   0.930  0.3487  1.2811  1.3934
 8705SOL     OW37750   2.155   0.571   1.811 -0.0049 -0.5563  0.6712
 8705SOL    HW137751   2.098   0.567   1.735  0.7106  0.2858  0.0950
 8705SOL    HW237752   2.117   0.499   1.861 -1.3752  0.4920  1.1307
 8706SOL     OW37753   0.883   1.139  13.186 -0.3598  0.2245  0.0037
 8706SOL    HW137754   0.960   1.109  13.138  0.9298 -0.8558  2.7334
 8706SOL    HW237755   0.922   1.135  13.273 -1.2560 -2.5152  0.2919
 8707SOL     OW37756   2.901   3.978   7.433 -0.5230  0.3387  0.4303
 8707SOL    HW137757   2.914   4.061   7.386 -0.6123 -1.3273 -2.5561
 8707SOL    HW237758   2.806   3.967   7.425 -0.4449  1.4064 -2.1817
 8708SOL     OW37759   3.873   1.708   2.191 -0.3654 -0.4315  0.4076
 8708SOL    HW137760   3.892   1.614   2.191  0.3098 -0.3192 -2.0920
 8708SOL    HW237761   3.962   1.742   2.206 -0.2228 -1.1078  1.0380
 8709SOL     OW37762   3.103   3.825   6.682  0.0542  0.1314  0.4632
 8709SOL    HW137763   3.041   3.860   6.618  0.6114  4.3211  2.1765
 8709SOL    HW237764   3.061   3.740   6.695  0.9014 -0.2067  0.9714
 8710SOL     OW37765   1.033   3.362   2.135 -0.1351 -0.1144  0.3606
 8710SOL    HW137766   1.128   3.369   2.139 -0.2791  2.2516 -0.6511
 8710SOL    HW237767   1.023   3.387   2.043 -0.9679 -1.3610  0.0987
 8711SOL     OW37768   3.908   4.136   2.587  0.0488 -0.3714 -0.2818
 8711SOL    HW137769   3.904   4.041   2.579 -0.7961 -0.3008 -0.6830
 8711SOL    HW237770   3.938   4.144   2.677  0.6548  0.6998 -0.5773
 8712SOL     OW37771   1.599   3.369  14.740 -0.3934  0.1386 -0.1443
 8712SOL    HW137772   1.511   3.345  14.711 -0.1902  1.8434 -2.1667
 8712SOL    HW237773   1.620   3.459  14.714 -1.7052  0.5011  0.0347
 8713SOL     OW37774   0.371   2.161   8.359  0.0483 -0.2671  0.2589
 8713SOL    HW137775   0.436   2.225   8.332 -0.8039  0.0414 -1.0716
 8713SOL    HW237776   0.291   2.214   8.368  0.1902  0.6604 -4.3729
 8714SOL     OW37777   4.553   2.003   7.495 -1.0928 -0.5151 -0.2201
 8714SOL    HW137778   4.464   1.989   7.462 -1.0112 -0.3944 -0.4890
 8714SOL    HW237779   4.533   2.084   7.541  0.7482 -0.6538  0.7999
 8715SOL     OW37780   2.593   2.704   4.903  0.5152  0.2402 -0.8642
 8715SOL    HW137781   2.650   2.760   4.850 -1.7327  1.3836 -2.0706
 8715SOL    HW237782   2.620   2.618   4.870 -0.0051 -0.5746  0.8271
 8716SOL     OW37783   0.785   0.339   9.037  0.0644  0.0936 -0.4348
 8716SOL    HW137784   0.785   0.276   9.110  0.6498  0.8432  0.2036
 8716SOL    HW237785   0.699   0.321   8.998  0.0912  0.0511 -0.4744
 8717SOL     OW37786   0.478   4.253   8.278 -0.2965  0.7313  0.0569
 8717SOL    HW137787   0.430   4.184   8.325 -0.1555  0.7696  0.2551
 8717SOL    HW237788   0.566   4.217   8.269 -0.4215 -0.1310  2.1500
 8718SOL     OW37789   0.678   0.806  12.754  0.2437 -0.2717 -0.1945
 8718SOL    HW137790   0.651   0.718  12.728  0.3174 -0.6432  0.9918
 8718SOL    HW237791   0.757   0.813  12.700 -0.3067  0.3385 -0.9118
 8719SOL     OW37792   3.647   4.337  15.582 -0.2265  0.0556 -0.2096
 8719SOL    HW137793   3.656   4.261  15.640  1.0425  0.4135  0.0713
 8719SOL    HW237794   3.574   4.385  15.621 -0.7888 -1.2940  0.3922
 8720SOL     OW37795   1.844   1.351   3.104 -0.1454  0.0695  0.1323
 8720SOL    HW137796   1.832   1.309   3.019  1.3736 -1.8922  0.9124
 8720SOL    HW237797   1.843   1.281   3.169 -2.7905 -0.9187 -0.9576
 8721SOL     OW37798   0.585   0.496   0.305 -0.0038 -0.3577 -0.2051
 8721SOL    HW137799   0.568   0.547   0.383 -0.3036  0.4285 -0.7926
 8721SOL    HW237800   0.511   0.435   0.301 -1.8459  1.8261  1.1358
 8722SOL     OW37801   3.448   1.719   7.541  0.4708  0.1921 -0.2229
 8722SOL    HW137802   3.356   1.691   7.547  0.9619 -0.7176  2.8567
 8722SOL    HW237803   3.468   1.769   7.620  0.4315  2.6892 -1.7922
 8723SOL     OW37804   4.608   3.602   2.703  0.0799 -0.1641 -0.0014
 8723SOL    HW137805   4.566   3.676   2.747 -0.0714  0.3135 -0.9453
 8723SOL    HW237806   4.688   3.604   2.755 -1.1614 -1.6682  1.9341
 8724SOL     OW37807   4.542   1.522   6.398  0.2840 -0.2942 -0.1078
 8724SOL    HW137808   4.521   1.528   6.491  0.7192  0.3582 -0.0493
 8724SOL    HW237809   4.468   1.575   6.369  0.6850  1.0746  1.4039
 8725SOL     OW37810   1.951   0.400  11.346 -0.1981 -0.4901 -0.2962
 8725SOL    HW137811   1.865   0.404  11.304  0.4815 -0.4899 -1.6666
 8725SOL    HW237812   1.996   0.467  11.295  1.6486 -0.6609  1.1028
 8726SOL     OW37813   1.453   3.328   2.377 -0.2810 -0.4394  0.2155
 8726SOL    HW137814   1.428   3.289   2.461  1.8090  1.2768  1.6131
 8726SOL    HW237815   1.543   3.297   2.372 -1.0117 -2.3590 -1.2050
 8727SOL     OW37816   0.791   1.702   4.534  0.0968 -0.1513 -0.1209
 8727SOL    HW137817   0.879   1.725   4.564 -0.0909 -0.8598  0.9686
 8727SOL    HW237818   0.788   1.760   4.458 -0.3220 -0.2220 -0.1583
 8728SOL     OW37819   4.701   1.113  13.957 -0.5082  0.6327  0.1636
 8728SOL    HW137820   0.023   1.063  13.904 -2.2740  0.7715 -2.0360
 8728SOL    HW237821   4.628   1.129  13.897  0.3044  0.2872 -0.9036
 8729SOL     OW37822   4.715   0.835   2.690 -0.1217  0.4000  0.1371
 8729SOL    HW137823   4.702   0.908   2.629  1.5904 -0.4890 -1.3017
 8729SOL    HW237824   4.636   0.782   2.683 -0.2867  0.4768  1.4645
 8730SOL     OW37825   1.887   3.851  12.598 -0.0543  0.5132  0.1957
 8730SOL    HW137826   1.832   3.893  12.532 -1.7396 -1.4121  0.3819
 8730SOL    HW237827   1.875   3.898  12.680 -0.5707  2.1812 -0.8472
 8731SOL     OW37828   2.070   0.394   3.321  0.1764  0.0094  0.3083
 8731SOL    HW137829   2.012   0.318   3.307  0.8855 -0.5012  0.1341
 8731SOL    HW237830   2.010   0.446   3.375  0.8525  1.0495  0.0377
 8732SOL     OW37831   1.741   4.252   3.332  0.1482 -0.0523 -0.0134
 8732SOL    HW137832   1.675   4.209   3.386  1.1334  0.5366  1.6998
 8732SOL    HW237833   1.746   4.205   3.249  2.7734  1.2928 -0.6208
 8733SOL     OW37834   1.294   3.693   7.578 -0.2256  0.1105 -0.1227
 8733SOL    HW137835   1.297   3.733   7.491 -1.5437 -0.1410 -0.2810
 8733SOL    HW237836   1.214   3.730   7.615  0.7392  1.7143  0.3743
 8734SOL     OW37837   0.109   1.414   6.438 -0.3881 -0.0045  0.5991
 8734SOL    HW137838   0.202   1.437   6.441 -0.5886  1.1098 -1.6544
 8734SOL    HW237839   0.074   1.500   6.463 -1.7943 -0.4191  0.0217
 8735SOL     OW37840   3.488   0.101   7.234 -0.2008 -0.2022  0.0115
 8735SOL    HW137841   3.573   0.092   7.277  0.6898  2.3118 -1.3099
 8735SOL    HW237842   3.468   0.009   7.213 -0.2348 -0.3961  0.8631
 8736SOL     OW37843   2.693   2.556   0.368 -0.1696 -0.1983  0.4534
 8736SOL    HW137844   2.662   2.516   0.286  2.0481  0.6614 -0.7907
 8736SOL    HW237845   2.636   2.521   0.436 -0.1854  0.1438  0.6133
 8737SOL     OW37846   1.642   1.729  17.670  0.4318 -0.0607 -0.5295
 8737SOL    HW137847   1.648   1.675  17.749  1.2595  0.4790 -0.2220
 8737SOL    HW237848   1.606   1.655  17.621 -1.2545  0.3340  0.1012
 8738SOL     OW37849   1.269   0.971   3.541 -0.4376  0.1949 -0.1141
 8738SOL    HW137850   1.311   1.057   3.534  1.7749 -1.0444 -1.7786
 8738SOL    HW237851   1.311   0.914   3.477  1.7281  3.3944 -1.5323
 8739SOL     OW37852   3.302   3.905   3.960 -0.3492 -0.0853  0.1683
 8739SOL    HW137853   3.246   3.828   3.950 -2.2445  1.4143 -0.6712
 8739SOL    HW237854   3.328   3.898   4.052 -0.6676  1.2390  0.3471
 8740SOL     OW37855   2.229   1.372   6.090 -0.3383 -0.5445 -0.4531
 8740SOL    HW137856   2.310   1.409   6.055 -1.0986  0.6576 -0.9273
 8740SOL    HW237857   2.183   1.441   6.138 -0.2935 -0.7203 -0.1600
 8741SOL     OW37858   4.417   1.928   4.286 -0.6658 -0.6598  0.4585
 8741SOL    HW137859   4.497   1.909   4.236 -1.1515 -1.3822 -0.0437
 8741SOL    HW237860   4.463   1.972   4.358 -0.2349 -0.2843 -0.0470
 8742SOL     OW37861   2.205   0.851   3.068  0.2837 -0.2801  0.6457
 8742SOL    HW137862   2.273   0.910   3.099 -0.8832  1.0535  0.6456
 8742SOL    HW237863   2.241   0.821   2.984 -0.1406 -0.7540  0.6337
 8743SOL     OW37864   3.775   1.618   4.459 -0.4429  0.2490 -0.0183
 8743SOL    HW137865   3.754   1.686   4.396 -0.3473  0.1857 -0.1188
 8743SOL    HW237866   3.864   1.596   4.431 -0.9839 -1.4891 -0.3725
 8744SOL     OW37867   1.414   0.262   0.059 -0.4381 -0.4087 -0.1365
 8744SOL    HW137868   1.373   0.186   0.101  3.2317 -2.3728 -0.1074
 8744SOL    HW237869   1.421   0.233  17.722 -1.1390  0.2440 -0.3997
 8745SOL     OW37870   3.298   3.919   2.287  0.2425 -0.3106  0.0869
 8745SOL    HW137871   3.270   3.951   2.373  0.9498  1.1539 -0.2203
 8745SOL    HW237872   3.219   3.870   2.267 -0.5949  1.4737 -1.0299
 8746SOL     OW37873   0.238   0.666  12.339  0.5034 -0.2349  0.1822
 8746SOL    HW137874   0.283   0.597  12.291  2.2933  0.0650  1.4358
 8746SOL    HW237875   0.310   0.710  12.385  2.6435 -2.8004 -0.7197
 8747SOL     OW37876   4.491   0.727   7.213 -0.2966  0.2329 -0.2591
 8747SOL    HW137877   4.583   0.723   7.237  0.3135  0.6183 -2.5292
 8747SOL    HW237878   4.487   0.668   7.138  0.7640 -0.7949  0.5114
 8748SOL     OW37879   3.564   3.785  11.057 -0.0382 -0.4933 -0.1638
 8748SOL    HW137880   3.596   3.758  11.143 -0.8447  1.9458  0.8841
 8748SOL    HW237881   3.642   3.833  11.032  0.0014 -0.3907  0.1555
 8749SOL     OW37882   1.332   4.629   6.861  0.4239 -0.6880 -0.0912
 8749SOL    HW137883   1.275   4.628   6.938  0.0619 -2.9185 -0.4002
 8749SOL    HW237884   1.317   4.721   6.839  2.4000  0.0958  1.7540
 8750SOL     OW37885   1.442   2.076   4.917  0.0917  0.5485 -0.1707
 8750SOL    HW137886   1.439   1.980   4.916  0.9811  0.5015  1.5476
 8750SOL    HW237887   1.349   2.098   4.913  0.4196  1.7173 -1.2530
 8751SOL     OW37888   0.299   0.655   7.555  0.5699  0.6167  0.3912
 8751SOL    HW137889   0.251   0.726   7.513 -0.6840 -1.2597 -1.3109
 8751SOL    HW237890   0.377   0.701   7.588  1.3356 -1.1962  1.1255
 8752SOL     OW37891   2.705   0.455   5.339  0.3316  1.3731 -0.2799
 8752SOL    HW137892   2.800   0.444   5.344  0.1448  1.2072  2.4530
 8752SOL    HW237893   2.672   0.418   5.421 -0.8529  0.8535 -0.9870
 8753SOL     OW37894   0.864   0.171   7.781  0.2488 -0.1932 -1.0443
 8753SOL    HW137895   0.957   0.194   7.782 -0.6191  3.1185  0.7264
 8753SOL    HW237896   0.825   0.258   7.782  0.7839  0.0903 -3.1275
 8754SOL     OW37897   1.789   1.108   2.478 -0.3074  0.1849 -0.5370
 8754SOL    HW137898   1.774   1.030   2.531  2.7480  0.0194  0.1055
 8754SOL    HW237899   1.708   1.154   2.501  0.8788  1.5099  1.0123
 8755SOL     OW37900   0.843   0.519   3.030 -0.1534  0.2570  0.2350
 8755SOL    HW137901   0.814   0.505   2.940 -1.1927 -1.6990  0.8904
 8755SOL    HW237902   0.854   0.429   3.059 -0.3087  1.3196  3.5644
 8756SOL     OW37903   3.720   2.873   3.282  0.3200 -0.2988 -0.2321
 8756SOL    HW137904   3.766   2.815   3.222 -0.9008 -0.6010 -0.8779
 8756SOL    HW237905   3.708   2.810   3.352 -0.1209  0.7538  0.6499
 8757SOL     OW37906   3.178   1.519   7.175  0.0878 -0.0556  0.3136
 8757SOL    HW137907   3.229   1.442   7.202  0.1372  0.0146  0.4234
 8757SOL    HW237908   3.169   1.578   7.250 -1.6114  1.9266 -1.4482
 8758SOL     OW37909   1.930   0.616   0.338 -0.0798 -0.1243 -0.2381
 8758SOL    HW137910   1.955   0.524   0.335  1.7560  0.4314 -2.1107
 8758SOL    HW237911   1.960   0.645   0.425 -0.1426 -0.9391  0.0530
 8759SOL     OW37912   0.056   1.594  14.865  0.5686 -0.0071  0.1810
 8759SOL    HW137913   4.713   1.636  14.840  0.7794  0.9384  1.0879
 8759SOL    HW237914   0.048   1.600  14.960 -1.4273 -0.1635  0.0118
 8760SOL     OW37915   0.537   3.070  12.602  0.2074 -0.4464 -0.0465
 8760SOL    HW137916   0.590   3.147  12.584 -0.4603  0.4057  1.6102
 8760SOL    HW237917   0.478   3.065  12.527  0.4285  1.4115 -0.3452
 8761SOL     OW37918   0.288   1.289  11.334 -0.1780 -0.2349  0.0389
 8761SOL    HW137919   0.293   1.280  11.239 -0.5364  1.2244 -0.1151
 8761SOL    HW237920   0.234   1.368  11.336  1.0643  0.6625 -2.5767
 8762SOL     OW37921   2.547   1.795   6.090 -0.0624  0.3498  0.0067
 8762SOL    HW137922   2.539   1.786   6.185  0.3269 -1.8357 -0.1833
 8762SOL    HW237923   2.468   1.747   6.068  1.2947 -2.3125  1.0101
 8763SOL     OW37924   4.006   4.290   4.263  0.1356 -0.1130  0.4225
 8763SOL    HW137925   4.093   4.329   4.253 -0.5476  1.0768 -0.9165
 8763SOL    HW237926   3.966   4.355   4.321  2.5008  1.1717  0.6181
 8764SOL     OW37927   0.401   1.996   6.306 -0.0259  0.1733 -0.2529
 8764SOL    HW137928   0.361   2.077   6.338 -0.1004 -0.7357  1.9565
 8764SOL    HW237929   0.481   1.985   6.357 -0.9806 -2.2300  0.6987
 8765SOL     OW37930   2.741   4.164   2.024  0.0004 -0.6171 -0.2152
 8765SOL    HW137931   2.721   4.071   2.013 -1.6956 -0.3612  0.7168
 8765SOL    HW237932   2.687   4.203   1.955 -1.2167 -1.0781  0.4735
 8766SOL     OW37933   0.291   1.703   6.719  0.0808  0.4649  0.0248
 8766SOL    HW137934   0.219   1.706   6.782  0.3842  1.4694  0.3167
 8766SOL    HW237935   0.362   1.714   6.782  0.4566 -2.9203  0.1604
 8767SOL     OW37936   3.778   2.314   3.831  0.2949 -0.2606  0.0499
 8767SOL    HW137937   3.798   2.408   3.833  1.0356 -0.3488 -3.1028
 8767SOL    HW237938   3.682   2.314   3.829  0.3310 -1.1644 -1.8498
 8768SOL     OW37939   3.752   2.421   3.561  0.0093 -0.2984  0.3737
 8768SOL    HW137940   3.801   2.343   3.537 -0.2516 -0.6144  0.8786
 8768SOL    HW237941   3.665   2.391   3.585 -1.5667  3.0032 -1.0817
 8769SOL     OW37942   0.268   3.659  10.930  0.2154 -0.2428  0.0536
 8769SOL    HW137943   0.345   3.604  10.943  1.1386  0.7511 -1.2382
 8769SOL    HW237944   0.248   3.662  11.024 -2.1477 -0.4135 -0.4249
 8770SOL     OW37945   4.344   4.162   0.947 -1.0105  0.1908 -0.2233
 8770SOL    HW137946   4.408   4.113   0.999  0.4529 -0.4058 -2.5881
 8770SOL    HW237947   4.339   4.244   0.996  1.8155  0.3366 -0.1589
 8771SOL     OW37948   2.547   3.025   5.704 -0.6541  0.1398  0.7999
 8771SOL    HW137949   2.551   3.112   5.662  0.3814 -0.2913 -0.0000
 8771SOL    HW237950   2.493   3.044   5.780  0.5303 -1.3573  2.0072
 8772SOL     OW37951   0.878   3.503   7.467  0.0920 -0.3705  0.3968
 8772SOL    HW137952   0.926   3.437   7.417  1.3918  1.7716 -1.2071
 8772SOL    HW237953   0.830   3.453   7.533 -1.7818  1.0933  0.1460
 8773SOL     OW37954   1.013   1.957   1.584  0.0776 -0.2491  0.8560
 8773SOL    HW137955   1.011   2.023   1.653  3.2504  0.9387 -0.2482
 8773SOL    HW237956   0.978   2.011   1.514  0.2885 -0.9824  0.1862
 8774SOL     OW37957   3.870   3.038   9.547  0.4544 -0.2832  0.0978
 8774SOL    HW137958   3.819   3.094   9.606  0.7369 -0.6624  0.6878
 8774SOL    HW237959   3.959   3.072   9.553 -0.9181  2.8456  2.3785
 8775SOL     OW37960   2.579   1.102   7.057  0.1118  0.1950  0.2207
 8775SOL    HW137961   2.645   1.054   7.007  0.1314  1.0112 -0.5361
 8775SOL    HW237962   2.569   1.183   7.007  1.7600  0.7022  0.6896
 8776SOL     OW37963   2.558   4.467  13.077  0.3374 -0.1357  0.5654
 8776SOL    HW137964   2.627   4.477  13.011  0.6946  0.4831  1.0322
 8776SOL    HW237965   2.592   4.502  13.159  0.1284 -1.3143  1.1566
 8777SOL     OW37966   3.082   2.944  12.042 -0.0588 -0.3814 -0.2205
 8777SOL    HW137967   3.015   2.897  12.092 -0.8417  0.5845 -0.3630
 8777SOL    HW237968   3.130   2.978  12.118 -0.3317  3.0686 -1.5934
 8778SOL     OW37969   2.724   0.549   0.980 -0.2928  0.4427  0.0140
 8778SOL    HW137970   2.653   0.487   0.997  0.2431 -0.6321 -1.6320
 8778SOL    HW237971   2.749   0.530   0.889 -2.1193  0.8031 -0.5605
 8779SOL     OW37972   4.397   4.400   3.472  0.2266  0.3144 -0.0461
 8779SOL    HW137973   4.311   4.441   3.462  0.2896  0.4403 -0.0737
 8779SOL    HW237974   4.434   4.452   3.544  1.6331 -1.0271  0.2142
 8780SOL     OW37975   2.852   1.432   9.638  0.1986 -0.2237 -0.4955
 8780SOL    HW137976   2.906   1.510   9.623 -1.3679  0.6739 -1.3894
 8780SOL    HW237977   2.840   1.397   9.550 -0.2771  2.4425 -1.5141
 8781SOL     OW37978   2.271   4.098  16.240  0.5844 -0.2693  0.7475
 8781SOL    HW137979   2.194   4.054  16.276  0.0128  0.1200 -0.0076
 8781SOL    HW237980   2.230   4.143  16.166  3.1399 -1.6022 -1.4913
 8782SOL     OW37981   3.488   3.627  16.156 -0.0617  0.1589 -0.4413
 8782SOL    HW137982   3.406   3.673  16.176 -1.0011 -2.5815  2.1060
 8782SOL    HW237983   3.521   3.684  16.087 -0.4240  0.2853 -0.5125
 8783SOL     OW37984   0.952   1.619  11.153 -0.3325 -0.1919 -0.0607
 8783SOL    HW137985   1.001   1.539  11.170  0.7392  0.4025 -0.3173
 8783SOL    HW237986   1.029   1.671  11.128  0.0995 -1.0679 -0.5296
 8784SOL     OW37987   1.660   4.515   1.900  0.0568 -0.1813  0.4533
 8784SOL    HW137988   1.649   4.554   1.987  0.0384  1.3276 -0.2323
 8784SOL    HW237989   1.667   4.593   1.844  0.3514  0.7552  1.7782
 8785SOL     OW37990   1.645   1.541   3.048 -0.0521 -0.3452  0.2635
 8785SOL    HW137991   1.706   1.613   3.067  0.8881 -1.0136 -0.2593
 8785SOL    HW237992   1.709   1.471   3.051 -0.3308 -0.6595 -1.3483
 8786SOL     OW37993   2.081   3.195   5.577  0.4582  1.2640 -0.1827
 8786SOL    HW137994   2.130   3.114   5.588 -2.3590 -0.3976  0.0918
 8786SOL    HW237995   2.066   3.216   5.669 -0.1391  0.8846 -0.1896
 8787SOL     OW37996   0.638   2.213   7.233 -0.1885 -0.6429  0.0759
 8787SOL    HW137997   0.640   2.301   7.270 -1.2754 -0.5241 -0.1591
 8787SOL    HW237998   0.592   2.223   7.150  0.2550 -0.4026 -0.1401
 8788SOL     OW37999   3.738   2.835   4.379 -0.2772 -0.3106  0.0348
 8788SOL    HW138000   3.749   2.786   4.297  0.8121  0.1312 -0.0831
 8788SOL    HW238001   3.755   2.927   4.357  0.5871 -0.8676 -1.6494
 8789SOL     OW38002   1.306   1.063  12.744  0.2367  0.1347  0.1206
 8789SOL    HW138003   1.349   1.019  12.817  0.1157 -0.9501 -0.4631
 8789SOL    HW238004   1.324   1.155  12.764 -2.7208  0.7284  0.0724
 8790SOL     OW38005   1.920   4.046   2.233  0.2394 -0.0475 -0.2888
 8790SOL    HW138006   1.922   3.953   2.259  0.1453 -0.4434 -1.7413
 8790SOL    HW238007   1.827   4.067   2.231 -0.3210 -2.3504  0.6363
 8791SOL     OW38008   4.317   1.745   6.129 -0.0638  0.0676 -0.6696
 8791SOL    HW138009   4.243   1.806   6.132 -2.2503 -2.5694 -0.0655
 8791SOL    HW238010   4.272   1.661   6.141  1.0462 -0.6565 -1.6449
 8792SOL     OW38011   0.317   4.680   7.491  0.0830 -0.0704 -0.6613
 8792SOL    HW138012   0.325   4.589   7.462  0.7642 -0.8115  1.9349
 8792SOL    HW238013   0.278   4.727   7.417 -0.8419  1.9769  1.1304
 8793SOL     OW38014   1.101   2.016   7.853  0.0547  0.2380  0.2311
 8793SOL    HW138015   1.195   2.003   7.841 -0.0122 -0.0741  0.0327
 8793SOL    HW238016   1.054   2.004   7.771 -3.4354 -0.2953  2.3245
 8794SOL     OW38017   4.730   4.001   2.644 -0.1420  0.2791 -0.6197
 8794SOL    HW138018   0.002   3.974   2.735 -2.1979 -1.3993 -0.8790
 8794SOL    HW238019   0.057   4.071   2.638  0.0223  0.2134  0.4343
 8795SOL     OW38020   4.156   4.435   9.287 -0.2806  0.0502  0.0969
 8795SOL    HW138021   4.158   4.518   9.335 -1.5787 -0.8301  1.6534
 8795SOL    HW238022   4.245   4.439   9.250 -0.3719  2.2024  0.0829
 8796SOL     OW38023   2.039   1.154   8.541 -0.1618  0.1005  0.1294
 8796SOL    HW138024   2.070   1.244   8.530 -0.1812  0.0351 -0.4787
 8796SOL    HW238025   2.056   1.120   8.453 -0.2580  0.9383 -0.2090
 8797SOL     OW38026   1.093   0.790   1.233  0.3343  0.1389 -0.0999
 8797SOL    HW138027   1.082   0.740   1.152 -1.4930 -0.4683  0.5331
 8797SOL    HW238028   1.069   0.874   1.194  2.3854 -0.2071 -2.1457
 8798SOL     OW38029   3.785   3.533   5.440  0.3269 -0.8627 -0.7089
 8798SOL    HW138030   3.876   3.530   5.468  0.3583 -1.8580 -0.9110
 8798SOL    HW238031   3.737   3.528   5.523  0.1193  2.9117 -0.6084
 8799SOL     OW38032   1.159   0.397   7.528  0.2048 -0.2189  0.0846
 8799SOL    HW138033   1.249   0.405   7.559 -0.0704  0.2850  0.7404
 8799SOL    HW238034   1.174   0.419   7.435 -1.3190  0.9850  0.1316
 8800SOL     OW38035   3.198   1.343   2.331  0.6916 -0.6162 -0.0942
 8800SOL    HW138036   3.273   1.397   2.356  0.7195 -1.2609  1.1880
 8800SOL    HW238037   3.226   1.252   2.337  3.1419  0.2399  1.6501
 8801SOL     OW38038   4.689   3.312   8.258  0.2631 -0.0103  0.7676
 8801SOL    HW138039   4.707   3.389   8.312  1.4210  0.6040 -0.4899
 8801SOL    HW238040   0.026   3.313   8.201  1.5512  0.8197  2.5063
 8802SOL     OW38041   0.728   3.383   4.920 -0.6510 -0.0463  0.2885
 8802SOL    HW138042   0.774   3.439   4.856 -1.0805 -0.4556 -0.3807
 8802SOL    HW238043   0.788   3.309   4.920 -0.5179  0.0611  0.4337
 8803SOL     OW38044   4.461   1.995   2.581  0.4314 -0.3907  0.2703
 8803SOL    HW138045   4.504   1.913   2.605  0.3031 -0.2726  0.9009
 8803SOL    HW238046   4.374   1.961   2.563  0.5727 -0.5694 -0.0859
 8804SOL     OW38047   1.839   1.672   0.854 -0.0335 -0.1780 -0.2840
 8804SOL    HW138048   1.864   1.702   0.767  2.6828 -1.2438  0.1149
 8804SOL    HW238049   1.925   1.643   0.888 -0.9609 -0.5321  1.7854
 8805SOL     OW38050   1.695   0.435   8.499 -0.3676  0.0699 -0.1055
 8805SOL    HW138051   1.611   0.459   8.460 -0.3265  2.2729  1.1539
 8805SOL    HW238052   1.725   0.516   8.540 -0.4975 -0.2716  0.6536
 8806SOL     OW38053   0.500   2.401   8.313 -0.1642  0.6542 -0.3458
 8806SOL    HW138054   0.581   2.428   8.269  1.3187  0.8832  2.5071
 8806SOL    HW238055   0.492   2.464   8.385  1.2743 -0.7731  1.0583
 8807SOL     OW38056   1.663   4.723   2.808 -0.5059 -0.0056 -0.4895
 8807SOL    HW138057   1.718   4.706   2.732 -0.9065 -3.6215  0.0309
 8807SOL    HW238058   1.662   4.634   2.844 -1.2740  0.8086  1.4788
 8808SOL     OW38059   0.148   3.909   7.974 -0.2725 -0.0433 -0.1407
 8808SOL    HW138060   0.057   3.904   8.003  0.4152 -1.1865  1.7675
 8808SOL    HW238061   0.150   3.883   7.882 -0.5574 -2.2104  0.4828
 8809SOL     OW38062   4.562   4.221  10.989  0.2499  0.4013  0.1467
 8809SOL    HW138063   4.601   4.240  11.074  1.8647  2.1976 -0.9939
 8809SOL    HW238064   4.474   4.205  11.022 -0.5308 -1.6300 -2.9413
 8810SOL     OW38065   2.078   3.385   4.395  0.1828 -0.4281 -0.3368
 8810SOL    HW138066   2.156   3.441   4.397  0.3296 -0.7194  1.8407
 8810SOL    HW238067   2.128   3.306   4.374 -0.2817 -0.8855  0.2955
 8811SOL     OW38068   0.235   3.765   2.384  0.3973 -0.0009 -0.0300
 8811SOL    HW138069   0.273   3.677   2.384 -0.8621 -0.5540 -0.7186
 8811SOL    HW238070   0.141   3.750   2.399  0.1539 -0.9301 -2.5380
 8812SOL     OW38071   3.058   1.751  15.959  0.3361  0.8172  0.5354
 8812SOL    HW138072   3.051   1.842  15.928  0.0950  0.8494  0.6805
 8812SOL    HW238073   3.142   1.747  16.003  1.4612 -0.0074 -1.6802
 8813SOL     OW38074   2.215   0.751  12.190  0.4228 -1.0176  0.3922
 8813SOL    HW138075   2.270   0.692  12.138  1.4339  0.9400 -0.7924
 8813SOL    HW238076   2.247   0.833  12.151 -0.6509 -0.6124  0.3754
 8814SOL     OW38077   4.472   2.381  10.556  0.4291  0.3374 -0.2705
 8814SOL    HW138078   4.434   2.293  10.548  0.3033  0.2122  1.8051
 8814SOL    HW238079   4.542   2.391  10.492 -0.8031  0.7709 -1.5629
 8815SOL     OW38080   1.492   2.702   9.039  0.3803 -0.2443 -0.8452
 8815SOL    HW138081   1.516   2.722   9.130  1.8447 -1.9928 -0.8376
 8815SOL    HW238082   1.411   2.650   9.045  1.3221 -1.7768 -1.2704
 8816SOL     OW38083   1.156   1.791   7.592 -0.7560 -0.0236 -0.0185
 8816SOL    HW138084   1.205   1.864   7.555  2.0871 -3.0358 -2.0949
 8816SOL    HW238085   1.219   1.752   7.653 -0.8821  0.4750  0.4367
 8817SOL     OW38086   0.307   1.596  11.758  0.3048 -0.1184 -0.0045
 8817SOL    HW138087   0.292   1.647  11.837 -0.4219  1.2549 -1.0430
 8817SOL    HW238088   0.229   1.539  11.756 -1.7706  2.8110 -2.1602
 8818SOL     OW38089   4.165   1.376  15.609  0.0093 -0.7101  0.2047
 8818SOL    HW138090   4.232   1.400  15.674 -0.8605 -1.0188  1.2259
 8818SOL    HW238091   4.186   1.283  15.594  1.6072 -0.3663  0.2785
 8819SOL     OW38092   1.312   3.742   7.294  0.2983 -0.4845 -0.2029
 8819SOL    HW138093   1.220   3.728   7.272  0.5906 -1.9402 -0.5103
 8819SOL    HW238094   1.355   3.709   7.215 -0.9036  0.9599 -1.4407
 8820SOL     OW38095   3.543   0.240   2.419 -0.6438  0.1098  0.1888
 8820SOL    HW138096   3.638   0.232   2.420 -0.5843  0.8217  0.3334
 8820SOL    HW238097   3.521   0.152   2.388 -0.2344  0.9107 -2.3691
 8821SOL     OW38098   0.657   1.339   6.428  0.4631  0.2442 -0.2935
 8821SOL    HW138099   0.664   1.432   6.447 -2.1181 -0.0318  1.9594
 8821SOL    HW238100   0.597   1.312   6.497  1.9981  2.5563  1.9079
 8822SOL     OW38101   0.329   2.424  13.608  0.3031  0.8400 -0.5110
 8822SOL    HW138102   0.335   2.425  13.703 -0.7607 -0.0796 -0.4421
 8822SOL    HW238103   0.344   2.517  13.593 -1.0869  0.8015 -2.1357
 8823SOL     OW38104   1.650   0.395  13.888  0.2630  0.0486  0.3810
 8823SOL    HW138105   1.693   0.315  13.858  1.0596  0.2053  1.1211
 8823SOL    HW238106   1.562   0.361  13.906  0.0552  0.2044 -0.3256
 8824SOL     OW38107   2.468   0.677  11.179 -0.2525  0.2147 -0.2954
 8824SOL    HW138108   2.411   0.678  11.256 -2.3245 -0.4860 -1.8181
 8824SOL    HW238109   2.497   0.768  11.180  0.6776 -0.0974  1.6241
 8825SOL     OW38110   3.338   0.150   3.577  0.0102  0.5015 -0.7887
 8825SOL    HW138111   3.248   0.122   3.561 -0.6049  0.5683  2.6409
 8825SOL    HW238112   3.350   0.235   3.536 -0.2798 -0.0096 -1.9387
 8826SOL     OW38113   0.890   2.291   6.112  0.1490 -0.4141  0.0045
 8826SOL    HW138114   0.820   2.229   6.092 -0.4460 -0.1633  1.3427
 8826SOL    HW238115   0.872   2.356   6.044 -1.0413  1.8255  2.4619
 8827SOL     OW38116   2.643   2.163   6.936 -0.0118  0.2943  0.0855
 8827SOL    HW138117   2.683   2.209   7.010 -0.9098 -1.4672  1.6805
 8827SOL    HW238118   2.657   2.073   6.965 -1.0801 -0.0353 -0.3984
 8828SOL     OW38119   3.624   3.750   8.213 -0.0704 -0.2632  0.1579
 8828SOL    HW138120   3.542   3.714   8.245 -0.4117 -0.0679 -0.4942
 8828SOL    HW238121   3.658   3.679   8.160 -2.2300 -3.2663  2.8333
 8829SOL     OW38122   4.362   2.182   8.184  0.0060 -0.0780  0.2565
 8829SOL    HW138123   4.378   2.162   8.276 -0.0839 -1.2949  0.0139
 8829SOL    HW238124   4.426   2.248   8.158  2.5827 -2.0462  1.7242
 8830SOL     OW38125   4.513   2.573   0.811 -0.3858 -0.0344  0.0183
 8830SOL    HW138126   4.571   2.533   0.876  1.6057  0.4083 -1.4746
 8830SOL    HW238127   4.573   2.635   0.771 -1.9224  2.5053  1.6644
 8831SOL     OW38128   3.676   0.149  11.754  0.4805  0.3139 -0.6862
 8831SOL    HW138129   3.592   0.111  11.778  1.0616 -1.6777 -1.8156
 8831SOL    HW238130   3.739   0.078  11.741  1.0958  0.8737 -0.7648
 8832SOL     OW38131   4.684   0.140   2.842 -0.6313  0.6406 -0.6641
 8832SOL    HW138132   4.698   0.064   2.786  0.8919 -0.9192  1.8530
 8832SOL    HW238133   4.710   0.118   2.932 -0.9168 -2.5954 -1.4059
 8833SOL     OW38134   0.313   3.978  13.548  0.5435 -0.3088 -0.3994
 8833SOL    HW138135   0.270   3.923  13.482  0.0153  1.0202 -1.1605
 8833SOL    HW238136   0.317   4.068  13.516  0.5463  0.2979  1.3417
 8834SOL     OW38137   1.486   4.646  16.586 -0.0896 -0.1436  0.2487
 8834SOL    HW138138   1.456   4.710  16.649 -1.8559 -1.0254  0.3006
 8834SOL    HW238139   1.554   4.613  16.645 -0.4867 -1.5016 -0.0560
 8835SOL     OW38140   1.679   1.619   5.117  0.3125 -0.1450 -0.0630
 8835SOL    HW138141   1.593   1.650   5.143  0.5286  1.5468 -1.3209
 8835SOL    HW238142   1.680   1.664   5.032 -0.5044  0.3726  0.2053
 8836SOL     OW38143   2.556   1.397  12.141  0.3724 -0.0359 -0.1611
 8836SOL    HW138144   2.628   1.443  12.097  2.3251 -0.6048  2.4588
 8836SOL    HW238145   2.550   1.445  12.223 -0.3811  0.0908 -0.2882
 8837SOL     OW38146   3.743   2.125   6.675  0.1894 -0.4289 -0.1037
 8837SOL    HW138147   3.702   2.044   6.705 -0.4298 -0.4766 -1.0879
 8837SOL    HW238148   3.769   2.158   6.761  1.9188 -1.0130 -0.4087
 8838SOL     OW38149   2.396   0.369   5.884 -0.4606  0.2495  0.2323
 8838SOL    HW138150   2.433   0.365   5.972  2.7040 -1.5228 -1.1365
 8838SOL    HW238151   2.453   0.437   5.848  2.7161 -1.5712  1.8303
 8839SOL     OW38152   2.737   0.207  15.861  0.6270 -0.6504  0.1424
 8839SOL    HW138153   2.790   0.232  15.786  0.0159  2.2502  0.6763
 8839SOL    HW238154   2.728   0.113  15.845 -3.3482 -0.0415 -1.0778
 8840SOL     OW38155   2.824   3.290   3.898 -0.1811  0.5491 -0.4080
 8840SOL    HW138156   2.889   3.269   3.832 -0.3528 -3.0602  0.5813
 8840SOL    HW238157   2.769   3.348   3.846 -0.8889  1.0129  0.8314
 8841SOL     OW38158   0.429   3.670   8.191 -0.5621  0.0560 -0.5682
 8841SOL    HW138159   0.505   3.708   8.146  1.9558 -1.5940  2.3473
 8841SOL    HW238160   0.375   3.632   8.122 -2.9048  2.4499 -0.0589
 8842SOL     OW38161   4.649   4.239   8.240 -0.3656 -0.2492  0.4770
 8842SOL    HW138162   4.738   4.205   8.245 -0.9475 -1.8322  0.1128
 8842SOL    HW238163   4.662   4.326   8.277  1.2149  0.0716 -0.8042
 8843SOL     OW38164   1.667   2.411  12.579  0.4592 -0.4365 -0.6331
 8843SOL    HW138165   1.586   2.392  12.626 -0.0485  1.1562 -0.8714
 8843SOL    HW238166   1.699   2.321  12.571  1.7165 -0.2388  2.2887
 8844SOL     OW38167   3.505   4.378  17.224 -0.2171 -0.1789 -0.0307
 8844SOL    HW138168   3.563   4.313  17.264 -1.8747 -0.8761  1.2431
 8844SOL    HW238169   3.509   4.452  17.284 -1.4751 -0.6598  0.6602
 8845SOL     OW38170   0.558   0.766  12.187  0.7741  0.0387 -0.3188
 8845SOL    HW138171   0.501   0.755  12.111 -1.2948  4.0663  0.6731
 8845SOL    HW238172   0.645   0.779  12.149  0.6673  1.4617 -0.0538
 8846SOL     OW38173   3.718   1.339   2.079  0.1434 -0.5516 -0.3749
 8846SOL    HW138174   3.758   1.254   2.064  0.8037 -0.1690 -0.8141
 8846SOL    HW238175   3.658   1.351   2.006  2.1359 -1.4096 -2.1406
 8847SOL     OW38176   3.321   2.312  14.184  0.6698 -0.5536 -0.2620
 8847SOL    HW138177   3.251   2.301  14.248  0.9793  1.0863  0.3374
 8847SOL    HW238178   3.305   2.406  14.183  0.6231 -0.5584  0.0097
 8848SOL     OW38179   0.929   1.246   6.476  0.0463  0.0215 -0.0571
 8848SOL    HW138180   0.837   1.269   6.466 -0.0251 -0.6975 -1.0656
 8848SOL    HW238181   0.930   1.165   6.425  3.1225 -0.4475  0.7469
 8849SOL     OW38182   1.157   2.875   1.183  0.4855 -0.1093  0.5392
 8849SOL    HW138183   1.114   2.798   1.221  1.0792 -0.5582  0.2860
 8849SOL    HW238184   1.179   2.846   1.095  1.2385  2.5388 -0.1524
 8850SOL     OW38185   0.257   4.714  13.287 -0.1163 -0.1418  0.1268
 8850SOL    HW138186   0.257   0.013  13.199 -0.3547 -1.9608 -0.6679
 8850SOL    HW238187   0.195   0.019  13.345  0.0540 -0.8893  0.8762
 8851SOL     OW38188   0.141   1.312  16.264 -0.0318  0.0590 -0.3197
 8851SOL    HW138189   0.089   1.328  16.185 -0.7661  1.3922  0.4498
 8851SOL    HW238190   0.147   1.400  16.301  1.4239 -0.1492 -0.0588
 8852SOL     OW38191   4.438   0.772   2.155  0.1661 -0.5972  0.2310
 8852SOL    HW138192   4.445   0.866   2.139 -2.8843 -0.7683 -2.2379
 8852SOL    HW238193   4.499   0.759   2.227  1.5273  1.5991 -0.5358
 8853SOL     OW38194   1.054   4.552   8.753 -0.5783 -0.0460 -0.2212
 8853SOL    HW138195   1.052   4.604   8.834 -1.0467  0.9413 -0.8660
 8853SOL    HW238196   0.977   4.500   8.778  0.4170 -3.2621 -3.8774
 8854SOL     OW38197   2.027   3.675   2.039  0.3346 -0.7628  0.3693
 8854SOL    HW138198   2.089   3.638   1.976  0.1011 -0.3098 -0.1345
 8854SOL    HW238199   2.039   3.768   2.019 -0.6170 -0.5063  0.9945
 8855SOL     OW38200   2.917   3.178   5.664  0.2811  0.2127 -0.3367
 8855SOL    HW138201   2.926   3.094   5.619  1.2546  1.5774 -2.7136
 8855SOL    HW238202   2.916   3.239   5.590 -0.5061 -1.0698 -1.3819
 8856SOL     OW38203   0.599   4.667   2.747  0.0569  0.0716 -0.3194
 8856SOL    HW138204   0.578   4.575   2.731  1.8617 -0.2179 -0.9195
 8856SOL    HW238205   0.523   4.709   2.707 -1.0439  0.7022  2.3879
 8857SOL     OW38206   2.073   2.565   8.395 -0.0669  0.4788  0.0567
 8857SOL    HW138207   2.056   2.637   8.334 -0.0516 -1.8987 -2.7554
 8857SOL    HW238208   1.993   2.568   8.447 -0.2044  0.2452 -0.1376
 8858SOL     OW38209   1.729   2.162   4.081 -0.2925  0.5065  0.1825
 8858SOL    HW138210   1.653   2.104   4.092 -0.5690  0.6275 -1.1226
 8858SOL    HW238211   1.750   2.178   4.173  1.6122 -0.6060 -0.0596
 8859SOL     OW38212   0.077   4.002   6.653 -0.9017  0.2000  0.5472
 8859SOL    HW138213   0.155   3.965   6.611 -1.3938  0.3017 -0.4700
 8859SOL    HW238214   0.098   4.004   6.746 -0.4538  2.1202  0.4242
 8860SOL     OW38215   3.522   1.293   3.330 -0.5755  0.1020  0.2367
 8860SOL    HW138216   3.450   1.231   3.327  0.4424 -1.0027 -1.1041
 8860SOL    HW238217   3.588   1.241   3.376  0.0944  2.7526  2.2816
 8861SOL     OW38218   0.148   0.212   2.283 -0.3848 -0.6321  0.4897
 8861SOL    HW138219   0.219   0.156   2.252 -0.0192  0.1033  0.0060
 8861SOL    HW238220   0.078   0.202   2.219 -0.6889 -0.0109  0.7265
 8862SOL     OW38221   2.634   1.308   1.458  0.1816  0.0730 -0.0191
 8862SOL    HW138222   2.578   1.321   1.381  1.4323 -3.1513 -1.4616
 8862SOL    HW238223   2.719   1.327   1.419  0.5171  2.6401  1.9494
 8863SOL     OW38224   3.791   2.528   8.873 -0.6099 -0.3676  0.4417
 8863SOL    HW138225   3.826   2.577   8.947  0.7404 -0.0125 -0.4255
 8863SOL    HW238226   3.744   2.457   8.915 -1.4001 -0.2437 -0.2211
 8864SOL     OW38227   1.311   3.189   4.446 -0.2659  0.3295 -0.0855
 8864SOL    HW138228   1.391   3.220   4.402  0.7426 -0.9133  0.8573
 8864SOL    HW238229   1.261   3.270   4.434 -1.4109 -0.4001 -0.2189
 8865SOL     OW38230   3.161   4.314   7.841  0.1044  0.5883 -0.3377
 8865SOL    HW138231   3.136   4.399   7.877  0.9183  0.7770 -0.2103
 8865SOL    HW238232   3.201   4.276   7.919 -0.0518 -3.1137 -2.0438
 8866SOL     OW38233   3.918   3.626   4.971 -0.6494 -0.0027 -0.0351
 8866SOL    HW138234   3.944   3.647   5.061  2.1270  0.7480 -1.0067
 8866SOL    HW238235   3.945   3.707   4.929 -1.7843  0.4796  0.1739
 8867SOL     OW38236   1.826   3.173  13.812 -0.0419 -0.5535 -0.2714
 8867SOL    HW138237   1.747   3.176  13.759 -0.6652 -2.4961  0.5606
 8867SOL    HW238238   1.838   3.078  13.820 -0.0754 -0.5229  0.1307
 8868SOL     OW38239   3.510   2.067   6.087  0.7182  0.2147  0.0730
 8868SOL    HW138240   3.600   2.070   6.121  0.5604  1.3326  0.3840
 8868SOL    HW238241   3.494   1.974   6.072  0.9494  0.0369  0.9435
 8869SOL     OW38242   3.163   3.069   6.513  0.4978  0.0994  0.3153
 8869SOL    HW138243   3.139   3.160   6.527  1.6643  0.3658  0.5667
 8869SOL    HW238244   3.245   3.077   6.561 -0.0420  0.8351  1.1161
 8870SOL     OW38245   3.599   0.203   5.052  0.4512  0.2986 -0.0940
 8870SOL    HW138246   3.684   0.174   5.017  1.2440  2.2586  0.2159
 8870SOL    HW238247   3.553   0.119   5.054  3.2234 -1.2136  0.5820
 8871SOL     OW38248   2.067   1.404   2.670 -0.0159 -0.1958 -0.4660
 8871SOL    HW138249   2.019   1.332   2.630  0.6491 -0.7339 -0.2948
 8871SOL    HW238250   2.128   1.360   2.729 -0.8157 -0.1386  0.4015
 8872SOL     OW38251   3.047   4.023   3.380 -0.0504 -0.1022 -0.0535
 8872SOL    HW138252   3.085   3.942   3.347 -2.7106 -2.2265  2.0377
 8872SOL    HW238253   3.032   4.071   3.299  1.5003  1.7871  0.7979
 8873SOL     OW38254   1.734   2.754   5.561 -0.3817  0.1031  0.0981
 8873SOL    HW138255   1.810   2.697   5.571 -0.8743 -0.3602  1.2272
 8873SOL    HW238256   1.665   2.688   5.546  0.9836 -1.2199 -0.3385
 8874SOL     OW38257   0.808   0.569   6.440  0.1139 -0.2271 -0.2851
 8874SOL    HW138258   0.852   0.592   6.523 -0.2984 -2.3350  0.5083
 8874SOL    HW238259   0.757   0.644   6.409  0.0491  0.5635  1.7154
 8875SOL     OW38260   2.732   1.341  15.893 -0.1119 -0.0768  0.2576
 8875SOL    HW138261   2.807   1.383  15.934  1.1481 -0.2947 -1.8389
 8875SOL    HW238262   2.720   1.401  15.820  0.1086  0.5609  0.7464
 8876SOL     OW38263   2.606   0.326  15.443  0.5598  0.2249 -0.1903
 8876SOL    HW138264   2.648   0.250  15.483  0.6595  0.6022  0.4220
 8876SOL    HW238265   2.621   0.310  15.350 -1.0016 -2.0560 -0.0597
 8877SOL     OW38266   4.521   2.921   0.531 -0.4301 -0.2535 -0.2011
 8877SOL    HW138267   4.536   2.988   0.597 -2.9978  0.7392 -0.6402
 8877SOL    HW238268   4.578   2.960   0.465 -0.7105 -1.1129 -0.9624
 8878SOL     OW38269   2.882   3.769   7.771  0.0175  0.1432  0.3785
 8878SOL    HW138270   2.877   3.808   7.858  2.1701  0.2095  0.4864
 8878SOL    HW238271   2.792   3.740   7.760 -0.0350  0.7391 -0.7158
 8879SOL     OW38272   2.034   4.671  11.033  0.2007 -0.0793  0.1951
 8879SOL    HW138273   1.985   4.710  10.961  0.3275 -0.6438 -0.1946
 8879SOL    HW238274   2.023   4.578  11.014 -0.0336  0.1081 -0.5835
 8880SOL     OW38275   4.687   4.298   2.852 -0.5110  0.3042  0.5005
 8880SOL    HW138276   0.029   4.247   2.844 -2.2613 -2.2510 -0.8819
 8880SOL    HW238277   4.707   4.356   2.925 -1.2415  1.2679 -0.0658
 8881SOL     OW38278   1.965   4.469   8.543  0.4531  0.1343 -0.7554
 8881SOL    HW138279   1.996   4.389   8.500  1.4932  0.6777 -0.9999
 8881SOL    HW238280   1.873   4.469   8.515  0.4587  1.1226 -0.7579
 8882SOL     OW38281   1.820   3.835  12.954  0.3344 -0.3550  0.2811
 8882SOL    HW138282   1.873   3.895  12.901  2.2596 -0.8798  1.5961
 8882SOL    HW238283   1.792   3.891  13.026 -0.7248 -0.2520 -0.2157
 8883SOL     OW38284   0.631   3.483  17.630  0.3033 -0.4761 -0.6181
 8883SOL    HW138285   0.599   3.513  17.715 -0.0811 -0.7459 -0.6649
 8883SOL    HW238286   0.585   3.399  17.625  0.2719 -0.4668 -0.4860
 8884SOL     OW38287   0.922   0.381   1.958  0.3422 -0.2419 -0.3338
 8884SOL    HW138288   0.909   0.468   1.996 -1.3985 -0.1490 -1.1463
 8884SOL    HW238289   0.993   0.350   2.014  2.0065 -0.2618 -2.4415
 8885SOL     OW38290   0.890   3.574   8.403 -0.5128  0.1144 -0.2418
 8885SOL    HW138291   0.820   3.638   8.388  1.2001  2.1180  0.3568
 8885SOL    HW238292   0.848   3.518   8.468 -0.0948  1.0453  0.8328
 8886SOL     OW38293   3.245   1.135   7.106  0.0822 -0.2474  0.3100
 8886SOL    HW138294   3.157   1.161   7.078 -1.5184 -4.4526  1.3841
 8886SOL    HW238295   3.286   1.215   7.139 -0.4252  0.5680 -1.0360
 8887SOL     OW38296   4.125   2.794   7.422 -0.7514  0.6269 -0.3195
 8887SOL    HW138297   4.144   2.801   7.328  1.4831 -1.4546 -0.0246
 8887SOL    HW238298   4.076   2.713   7.435  3.1645 -1.4274  1.5656
 8888SOL     OW38299   2.262   1.294   2.865 -0.1184  0.0761  0.2857
 8888SOL    HW138300   2.293   1.384   2.878 -0.5027 -0.0029  1.6767
 8888SOL    HW238301   2.335   1.233   2.875 -0.3378 -0.4862 -1.4411
 8889SOL     OW38302   2.785   3.402  14.041 -0.0878  0.3391 -0.2906
 8889SOL    HW138303   2.757   3.438  14.126 -0.9608 -2.2428  0.5104
 8889SOL    HW238304   2.737   3.452  13.976 -1.2735 -0.3631  0.0497
 8890SOL     OW38305   3.862   4.107   1.420 -0.6138 -0.1230  0.3062
 8890SOL    HW138306   3.900   4.168   1.484 -1.3200 -0.0499  0.6620
 8890SOL    HW238307   3.861   4.160   1.341  0.1170 -0.0855  0.3246
 8891SOL     OW38308   1.633   3.338  11.095 -0.1362  0.3186 -0.2399
 8891SOL    HW138309   1.581   3.278  11.042 -1.6114  1.1100  0.3189
 8891SOL    HW238310   1.723   3.305  11.095 -0.3194 -0.1715  0.4888
 8892SOL     OW38311   2.992   4.545  16.847 -0.0768  0.7022 -0.3620
 8892SOL    HW138312   3.012   4.482  16.916 -0.3214  3.2450  2.0372
 8892SOL    HW238313   3.073   4.595  16.839  2.7856 -3.7820  0.6929
 8893SOL     OW38314   2.892   0.596  10.020 -0.3272  0.0935 -0.1983
 8893SOL    HW138315   2.975   0.570   9.981  0.2611 -0.2062  1.2985
 8893SOL    HW238316   2.831   0.549   9.962  0.1624 -1.5405  0.6178
 8894SOL     OW38317   3.806   3.999   5.331  0.2528  0.2258 -0.2116
 8894SOL    HW138318   3.745   3.927   5.314  0.8188 -0.2687 -0.1627
 8894SOL    HW238319   3.866   4.014   5.259  0.4642 -0.8004 -0.2446
 8895SOL     OW38320   0.189   1.799  16.764  0.3362 -0.5943 -0.5022
 8895SOL    HW138321   0.166   1.752  16.844  1.5067 -0.7449 -0.2436
 8895SOL    HW238322   0.265   1.745  16.740  1.7111  1.5361 -0.9817
 8896SOL     OW38323   1.783   0.092   5.113 -0.0681  0.4194  0.5775
 8896SOL    HW138324   1.838   0.036   5.169  0.4268  0.0763 -0.2560
 8896SOL    HW238325   1.840   0.168   5.104 -0.8218  0.8403 -0.5336
 8897SOL     OW38326   3.508   3.794   5.760  0.0244  0.3385 -0.3873
 8897SOL    HW138327   3.465   3.863   5.709 -0.7941  0.1505  0.0663
 8897SOL    HW238328   3.436   3.770   5.818  0.3610 -1.9675 -0.9246
 8898SOL     OW38329   4.547   2.847   9.156 -0.3204  0.6054 -0.7240
 8898SOL    HW138330   4.639   2.823   9.164  0.0827  1.2760 -3.1050
 8898SOL    HW238331   4.539   2.923   9.214 -0.2897 -3.0591  4.0175
 8899SOL     OW38332   3.035   4.294   1.246  0.3435 -0.2549 -0.0403
 8899SOL    HW138333   3.073   4.381   1.254 -0.7670  0.4079 -1.9493
 8899SOL    HW238334   3.107   4.238   1.275 -1.7664 -1.7814  2.2689
 8900SOL     OW38335   2.805   0.557   8.038  0.1875  0.2344 -0.3754
 8900SOL    HW138336   2.836   0.638   8.079 -2.3994  0.4135  1.2154
 8900SOL    HW238337   2.810   0.577   7.945 -2.0933  0.9729 -0.3352
 8901SOL     OW38338   4.689   0.445  15.910 -0.4597 -0.0471  0.0601
 8901SOL    HW138339   4.709   0.507  15.980 -0.4332 -0.4292  0.3947
 8901SOL    HW238340   4.597   0.467  15.895 -0.6877 -0.3374  1.0174
 8902SOL     OW38341   1.766   0.843   2.572 -0.6003  0.3226  0.2938
 8902SOL    HW138342   1.782   0.813   2.662  1.6852 -0.1961 -0.3097
 8902SOL    HW238343   1.673   0.819   2.566 -0.3551 -0.1673 -1.4405
 8903SOL     OW38344   4.033   3.867   5.487 -0.6107  0.0745  0.0101
 8903SOL    HW138345   3.953   3.920   5.494 -0.6928  0.2283 -2.1384
 8903SOL    HW238346   4.007   3.800   5.550 -0.9636 -1.9427 -2.2639
 8904SOL     OW38347   1.292   2.605   4.454 -0.5828  0.4676 -0.2074
 8904SOL    HW138348   1.255   2.554   4.383 -1.7578 -0.2752  0.9306
 8904SOL    HW238349   1.329   2.682   4.410  1.7334 -0.6381 -0.1870
 8905SOL     OW38350   4.349   1.751   9.111  0.0550 -0.0438  0.0290
 8905SOL    HW138351   4.403   1.825   9.083  1.3851 -1.4522 -1.1527
 8905SOL    HW238352   4.417   1.684   9.122 -0.0120 -0.2521 -0.8390
 8906SOL     OW38353   1.815   0.239  11.520  0.1504  0.5688 -0.1887
 8906SOL    HW138354   1.895   0.274  11.481  0.3639  1.9424  1.5306
 8906SOL    HW238355   1.804   0.291  11.599  0.7891  1.4083 -0.6580
 8907SOL     OW38356   3.931   1.490  15.700 -0.2541  0.0583 -0.3562
 8907SOL    HW138357   4.012   1.438  15.696  0.6348  1.4572 -0.4915
 8907SOL    HW238358   3.957   1.549  15.630  0.9683  0.9425  0.8473
 8908SOL     OW38359   3.486   1.376  13.166 -0.1641  0.0944 -0.2731
 8908SOL    HW138360   3.549   1.413  13.230 -0.5648  1.8158 -0.8763
 8908SOL    HW238361   3.398   1.387  13.202  0.6259  2.3800  1.0091
 8909SOL     OW38362   0.841   2.167   8.256 -0.1910 -0.2548  0.2403
 8909SOL    HW138363   0.919   2.189   8.205 -0.9413  4.3304  1.0508
 8909SOL    HW238364   0.872   2.200   8.341  0.3379  2.9052 -1.2008
 8910SOL     OW38365   0.475   1.304  13.843 -0.8408 -0.0546  0.0380
 8910SOL    HW138366   0.437   1.308  13.755  0.5212  0.7946 -0.5087
 8910SOL    HW238367   0.448   1.220  13.881  0.0748  0.0028  0.8097
 8911SOL     OW38368   3.792   2.577   3.796  0.0231 -0.4275  0.2858
 8911SOL    HW138369   3.726   2.646   3.802  1.1289  0.6350  0.2517
 8911SOL    HW238370   3.779   2.539   3.710 -4.1927 -0.5429  0.9723
 8912SOL     OW38371   4.207   1.871   2.509  0.7027 -0.0114 -0.2571
 8912SOL    HW138372   4.112   1.872   2.501  0.7213 -0.9141 -0.6083
 8912SOL    HW238373   4.219   1.782   2.542 -2.7372 -0.7230 -0.9248
 8913SOL     OW38374   1.305   3.920   1.427  0.1408  0.0236  0.8298
 8913SOL    HW138375   1.291   4.011   1.401 -2.3556 -0.6203 -0.1074
 8913SOL    HW238376   1.252   3.925   1.506 -1.2177 -0.5423 -0.0359
 8914SOL     OW38377   2.312   0.963   1.036  0.0509 -0.3808 -0.3588
 8914SOL    HW138378   2.327   0.922   1.121  1.0671  1.3655  0.2930
 8914SOL    HW238379   2.222   0.993   1.048  1.4218  2.4262  2.9432
 8915SOL     OW38380   0.679   2.575   7.171 -0.0295  0.2066  0.5587
 8915SOL    HW138381   0.772   2.589   7.189  0.1131  1.4490 -1.1223
 8915SOL    HW238382   0.679   2.517   7.095 -0.1415  0.2138  0.5520
 8916SOL     OW38383   1.887   2.390  15.788 -0.2099 -0.3855  0.6489
 8916SOL    HW138384   1.922   2.465  15.835 -0.7350  1.5380 -2.0393
 8916SOL    HW238385   1.966   2.362  15.741 -0.0369  0.1101  0.6452
 8917SOL     OW38386   2.826   3.746   8.285 -0.7397  0.5547  0.2228
 8917SOL    HW138387   2.828   3.653   8.308 -1.5925  0.1220 -1.4984
 8917SOL    HW238388   2.754   3.786   8.335 -1.8639 -0.9665 -0.1882
 8918SOL     OW38389   3.716   2.769   4.104 -0.3629  0.3380  0.0589
 8918SOL    HW138390   3.639   2.742   4.054 -1.1142  2.3618  0.1419
 8918SOL    HW238391   3.784   2.742   4.042  1.0648 -0.9480  2.2089
 8919SOL     OW38392   2.628   4.324   7.568 -0.5244 -0.2297 -0.6518
 8919SOL    HW138393   2.647   4.264   7.496 -1.2489 -2.6145  1.1519
 8919SOL    HW238394   2.533   4.331   7.558 -0.7062  0.9096  1.8263
 8920SOL     OW38395   1.920   0.536   6.301  0.0492  0.4719 -0.1186
 8920SOL    HW138396   1.993   0.594   6.280  0.4873  0.3995  1.2595
 8920SOL    HW238397   1.846   0.585   6.266  0.4273 -0.9058 -2.8604
 8921SOL     OW38398   4.411   3.222   0.405  0.0992 -0.1173  0.1541
 8921SOL    HW138399   4.405   3.255   0.495  3.5000  2.2266 -0.4486
 8921SOL    HW238400   4.339   3.160   0.398 -0.3692  0.4898 -0.5420
 8922SOL     OW38401   0.083   1.345   4.218  0.8658 -0.1864  0.2796
 8922SOL    HW138402   0.068   1.362   4.125 -0.2093  0.2553  0.5296
 8922SOL    HW238403   4.735   1.323   4.252  0.3784 -0.2529 -1.0165
 8923SOL     OW38404   4.093   0.586   4.371 -0.1525  0.3043 -0.1146
 8923SOL    HW138405   4.108   0.613   4.461  0.9147  3.5782 -1.2542
 8923SOL    HW238406   4.079   0.668   4.324  0.1166  1.0477  1.1181
 8924SOL     OW38407   3.477   2.371   3.614 -0.2300  0.1696 -0.7203
 8924SOL    HW138408   3.457   2.280   3.596  0.1501 -0.0203 -0.1859
 8924SOL    HW238409   3.428   2.409   3.541  1.6715  1.6878 -1.1997
 8925SOL     OW38410   3.378   3.537   3.843  0.3263  0.1403 -0.0857
 8925SOL    HW138411   3.450   3.597   3.824 -1.5187  1.8787 -1.5473
 8925SOL    HW238412   3.367   3.540   3.938  2.0232  3.2379  0.0129
 8926SOL     OW38413   2.390   3.462   7.883  0.4114 -0.9325  0.2243
 8926SOL    HW138414   2.398   3.489   7.792  1.4771  0.2306  0.6727
 8926SOL    HW238415   2.358   3.372   7.875 -0.4532 -0.4761 -1.5278
 8927SOL     OW38416   2.437   4.294   5.325  0.4904 -0.5463 -0.1383
 8927SOL    HW138417   2.382   4.265   5.398 -1.2494 -0.7779 -1.5408
 8927SOL    HW238418   2.448   4.209   5.283 -1.1631 -0.5996 -0.4816
 8928SOL     OW38419   4.687   1.186  15.241 -0.0322  0.3177 -0.0019
 8928SOL    HW138420   4.604   1.153  15.206 -0.6477  0.7812  1.0179
 8928SOL    HW238421   4.680   1.171  15.336  0.3387  0.8282  0.1073
 8929SOL     OW38422   1.803   1.172  15.248  0.2984 -0.2952  0.8167
 8929SOL    HW138423   1.864   1.106  15.216  0.1862 -0.9032  1.8595
 8929SOL    HW238424   1.779   1.221  15.170  0.3067 -0.2256  0.8575
 8930SOL     OW38425   1.061   0.467  17.445  0.0037  0.1394  0.0878
 8930SOL    HW138426   1.156   0.478  17.443 -0.0962  1.4451  1.8108
 8930SOL    HW238427   1.031   0.558  17.442  0.9130  0.4384  0.0580
 8931SOL     OW38428   3.041   2.114   3.167 -0.4161 -0.2661 -0.0848
 8931SOL    HW138429   2.965   2.076   3.210 -1.5011 -2.0423 -3.6008
 8931SOL    HW238430   3.076   2.161   3.243 -0.2607 -1.2558  0.4547
 8932SOL     OW38431   3.342   2.759   4.891  0.1030 -0.0317 -0.4977
 8932SOL    HW138432   3.435   2.782   4.894  0.2254 -0.3557 -1.7230
 8932SOL    HW238433   3.344   2.676   4.940 -1.2310 -1.1242 -2.2937
 8933SOL     OW38434   2.341   1.077  13.414  0.6691  0.4994 -0.4717
 8933SOL    HW138435   2.298   1.015  13.354 -1.2123 -1.0661  2.4942
 8933SOL    HW238436   2.328   1.165  13.379 -0.9419  0.4267 -0.0350
 8934SOL     OW38437   2.285   0.582   6.097  0.1508 -0.6576 -0.2126
 8934SOL    HW138438   2.323   0.501   6.130  1.1523 -1.4705 -3.3901
 8934SOL    HW238439   2.359   0.620   6.048 -2.9044  2.4811 -2.3577
 8935SOL     OW38440   2.037   3.314   7.727  0.8030  0.1253 -0.5272
 8935SOL    HW138441   2.005   3.398   7.760  2.9864  0.8460 -0.2289
 8935SOL    HW238442   2.027   3.318   7.632  0.3829 -1.0371 -0.5379
 8936SOL     OW38443   3.454   0.542   2.304  0.4254  0.2767  0.3404
 8936SOL    HW138444   3.544   0.512   2.287  0.7056  0.6810  1.0959
 8936SOL    HW238445   3.472   0.630   2.337 -0.6112  0.3668  0.6369
 8937SOL     OW38446   3.289   3.000   4.943 -0.4045  0.0373  0.7495
 8937SOL    HW138447   3.361   3.005   5.005  0.9903  0.5291 -0.8956
 8937SOL    HW238448   3.303   2.912   4.908  1.9061  0.8555 -0.4245
 8938SOL     OW38449   1.515   2.187  10.825 -0.1415  0.5848  0.4474
 8938SOL    HW138450   1.468   2.187  10.909  0.4884  3.8446  0.8128
 8938SOL    HW238451   1.545   2.278  10.819  0.6032  0.4508  2.0463
 8939SOL     OW38452   1.117   0.394   2.190 -0.0174 -0.0053  0.3996
 8939SOL    HW138453   1.205   0.404   2.153 -0.0987 -1.6145 -0.2074
 8939SOL    HW238454   1.141   0.356   2.274  1.4029  0.1601  0.0829
 8940SOL     OW38455   1.855   0.714  11.298  0.3078 -0.0993 -0.9240
 8940SOL    HW138456   1.945   0.695  11.269  0.8646  1.9541 -0.5860
 8940SOL    HW238457   1.802   0.651  11.251 -0.0653 -0.9884  0.6957
 8941SOL     OW38458   0.394   3.988   8.861  0.3384 -0.2352 -0.6917
 8941SOL    HW138459   0.486   4.011   8.869  0.1821 -0.2971  1.3029
 8941SOL    HW238460   0.361   4.077   8.850 -1.1886 -0.7397 -0.2785
 8942SOL     OW38461   3.793   0.916   7.437  0.5887 -0.2731 -0.1820
 8942SOL    HW138462   3.769   1.009   7.447  0.2166 -0.2828 -1.0055
 8942SOL    HW238463   3.812   0.902   7.530  0.6446 -2.7824 -0.5900
 8943SOL     OW38464   1.186   2.062   9.250 -0.3455  0.0967 -0.1186
 8943SOL    HW138465   1.268   2.110   9.265  0.4919 -1.4832  0.3849
 8943SOL    HW238466   1.123   2.121   9.209  0.5137  1.7227  0.8989
 8944SOL     OW38467   3.229   1.400   9.593  0.8698 -0.1247 -0.0365
 8944SOL    HW138468   3.270   1.397   9.679 -0.1190 -2.2840  0.3616
 8944SOL    HW238469   3.268   1.475   9.548 -0.1243  0.8928  0.8039
 8945SOL     OW38470   3.510   4.144   2.801  0.3687 -0.6368 -0.2572
 8945SOL    HW138471   3.546   4.067   2.845  1.8299  0.1245 -0.1190
 8945SOL    HW238472   3.540   4.217   2.856  0.1168 -0.9893  0.3496
 8946SOL     OW38473   0.129   2.750   5.019 -0.9161  0.4203 -0.0123
 8946SOL    HW138474   0.123   2.797   4.935  0.8885  1.1704  0.2740
 8946SOL    HW238475   0.044   2.711   5.037  0.1865 -1.9383  0.0622
 8947SOL     OW38476   3.820   2.554   6.106  0.0694  0.3195  0.0997
 8947SOL    HW138477   3.810   2.634   6.158  1.7723  1.2038 -0.9409
 8947SOL    HW238478   3.729   2.539   6.080  0.8899 -0.9566 -2.0149
 8948SOL     OW38479   0.428   3.385  12.411  0.3210 -0.4000  0.2623
 8948SOL    HW138480   0.491   3.375  12.482  0.0190 -0.1190  0.5751
 8948SOL    HW238481   0.397   3.472  12.436  2.0598 -0.9345  4.3878
 8949SOL     OW38482   2.165   3.697   6.753 -0.2405 -0.6516  0.0914
 8949SOL    HW138483   2.107   3.705   6.677  0.5350 -1.9952 -0.6289
 8949SOL    HW238484   2.099   3.716   6.820 -0.7901  0.6098 -0.8126
 8950SOL     OW38485   4.594   2.288   3.994 -0.1709  0.3737 -0.4139
 8950SOL    HW138486   4.536   2.312   4.066  0.1889 -0.9257  0.3085
 8950SOL    HW238487   4.582   2.365   3.939 -1.6252 -0.0493 -0.7038
 8951SOL     OW38488   3.600   2.466  10.002  0.2203 -0.0460 -0.2577
 8951SOL    HW138489   3.650   2.423  10.071 -0.0688 -3.1166 -1.9746
 8951SOL    HW238490   3.533   2.400   9.982 -1.3065  1.1276  0.9480
 8952SOL     OW38491   2.148   1.866   3.965  0.2221  0.1338  0.6896
 8952SOL    HW138492   2.187   1.854   3.878  0.4914 -1.3289  1.0149
 8952SOL    HW238493   2.214   1.820   4.017 -0.7337 -3.0088 -0.8495
 8953SOL     OW38494   4.671   3.994   4.593 -1.3030 -0.2515 -0.0795
 8953SOL    HW138495   4.640   4.015   4.505 -0.6389  0.6572 -0.0990
 8953SOL    HW238496   4.706   4.081   4.614  0.8308 -0.5811 -2.2440
 8954SOL     OW38497   4.143   2.895  12.903  0.3526 -0.1737  0.0327
 8954SOL    HW138498   4.095   2.861  12.979  3.1216 -0.6493  1.6048
 8954SOL    HW238499   4.164   2.814  12.858  1.2146 -0.4108  0.8484
 8955SOL     OW38500   1.153   4.425   2.765 -0.2246 -0.2367 -0.1315
 8955SOL    HW138501   1.222   4.424   2.832 -0.1341 -1.1236 -0.2464
 8955SOL    HW238502   1.185   4.475   2.689 -0.4259  0.4153  0.2096
 8956SOL     OW38503   0.099   3.606   3.498 -0.2729  0.0020 -0.1014
 8956SOL    HW138504   0.099   3.601   3.593  2.5366 -0.2389 -0.1162
 8956SOL    HW238505   0.019   3.555   3.482 -1.5348  2.0393 -0.3416
 8957SOL     OW38506   4.115   2.220   6.250 -0.0526  0.1100  0.2644
 8957SOL    HW138507   4.047   2.164   6.285  0.5038 -1.3983 -1.0822
 8957SOL    HW238508   4.071   2.253   6.172  1.5392  1.5583 -0.0270
 8958SOL     OW38509   4.051   3.857   8.068 -0.1655  0.3963  0.3738
 8958SOL    HW138510   3.986   3.851   8.138 -0.0254  1.5493  0.6022
 8958SOL    HW238511   4.078   3.947   8.089  1.0224 -0.9893  4.7867
 8959SOL     OW38512   4.603   2.875  11.306  0.2218  0.0731 -0.0780
 8959SOL    HW138513   4.620   2.818  11.381 -0.3417 -0.3653 -0.2863
 8959SOL    HW238514   4.517   2.912  11.322 -0.7202 -1.7156 -0.9338
 8960SOL     OW38515   0.798   4.066   3.455  0.1070 -0.0098 -0.0059
 8960SOL    HW138516   0.887   4.076   3.421  0.8941 -0.6187  1.8943
 8960SOL    HW238517   0.764   4.156   3.447  1.2974  0.1836 -2.8354
 8961SOL     OW38518   0.876   2.550   1.928 -0.5771 -0.7488 -0.2530
 8961SOL    HW138519   0.915   2.621   1.979  0.4425 -0.2293 -1.7583
 8961SOL    HW238520   0.794   2.531   1.973 -1.1778 -0.5762 -1.2857
 8962SOL     OW38521   1.767   2.247   8.467 -0.0992  0.2281 -0.1382
 8962SOL    HW138522   1.818   2.206   8.398  1.3599 -2.0267  2.2957
 8962SOL    HW238523   1.776   2.175   8.529  0.9266 -0.3668 -0.9835
 8963SOL     OW38524   4.421   4.463  16.883 -0.5704  0.7557 -0.4023
 8963SOL    HW138525   4.477   4.503  16.950 -0.4438  1.1202 -0.7262
 8963SOL    HW238526   4.403   4.381  16.929  0.6659 -0.3108 -1.8094
 8964SOL     OW38527   3.112   1.217   5.093 -0.0347 -0.0516 -0.7048
 8964SOL    HW138528   3.202   1.188   5.111 -0.5710 -1.4827 -0.3372
 8964SOL    HW238529   3.078   1.233   5.181  0.3262 -0.7598 -0.4334
 8965SOL     OW38530   0.316   1.222   2.545 -0.1868  0.1246 -0.5148
 8965SOL    HW138531   0.263   1.161   2.596  1.3776  0.6843  1.8044
 8965SOL    HW238532   0.320   1.292   2.610 -1.7003 -0.9608  0.7315
 8966SOL     OW38533   3.978   0.251   7.334  0.3578  0.3511 -0.2245
 8966SOL    HW138534   3.964   0.321   7.271  1.3392 -0.4000 -1.2864
 8966SOL    HW238535   4.062   0.265   7.378 -0.3699  1.5081  0.8058
 8967SOL     OW38536   0.166   2.295   4.750  0.2253 -0.1390  0.2033
 8967SOL    HW138537   0.244   2.247   4.721  0.7715  0.9124 -0.0966
 8967SOL    HW238538   0.201   2.384   4.761  0.4828 -0.2564  0.3322
 8968SOL     OW38539   1.824   0.842   5.457  0.7794  0.2295 -0.0360
 8968SOL    HW138540   1.821   0.932   5.491  1.0695  0.0690  0.4122
 8968SOL    HW238541   1.749   0.850   5.398 -0.4816 -0.6426  1.4375
 8969SOL     OW38542   1.349   2.763   3.389  0.2625  0.8263 -0.1643
 8969SOL    HW138543   1.347   2.810   3.473 -0.0841  2.1999 -0.9555
 8969SOL    HW238544   1.285   2.692   3.402  0.8669  0.3845  0.4123
 8970SOL     OW38545   3.435   4.185   5.857  0.2320  0.2669  0.3055
 8970SOL    HW138546   3.512   4.128   5.859 -2.1558 -2.9427  0.9924
 8970SOL    HW238547   3.477   4.271   5.862  0.1064  0.3044  0.7091
 8971SOL     OW38548   3.559   3.414  15.854  0.0695  1.1012  0.0240
 8971SOL    HW138549   3.522   3.435  15.768 -2.4690  0.9963  1.1065
 8971SOL    HW238550   3.653   3.431  15.842 -0.1623  1.6900 -0.9778
 8972SOL     OW38551   4.526   3.372   6.639  0.0049  0.2652 -0.1694
 8972SOL    HW138552   4.522   3.340   6.549  0.0939  0.5810 -0.2847
 8972SOL    HW238553   4.557   3.461   6.627 -2.4875  0.8345 -2.3706
 8973SOL     OW38554   1.721   4.568  10.853 -0.2588 -0.4502  0.0991
 8973SOL    HW138555   1.806   4.612  10.855  0.2243 -1.3717  0.0044
 8973SOL    HW238556   1.713   4.562  10.948  1.5951  0.3413  0.3222
 8974SOL     OW38557   2.342   3.937   1.864  0.1417  1.1887 -0.3544
 8974SOL    HW138558   2.399   3.880   1.916 -0.3802 -0.1496 -1.2452
 8974SOL    HW238559   2.256   3.922   1.902  0.3036  0.1113 -0.3892
 8975SOL     OW38560   4.702   4.384   8.607 -0.0009  0.3380  0.1642
 8975SOL    HW138561   4.669   4.448   8.671 -1.3809  1.1504 -1.3680
 8975SOL    HW238562   4.696   4.439   8.529 -0.5445  0.8750  0.5783
 8976SOL     OW38563   0.708   4.131   8.256 -0.3426  0.9067 -0.2692
 8976SOL    HW138564   0.769   4.187   8.206  0.4811  0.4278  0.2010
 8976SOL    HW238565   0.768   4.100   8.324 -1.8836 -0.0698  0.6206
 8977SOL     OW38566   2.600   2.387   0.171  0.0517 -0.5353  0.0683
 8977SOL    HW138567   2.621   2.295   0.182  0.8512 -0.2458  1.0688
 8977SOL    HW238568   2.508   2.389   0.147  0.4735  0.3043 -1.5094
 8978SOL     OW38569   0.838   2.051   3.493 -0.4588  0.0594  0.7653
 8978SOL    HW138570   0.917   2.009   3.458 -2.6161 -3.5203  0.2394
 8978SOL    HW238571   0.836   2.002   3.576 -0.5605 -1.8472 -0.3738
 8979SOL     OW38572   2.862   2.487   5.160  0.4826 -0.1553 -0.1468
 8979SOL    HW138573   2.917   2.506   5.084  0.1704  0.9638 -0.0848
 8979SOL    HW238574   2.786   2.450   5.115  0.1931  0.2235  0.0271
 8980SOL     OW38575   2.295   4.261   8.145 -0.2770 -0.4674  0.5737
 8980SOL    HW138576   2.244   4.247   8.065 -0.4234 -1.2989  0.8111
 8980SOL    HW238577   2.254   4.342   8.173  0.3658 -0.3979  1.3103
 8981SOL     OW38578   3.005   4.178   9.168 -0.3153 -0.3079 -0.0276
 8981SOL    HW138579   2.988   4.145   9.080 -2.1690  1.3746 -0.2911
 8981SOL    HW238580   2.946   4.253   9.174 -0.5684 -0.4561 -0.6896
 8982SOL     OW38581   2.935   1.627   7.574  0.1325  0.0020  0.5460
 8982SOL    HW138582   2.895   1.540   7.568 -0.4623  0.1690  2.1321
 8982SOL    HW238583   2.891   1.669   7.500  1.0502 -0.2637 -0.1507
 8983SOL     OW38584   4.113   2.319   2.962  0.5579 -0.4062 -0.0642
 8983SOL    HW138585   4.084   2.302   2.872  0.7948 -1.3744  0.0349
 8983SOL    HW238586   4.193   2.370   2.950  0.3190  0.3253  1.4058
 8984SOL     OW38587   0.943   0.960  15.083 -0.1282 -0.3086  0.0581
 8984SOL    HW138588   0.854   0.931  15.104 -0.3009  0.5654  0.5431
 8984SOL    HW238589   0.949   1.022  15.156 -0.7611  0.6327 -0.6922
 8985SOL     OW38590   3.218   2.030   7.138 -0.3357 -0.4918 -0.2329
 8985SOL    HW138591   3.274   1.953   7.149 -3.8348 -3.0959 -0.6292
 8985SOL    HW238592   3.200   2.047   7.231 -0.2793 -2.4340  0.1248
 8986SOL     OW38593   4.066   2.938   4.876  0.0838  0.9044  0.3413
 8986SOL    HW138594   4.138   2.920   4.815  0.4488  1.2380  0.6698
 8986SOL    HW238595   4.108   2.980   4.951  1.0524  0.5964 -0.0317
 8987SOL     OW38596   1.975   4.029  12.846  0.5686  0.0744  0.5314
 8987SOL    HW138597   1.992   4.094  12.914  0.7112 -0.7623  1.2898
 8987SOL    HW238598   1.907   4.075  12.797  2.8968 -0.0240 -2.7843
 8988SOL     OW38599   1.375   0.525  17.708  0.0336  0.5021 -0.3883
 8988SOL    HW138600   1.378   0.441  17.754 -1.4275  0.5127 -0.2812
 8988SOL    HW238601   1.427   0.572   0.018 -2.1068  0.9771  1.0110
 8989SOL     OW38602   2.943   1.290   4.534  0.4461 -0.0532  0.0293
 8989SOL    HW138603   2.858   1.313   4.496 -0.4636 -0.5054  1.7878
 8989SOL    HW238604   2.964   1.367   4.587 -2.1497  0.5956  0.1374
 8990SOL     OW38605   2.651   2.424   7.679  0.3790 -0.5407  0.1446
 8990SOL    HW138606   2.567   2.469   7.684  2.2233  2.8570  0.3696
 8990SOL    HW238607   2.718   2.477   7.722  1.4221 -0.8301 -1.0773
 8991SOL     OW38608   0.214   4.322  17.506 -0.4805 -0.1788  0.0182
 8991SOL    HW138609   0.148   4.339  17.439 -2.1133 -3.1964  0.8586
 8991SOL    HW238610   0.278   4.387  17.478  0.3084 -0.4463  1.1958
 8992SOL     OW38611   2.245   3.722  10.287 -0.4538  0.1860 -0.4773
 8992SOL    HW138612   2.329   3.694  10.252 -0.9812 -1.8775 -0.0830
 8992SOL    HW238613   2.192   3.661  10.236  0.6943  0.2493 -1.7302
 8993SOL     OW38614   2.045   4.090   5.196 -0.1102 -0.0929 -0.2295
 8993SOL    HW138615   2.128   4.053   5.228  0.9719  2.7277  0.2378
 8993SOL    HW238616   1.981   4.030   5.235  0.9120 -1.0139  0.0449
 8994SOL     OW38617   4.051   2.964   5.982  0.3669  0.1821 -0.8515
 8994SOL    HW138618   4.028   3.051   6.014  1.9446 -0.0071  0.8662
 8994SOL    HW238619   4.064   2.917   6.065 -2.0910  2.3194  0.7444
 8995SOL     OW38620   0.450   1.428   4.097 -0.5077 -0.3055 -0.7157
 8995SOL    HW138621   0.422   1.406   4.008 -0.5160 -4.1165  0.2338
 8995SOL    HW238622   0.446   1.338   4.126 -1.4885  0.2119  0.7022
 8996SOL     OW38623   1.742   1.635  13.581 -0.6086 -0.8153 -0.4099
 8996SOL    HW138624   1.749   1.641  13.676 -0.6817 -4.6131 -0.1589
 8996SOL    HW238625   1.827   1.651  13.539 -1.7251 -0.5572 -2.5486
 8997SOL     OW38626   1.232   0.372   1.551  0.0434 -0.0947 -0.4274
 8997SOL    HW138627   1.206   0.311   1.621  1.1062 -0.0358  0.0196
 8997SOL    HW238628   1.277   0.445   1.593 -1.2838  0.4937 -0.0498
 8998SOL     OW38629   0.134   3.474   5.570  0.1967  0.0963  0.2796
 8998SOL    HW138630   0.044   3.459   5.599 -0.8454 -0.6346 -3.2859
 8998SOL    HW238631   0.179   3.406   5.619 -1.8200 -0.0133  1.9847
 8999SOL     OW38632   1.567   0.604   9.468 -0.1344 -0.3583 -0.1764
 8999SOL    HW138633   1.574   0.664   9.394  1.8980 -1.3567 -0.7934
 8999SOL    HW238634   1.648   0.620   9.517  1.0067 -1.3717 -1.7082
 9000SOL     OW38635   1.163   3.462  12.601  0.1872  0.4002  0.0896
 9000SOL    HW138636   1.239   3.495  12.554  0.7294 -1.1461 -0.1081
 9000SOL    HW238637   1.185   3.490  12.690 -1.5133  0.9682  0.3334
 9001SOL     OW38638   0.607   0.743   6.359  0.1782 -0.2930 -0.1697
 9001SOL    HW138639   0.576   0.667   6.310 -1.8745  1.2198 -1.2294
 9001SOL    HW238640   0.554   0.808   6.314  1.4332  2.1198  1.8406
 9002SOL     OW38641   4.024   0.286   4.862 -0.7217 -0.1169  0.0509
 9002SOL    HW138642   4.070   0.343   4.800 -3.5819  1.6571 -0.4755
 9002SOL    HW238643   4.091   0.280   4.929 -1.1820 -1.4312  0.3955
 9003SOL     OW38644   3.102   2.744   3.029 -0.3044 -0.0952  0.0369
 9003SOL    HW138645   3.101   2.805   3.103 -1.6868  1.2915 -1.1290
 9003SOL    HW238646   3.009   2.740   3.006 -0.1498 -2.8816 -0.1257
 9004SOL     OW38647   0.437   3.839   4.825  0.7297  0.0515 -0.4584
 9004SOL    HW138648   0.355   3.886   4.808 -1.1114 -2.3613  1.5749
 9004SOL    HW238649   0.403   3.762   4.872  1.0591  0.9323  1.2086
 9005SOL     OW38650   2.236   0.066   0.400  0.4431  0.0365  0.1296
 9005SOL    HW138651   2.210   0.075   0.308 -1.2695 -1.2975  0.4769
 9005SOL    HW238652   2.157   0.028   0.438  0.4466  0.4999  0.5939
 9006SOL     OW38653   2.556   0.068  13.883  0.2232 -0.2371  0.7274
 9006SOL    HW138654   2.638   0.026  13.855 -0.3076 -2.3845  2.3289
 9006SOL    HW238655   2.581   0.159  13.869 -1.0105 -0.1694 -0.9701
 9007SOL     OW38656   2.044   2.176   4.700 -0.2785  0.1056 -1.0089
 9007SOL    HW138657   2.060   2.139   4.613 -1.1086  0.6971 -1.4170
 9007SOL    HW238658   1.984   2.110   4.735 -1.4729  2.4048  1.2137
 9008SOL     OW38659   4.578   0.495   9.586  0.0415  0.1530  0.3997
 9008SOL    HW138660   4.584   0.543   9.503 -0.9704 -2.4138 -1.1488
 9008SOL    HW238661   4.667   0.500   9.621  1.0933 -0.7902 -2.1375
 9009SOL     OW38662   3.704   0.275   2.846  0.1555  0.1681 -0.1951
 9009SOL    HW138663   3.629   0.223   2.818  0.6675 -1.1100  0.8024
 9009SOL    HW238664   3.766   0.205   2.864 -1.2383 -1.2825 -1.0529
 9010SOL     OW38665   3.048   0.650   5.229  0.1414 -0.2654  1.2546
 9010SOL    HW138666   3.096   0.623   5.307 -0.6221 -1.6864  1.2469
 9010SOL    HW238667   3.025   0.739   5.253  1.0950  0.5041 -0.6699
 9011SOL     OW38668   2.942   2.647   6.551 -0.1233 -0.4205 -0.0789
 9011SOL    HW138669   2.938   2.588   6.626 -0.1735 -1.3904 -0.8414
 9011SOL    HW238670   2.900   2.580   6.496  1.9453 -3.0250  1.4810
 9012SOL     OW38671   3.405   3.837   5.408  0.1163  0.8007  0.2626
 9012SOL    HW138672   3.501   3.842   5.403  0.2277  0.0725  1.6809
 9012SOL    HW238673   3.382   3.882   5.489 -1.3788 -1.0569  0.8564
 9013SOL     OW38674   2.033   4.241   4.205 -0.2457 -0.1685  0.5848
 9013SOL    HW138675   1.993   4.238   4.292 -0.0132 -1.8077  0.6245
 9013SOL    HW238676   1.956   4.267   4.154  0.3778 -0.8704 -0.6899
 9014SOL     OW38677   3.015   2.553   4.929 -0.4415 -0.5488  0.0763
 9014SOL    HW138678   3.055   2.467   4.917 -0.0406 -0.4373  0.6575
 9014SOL    HW238679   2.935   2.538   4.878 -1.2356 -0.0648  1.1919
 9015SOL     OW38680   4.644   1.381  10.805  0.8418 -0.4277 -0.1863
 9015SOL    HW138681   4.739   1.365  10.808  0.8750 -0.2021 -0.0807
 9015SOL    HW238682   4.636   1.402  10.898 -1.0248 -1.0423 -0.2114
 9016SOL     OW38683   4.606   1.907   8.918 -0.0681 -0.0320  0.4621
 9016SOL    HW138684   4.651   1.848   8.979  0.1647 -0.7293 -0.3939
 9016SOL    HW238685   4.666   1.981   8.928  1.3768 -0.9779 -1.3185
 9017SOL     OW38686   4.298   3.180   4.797 -0.2664  0.4648  0.5873
 9017SOL    HW138687   4.328   3.264   4.832  1.7341  0.0004 -0.0701
 9017SOL    HW238688   4.248   3.212   4.722  1.1513 -1.2553 -1.0797
 9018SOL     OW38689   2.353   2.617   5.316 -0.2336 -0.0012 -0.5748
 9018SOL    HW138690   2.420   2.639   5.251  0.9328 -1.9225 -0.0303
 9018SOL    HW238691   2.278   2.673   5.293  0.3315  0.5253 -1.1333
 9019SOL     OW38692   4.311   3.563   8.298 -0.4624 -0.3773  0.6577
 9019SOL    HW138693   4.275   3.493   8.243 -1.5221 -0.6371  1.6691
 9019SOL    HW238694   4.234   3.614   8.322 -1.2915 -1.3179 -0.0163
 9020SOL     OW38695   2.208   0.178   4.469 -0.3136  0.1133  0.1618
 9020SOL    HW138696   2.186   0.236   4.542 -1.2642  0.2124 -0.2147
 9020SOL    HW238697   2.139   0.112   4.475 -0.4027  0.2196  0.3032
 9021SOL     OW38698   1.549   2.390   3.396 -0.2393  0.3822 -0.4891
 9021SOL    HW138699   1.609   2.457   3.429  0.4109  0.2415 -1.3744
 9021SOL    HW238700   1.584   2.306   3.425 -0.5291  0.3369 -0.2720
 9022SOL     OW38701   4.594   4.185   3.925 -0.1152  0.1839 -0.6016
 9022SOL    HW138702   4.627   4.272   3.945 -0.1908 -0.5296  2.7514
 9022SOL    HW238703   4.503   4.181   3.955 -0.2501  2.4359 -0.7039
 9023SOL     OW38704   1.905   2.045   6.837  0.1571 -0.3228 -0.3308
 9023SOL    HW138705   1.903   2.022   6.929 -2.7992  0.5176 -0.1868
 9023SOL    HW238706   1.881   1.958   6.806  1.7567 -0.2450 -1.8356
 9024SOL     OW38707   0.598   0.690   2.867  0.4523  0.0140  0.7129
 9024SOL    HW138708   0.682   0.730   2.846 -1.1324  2.5943 -0.6661
 9024SOL    HW238709   0.551   0.679   2.784  0.6738  0.3976  0.5348
 9025SOL     OW38710   1.874   1.533  12.510 -0.0369 -0.9432 -0.3916
 9025SOL    HW138711   1.857   1.587  12.587 -2.3255 -1.3269 -0.6396
 9025SOL    HW238712   1.936   1.471  12.549  1.4539  1.5103  1.1498
 9026SOL     OW38713   0.588   2.223   5.053  0.1829  0.3959 -0.6810
 9026SOL    HW138714   0.643   2.291   5.092  0.6003  0.9669 -2.2998
 9026SOL    HW238715   0.522   2.211   5.121 -0.2909 -1.4824 -1.4984
 9027SOL     OW38716   2.143   3.451   4.776  0.0599 -0.0323  0.4810
 9027SOL    HW138717   2.144   3.482   4.867 -1.9427  1.5471 -0.0191
 9027SOL    HW238718   2.120   3.528   4.724  1.7406  0.8904  1.1153
 9028SOL     OW38719   0.466   1.946   5.153 -0.2426 -0.0059 -0.1436
 9028SOL    HW138720   0.470   1.879   5.221  2.0635  1.0153  0.7413
 9028SOL    HW238721   0.465   2.022   5.211 -4.1450 -0.0607 -0.1456
 9029SOL     OW38722   1.173   3.856   6.166 -0.2151 -0.1247 -0.0474
 9029SOL    HW138723   1.091   3.811   6.150 -0.8278  0.4506  1.4189
 9029SOL    HW238724   1.193   3.839   6.258 -0.4197 -0.1647 -0.0115
 9030SOL     OW38725   1.293   0.398   1.965  0.5961 -0.8222  0.6518
 9030SOL    HW138726   1.259   0.345   1.893  0.8468  0.0475 -0.1048
 9030SOL    HW238727   1.249   0.480   1.940 -0.2196 -1.7122 -0.8373
 9031SOL     OW38728   0.742   2.924   8.108 -0.1186  0.3256 -0.5419
 9031SOL    HW138729   0.807   2.862   8.139 -2.1871 -1.7447 -0.3533
 9031SOL    HW238730   0.804   2.994   8.087 -1.1542  1.2337 -0.5917
 9032SOL     OW38731   0.979   0.025   8.896  0.3364  0.6627 -0.6922
 9032SOL    HW138732   0.985   0.042   8.990 -0.0972 -0.5359 -0.4421
 9032SOL    HW238733   0.913   0.087   8.864 -0.0363  0.8291  0.3745
 9033SOL     OW38734   2.166   0.216   8.338 -1.1960  0.5822 -0.3507
 9033SOL    HW138735   2.096   0.269   8.301 -0.3597 -0.7772 -3.8577
 9033SOL    HW238736   2.156   0.230   8.432  0.2622 -0.6505 -0.0061
 9034SOL     OW38737   3.145   4.639  11.407 -0.4906 -0.2930 -0.6267
 9034SOL    HW138738   3.075   4.595  11.359 -1.8993  0.9651  0.2962
 9034SOL    HW238739   3.117   4.627  11.498 -0.7115 -1.1919 -0.8179
 9035SOL     OW38740   3.492   1.210   5.970  0.1354  0.1323  0.6728
 9035SOL    HW138741   3.578   1.191   6.008 -0.2265  2.3176  2.5652
 9035SOL    HW238742   3.498   1.163   5.887  0.1381  0.3069  0.5734
 9036SOL     OW38743   3.992   2.372  16.927 -0.4628 -0.0790 -0.1468
 9036SOL    HW138744   3.992   2.277  16.929  0.8683 -0.0413  1.1862
 9036SOL    HW238745   3.954   2.391  17.012  0.2403  0.4507  0.0460
 9037SOL     OW38746   2.367   4.461   1.765 -0.2020  0.3478 -0.0331
 9037SOL    HW138747   2.334   4.373   1.748 -0.3535 -0.0770  2.4069
 9037SOL    HW238748   2.336   4.500   1.684  1.2501 -1.6566 -1.5450
 9038SOL     OW38749   1.250   0.675   6.499 -0.2542 -0.1681 -0.5687
 9038SOL    HW138750   1.222   0.597   6.548  0.1276 -0.9407 -1.5837
 9038SOL    HW238751   1.207   0.672   6.414 -1.5755 -1.8159  0.1341
 9039SOL     OW38752   3.467   2.240   5.876  0.5296 -0.2850  0.2086
 9039SOL    HW138753   3.384   2.248   5.923 -0.2064 -2.3937 -0.7095
 9039SOL    HW238754   3.521   2.194   5.941 -0.2523 -0.2287  0.8889
 9040SOL     OW38755   1.465   1.570  13.020 -0.3448  0.3534 -0.5586
 9040SOL    HW138756   1.394   1.606  13.072  2.6726  3.5923  1.3224
 9040SOL    HW238757   1.429   1.502  12.963  0.0090 -0.5319  0.2747
 9041SOL     OW38758   0.795   0.251   2.184 -0.4432  0.7770  0.2725
 9041SOL    HW138759   0.841   0.243   2.267 -0.2785  1.3230  0.2393
 9041SOL    HW238760   0.741   0.173   2.192  0.4693  0.2523  1.3852
 9042SOL     OW38761   3.421   3.396  14.971 -0.4047  0.0005 -0.5986
 9042SOL    HW138762   3.478   3.439  14.907 -0.5876  0.6390 -0.3308
 9042SOL    HW238763   3.381   3.463  15.026  0.4579 -0.8202  1.0195
 9043SOL     OW38764   1.968   4.142  13.341 -0.6807 -0.1273  0.1006
 9043SOL    HW138765   2.011   4.067  13.299  1.6294 -0.7433  3.5152
 9043SOL    HW238766   1.920   4.174  13.265  0.4827  1.0095 -0.1465
 9044SOL     OW38767   2.559   3.557  14.949 -0.0708  0.6595  0.1988
 9044SOL    HW138768   2.516   3.472  14.947 -1.9482  1.6036  1.1993
 9044SOL    HW238769   2.623   3.535  14.880 -0.2671 -0.0324  0.2351
 9045SOL     OW38770   3.415   0.110  11.138 -0.0632 -0.5744 -0.4709
 9045SOL    HW138771   3.477   0.157  11.082  1.0125 -1.8807 -0.3856
 9045SOL    HW238772   3.455   0.104  11.225 -0.8386  0.6263 -0.0286
 9046SOL     OW38773   3.584   1.489  17.346 -0.0988 -0.2962 -0.1472
 9046SOL    HW138774   3.612   1.552  17.279 -0.9224  0.9502  0.6839
 9046SOL    HW238775   3.558   1.407  17.304  0.5086 -0.0401 -1.0200
 9047SOL     OW38776   4.699   2.062  15.611 -0.4639  0.3451 -0.6530
 9047SOL    HW138777   4.689   2.148  15.653 -2.2757 -0.6460  0.9049
 9047SOL    HW238778   4.611   2.052  15.577 -1.0576  0.4589  0.8371
 9048SOL     OW38779   2.054   0.918  16.064 -0.6149 -0.2518 -0.3364
 9048SOL    HW138780   2.011   0.851  16.011 -1.8180  0.5042 -0.3095
 9048SOL    HW238781   2.095   0.877  16.140  1.4449  1.6521 -0.4038
 9049SOL     OW38782   1.677   3.318   7.555 -0.2203  0.1157  0.1737
 9049SOL    HW138783   1.765   3.356   7.551 -0.2983  0.5972  3.1225
 9049SOL    HW238784   1.679   3.313   7.651 -1.5245  0.9328  0.2359
 9050SOL     OW38785   4.626   3.107   2.373  0.0447  0.2213  0.7021
 9050SOL    HW138786   4.601   3.058   2.295  0.5549 -0.6589  1.0980
 9050SOL    HW238787   4.590   3.056   2.445 -0.2994  1.2501  1.2671
 9051SOL     OW38788   1.358   1.806   8.220  0.3528  0.6456 -0.6028
 9051SOL    HW138789   1.313   1.764   8.147 -0.6751  0.3203  0.2111
 9051SOL    HW238790   1.294   1.878   8.220 -0.1938  0.1566 -1.5980
 9052SOL     OW38791   4.314   1.368   3.948  0.1966  0.0038 -0.2513
 9052SOL    HW138792   4.400   1.347   3.911  0.6711 -1.2524  1.6023
 9052SOL    HW238793   4.322   1.463   3.938 -0.8452  0.2907  1.6113
 9053SOL     OW38794   1.091   2.256   5.895  0.0660  0.0334 -0.4626
 9053SOL    HW138795   1.085   2.272   5.800 -0.6737  0.1708 -0.3962
 9053SOL    HW238796   1.005   2.216   5.909  0.3657 -0.4804 -0.1031
 9054SOL     OW38797   0.773   3.450   8.634  0.5022  0.0009 -0.0144
 9054SOL    HW138798   0.700   3.401   8.672 -0.7937  0.8480 -1.4326
 9054SOL    HW238799   0.773   3.532   8.683 -0.4636 -0.9516  1.5803
 9055SOL     OW38800   2.996   3.787   5.616 -0.0076  0.5937  0.3136
 9055SOL    HW138801   3.023   3.879   5.614 -1.0503  0.8555 -2.0977
 9055SOL    HW238802   3.038   3.756   5.696 -1.8505  1.7650  1.7450
 9056SOL     OW38803   3.664   1.594   9.592 -0.0018  0.4278 -0.4129
 9056SOL    HW138804   3.576   1.625   9.614 -0.0628  1.2777 -1.8585
 9056SOL    HW238805   3.723   1.644   9.649 -0.3428 -2.0099  2.0693
 9057SOL     OW38806   0.911   0.036   4.200 -0.7173 -0.5963  0.4207
 9057SOL    HW138807   0.994   0.081   4.218 -0.6746 -0.0994 -1.0231
 9057SOL    HW238808   0.950   4.698   4.159 -1.7245  0.4902 -2.5243
 9058SOL     OW38809   0.944   1.683   9.128  0.4085  0.3550  0.1801
 9058SOL    HW138810   0.926   1.741   9.053  0.7769 -3.2007 -2.6815
 9058SOL    HW238811   1.028   1.716   9.159 -0.5468  2.1289  0.8598
 9059SOL     OW38812   4.250   0.828   4.116  0.3811 -0.1144 -0.2039
 9059SOL    HW138813   4.249   0.923   4.104  0.7179 -0.3003 -1.7252
 9059SOL    HW238814   4.170   0.820   4.168  0.9189 -2.3032  0.2961
 9060SOL     OW38815   3.186   3.797   8.671  0.2631  0.3338 -0.0230
 9060SOL    HW138816   3.165   3.820   8.762  3.6037  1.2207  0.5285
 9060SOL    HW238817   3.103   3.814   8.627 -0.2756  1.7886  1.5298
 9061SOL     OW38818   4.701   0.063  16.922  0.0559 -0.4503 -0.2431
 9061SOL    HW138819   0.039   0.110  16.954 -1.6643  1.9184  0.4158
 9061SOL    HW238820   4.676   0.111  16.844  1.4618  1.2993  0.3899
 9062SOL     OW38821   2.242   3.026   2.805  0.2632 -0.1748  0.6881
 9062SOL    HW138822   2.289   3.015   2.723  1.3876 -0.0741  1.3270
 9062SOL    HW238823   2.204   2.940   2.827  1.5844 -1.9164 -3.7470
 9063SOL     OW38824   2.491   2.911   2.590  0.2188 -0.0570 -0.0481
 9063SOL    HW138825   2.569   2.967   2.591 -0.1255  0.4227  0.7249
 9063SOL    HW238826   2.505   2.845   2.523  1.4741  0.9651 -0.7848
 9064SOL     OW38827   2.898   2.127  16.104  0.2812 -0.3576 -0.2785
 9064SOL    HW138828   2.913   2.219  16.125 -1.4846 -0.4372  1.3220
 9064SOL    HW238829   2.803   2.116  16.117  0.3698 -1.3386 -0.4466
 9065SOL     OW38830   1.339   4.018   1.968 -0.6380 -0.4902 -0.4613
 9065SOL    HW138831   1.280   4.094   1.970  1.2706  1.0237 -1.4048
 9065SOL    HW238832   1.286   3.953   2.014 -0.5023 -0.1265  0.2121
 9066SOL     OW38833   0.824   3.673   3.293  0.7351  0.1805 -0.3149
 9066SOL    HW138834   0.828   3.763   3.260  1.8873  0.2925  0.1129
 9066SOL    HW238835   0.856   3.619   3.221  0.4108 -0.0148 -0.3108
 9067SOL     OW38836   1.490   2.986   8.436 -0.9987  0.3806  0.2393
 9067SOL    HW138837   1.506   2.959   8.346 -0.0500  0.1099  0.4978
 9067SOL    HW238838   1.505   2.907   8.487 -1.8089 -2.5339 -4.0387
 9068SOL     OW38839   3.818   0.742  10.663  0.0903  0.3711  0.8510
 9068SOL    HW138840   3.884   0.679  10.694  0.0774  1.1790  2.5000
 9068SOL    HW238841   3.808   0.719  10.571 -1.6498  1.1202  0.8577
 9069SOL     OW38842   4.596   0.600   5.482 -0.0461 -0.3696  0.2539
 9069SOL    HW138843   4.525   0.618   5.420  0.6430  0.1744 -0.3735
 9069SOL    HW238844   4.592   0.686   5.525  2.1848 -0.7010  1.0733
 9070SOL     OW38845   2.197   3.284   2.731 -0.1576 -0.0646  0.2497
 9070SOL    HW138846   2.208   3.264   2.638 -0.5242 -3.4967  0.9694
 9070SOL    HW238847   2.226   3.200   2.767 -1.0724  0.8388  3.1277
 9071SOL     OW38848   1.553   1.444   5.727  0.3472 -0.4004 -0.0585
 9071SOL    HW138849   1.459   1.428   5.722  0.0603  1.9223 -1.9406
 9071SOL    HW238850   1.568   1.363   5.775  0.3489 -0.4649 -0.1672
 9072SOL     OW38851   1.826   1.887   3.532 -0.2218 -0.5588  0.7853
 9072SOL    HW138852   1.846   1.841   3.613  0.6307  1.3585  1.6692
 9072SOL    HW238853   1.896   1.952   3.529 -1.0841  0.3695  0.8734
 9073SOL     OW38854   4.117   4.694   3.847 -0.6131 -0.3653 -0.4310
 9073SOL    HW138855   4.127   0.019   3.776  0.9872 -0.2200 -0.0673
 9073SOL    HW238856   4.199   4.709   3.893 -0.3470  2.9851 -1.9866
 9074SOL     OW38857   3.329   3.673   6.109 -0.2832 -0.1853  0.2586
 9074SOL    HW138858   3.339   3.655   6.203 -1.2240 -1.0480  0.1894
 9074SOL    HW238859   3.342   3.767   6.103  1.5659 -0.3097  2.1219
 9075SOL     OW38860   1.885   4.486   7.186 -0.1200 -0.3439  0.6297
 9075SOL    HW138861   1.926   4.401   7.203  2.2626  0.8570  0.9487
 9075SOL    HW238862   1.930   4.549   7.241 -1.2414  1.3918 -0.4429
 9076SOL     OW38863   4.438   4.044   7.414 -0.1863  0.5113 -0.7215
 9076SOL    HW138864   4.350   4.058   7.381 -0.0168  0.6979 -1.1013
 9076SOL    HW238865   4.436   3.954   7.445 -0.7785  0.5629 -0.6269
 9077SOL     OW38866   3.877   4.350   8.813  0.3712 -0.5560  0.0686
 9077SOL    HW138867   3.964   4.377   8.843  0.1637  1.9886 -1.5979
 9077SOL    HW238868   3.829   4.433   8.807  0.8593 -0.3338 -0.7475
 9078SOL     OW38869   4.656   1.772   4.450 -0.0282 -0.2838 -0.3984
 9078SOL    HW138870   0.003   1.812   4.440 -0.2003  0.5570  1.5260
 9078SOL    HW238871   4.610   1.853   4.472  1.5961  0.7607 -0.8865
 9079SOL     OW38872   0.221   3.415   7.432 -0.4529  0.6061  0.4390
 9079SOL    HW138873   0.238   3.338   7.377  2.3648  1.3015  0.3051
 9079SOL    HW238874   0.136   3.392   7.468 -0.7993  0.7307 -0.2972
 9080SOL     OW38875   0.266   3.847  10.280 -0.6528  0.2636  0.4070
 9080SOL    HW138876   0.309   3.885  10.357 -0.6040  2.0347 -0.4978
 9080SOL    HW238877   0.180   3.891  10.277 -0.6381  0.1719 -1.2976
 9081SOL     OW38878   0.786   0.752   1.237 -0.0902 -0.1346 -0.1696
 9081SOL    HW138879   0.818   0.750   1.146  1.1290  2.1457  0.1991
 9081SOL    HW238880   0.871   0.757   1.282 -0.5018 -0.9233  0.6805
 9082SOL     OW38881   2.136   0.788   0.890  0.3392 -0.0185 -0.3740
 9082SOL    HW138882   2.082   0.718   0.926  1.1594 -0.2789  0.3736
 9082SOL    HW238883   2.215   0.770   0.941  0.0481 -0.1319  0.0345
 9083SOL     OW38884   1.622   1.522   2.266 -0.2982 -0.5620  0.4343
 9083SOL    HW138885   1.633   1.547   2.174 -1.0820 -0.5552  0.3366
 9083SOL    HW238886   1.609   1.428   2.252 -1.7709 -0.4900  1.2768
 9084SOL     OW38887   0.809   0.826  10.930 -0.2342  0.0818  0.0666
 9084SOL    HW138888   0.816   0.747  10.983 -0.5813 -0.3838 -0.5870
 9084SOL    HW238889   0.857   0.885  10.990 -0.5325 -0.9180  1.2913
 9085SOL     OW38890   4.373   4.070   8.614  0.0767  0.0092  0.2869
 9085SOL    HW138891   4.440   4.111   8.668  0.0877 -2.3295  2.0894
 9085SOL    HW238892   4.380   4.129   8.539 -0.8814  0.0544  0.2336
 9086SOL     OW38893   4.650   3.306   7.019 -0.5861  0.4165  0.0997
 9086SOL    HW138894   4.693   3.392   7.019 -0.7812  0.5124 -0.2787
 9086SOL    HW238895   4.673   3.269   6.934 -0.4773 -0.4500  0.5112
 9087SOL     OW38896   0.328   2.008   0.664  0.0530  0.0301  0.4334
 9087SOL    HW138897   0.253   2.052   0.625 -1.0901 -1.3576  1.0647
 9087SOL    HW238898   0.333   2.047   0.751 -0.4365  2.1857 -0.5178
 9088SOL     OW38899   2.261   1.964   2.278  0.1143  0.1353 -0.1402
 9088SOL    HW138900   2.333   1.969   2.215  1.7864  1.7767  1.8902
 9088SOL    HW238901   2.291   2.025   2.346 -1.7786 -0.4369  1.1980
 9089SOL     OW38902   4.036   0.556  10.434 -0.0017  0.4333 -0.3667
 9089SOL    HW138903   3.942   0.575  10.431  0.0613  0.3686 -2.5301
 9089SOL    HW238904   4.080   0.638  10.412 -2.7577  1.4056 -2.1802
 9090SOL     OW38905   0.623   1.011  10.813  0.5558 -0.6245  0.3776
 9090SOL    HW138906   0.694   0.965  10.859  0.5837 -0.2616  0.6952
 9090SOL    HW238907   0.671   1.088  10.784  1.1913  0.3129  3.8715
 9091SOL     OW38908   3.885   2.149   6.426  0.0714  0.2305 -0.0230
 9091SOL    HW138909   3.819   2.183   6.485  3.1380  1.6090  2.6026
 9091SOL    HW238910   3.952   2.109   6.481 -1.1085 -0.4557  0.9094
 9092SOL     OW38911   2.318   3.980  13.504 -0.2566 -0.3590  0.2199
 9092SOL    HW138912   2.285   4.054  13.556  0.6027  0.4522 -0.3976
 9092SOL    HW238913   2.347   3.918  13.571  1.2994 -1.7460 -1.7482
 9093SOL     OW38914   2.781   2.373  17.212  0.3949 -0.5241 -0.2393
 9093SOL    HW138915   2.809   2.435  17.144  0.3767 -1.0162 -0.6967
 9093SOL    HW238916   2.718   2.309  17.178 -1.6579  1.0987  0.4828
 9094SOL     OW38917   4.177   1.037   8.953  0.1865  0.4622 -0.3766
 9094SOL    HW138918   4.202   1.087   8.876 -1.1360  1.4428 -0.1728
 9094SOL    HW238919   4.144   1.107   9.011 -0.2286 -0.2391  0.2368
 9095SOL     OW38920   2.149   1.689   5.766  0.0436 -0.5817  0.0975
 9095SOL    HW138921   2.060   1.693   5.802  0.1875  1.5461  0.2123
 9095SOL    HW238922   2.144   1.615   5.705  0.4682 -1.7586  1.5047
 9096SOL     OW38923   2.558   0.933   2.762  0.3130 -0.3047  0.4566
 9096SOL    HW138924   2.516   1.009   2.721 -0.5664 -0.6119  0.7841
 9096SOL    HW238925   2.542   0.861   2.700  1.7243 -0.7036  0.5487
 9097SOL     OW38926   4.563   2.944   5.578 -0.3108  0.7316 -0.4719
 9097SOL    HW138927   4.554   2.849   5.564 -1.4004  0.7793 -0.1631
 9097SOL    HW238928   4.650   2.961   5.543  0.5900 -1.1902  0.7948
 9098SOL     OW38929   1.521   0.059   4.343 -0.4739  0.2149  0.2101
 9098SOL    HW138930   1.563   4.717   4.370 -0.7519 -0.3696 -1.0878
 9098SOL    HW238931   1.461   0.024   4.277 -1.3375  0.5475  0.8104
 9099SOL     OW38932   0.493   4.415   5.901  0.0874  0.4092  0.2629
 9099SOL    HW138933   0.517   4.347   5.964 -0.4507 -0.3359 -0.3502
 9099SOL    HW238934   0.462   4.362   5.828  0.2956 -0.5042  0.8334
 9100SOL     OW38935   4.055   1.760   4.196  0.1710  0.7786 -0.0903
 9100SOL    HW138936   3.987   1.746   4.131 -1.4418  0.7406  1.5905
 9100SOL    HW238937   4.056   1.855   4.205 -0.9504  0.8251 -0.4224
 9101SOL     OW38938   3.629   2.039  10.342 -0.1604  0.0221  0.6050
 9101SOL    HW138939   3.557   2.083  10.389 -0.6052  0.9080 -0.9045
 9101SOL    HW238940   3.600   1.948  10.350  1.2764 -0.4665  0.1901
 9102SOL     OW38941   1.986   0.729  12.356 -0.1347 -0.1401  0.1924
 9102SOL    HW138942   2.003   0.640  12.387  0.1451  0.8482  2.8861
 9102SOL    HW238943   2.070   0.747  12.314 -0.6518  2.1963  0.1273
 9103SOL     OW38944   1.013   4.302   1.477 -0.4031 -0.1428  0.3177
 9103SOL    HW138945   0.948   4.296   1.407  0.1013  0.6155 -0.2143
 9103SOL    HW238946   1.083   4.346   1.428  0.7528 -1.4058  0.8434
 9104SOL     OW38947   0.543   0.207   2.801 -0.0842  0.3121  1.0895
 9104SOL    HW138948   0.566   0.119   2.770  0.9993  0.2781  1.9683
 9104SOL    HW238949   0.572   0.199   2.892 -1.1967 -1.4538  1.2888
 9105SOL     OW38950   3.753   0.483   8.657  0.0603  0.0786 -0.1967
 9105SOL    HW138951   3.701   0.523   8.727  1.0195 -3.7765  2.7104
 9105SOL    HW238952   3.838   0.520   8.682 -0.4531  0.4921  0.9254
 9106SOL     OW38953   0.395   1.283   5.002  0.5148  0.4446  0.0247
 9106SOL    HW138954   0.458   1.234   5.055  0.8884 -1.0232 -1.7899
 9106SOL    HW238955   0.460   1.348   4.974  0.2144  2.0862  3.1588
 9107SOL     OW38956   0.273   3.184   7.290  0.1164 -0.3324 -0.3730
 9107SOL    HW138957   0.359   3.146   7.273  0.8337  1.1413 -0.0173
 9107SOL    HW238958   0.220   3.105   7.276 -0.3508 -0.3212  1.3216
 9108SOL     OW38959   2.654   0.347   4.258  0.1657 -1.2335  0.0541
 9108SOL    HW138960   2.585   0.298   4.302 -2.3280  2.1883 -0.0154
 9108SOL    HW238961   2.678   0.414   4.323 -0.9300 -1.3292  0.5566
 9109SOL     OW38962   4.289   0.482   0.448  0.2603  0.2556 -0.3714
 9109SOL    HW138963   4.316   0.523   0.366  0.6941  1.4619  0.3589
 9109SOL    HW238964   4.285   0.391   0.418 -1.2062  0.7715 -1.7082
 9110SOL     OW38965   0.201   4.687   8.087  0.1957 -0.1828 -0.1306
 9110SOL    HW138966   0.218   4.693   7.993 -1.2154 -1.4294 -0.4553
 9110SOL    HW238967   0.244   4.607   8.118 -0.3422 -0.6549 -0.6007
 9111SOL     OW38968   2.255   0.359   7.812 -0.0088 -0.1885  0.4059
 9111SOL    HW138969   2.275   0.356   7.906  3.5162  2.1576 -0.2677
 9111SOL    HW238970   2.338   0.388   7.773 -1.2883 -2.3085 -3.9400
 9112SOL     OW38971   0.196   3.275   3.129  0.2873  0.2131  0.1632
 9112SOL    HW138972   0.225   3.353   3.176 -1.1025  1.0921 -0.4141
 9112SOL    HW238973   0.101   3.268   3.145  0.2812 -0.4415 -0.1984
 9113SOL     OW38974   0.173   2.343   9.146 -0.1115 -0.1987  0.3457
 9113SOL    HW138975   0.206   2.421   9.190  1.0575  0.4507 -1.6936
 9113SOL    HW238976   0.244   2.311   9.090 -0.5339  2.4622 -1.7062
 9114SOL     OW38977   4.111   0.607   9.444  0.0507 -0.4486  0.1598
 9114SOL    HW138978   4.039   0.546   9.462 -1.0954  1.4645  2.0168
 9114SOL    HW238979   4.166   0.597   9.522 -1.8988 -1.2617  1.4237
 9115SOL     OW38980   3.066   3.876   1.923 -0.1959  0.2755 -0.1973
 9115SOL    HW138981   3.050   3.963   1.960  0.5047  0.9042 -1.3495
 9115SOL    HW238982   3.156   3.880   1.889 -0.4395  0.3061 -0.8404
 9116SOL     OW38983   3.966   3.908  16.711  0.6180 -0.2853 -0.1607
 9116SOL    HW138984   3.944   3.993  16.674  2.0121 -0.1031 -0.5888
 9116SOL    HW238985   4.031   3.874  16.649  0.2498  0.6377 -1.0351
 9117SOL     OW38986   0.188   1.662   2.839 -0.1508  0.3617 -0.8426
 9117SOL    HW138987   0.279   1.669   2.811  0.6925 -0.3443  1.7344
 9117SOL    HW238988   0.193   1.698   2.928 -0.2351  0.1967 -0.7715
 9118SOL     OW38989   4.663   4.287  12.555  0.4138  0.1124  0.0471
 9118SOL    HW138990   4.573   4.276  12.584  0.0388 -0.2469 -1.2439
 9118SOL    HW238991   4.695   4.297  12.645  0.5785 -1.2764  0.1488
 9119SOL     OW38992   3.714   3.292  12.911 -0.6250  0.0480  0.0628
 9119SOL    HW138993   3.786   3.316  12.969 -0.3358  0.3376 -0.4067
 9119SOL    HW238994   3.690   3.209  12.951  2.3257 -1.5549 -1.4891
 9120SOL     OW38995   3.358   3.048  14.102 -0.5127  0.0995 -0.2312
 9120SOL    HW138996   3.294   2.977  14.092 -0.6401  0.0560  0.9508
 9120SOL    HW238997   3.360   3.069  14.195 -0.9022  2.9427 -0.8545
 9121SOL     OW38998   4.498   3.704   3.984  0.1405 -0.1788  0.0455
 9121SOL    HW138999   4.409   3.678   3.961 -0.0732  0.0497  0.6154
 9121SOL    HW239000   4.481   3.786   4.030 -0.2622  0.6706 -1.6289
 9122SOL     OW39001   1.767   3.201   4.477 -0.1612  0.3526  0.7471
 9122SOL    HW139002   1.772   3.154   4.561 -0.1427 -1.0583 -0.0471
 9122SOL    HW239003   1.805   3.284   4.506  1.5287 -0.9741  2.2741
 9123SOL     OW39004   2.467   0.500   2.764 -0.0231 -0.0219  0.0928
 9123SOL    HW139005   2.403   0.473   2.700 -0.1734 -0.8238  0.5857
 9123SOL    HW239006   2.516   0.567   2.716 -2.5116  1.5629 -0.2073
 9124SOL     OW39007   1.255   1.098   1.453 -0.8748 -0.7892 -0.6580
 9124SOL    HW139008   1.343   1.117   1.421 -0.6445 -1.0626 -0.1717
 9124SOL    HW239009   1.212   1.178   1.421 -0.4950 -0.8389 -1.3019
 9125SOL     OW39010   0.061   2.700   2.422  0.0698 -0.5546  0.2226
 9125SOL    HW139011   4.707   2.688   2.444  0.2507 -2.6585 -0.1121
 9125SOL    HW239012   0.068   2.612   2.385 -0.0071  0.6533 -2.6950
 9126SOL     OW39013   4.483   0.138   5.825 -0.2338 -0.7481 -0.0644
 9126SOL    HW139014   4.523   0.160   5.909 -1.0479  0.0673  0.1137
 9126SOL    HW239015   4.525   0.205   5.771  0.8457 -2.1104 -0.8987
 9127SOL     OW39016   3.324   3.983   8.368  0.3326  0.9407 -0.4680
 9127SOL    HW139017   3.368   3.915   8.419 -2.5070  0.0016  0.6996
 9127SOL    HW239018   3.266   3.937   8.306 -1.1023 -0.7884  2.1714
 9128SOL     OW39019   1.204   3.645  10.910  0.2907  0.4697  0.0673
 9128SOL    HW139020   1.280   3.597  10.877 -0.9304 -2.3809  1.4206
 9128SOL    HW239021   1.249   3.729  10.917  1.9034 -0.4185  0.6181
 9129SOL     OW39022   4.404   2.408   3.479 -0.5614  0.4246  0.1050
 9129SOL    HW139023   4.459   2.341   3.518 -1.1495  0.5645  1.1708
 9129SOL    HW239024   4.398   2.387   3.386  0.0146  1.4320 -0.1623
 9130SOL     OW39025   3.482   2.626  17.172 -0.2846  0.0028 -0.2209
 9130SOL    HW139026   3.453   2.536  17.191 -0.0794  0.7707  3.6230
 9130SOL    HW239027   3.526   2.650  17.253 -0.6999  1.1802 -0.3425
 9131SOL     OW39028   0.656   4.313   0.612 -0.0708  0.0896  0.1590
 9131SOL    HW139029   0.630   4.235   0.660  0.6250  0.9760  1.9450
 9131SOL    HW239030   0.751   4.306   0.614  0.0157  0.1005 -3.6992
 9132SOL     OW39031   4.701   3.297   7.521 -0.4113  0.7028  0.0730
 9132SOL    HW139032   4.702   3.208   7.556  0.3935  0.5599 -0.3229
 9132SOL    HW239033   4.659   3.290   7.436 -2.5329  0.3511  1.1434
 9133SOL     OW39034   4.017   2.726   3.701  0.4079 -0.0284  0.2354
 9133SOL    HW139035   4.054   2.711   3.788  0.9374 -1.9969 -0.3264
 9133SOL    HW239036   3.931   2.685   3.713  0.9804 -1.4468 -0.4623
 9134SOL     OW39037   4.729   0.133   9.177 -0.3936  0.0394 -0.4007
 9134SOL    HW139038   0.069   0.186   9.188 -0.7911  0.1570  1.8610
 9134SOL    HW239039   4.671   0.193   9.224  0.7584  0.6302  0.2597
 9135SOL     OW39040   2.801   2.223   4.223 -0.0836  0.7860 -0.1297
 9135SOL    HW139041   2.819   2.275   4.301  2.5233  1.7478 -1.3726
 9135SOL    HW239042   2.852   2.144   4.236 -0.0481  1.0691  1.4903
 9136SOL     OW39043   2.573   2.422   1.868  0.3098  0.4284  0.4818
 9136SOL    HW139044   2.586   2.510   1.904 -0.2208 -0.1994  2.2343
 9136SOL    HW239045   2.574   2.361   1.942 -2.5080  0.5070  0.5817
 9137SOL     OW39046   4.712   4.548   5.281  0.5132 -0.3344  0.0063
 9137SOL    HW139047   0.022   4.598   5.346  1.2291 -0.5346 -0.3720
 9137SOL    HW239048   0.024   4.467   5.275 -0.2567 -0.8712  0.9268
 9138SOL     OW39049   2.580   1.811   2.678  0.6233  0.1285 -0.3883
 9138SOL    HW139050   2.543   1.808   2.590  2.3745  2.0519 -1.1895
 9138SOL    HW239051   2.589   1.902   2.705  0.5071  0.5806 -1.8695
 9139SOL     OW39052   4.459   4.620   5.285 -0.3947 -0.0329  0.9656
 9139SOL    HW139053   4.412   4.573   5.354  0.0081 -2.8966 -0.6756
 9139SOL    HW239054   4.547   4.585   5.295 -0.4603 -0.2460  0.8190
 9140SOL     OW39055   2.815   1.897   6.157  0.3677 -0.1252 -0.5700
 9140SOL    HW139056   2.887   1.926   6.101  1.0757 -1.6932 -0.4667
 9140SOL    HW239057   2.735   1.901   6.104  0.1238 -1.8195 -0.3416
 9141SOL     OW39058   3.641   0.854   8.622  0.1604 -0.4041  0.1826
 9141SOL    HW139059   3.687   0.830   8.703 -3.5597  2.4810  3.1294
 9141SOL    HW239060   3.554   0.816   8.636  1.2063 -2.4105  1.1984
 9142SOL     OW39061   0.145   1.263   3.831  0.1067  0.1381 -0.1205
 9142SOL    HW139062   0.218   1.324   3.824 -0.7297  1.2056  0.5414
 9142SOL    HW239063   0.186   1.178   3.847  0.4055  0.2789 -0.1475
 9143SOL     OW39064   1.799   3.685   4.678 -0.6048 -0.0852 -0.1310
 9143SOL    HW139065   1.811   3.731   4.761  0.9061 -1.1923  0.2756
 9143SOL    HW239066   1.753   3.742   4.617 -0.5328 -1.3958 -1.4166
 9144SOL     OW39067   1.267   1.414   3.724 -0.1773  0.3324 -0.1974
 9144SOL    HW139068   1.180   1.400   3.761 -0.2263 -2.3475 -1.3042
 9144SOL    HW239069   1.252   1.402   3.630 -1.0305  2.0471 -0.2707
 9145SOL     OW39070   2.940   1.439  16.875  0.5449 -0.1129  0.4051
 9145SOL    HW139071   2.997   1.396  16.939  0.4955  0.8695  1.1206
 9145SOL    HW239072   2.905   1.513  16.925  2.3675  0.6091  0.6208
 9146SOL     OW39073   3.265   0.491   2.629 -0.4070  0.2884 -0.1303
 9146SOL    HW139074   3.209   0.482   2.706  0.6688 -0.7586  0.5444
 9146SOL    HW239075   3.218   0.563   2.588 -0.0686  2.1093  2.6918
 9147SOL     OW39076   1.206   0.713   4.424 -0.6728 -0.7895  0.4546
 9147SOL    HW139077   1.169   0.676   4.504 -1.4676 -2.0807 -0.5026
 9147SOL    HW239078   1.160   0.796   4.424  0.6652 -0.0578  1.0013
 9148SOL     OW39079   2.356   1.109   7.798  0.5205  0.3053  0.1826
 9148SOL    HW139080   2.308   1.191   7.787  0.6360  0.3856  0.2684
 9148SOL    HW239081   2.312   1.067   7.871  0.7998 -0.8969 -0.3445
 9149SOL     OW39082   1.459   2.576   2.622 -0.5236  0.1149 -0.1140
 9149SOL    HW139083   1.528   2.578   2.688 -0.6139  0.0634 -0.0192
 9149SOL    HW239084   1.411   2.647   2.664  0.7473  0.9676 -0.1011
 9150SOL     OW39085   2.583   3.204   7.026 -0.4661  0.5017 -0.4380
 9150SOL    HW139086   2.526   3.239   7.094 -1.7471 -0.7110 -0.9111
 9150SOL    HW239087   2.635   3.283   7.009  2.0014 -0.5020  2.5168
 9151SOL     OW39088   4.325   1.614  12.023 -0.0995  0.1782 -0.5391
 9151SOL    HW139089   4.336   1.615  12.118 -0.3731 -1.0828 -0.4954
 9151SOL    HW239090   4.231   1.608  12.001 -0.3810  0.6031  0.5731
 9152SOL     OW39091   2.653   0.478   5.738 -0.3375 -0.1261 -0.5258
 9152SOL    HW139092   2.629   0.570   5.746  1.4306  0.2010  1.0473
 9152SOL    HW239093   2.606   0.449   5.659 -0.8992  2.2199 -1.0524
 9153SOL     OW39094   4.077   3.313   2.865 -0.0254  0.0180 -0.5721
 9153SOL    HW139095   4.161   3.293   2.906 -0.8628 -1.1277  0.5839
 9153SOL    HW239096   4.028   3.232   2.875  0.8999 -0.3486  1.0404
 9154SOL     OW39097   2.042   4.692   3.525  0.0564  0.2684 -0.2402
 9154SOL    HW139098   2.049   4.610   3.475 -3.8371 -0.6759  0.7668
 9154SOL    HW239099   2.107   0.012   3.487  0.2210  0.9095  1.0356
 9155SOL     OW39100   1.726   0.702   6.185  0.4199  0.0086 -0.0127
 9155SOL    HW139101   1.662   0.771   6.202  0.4765 -0.4048  1.9272
 9155SOL    HW239102   1.692   0.668   6.102 -1.4309 -1.2087  1.2284
 9156SOL     OW39103   2.853   3.572   5.802 -0.2441  0.5841  0.3578
 9156SOL    HW139104   2.906   3.511   5.750  0.1359  2.3100 -1.2702
 9156SOL    HW239105   2.777   3.590   5.747  1.2588 -0.6208 -2.1181
 9157SOL     OW39106   1.271   3.275  17.747  0.0444 -0.1792 -0.1949
 9157SOL    HW139107   1.320   3.262  17.666 -0.4766  1.9712 -0.8619
 9157SOL    HW239108   1.182   3.302  17.724 -0.6246 -1.5666  0.7611
 9158SOL     OW39109   2.174   3.849   3.393  0.1482  0.0697  0.2105
 9158SOL    HW139110   2.137   3.825   3.308  0.0030 -0.1752  0.3407
 9158SOL    HW239111   2.146   3.939   3.407 -0.5239  0.0465 -0.9759
 9159SOL     OW39112   1.871   0.786   3.656 -0.7224 -0.0175 -0.1965
 9159SOL    HW139113   1.899   0.694   3.662 -0.2683  0.0556 -1.2396
 9159SOL    HW239114   1.776   0.774   3.663 -0.4799 -1.1995  1.1375
 9160SOL     OW39115   4.546   1.710   2.636 -0.4499 -0.2587  0.3262
 9160SOL    HW139116   4.570   1.686   2.725 -3.0732 -2.3926  0.4408
 9160SOL    HW239117   4.614   1.660   2.590 -1.6675  1.2820 -3.1723
 9161SOL     OW39118   0.624   2.159   7.714 -0.3450  0.0026 -0.0822
 9161SOL    HW139119   0.630   2.236   7.658 -2.8610 -1.8092 -2.8770
 9161SOL    HW239120   0.559   2.105   7.669  0.7516 -1.8368  0.5591
 9162SOL     OW39121   0.882   0.063  14.233 -0.3395 -0.1767 -0.1926
 9162SOL    HW139122   0.854   4.710  14.233 -0.7737 -0.0477  1.5816
 9162SOL    HW239123   0.799   0.097  14.200 -1.3105 -1.1725  1.2561
 9163SOL     OW39124   0.150   1.360   8.283  0.1336 -0.1912  0.3155
 9163SOL    HW139125   0.212   1.418   8.328 -0.9052  0.8715  0.3981
 9163SOL    HW239126   0.204   1.282   8.273  0.0882 -0.1103 -0.6193
 9164SOL     OW39127   0.509   3.038   1.514  0.4564  0.3349  0.7670
 9164SOL    HW139128   0.426   3.028   1.560 -0.1126  2.1761  0.1600
 9164SOL    HW239129   0.568   3.061   1.585  1.7061  2.4893 -0.9599
 9165SOL     OW39130   4.046   3.502   7.913  0.4798  0.3786 -0.4147
 9165SOL    HW139131   4.053   3.419   7.867  0.4974  0.3571 -0.3736
 9165SOL    HW239132   3.987   3.479   7.985  1.1178 -1.0603 -0.3545
 9166SOL     OW39133   0.763   0.422   9.620 -0.1571 -0.4107 -0.1207
 9166SOL    HW139134   0.727   0.500   9.664 -3.4466 -3.4283  2.6300
 9166SOL    HW239135   0.820   0.461   9.555 -0.4991 -0.7262 -0.6097
 9167SOL     OW39136   0.569   1.141   6.948  0.5864 -0.1644 -0.2271
 9167SOL    HW139137   0.518   1.221   6.935  1.0948  0.2142  0.0980
 9167SOL    HW239138   0.649   1.174   6.907 -0.0143 -0.3350 -1.5456
 9168SOL     OW39139   1.182   3.017   3.162 -0.5047  0.0616  0.3565
 9168SOL    HW139140   1.162   2.981   3.076  0.7047  0.3525 -0.0391
 9168SOL    HW239141   1.149   3.107   3.158  0.5205  0.4310  0.2589
 9169SOL     OW39142   0.677   2.312   4.002  0.6409  0.4283 -0.2613
 9169SOL    HW139143   0.690   2.255   3.925 -0.2613 -1.1982  0.7955
 9169SOL    HW239144   0.583   2.303   4.017  0.5615  0.3564 -0.7877
 9170SOL     OW39145   2.736   0.899  13.702 -0.2568  0.3537  0.4225
 9170SOL    HW139146   2.815   0.916  13.752  0.6391 -0.1792 -0.8293
 9170SOL    HW239147   2.722   0.805  13.709  0.1122  0.4474  2.3721
 9171SOL     OW39148   1.399   2.218   9.233 -0.3142 -0.1686 -0.5541
 9171SOL    HW139149   1.411   2.262   9.317  1.1031  0.0337 -0.8594
 9171SOL    HW239150   1.358   2.292   9.187  0.9394  0.8161 -0.0705
 9172SOL     OW39151   3.596   3.653   7.927 -0.6402  0.4667 -0.0903
 9172SOL    HW139152   3.503   3.673   7.937 -1.3041 -1.3250 -2.5569
 9172SOL    HW239153   3.599   3.577   7.869  2.2434 -1.3335  2.4181
 9173SOL     OW39154   1.165   0.077   3.869  0.6301  0.2872 -0.0996
 9173SOL    HW139155   1.229   0.005   3.867 -2.7153 -2.5922 -3.6731
 9173SOL    HW239156   1.217   0.134   3.926  0.2783 -2.2395  2.7669
 9174SOL     OW39157   3.361   0.406   3.438  0.2690  0.5130  0.0069
 9174SOL    HW139158   3.341   0.348   3.364  0.7647  1.9996 -1.2891
 9174SOL    HW239159   3.452   0.382   3.454 -0.6006 -2.7390  0.1966
 9175SOL     OW39160   1.462   1.531   4.489 -0.9389  0.5909  0.3717
 9175SOL    HW139161   1.464   1.490   4.575  1.4108 -1.0385 -0.4753
 9175SOL    HW239162   1.507   1.467   4.434 -0.8095  1.5159 -0.5947
 9176SOL     OW39163   3.081   0.659  16.616 -0.3402 -0.2669  0.3439
 9176SOL    HW139164   3.006   0.613  16.579  1.2893  2.0981 -5.8735
 9176SOL    HW239165   3.089   0.736  16.560  1.9377  1.3276  2.8598
 9177SOL     OW39166   1.553   0.712  17.419  0.0335  0.0446  0.0087
 9177SOL    HW139167   1.617   0.733  17.488  1.9175  2.6616 -2.5559
 9177SOL    HW239168   1.602   0.683  17.342 -0.0269  0.4797 -0.1967
 9178SOL     OW39169   1.764   2.297   3.085 -0.2951  0.1724  0.7248
 9178SOL    HW139170   1.851   2.337   3.077  0.1207 -1.0388 -0.6961
 9178SOL    HW239171   1.799   2.208   3.074 -3.1573 -0.9740  0.8940
 9179SOL     OW39172   0.189   1.381  15.753 -0.1710 -0.3538  0.1656
 9179SOL    HW139173   0.211   1.400  15.662  0.1165 -0.8303  0.1336
 9179SOL    HW239174   0.123   1.449  15.757  0.4438  0.1721  1.4877
 9180SOL     OW39175   2.555   0.627   1.924 -0.0184 -0.4365  0.4445
 9180SOL    HW139176   2.497   0.698   1.898  3.2995  2.2085  0.2435
 9180SOL    HW239177   2.587   0.680   1.996 -1.5179  0.2482  0.5914
 9181SOL     OW39178   1.304   1.202   5.409  0.5288 -0.0525  0.1084
 9181SOL    HW139179   1.350   1.155   5.479  0.6674 -0.2743 -0.1316
 9181SOL    HW239180   1.274   1.130   5.353 -0.6384 -0.7552  1.6209
 9182SOL     OW39181   4.702   2.382  17.686 -0.4801  0.9156  0.9262
 9182SOL    HW139182   4.643   2.373   0.007 -1.5356 -0.4308 -0.0793
 9182SOL    HW239183   0.047   2.360  17.726  0.2709  1.6613 -0.2384
 9183SOL     OW39184   0.550   0.739   8.819  0.0838 -0.5235 -0.1751
 9183SOL    HW139185   0.508   0.718   8.902  0.6060  0.8286  0.4501
 9183SOL    HW239186   0.636   0.704   8.843  0.9429 -0.1988 -2.7959
 9184SOL     OW39187   1.919   1.783   0.103  0.1742  0.0033 -0.5639
 9184SOL    HW139188   1.910   1.879   0.104 -1.4733 -0.1521 -0.3445
 9184SOL    HW239189   1.861   1.756   0.174  2.4202 -1.8060  0.5439
 9185SOL     OW39190   1.317   0.963  12.501 -0.3569 -0.1356 -0.8635
 9185SOL    HW139191   1.286   1.043  12.458 -0.2049 -0.1489 -0.9985
 9185SOL    HW239192   1.303   0.996  12.590  1.3383  0.9391 -0.9915
 9186SOL     OW39193   4.570   2.315   8.054 -0.5616 -0.7073  0.0049
 9186SOL    HW139194   4.638   2.248   8.063  0.5382  1.0194  4.2339
 9186SOL    HW239195   4.626   2.392   8.049  0.0044 -1.1399 -0.3803
 9187SOL     OW39196   1.522   1.428   9.073 -0.0003 -0.0071 -0.3022
 9187SOL    HW139197   1.485   1.348   9.036 -0.7879  0.5614 -0.7286
 9187SOL    HW239198   1.455   1.492   9.049  1.2097  1.4623  0.2911
 9188SOL     OW39199   4.549   3.673   3.265  0.0684  0.1753 -0.7292
 9188SOL    HW139200   4.542   3.621   3.345 -0.2352  1.9398  0.3831
 9188SOL    HW239201   4.477   3.639   3.211 -1.1208  0.4206  0.7139
 9189SOL     OW39202   1.610   3.869  12.799  0.5957 -0.1255 -0.6772
 9189SOL    HW139203   1.686   3.844  12.850  1.3716  0.4432 -1.5635
 9189SOL    HW239204   1.606   3.798  12.734 -0.8085 -1.0556  0.4108
 9190SOL     OW39205   1.740   3.555  17.295  0.1800  0.1878 -0.2692
 9190SOL    HW139206   1.779   3.526  17.212  0.2298 -2.0238  0.5273
 9190SOL    HW239207   1.801   3.543  17.368  0.4895 -3.5463 -1.1723
 9191SOL     OW39208   3.798   0.153   0.919 -0.6642  0.0417 -0.4051
 9191SOL    HW139209   3.882   0.161   0.874  0.5911  0.0655  1.9309
 9191SOL    HW239210   3.820   0.189   1.005  0.3341  0.2454 -0.7503
 9192SOL     OW39211   1.945   4.517   5.845  0.0459 -0.7909  0.0348
 9192SOL    HW139212   1.926   4.428   5.874 -2.6304 -0.1247  0.3671
 9192SOL    HW239213   2.030   4.509   5.802  1.1019 -3.1468  2.5817
 9193SOL     OW39214   4.407   3.933   4.129 -0.7223 -0.0025  0.0836
 9193SOL    HW139215   4.362   4.000   4.077  0.8019  1.1479  0.2368
 9193SOL    HW239216   4.334   3.877   4.156 -0.8239 -0.0629 -0.3187
 9194SOL     OW39217   3.340   0.186  15.774  0.6716  0.3338  0.5982
 9194SOL    HW139218   3.297   0.264  15.741  0.6089  1.0299  2.3040
 9194SOL    HW239219   3.296   0.168  15.857  2.1818 -1.4942  1.0124
 9195SOL     OW39220   4.518   3.477   5.378 -0.1376 -0.2797 -0.3149
 9195SOL    HW139221   4.540   3.460   5.470 -1.3725 -2.1692 -0.3778
 9195SOL    HW239222   4.528   3.396   5.329  1.5905  0.1888 -0.7535
 9196SOL     OW39223   4.167   1.791   7.002  0.1081 -0.4169  0.0487
 9196SOL    HW139224   4.099   1.816   6.941 -0.4183  0.0017  0.8093
 9196SOL    HW239225   4.178   1.877   7.042 -1.1527  0.2061 -0.9566
 9197SOL     OW39226   2.903   2.911  15.513  0.0043  0.0207  0.1049
 9197SOL    HW139227   2.878   2.855  15.439 -1.1384 -0.0884  0.5757
 9197SOL    HW239228   2.821   2.917  15.562  0.7965  0.7459  1.3268
 9198SOL     OW39229   3.049   4.539  11.655  0.6255 -0.6157 -0.2850
 9198SOL    HW139230   2.969   4.557  11.704  1.2591 -0.1070  0.5662
 9198SOL    HW239231   3.087   4.484  11.724  1.0004 -1.2931 -1.0301
 9199SOL     OW39232   0.384   1.014   5.997 -0.4463 -0.8174 -0.4194
 9199SOL    HW139233   0.400   0.929   5.956 -0.8873 -0.9075 -0.4043
 9199SOL    HW239234   0.441   1.003   6.073 -0.0629 -4.3166 -1.1821
 9200SOL     OW39235   4.205   3.150   0.098 -0.5622 -0.6036  0.1486
 9200SOL    HW139236   4.198   3.089   0.024  1.2416 -0.8447  0.1854
 9200SOL    HW239237   4.232   3.096   0.172  1.6831  0.2845 -0.0365
 9201SOL     OW39238   1.841   3.936   1.298  0.2157 -0.0612 -0.5409
 9201SOL    HW139239   1.748   3.940   1.279  0.4286  0.3177 -1.4613
 9201SOL    HW239240   1.836   3.909   1.390 -2.2222  1.2860 -0.2930
 9202SOL     OW39241   1.339   2.999   1.426 -0.0170  0.5671  0.0062
 9202SOL    HW139242   1.263   3.052   1.451 -0.6015  1.5778 -3.8078
 9202SOL    HW239243   1.308   2.960   1.344 -2.6642  0.1439  1.2106
 9203SOL     OW39244   4.069   1.279   1.811  0.4624  0.3840  0.2300
 9203SOL    HW139245   4.078   1.347   1.745  2.6759 -0.3797 -0.2429
 9203SOL    HW239246   3.974   1.262   1.810  0.1880  1.8732  1.4580
 9204SOL     OW39247   2.479   3.146   2.958  0.4383  1.5308  0.2229
 9204SOL    HW139248   2.392   3.105   2.957  0.6217  1.1921 -3.3970
 9204SOL    HW239249   2.475   3.200   3.037  0.7019  1.1938  0.4657
 9205SOL     OW39250   0.497   4.575   3.832  0.0062  0.1820 -0.3451
 9205SOL    HW139251   0.530   4.520   3.761 -0.7670  0.0891 -0.6311
 9205SOL    HW239252   0.450   4.503   3.875 -0.4038  1.8325  1.9649
 9206SOL     OW39253   0.561   1.870  10.824 -0.5032  0.5336 -0.0655
 9206SOL    HW139254   0.556   1.843  10.916 -2.9403 -1.2594 -0.7361
 9206SOL    HW239255   0.533   1.961  10.824  2.1467  1.3519 -1.3145
 9207SOL     OW39256   3.043   4.348   3.299 -0.6314 -0.2809 -0.3114
 9207SOL    HW139257   2.992   4.416   3.255  1.4876  0.9976 -0.7624
 9207SOL    HW239258   3.013   4.277   3.242  0.4514 -0.6327 -0.4360
 9208SOL     OW39259   3.012   2.585   0.154 -0.4854 -0.2848  0.5423
 9208SOL    HW139260   3.019   2.531   0.232  1.6713  0.3984  0.8251
 9208SOL    HW239261   2.948   2.529   0.109  0.9265 -1.4243 -0.0331
 9209SOL     OW39262   2.054   1.332  12.694 -0.0608 -0.8212  0.5943
 9209SOL    HW139263   2.019   1.343  12.782 -2.4425  0.7776 -0.5459
 9209SOL    HW239264   2.069   1.238  12.686  1.1093 -0.4732 -1.3196
 9210SOL     OW39265   4.398   1.589  17.578 -0.5385  0.1858  0.1661
 9210SOL    HW139266   4.371   1.521  17.640 -0.6246  1.4465  1.4942
 9210SOL    HW239267   4.472   1.627  17.624 -1.5599  0.1903  1.8107
 9211SOL     OW39268   2.229   1.402   3.229 -0.5430 -0.0922  0.1664
 9211SOL    HW139269   2.196   1.315   3.248 -1.4362  0.4847  1.2751
 9211SOL    HW239270   2.150   1.451   3.206 -0.2155  0.2602 -0.2242
 9212SOL     OW39271   4.211   3.922  11.689 -0.4447  0.2272  0.3135
 9212SOL    HW139272   4.269   3.962  11.754 -0.8792  0.6533  0.4422
 9212SOL    HW239273   4.253   3.837  11.681  0.8756  0.8372  0.5906
 9213SOL     OW39274   3.062   4.077  17.443  0.7258 -0.3588  0.2753
 9213SOL    HW139275   3.065   4.037  17.530 -0.5310  3.3370  2.0657
 9213SOL    HW239276   2.987   4.034  17.403 -0.9269  3.3984 -0.6567
 9214SOL     OW39277   1.225   1.027   2.064  0.6794 -0.4640  0.3501
 9214SOL    HW139278   1.267   0.941   2.069  1.5692 -0.1020 -1.1963
 9214SOL    HW239279   1.240   1.058   1.975 -0.8971 -0.8126 -0.0401
 9215SOL     OW39280   4.193   3.739   9.161 -0.1047  0.8570 -0.0206
 9215SOL    HW139281   4.267   3.743   9.221 -2.1654  1.7155  2.4464
 9215SOL    HW239282   4.203   3.646   9.142 -2.4099  0.3319  1.3214
 9216SOL     OW39283   2.723   1.097   8.002 -0.2171 -0.4758  0.5473
 9216SOL    HW139284   2.784   1.095   8.076  1.5204  1.4555 -0.8320
 9216SOL    HW239285   2.642   1.098   8.053  0.6060  0.7189  1.8407
 9217SOL     OW39286   4.152   4.440   7.926  0.3641  0.6767 -0.1985
 9217SOL    HW139287   4.134   4.523   7.880 -2.9116  1.2826  2.1832
 9217SOL    HW239288   4.247   4.441   7.932  0.6161 -1.2774 -3.4075
 9218SOL     OW39289   2.687   3.710  14.134  0.2275  0.2120 -0.1424
 9218SOL    HW139290   2.694   3.704  14.039 -0.8577 -1.9584 -0.0814
 9218SOL    HW239291   2.703   3.622  14.167 -0.3858 -0.9981 -3.0860
 9219SOL     OW39292   0.095   3.840   6.153 -0.6621  0.6042 -0.1397
 9219SOL    HW139293   0.077   3.832   6.246 -0.6848 -1.4242 -0.3149
 9219SOL    HW239294   0.058   3.928   6.139 -1.7162 -0.1384 -2.0932
 9220SOL     OW39295   3.036   4.406  10.034 -0.2577 -0.2884 -0.3809
 9220SOL    HW139296   3.047   4.409  10.129  2.7963  0.5822 -0.7654
 9220SOL    HW239297   3.119   4.438   9.999  0.4211 -2.4553 -0.8047
 9221SOL     OW39298   4.070   1.712  11.644 -0.0467 -0.2269  0.3729
 9221SOL    HW139299   4.025   1.720  11.728 -1.2582  3.1555 -0.5939
 9221SOL    HW239300   3.997   1.724  11.583 -0.9445 -1.8992  1.1029
 9222SOL     OW39301   2.960   0.056   6.025 -0.6008  0.0621  0.3388
 9222SOL    HW139302   3.036   0.110   6.048 -0.8528  0.8767 -0.7040
 9222SOL    HW239303   2.997   0.014   5.946 -2.3342 -1.6184  0.4287
 9223SOL     OW39304   3.625   4.189   3.838 -0.4336 -0.0590  0.0610
 9223SOL    HW139305   3.708   4.173   3.793 -0.6562 -1.4474  0.1369
 9223SOL    HW239306   3.653   4.221   3.924 -0.1876 -0.9195  0.2949
 9224SOL     OW39307   4.731   2.226  13.032  0.7880  0.2394  0.5804
 9224SOL    HW139308   0.048   2.151  13.052 -1.6924 -0.9824  2.8838
 9224SOL    HW239309   4.724   2.269  13.117  3.2294  0.4936  0.6648
 9225SOL     OW39310   3.989   0.444  17.516  0.8224  0.0238 -0.5215
 9225SOL    HW139311   4.025   0.395  17.590 -1.6886 -0.6709  0.2240
 9225SOL    HW239312   3.948   0.379  17.459  0.4249 -0.4814  0.3420
 9226SOL     OW39313   1.785   2.494  17.653  0.4490  0.2048 -0.7731
 9226SOL    HW139314   1.868   2.454  17.680  0.3502  0.5386  0.0305
 9226SOL    HW239315   1.739   2.491  17.737 -1.5805  0.3416 -1.8795
 9227SOL     OW39316   3.667   2.131  11.037  0.2275 -0.8174 -0.2993
 9227SOL    HW139317   3.596   2.172  11.086 -0.3879 -1.5028 -0.6233
 9227SOL    HW239318   3.731   2.202  11.034  0.4523 -1.0925 -1.8061
 9228SOL     OW39319   3.549   0.474  10.259  0.3197  0.3966 -0.2387
 9228SOL    HW139320   3.604   0.398  10.279 -0.8631 -1.2214 -3.0718
 9228SOL    HW239321   3.591   0.511  10.181  0.3625 -1.1546 -0.9452
 9229SOL     OW39322   3.589   3.558   4.263  0.0787 -0.0766  0.3014
 9229SOL    HW139323   3.650   3.486   4.245 -0.3378 -0.5084  0.6250
 9229SOL    HW239324   3.611   3.584   4.353 -0.4513  0.1740  0.3570
 9230SOL     OW39325   3.478   3.908   2.600 -0.2796 -0.3721  0.2436
 9230SOL    HW139326   3.481   3.993   2.643 -0.4696  0.0326 -0.5397
 9230SOL    HW239327   3.545   3.869   2.656 -0.7345 -0.2371  0.8874
 9231SOL     OW39328   0.954   0.328   4.068  0.2551  0.0909  0.1273
 9231SOL    HW139329   0.936   0.386   3.994  0.5112  0.5106  0.3985
 9231SOL    HW239330   0.998   0.255   4.024 -2.7247 -0.3108 -2.2631
 9232SOL     OW39331   2.962   3.910  17.050  0.2958  0.7515 -0.5761
 9232SOL    HW139332   3.021   3.846  17.090 -0.4021 -0.6275 -1.7558
 9232SOL    HW239333   2.925   3.949  17.129 -0.6954  2.4458 -1.8572
 9233SOL     OW39334   3.279   0.564  14.962  0.0470  0.5355  0.0597
 9233SOL    HW139335   3.325   0.595  15.040  2.7882 -1.6424 -0.6920
 9233SOL    HW239336   3.347   0.582  14.897 -0.4409  3.8631  0.4685
 9234SOL     OW39337   3.097   1.784   1.674 -0.1939 -0.4848  0.4933
 9234SOL    HW139338   3.011   1.758   1.642  0.4116 -1.7261 -0.1268
 9234SOL    HW239339   3.118   1.845   1.604 -1.8464  0.5086  0.8649
 9235SOL     OW39340   3.309   3.056   4.485 -0.0315  0.0568 -0.0970
 9235SOL    HW139341   3.293   3.126   4.548 -1.1303 -1.2795  1.0878
 9235SOL    HW239342   3.226   3.008   4.480 -0.9171  1.5698  0.1390
 9236SOL     OW39343   1.418   3.909   4.747  0.1484  0.3427  0.0563
 9236SOL    HW139344   1.406   3.915   4.653 -2.5476 -0.5887  0.3430
 9236SOL    HW239345   1.418   3.813   4.756 -1.8821  0.5040  1.9343
 9237SOL     OW39346   2.097   4.700   3.826  0.1957 -0.0731  0.1903
 9237SOL    HW139347   2.042   4.665   3.756 -0.2974  1.8817 -0.4036
 9237SOL    HW239348   2.147   4.620   3.842  1.7236  0.8949  0.2927
 9238SOL     OW39349   3.729   3.843  15.712 -0.0497  0.1737  0.5146
 9238SOL    HW139350   3.808   3.851  15.658  0.9116 -1.3630  1.6757
 9238SOL    HW239351   3.743   3.772  15.774  1.8389  0.3392  0.3032
 9239SOL     OW39352   1.976   1.897  12.835 -0.3415 -0.0592  0.1248
 9239SOL    HW139353   2.032   1.879  12.759 -1.7636 -0.9211 -0.7189
 9239SOL    HW239354   2.035   1.870  12.905 -1.9477  0.3410  1.6445
 9240SOL     OW39355   1.074   2.806   2.562  0.1696  0.4644  0.2685
 9240SOL    HW139356   1.023   2.836   2.487 -0.4899  0.2440  0.6358
 9240SOL    HW239357   1.107   2.723   2.527 -0.2142  0.3618  0.1502
 9241SOL     OW39358   1.293   0.383   5.116  0.2457  0.1976 -0.0875
 9241SOL    HW139359   1.336   0.400   5.200  1.2902 -1.8769 -0.2066
 9241SOL    HW239360   1.371   0.343   5.077  0.3497  0.8898 -0.5884
 9242SOL     OW39361   0.444   1.172  11.528 -0.2613  0.1032  0.2756
 9242SOL    HW139362   0.394   1.216  11.459  1.2364 -2.1203 -2.1887
 9242SOL    HW239363   0.461   1.235  11.598 -2.1922  1.6952 -0.6976
 9243SOL     OW39364   3.670   3.434   7.375  0.3277 -0.0504 -0.4758
 9243SOL    HW139365   3.684   3.344   7.346  1.3579  0.3900 -1.3378
 9243SOL    HW239366   3.642   3.479   7.295 -1.0444  0.2163  0.1589
 9244SOL     OW39367   2.627   2.944   4.162  0.3889 -0.5062 -0.1881
 9244SOL    HW139368   2.658   2.854   4.150  3.6034  0.8981 -2.5235
 9244SOL    HW239369   2.699   2.983   4.211 -0.4497 -1.2546  1.6467
 9245SOL     OW39370   1.474   0.194   1.880  0.0124 -0.1217 -0.4055
 9245SOL    HW139371   1.425   0.188   1.962  0.4368 -0.9788 -0.2125
 9245SOL    HW239372   1.485   0.289   1.873  2.0890 -0.1495  2.5485
 9246SOL     OW39373   2.191   3.878   2.596  0.8247 -0.6597  0.0949
 9246SOL    HW139374   2.250   3.806   2.571  1.5266 -1.3186  3.7034
 9246SOL    HW239375   2.176   3.921   2.512 -1.8769 -1.8489 -0.0398
 9247SOL     OW39376   3.846   4.534   6.412 -0.4620  0.2271  0.2641
 9247SOL    HW139377   3.756   4.505   6.424 -0.0292 -2.1645 -2.3857
 9247SOL    HW239378   3.884   4.536   6.500 -0.4943  2.4378  0.2347
 9248SOL     OW39379   2.461   2.195   8.549 -0.6517  0.0465  0.1031
 9248SOL    HW139380   2.523   2.220   8.617 -0.3973 -0.8032  0.1934
 9248SOL    HW239381   2.482   2.261   8.484 -1.6490  0.1171 -0.1459
 9249SOL     OW39382   0.332   1.543   8.375  0.3891  0.3364 -0.0003
 9249SOL    HW139383   0.389   1.558   8.299 -0.0261  1.0946 -0.1607
 9249SOL    HW239384   0.349   1.627   8.417  1.6901 -0.2063  0.5646
 9250SOL     OW39385   1.761   2.108  13.863  0.1268  0.2419 -0.0768
 9250SOL    HW139386   1.823   2.041  13.892  0.3695  1.0547  1.2818
 9250SOL    HW239387   1.825   2.171  13.828  0.2657  0.5706  0.7667
 9251SOL     OW39388   2.866   1.305   3.997  0.5776 -0.1035  0.4412
 9251SOL    HW139389   2.879   1.251   3.918  2.0414 -1.3073  1.5200
 9251SOL    HW239390   2.909   1.384   3.963 -1.3531  0.2073 -1.3447
 9252SOL     OW39391   2.320   1.844  16.773 -0.7189  0.2402 -0.7411
 9252SOL    HW139392   2.290   1.857  16.863  2.3488 -1.7347  0.5751
 9252SOL    HW239393   2.235   1.854  16.730 -0.4646  0.4276 -1.2050
 9253SOL     OW39394   0.826   2.499   9.278  0.3107 -0.8592  0.6920
 9253SOL    HW139395   0.787   2.554   9.346  1.1073 -2.1043  2.1606
 9253SOL    HW239396   0.816   2.553   9.199  0.9886  2.0438  2.5905
 9254SOL     OW39397   3.398   1.666  11.777  0.0505  0.0453  0.1674
 9254SOL    HW139398   3.405   1.586  11.726 -2.7814  0.0286 -0.1387
 9254SOL    HW239399   3.366   1.723  11.708 -0.9151  0.2038  0.7388
 9255SOL     OW39400   1.751   4.259   8.976  0.1606  0.4346  0.3764
 9255SOL    HW139401   1.789   4.325   9.033  1.6122  0.2943 -0.3963
 9255SOL    HW239402   1.829   4.223   8.933  0.2780  0.5526  0.4885
 9256SOL     OW39403   3.762   0.706   4.151 -0.6653  0.5787 -0.4221
 9256SOL    HW139404   3.727   0.658   4.226 -1.6624  2.5073  0.3400
 9256SOL    HW239405   3.689   0.692   4.090  0.6496 -0.9689 -1.6433
 9257SOL     OW39406   3.570   4.454  10.046 -0.5720  0.0340  0.3061
 9257SOL    HW139407   3.551   4.427   9.956  1.3244  1.9420 -0.6795
 9257SOL    HW239408   3.642   4.517  10.036  0.0349 -0.9069 -1.3057
 9258SOL     OW39409   4.290   2.223   3.827 -0.1911 -0.1538  0.5298
 9258SOL    HW139410   4.332   2.215   3.912 -1.0520  3.3412  1.2584
 9258SOL    HW239411   4.272   2.131   3.807 -0.7423  0.4205 -1.6321
 9259SOL     OW39412   4.144   0.166   7.729 -0.4610  0.0477 -0.0262
 9259SOL    HW139413   4.100   0.203   7.805 -0.4734  0.7520 -0.3705
 9259SOL    HW239414   4.075   0.156   7.664  0.4988 -0.2460 -1.0034
 9260SOL     OW39415   2.699   3.356   1.884 -0.3645  0.1834  0.0638
 9260SOL    HW139416   2.679   3.294   1.955  2.2400  0.8354  1.3587
 9260SOL    HW239417   2.634   3.327   1.820 -1.1927 -0.0146  0.9825
 9261SOL     OW39418   4.083   2.842   6.241  0.2570  0.2142  0.5669
 9261SOL    HW139419   4.088   2.882   6.327  1.5081 -1.5810  1.3205
 9261SOL    HW239420   3.989   2.827   6.227  0.3469 -1.4228  1.7621
 9262SOL     OW39421   3.407   0.538   9.095  0.0564  0.5611  0.1236
 9262SOL    HW139422   3.470   0.547   9.167 -0.9794 -0.2711  1.1255
 9262SOL    HW239423   3.427   0.452   9.057  0.7789  0.3893  0.8906
 9263SOL     OW39424   0.961   1.935   6.073 -0.3615  0.0907  0.5117
 9263SOL    HW139425   1.052   1.963   6.061  0.1445 -1.2050  1.3150
 9263SOL    HW239426   0.972   1.841   6.090 -1.4637 -0.0059  0.6951
 9264SOL     OW39427   0.534   3.614   6.931 -0.7235 -0.1894 -0.1232
 9264SOL    HW139428   0.527   3.640   7.023  2.9720  0.7803 -0.1197
 9264SOL    HW239429   0.538   3.701   6.891 -1.6300  1.0183  2.3583
 9265SOL     OW39430   2.971   3.755  14.250  0.2736  0.9453 -0.1310
 9265SOL    HW139431   2.883   3.789  14.234  1.3243  2.4311 -2.7395
 9265SOL    HW239432   2.970   3.737  14.344  1.7659  0.5553 -0.1835
 9266SOL     OW39433   2.648   4.431   5.460 -0.1634 -0.3417  0.0674
 9266SOL    HW139434   2.710   4.359   5.474  0.6975  0.5466  0.9041
 9266SOL    HW239435   2.587   4.405   5.391 -1.1735 -0.8939  1.1768
 9267SOL     OW39436   0.108   0.515   5.080 -0.3844  0.7797  0.6552
 9267SOL    HW139437   0.151   0.600   5.068  0.5760  0.3770  1.2242
 9267SOL    HW239438   0.083   0.493   4.990  0.0400  1.3136  0.4068
 9268SOL     OW39439   3.342   0.110   8.869 -0.3303 -0.0115  0.2439
 9268SOL    HW139440   3.256   0.080   8.900  0.5737 -1.3690  1.4863
 9268SOL    HW239441   3.335   0.085   8.777  0.3550 -1.1874  0.5087
 9269SOL     OW39442   1.068   0.185   3.308 -0.0872  0.0321 -0.3457
 9269SOL    HW139443   1.075   0.169   3.403  0.2588  3.0605  0.1243
 9269SOL    HW239444   1.153   0.223   3.284 -0.4410  2.7395  2.7021
 9270SOL     OW39445   3.948   1.411   8.029  0.1669 -0.0065  0.4349
 9270SOL    HW139446   3.977   1.357   8.102 -2.2810  0.6573  1.9021
 9270SOL    HW239447   3.853   1.413   8.042  0.2732 -0.7660  1.3513
 9271SOL     OW39448   4.049   2.768   2.760 -0.2825  0.2282  0.1000
 9271SOL    HW139449   4.108   2.696   2.738 -1.0690  0.0124 -1.3128
 9271SOL    HW239450   3.969   2.728   2.726  0.3376 -2.3823  1.6981
 9272SOL     OW39451   3.807   4.471  17.273  0.5586  0.1348  0.2713
 9272SOL    HW139452   3.783   4.379  17.287  1.5130 -0.1468  0.0734
 9272SOL    HW239453   3.896   4.453  17.243  0.6568 -0.5919  0.9949
 9273SOL     OW39454   0.713   2.242   2.925  0.1966 -0.7463  0.3927
 9273SOL    HW139455   0.727   2.255   2.831  1.8766  0.3753  0.7979
 9273SOL    HW239456   0.632   2.291   2.939  0.5374  0.4085 -1.6473
 9274SOL     OW39457   0.401   2.577   3.502  0.0481 -0.1642  0.6790
 9274SOL    HW139458   0.362   2.510   3.446  3.1686  0.2066 -1.9257
 9274SOL    HW239459   0.495   2.556   3.504  0.9182  3.6246 -0.1511
 9275SOL     OW39460   1.647   4.234   4.211  0.0951  0.1947  0.1762
 9275SOL    HW139461   1.623   4.314   4.257 -0.9264 -0.3812  0.6612
 9275SOL    HW239462   1.689   4.258   4.129  0.1023  0.7542  0.3454
 9276SOL     OW39463   1.518   4.582   7.644  0.0298  0.3797  0.0156
 9276SOL    HW139464   1.522   4.638   7.722  2.1068  1.4303 -0.8267
 9276SOL    HW239465   1.479   4.504   7.683  0.9000  1.1386  2.4073
 9277SOL     OW39466   2.484   4.315   9.865  0.0546 -0.1680 -0.4457
 9277SOL    HW139467   2.458   4.226   9.889  0.1727  0.5427  2.2337
 9277SOL    HW239468   2.461   4.310   9.772  0.5759 -0.4889 -0.5586
 9278SOL     OW39469   1.279   4.516   3.550 -0.3719 -0.1495 -0.3548
 9278SOL    HW139470   1.302   4.559   3.633  2.5793 -1.4123 -0.5079
 9278SOL    HW239471   1.340   4.559   3.491  0.6747 -1.5387 -0.2947
 9279SOL     OW39472   1.246   0.685   8.337 -0.0035 -0.1505  0.2792
 9279SOL    HW139473   1.181   0.629   8.380 -1.0582  0.5200 -0.4402
 9279SOL    HW239474   1.324   0.668   8.390 -0.7090 -3.6825  0.1636
 9280SOL     OW39475   2.050   4.557   7.695  0.6350 -0.2022  0.4227
 9280SOL    HW139476   2.128   4.504   7.677  1.1356  0.7549 -0.2326
 9280SOL    HW239477   2.037   4.617   7.622 -0.3362 -0.0210  0.7437
 9281SOL     OW39478   2.244   2.419  12.847  0.1704  0.6786 -0.7698
 9281SOL    HW139479   2.258   2.514  12.853 -2.0882  0.7753  2.4491
 9281SOL    HW239480   2.336   2.391  12.844 -0.2137 -0.4099 -2.7689
 9282SOL     OW39481   4.285   4.434  16.010  0.7113 -0.0751  0.0252
 9282SOL    HW139482   4.310   4.526  16.024 -0.7273  0.5877 -1.7027
 9282SOL    HW239483   4.335   4.419  15.929  0.1356 -0.3702 -0.2757
 9283SOL     OW39484   0.441   0.407   7.452 -0.0788  0.6000 -0.2180
 9283SOL    HW139485   0.523   0.452   7.430  1.2622 -1.7787 -0.1101
 9283SOL    HW239486   0.400   0.483   7.495 -1.6203  0.8182 -2.0709
 9284SOL     OW39487   1.829   2.422  10.631 -0.4215  0.5301  0.0124
 9284SOL    HW139488   1.761   2.377  10.580 -0.2676  0.4235 -0.0967
 9284SOL    HW239489   1.903   2.361  10.636  0.9072  2.0922 -0.8512
 9285SOL     OW39490   3.559   1.750  13.825  0.2049  0.0155 -0.2896
 9285SOL    HW139491   3.597   1.662  13.820  0.3969  0.0192  1.0909
 9285SOL    HW239492   3.473   1.737  13.786  0.6186  0.2720 -1.2995
 9286SOL     OW39493   4.281   0.135   2.887  0.1523 -0.2577  0.2937
 9286SOL    HW139494   4.281   0.039   2.893  2.1734 -0.2869 -0.2933
 9286SOL    HW239495   4.313   0.161   2.973  0.7036  0.9694 -0.2796
 9287SOL     OW39496   1.165   4.564  13.364  0.3592 -0.3924 -0.4496
 9287SOL    HW139497   1.210   4.480  13.376 -0.0265 -0.1930  2.1840
 9287SOL    HW239498   1.224   4.632  13.393  0.5752  0.0850 -1.9908
 9288SOL     OW39499   3.422   0.812  11.743  0.3384  0.0562  0.1211
 9288SOL    HW139500   3.367   0.737  11.764 -0.3099  0.3171 -0.6192
 9288SOL    HW239501   3.495   0.769  11.699  0.5155  1.2018 -0.7317
 9289SOL     OW39502   4.690   3.148  15.855 -0.1683 -0.1823  0.0009
 9289SOL    HW139503   4.620   3.167  15.793  0.4229  1.2762 -0.2058
 9289SOL    HW239504   0.002   3.085  15.803  0.1105 -1.0338  1.2930
 9290SOL     OW39505   1.984   0.950   6.434 -0.3358  0.0861 -0.3840
 9290SOL    HW139506   1.905   1.004   6.446 -1.8572 -2.0311 -0.9190
 9290SOL    HW239507   2.004   0.951   6.340  0.2517  0.6612 -0.2541
 9291SOL     OW39508   2.758   2.875   1.948 -0.2754  0.0755 -0.4217
 9291SOL    HW139509   2.785   2.806   1.887  0.9527 -0.6537  0.9734
 9291SOL    HW239510   2.715   2.932   1.884  1.3317 -0.3213 -1.8700
 9292SOL     OW39511   0.644   3.920   6.322  0.5503  0.2572  0.1408
 9292SOL    HW139512   0.657   3.970   6.402 -0.0296 -0.6389  0.7867
 9292SOL    HW239513   0.708   3.957   6.261 -0.0866  1.3078  0.1231
 9293SOL     OW39514   1.692   3.757   7.034  0.6532  0.0437 -0.3413
 9293SOL    HW139515   1.685   3.848   7.064  0.9809 -0.8131  2.3437
 9293SOL    HW239516   1.621   3.758   6.970  0.1030  0.0873  0.2621
 9294SOL     OW39517   4.119   1.946  13.537 -0.2213 -0.3313  0.4484
 9294SOL    HW139518   4.154   1.989  13.615  1.3300  0.6198 -0.7747
 9294SOL    HW239519   4.199   1.896  13.519 -0.3364 -0.1720 -0.4974
 9295SOL     OW39520   2.788   0.819   5.675  0.2163  0.1837  0.2670
 9295SOL    HW139521   2.773   0.794   5.583  2.1517  1.2926 -0.3550
 9295SOL    HW239522   2.814   0.909   5.655 -0.2739  0.5244  1.1970
 9296SOL     OW39523   1.228   2.956   8.581 -0.0258 -0.3401 -0.2389
 9296SOL    HW139524   1.243   2.862   8.592 -1.0021 -0.7977 -2.8807
 9296SOL    HW239525   1.312   2.972   8.537  0.3349 -1.2120  0.1159
 9297SOL     OW39526   3.352   2.304   9.196 -0.0123 -0.3090  0.1113
 9297SOL    HW139527   3.389   2.232   9.246 -0.0856 -0.1938  0.3300
 9297SOL    HW239528   3.350   2.256   9.113 -2.8746 -0.5367  0.3049
 9298SOL     OW39529   2.794   2.600  17.068  0.0887 -0.4197 -0.1735
 9298SOL    HW139530   2.722   2.600  17.132 -0.2734  1.9849 -0.6024
 9298SOL    HW239531   2.752   2.621  16.985 -1.5377  2.5249  1.4095
 9299SOL     OW39532   3.337   3.949  15.425  0.1780  0.1566 -0.3457
 9299SOL    HW139533   3.291   4.010  15.482  2.0589  1.1785  0.0655
 9299SOL    HW239534   3.355   3.876  15.484  2.5539  0.9601 -0.0746
 9300SOL     OW39535   1.475   2.482   2.358  0.1927  0.1814 -0.2554
 9300SOL    HW139536   1.490   2.566   2.316  2.3037  0.7588  1.7009
 9300SOL    HW239537   1.475   2.507   2.450  1.6254 -0.9304  0.0560
 9301SOL     OW39538   4.008   2.910   8.234  0.2242  0.0123  0.1008
 9301SOL    HW139539   4.043   2.960   8.308 -1.2387 -2.0469  2.1801
 9301SOL    HW239540   3.912   2.913   8.239  0.0500 -0.5876 -2.5964
 9302SOL     OW39541   4.111   3.278   3.296  0.0104  0.0164 -0.3163
 9302SOL    HW139542   4.028   3.327   3.290 -0.7258 -1.0231  1.3992
 9302SOL    HW239543   4.074   3.190   3.306  1.0232 -0.3980 -0.2330
 9303SOL     OW39544   0.954   3.358   6.561 -0.2704 -0.4934  0.0059
 9303SOL    HW139545   1.015   3.293   6.597 -1.9573 -2.4404 -0.6741
 9303SOL    HW239546   0.956   3.418   6.635  2.6372  0.2080 -0.6564
 9304SOL     OW39547   4.317   0.411   8.836 -0.0198 -0.1444  0.5964
 9304SOL    HW139548   4.390   0.439   8.781 -0.5099 -1.5074 -0.7492
 9304SOL    HW239549   4.290   0.327   8.798 -2.0074  0.1685  1.3271
 9305SOL     OW39550   3.215   1.949   4.094  0.1908 -1.0572 -0.0355
 9305SOL    HW139551   3.257   1.924   4.177 -1.2235  0.1461  1.0373
 9305SOL    HW239552   3.286   2.002   4.057 -0.2027 -0.1922  0.4453
 9306SOL     OW39553   2.927   4.653   9.235  0.1058  0.1186  0.1400
 9306SOL    HW139554   2.865   4.718   9.267  0.5530  1.0928 -0.9418
 9306SOL    HW239555   2.987   4.656   9.310 -1.4048  0.0887  1.3345
 9307SOL     OW39556   3.381   3.256   5.415 -0.2269  0.0433 -0.1835
 9307SOL    HW139557   3.429   3.329   5.374 -3.5207  2.5188  0.3794
 9307SOL    HW239558   3.294   3.275   5.380  0.3167  0.5810 -1.2532
 9308SOL     OW39559   2.872   0.662  14.110 -0.0763 -0.4384  0.1101
 9308SOL    HW139560   2.935   0.708  14.165  0.6148  0.4446 -1.4186
 9308SOL    HW239561   2.919   0.579  14.102  0.4082 -0.3174  1.6384
 9309SOL     OW39562   2.729   0.066   3.598 -0.5248  0.5736  0.2638
 9309SOL    HW139563   2.650   0.013   3.589  0.5416 -1.2246  1.6894
 9309SOL    HW239564   2.786   0.010   3.650 -1.8260 -1.1355 -0.1713
 9310SOL     OW39565   2.871   3.590  16.250 -0.2698 -0.4922 -0.5349
 9310SOL    HW139566   2.855   3.679  16.279  0.7318 -0.6581  0.5772
 9310SOL    HW239567   2.965   3.586  16.235  0.2033  0.0258  2.1548
 9311SOL     OW39568   2.199   2.293   2.662 -0.6286  0.4434  0.2521
 9311SOL    HW139569   2.114   2.299   2.706 -0.9610 -1.3403 -0.1302
 9311SOL    HW239570   2.188   2.208   2.619 -0.0925  0.0702  0.8563
 9312SOL     OW39571   2.093   1.987   7.455  0.1785  0.0408  0.0141
 9312SOL    HW139572   2.083   1.937   7.374 -0.0130 -1.4760  0.9566
 9312SOL    HW239573   2.154   1.936   7.508 -1.4197 -1.4508  0.4287
 9313SOL     OW39574   0.700   4.615   6.558 -0.3141 -0.1341 -0.4875
 9313SOL    HW139575   0.741   4.539   6.598 -1.1483 -0.7178 -0.7588
 9313SOL    HW239576   0.776   4.674   6.547 -1.4357  1.1767 -1.2097
 9314SOL     OW39577   2.539   3.505   1.504 -0.3707 -0.5502 -0.2062
 9314SOL    HW139578   2.565   3.593   1.530  1.2349 -1.0579 -0.0296
 9314SOL    HW239579   2.537   3.508   1.409 -2.1518  0.3686 -0.1239
 9315SOL     OW39580   1.308   4.448  17.721 -0.3969 -0.2410  0.0403
 9315SOL    HW139581   1.260   4.530  17.729  1.1360  0.7109 -0.6919
 9315SOL    HW239582   1.354   4.455  17.637 -1.7436  0.5878 -0.6221
 9316SOL     OW39583   1.289   2.131   5.370  0.1959  0.1724  0.3731
 9316SOL    HW139584   1.319   2.171   5.452  1.3818 -1.3720  0.6821
 9316SOL    HW239585   1.363   2.146   5.311 -1.0462 -1.4008 -1.5728
 9317SOL     OW39586   0.298   0.597   3.941 -0.8242 -0.4932  0.1912
 9317SOL    HW139587   0.370   0.550   3.985  0.9145  0.7812 -1.2906
 9317SOL    HW239588   0.262   0.654   4.010  2.8279 -0.0697  1.7770
 9318SOL     OW39589   2.075   2.008   1.627  0.2965 -0.4896  0.3717
 9318SOL    HW139590   2.127   1.988   1.549  2.2564  1.9173  1.0379
 9318SOL    HW239591   2.083   2.103   1.625 -0.3612 -0.4433 -0.0481
 9319SOL     OW39592   2.109   2.504   7.083 -0.1011 -0.4876 -0.4034
 9319SOL    HW139593   2.195   2.471   7.110  0.3203  1.3197  0.4009
 9319SOL    HW239594   2.139   2.584   7.041  0.1555 -0.2560  0.2179
 9320SOL     OW39595   1.024   3.626  11.116  0.1066 -0.5335  0.3624
 9320SOL    HW139596   1.099   3.587  11.161  2.1806  3.2240  0.1064
 9320SOL    HW239597   1.074   3.679  11.054  2.5772 -0.6858  2.2208
 9321SOL     OW39598   1.114   1.264   2.123  0.2718 -0.0883 -0.6818
 9321SOL    HW139599   1.032   1.252   2.171  0.2649 -3.0703 -1.4738
 9321SOL    HW239600   1.134   1.180   2.083 -2.6933 -0.9278 -0.4267
 9322SOL     OW39601   4.160   1.321   6.592  0.0896 -0.4662  0.8336
 9322SOL    HW139602   4.205   1.300   6.675 -1.2707 -2.5581  1.0557
 9322SOL    HW239603   4.088   1.258   6.600  1.5982 -2.3730 -0.5522
 9323SOL     OW39604   0.671   0.070   6.932 -0.2084 -0.2632  0.2537
 9323SOL    HW139605   0.674   0.146   6.873  0.9209 -0.7714 -0.3496
 9323SOL    HW239606   0.717   0.096   7.012  0.5745  0.6868 -0.5098
 9324SOL     OW39607   0.234   2.137   2.344 -0.5745  0.4949 -0.2544
 9324SOL    HW139608   0.245   2.142   2.439 -0.5505 -2.2002 -0.1046
 9324SOL    HW239609   0.229   2.041   2.339  2.4686  0.2862  0.5538
 9325SOL     OW39610   1.931   0.017  10.805  0.1193 -0.0054 -0.1500
 9325SOL    HW139611   1.885   0.055  10.731  1.2483 -0.1659 -0.9357
 9325SOL    HW239612   2.017   0.055  10.786 -0.4136 -0.0420 -2.5666
 9326SOL     OW39613   2.174   3.786   3.140 -0.3359  0.0299  0.1247
 9326SOL    HW139614   2.113   3.759   3.071 -1.5541 -0.1297  1.2631
 9326SOL    HW239615   2.239   3.716   3.135 -0.9229 -0.5493  0.8131
 9327SOL     OW39616   4.597   1.415   3.053  0.3989  0.6339  0.1437
 9327SOL    HW139617   4.510   1.381   3.035  0.3238  0.8956  0.0151
 9327SOL    HW239618   4.647   1.349   3.005  2.1828  1.9587  0.1652
 9328SOL     OW39619   4.619   3.635   2.172 -0.3314 -0.6469  0.4999
 9328SOL    HW139620   4.663   3.706   2.125 -1.0979 -0.5081 -0.0164
 9328SOL    HW239621   4.643   3.644   2.264 -0.5403  0.1024  0.4795
 9329SOL     OW39622   3.437   1.285   8.309  0.5240 -0.3172 -0.2017
 9329SOL    HW139623   3.514   1.329   8.345  2.0776 -0.6536 -3.1346
 9329SOL    HW239624   3.470   1.195   8.316 -1.4384 -1.0638 -0.3865
 9330SOL     OW39625   4.443   3.313   5.041  0.6602  0.5553  0.1806
 9330SOL    HW139626   4.448   3.327   5.135  1.7063  0.6489  0.1105
 9330SOL    HW239627   4.531   3.281   5.021  0.6263  0.7375 -0.2824
 9331SOL     OW39628   3.944   1.667   1.797  0.3263  0.0755 -0.7046
 9331SOL    HW139629   4.027   1.715   1.804  0.9766 -1.2841  1.0403
 9331SOL    HW239630   3.994   1.604   1.745 -0.5860  0.2357 -1.7698
 9332SOL     OW39631   3.392   2.854  16.092  0.0447  0.4156 -0.4071
 9332SOL    HW139632   3.417   2.939  16.128  0.6860  0.4847 -1.0167
 9332SOL    HW239633   3.297   2.850  16.078  0.0274  0.6713 -0.3568
 9333SOL     OW39634   1.282   2.785   0.591 -0.3443 -0.2226  0.3886
 9333SOL    HW139635   1.267   2.843   0.516  0.4103  0.6609  0.9279
 9333SOL    HW239636   1.362   2.741   0.561 -0.6453 -0.1534 -0.5268
 9334SOL     OW39637   1.355   2.781   2.836 -0.6703  0.1982  0.2153
 9334SOL    HW139638   1.394   2.790   2.923  2.3962 -0.7641 -1.0731
 9334SOL    HW239639   1.265   2.764   2.862 -0.7010 -0.0909 -0.0896
 9335SOL     OW39640   1.186   1.555   2.211 -0.0959 -0.5913  0.2376
 9335SOL    HW139641   1.137   1.628   2.173  1.0818  0.1684  0.1744
 9335SOL    HW239642   1.175   1.487   2.144  1.6567 -0.3766 -0.2878
 9336SOL     OW39643   2.917   3.025   4.166  0.1951 -0.1442 -0.1613
 9336SOL    HW139644   2.930   2.931   4.177 -0.9975 -0.5562 -2.3154
 9336SOL    HW239645   2.981   3.052   4.232  0.9414  1.0765 -1.3634
 9337SOL     OW39646   4.080   1.619   5.830  0.5718  0.2516  0.5437
 9337SOL    HW139647   4.130   1.694   5.798 -1.0793  0.6674 -1.0219
 9337SOL    HW239648   3.991   1.647   5.848  0.8760  2.8808 -2.0565
 9338SOL     OW39649   3.444   2.148   3.170 -0.5196 -0.6732  0.6071
 9338SOL    HW139650   3.368   2.206   3.168  0.9085  1.1680 -0.8434
 9338SOL    HW239651   3.396   2.066   3.163 -2.7162  0.7335 -0.9194
 9339SOL     OW39652   3.916   1.154   2.840  0.9108 -0.5232 -0.4546
 9339SOL    HW139653   3.856   1.097   2.791 -0.4198  3.2102 -3.1820
 9339SOL    HW239654   3.849   1.187   2.899  2.5809  2.9904 -0.5351
 9340SOL     OW39655   3.980   3.134  17.522  0.4870 -0.0656  0.2489
 9340SOL    HW139656   4.035   3.071  17.568  4.0224  2.1273 -0.8977
 9340SOL    HW239657   4.025   3.154  17.440  0.2965  2.0620  0.6530
 9341SOL     OW39658   2.749   2.433   1.677  0.0728 -0.4675  0.4532
 9341SOL    HW139659   2.673   2.417   1.732  0.8644  0.2872  1.7503
 9341SOL    HW239660   2.758   2.345   1.640 -0.5007  0.8390 -2.8519
 9342SOL     OW39661   0.983   0.233  11.883  0.4934 -0.2327 -0.2175
 9342SOL    HW139662   0.920   0.305  11.893 -0.0375 -0.6603 -0.5008
 9342SOL    HW239663   0.987   0.195  11.971  0.1577 -1.5456 -0.7652
 9343SOL     OW39664   1.191   3.257  11.529 -0.1941 -0.2716 -0.0530
 9343SOL    HW139665   1.216   3.308  11.452  0.0355  1.1761  0.9702
 9343SOL    HW239666   1.133   3.320  11.573  0.4747  1.2023 -1.2623
 9344SOL     OW39667   1.647   1.895   6.171 -0.3852 -0.4442 -0.2791
 9344SOL    HW139668   1.632   1.848   6.089 -0.6209 -2.0864  0.7213
 9344SOL    HW239669   1.722   1.844   6.201  0.4248  0.4643 -0.7483
 9345SOL     OW39670   2.236   1.760   2.066  0.1657  0.2889 -0.5192
 9345SOL    HW139671   2.141   1.747   2.057  0.5721 -2.4272 -1.0518
 9345SOL    HW239672   2.239   1.853   2.085 -2.6699  0.2916 -0.0456
 9346SOL     OW39673   3.579   0.679   3.124  0.2738 -0.0156 -0.2298
 9346SOL    HW139674   3.597   0.596   3.080 -0.7271 -0.1399 -0.4035
 9346SOL    HW239675   3.486   0.665   3.144  0.3952  0.2363  0.5193
 9347SOL     OW39676   0.047   0.409   5.320 -0.3100  0.4204 -0.0057
 9347SOL    HW139677   0.021   0.479   5.381  1.0809 -0.8867  2.1158
 9347SOL    HW239678   0.071   0.448   5.236  2.2696  1.4480  1.2117
 9348SOL     OW39679   4.175   3.031  16.258  0.3712  0.7170  0.1661
 9348SOL    HW139680   4.269   3.030  16.237  0.3866  0.5643  0.2383
 9348SOL    HW239681   4.172   3.103  16.320 -1.0403  1.8235 -1.1913
 9349SOL     OW39682   2.864   2.649  16.485  0.7178  0.4270 -0.1124
 9349SOL    HW139683   2.775   2.675  16.462  0.2918 -0.8073  0.1543
 9349SOL    HW239684   2.849   2.555  16.498  1.9023  0.1503 -0.7596
 9350SOL     OW39685   2.326   0.288   6.717 -0.3522  0.2460 -0.5529
 9350SOL    HW139686   2.234   0.295   6.745  0.4384  2.2185  1.5499
 9350SOL    HW239687   2.324   0.360   6.654  1.5570  0.3862 -0.4494
 9351SOL     OW39688   0.395   3.191   5.164  1.0450 -0.2830  0.3893
 9351SOL    HW139689   0.352   3.250   5.103 -0.6815 -1.7094  0.2349
 9351SOL    HW239690   0.365   3.245   5.237 -2.4896 -0.9576 -0.5774
 9352SOL     OW39691   1.947   0.957  12.836 -0.2989  0.7733  0.7707
 9352SOL    HW139692   2.004   0.969  12.760 -1.5493 -0.4791 -0.3911
 9352SOL    HW239693   1.892   0.888  12.798 -1.2371  1.4367  0.9384
 9353SOL     OW39694   2.226   0.653   7.907  0.2790  0.3687  0.1828
 9353SOL    HW139695   2.281   0.580   7.878  1.7963  1.4944  0.2554
 9353SOL    HW239696   2.257   0.722   7.848  2.3878 -0.1972  0.6307
 9354SOL     OW39697   3.177   3.069   0.988 -0.2446  0.0159  0.4908
 9354SOL    HW139698   3.140   3.071   0.900 -0.1553  0.4438  0.4645
 9354SOL    HW239699   3.264   3.037   0.965 -0.5678 -0.3020 -0.2842
 9355SOL     OW39700   1.454   2.578   0.416  0.0689 -0.2835 -0.3749
 9355SOL    HW139701   1.368   2.543   0.441  0.6754 -0.0370  2.0855
 9355SOL    HW239702   1.475   2.523   0.341 -1.6456 -0.4060 -0.7556
 9356SOL     OW39703   2.595   2.288   9.290  0.4679  0.0906 -0.0363
 9356SOL    HW139704   2.515   2.323   9.329  2.6207  0.4084  4.1413
 9356SOL    HW239705   2.596   2.194   9.310 -3.1681 -0.6070 -3.2493
 9357SOL     OW39706   1.368   4.380   6.754 -0.0133 -0.2847  0.4124
 9357SOL    HW139707   1.388   4.468   6.788  0.0524 -0.8479  1.8469
 9357SOL    HW239708   1.390   4.322   6.828 -0.6747 -1.9679 -0.7170
 9358SOL     OW39709   1.454   1.474   8.414 -0.3927  0.3154 -0.2355
 9358SOL    HW139710   1.456   1.396   8.469 -0.2920 -1.3145 -2.5134
 9358SOL    HW239711   1.496   1.530   8.479 -0.2548 -1.6162  1.3392
 9359SOL     OW39712   2.915   3.943   6.500  0.1269 -0.2768  0.1622
 9359SOL    HW139713   2.984   3.959   6.435 -0.1837  0.8227  0.0943
 9359SOL    HW239714   2.872   3.876   6.447  2.5804 -1.4986 -0.3228
 9360SOL     OW39715   2.457   0.678   5.780 -0.1513  0.7423 -0.7115
 9360SOL    HW139716   2.497   0.704   5.863 -0.0330  1.1098 -0.8800
 9360SOL    HW239717   2.459   0.754   5.721  0.5469  1.7099  0.5536
 9361SOL     OW39718   3.965   3.238   8.217 -0.2254 -0.2753 -0.3473
 9361SOL    HW139719   4.049   3.271   8.185  1.0947 -1.1986  2.1759
 9361SOL    HW239720   3.986   3.194   8.300 -2.2990 -1.1833 -0.3092
 9362SOL     OW39721   1.372   0.425   2.786  0.0074 -0.2991  0.2760
 9362SOL    HW139722   1.407   0.514   2.795  1.2835 -0.7517 -0.1207
 9362SOL    HW239723   1.452   0.376   2.768 -1.4571 -2.0777 -1.4237
 9363SOL     OW39724   0.816   1.002   4.252  0.1732  0.3729  0.0132
 9363SOL    HW139725   0.729   1.017   4.289 -0.0437 -1.3467  0.1832
 9363SOL    HW239726   0.879   1.033   4.317  1.2892 -0.9139 -0.4547
 9364SOL     OW39727   4.011   0.893  11.651  0.1578  0.2442  0.1523
 9364SOL    HW139728   4.078   0.904  11.719  0.2874 -0.5919  0.1585
 9364SOL    HW239729   4.039   0.817  11.600  0.7391 -0.2372  1.1909
 9365SOL     OW39730   0.771   0.778  11.656 -0.0872  0.0756 -0.3591
 9365SOL    HW139731   0.710   0.851  11.653  0.0987  0.1821 -1.3651
 9365SOL    HW239732   0.853   0.825  11.669  0.3534 -0.9865  0.7263
 9366SOL     OW39733   1.312   2.249   8.173 -0.3752 -0.3709 -0.7404
 9366SOL    HW139734   1.328   2.330   8.223 -0.3417  0.4179 -2.0391
 9366SOL    HW239735   1.387   2.203   8.210  1.0575  1.2705 -1.5808
 9367SOL     OW39736   2.177   1.548   2.387  0.4428 -0.1467 -0.3367
 9367SOL    HW139737   2.118   1.475   2.367  0.0454  0.0275  0.1691
 9367SOL    HW239738   2.156   1.557   2.480  0.2298  1.2250 -0.5209
 9368SOL     OW39739   1.869   4.216   4.435 -0.5758  0.0390  0.5834
 9368SOL    HW139740   1.834   4.252   4.517  1.3583  1.5011  0.7744
 9368SOL    HW239741   1.790   4.198   4.384  0.7404 -0.3854 -1.2741
 9369SOL     OW39742   1.062   3.324  11.250  0.7390 -0.5517  0.1246
 9369SOL    HW139743   1.047   3.249  11.308  0.6141 -0.4074  0.2788
 9369SOL    HW239744   1.118   3.297  11.177 -0.0847  0.2961 -0.8140
 9370SOL     OW39745   3.406   2.754  16.748 -0.2933 -0.0663 -0.5277
 9370SOL    HW139746   3.384   2.742  16.656  2.0545  2.1941 -1.3973
 9370SOL    HW239747   3.430   2.666  16.777  0.5540  0.0842 -0.7814
 9371SOL     OW39748   4.313   4.054  11.903 -0.0057  0.1121 -0.5580
 9371SOL    HW139749   4.323   4.145  11.933  1.7054 -0.0615 -0.6109
 9371SOL    HW239750   4.302   4.000  11.981  2.1491  1.6765  0.8115
 9372SOL     OW39751   1.056   4.136  16.052 -0.3044  0.0055  0.3236
 9372SOL    HW139752   1.025   4.143  15.961  0.9144  0.1406 -0.0893
 9372SOL    HW239753   1.022   4.219  16.085 -0.2284  0.5306 -0.8860
 9373SOL     OW39754   0.893   1.495   8.089 -0.3380 -0.6827 -0.0991
 9373SOL    HW139755   0.854   1.427   8.144  1.5346  0.4738  2.6756
 9373SOL    HW239756   0.953   1.448   8.031 -0.1667  1.6181 -1.7924
 9374SOL     OW39757   1.758   3.661   5.367  0.2694 -0.0232  0.0684
 9374SOL    HW139758   1.775   3.603   5.293  0.7739  0.6778 -0.3685
 9374SOL    HW239759   1.800   3.608   5.435 -0.7471  0.2320  0.9017
 9375SOL     OW39760   1.249   2.436   1.060  0.0214  0.5529  0.0939
 9375SOL    HW139761   1.155   2.430   1.079 -0.1227 -2.1573 -1.5325
 9375SOL    HW239762   1.263   2.529   1.038 -1.2998  0.5538 -0.7690
 9376SOL     OW39763   4.537   1.926  10.705  0.0034 -0.2554 -0.0371
 9376SOL    HW139764   4.628   1.951  10.692 -0.9418  1.9182 -2.5431
 9376SOL    HW239765   4.527   1.894  10.616 -0.6376  1.1451 -0.4678
 9377SOL     OW39766   4.004   0.360  12.819 -0.3588  0.3155 -0.1487
 9377SOL    HW139767   3.958   0.295  12.872 -0.5472 -0.3609 -1.1416
 9377SOL    HW239768   3.945   0.436  12.820  0.3150  0.8432 -0.8600
 9378SOL     OW39769   4.119   1.951   6.068 -0.2603 -0.1935  0.3481
 9378SOL    HW139770   4.079   1.917   5.988  1.4461 -0.2086 -0.4881
 9378SOL    HW239771   4.141   2.041   6.044  0.8425 -0.4417  0.4284
 9379SOL     OW39772   1.986   4.631   0.670  0.4902  0.5777 -0.6006
 9379SOL    HW139773   2.075   4.659   0.694 -0.3553  2.2678  0.5382
 9379SOL    HW239774   1.941   4.606   0.750 -0.6743  2.0914 -0.7857
 9380SOL     OW39775   2.652   4.705  15.069  0.1887  0.5094  0.2799
 9380SOL    HW139776   2.557   4.706  15.069  0.1980  1.1372 -0.1683
 9380SOL    HW239777   2.661   4.616  15.103 -2.0214  0.6176  1.0993
 9381SOL     OW39778   3.534   2.899   7.446  0.1226 -0.0012  0.5370
 9381SOL    HW139779   3.543   2.950   7.366 -0.0390 -0.2815  0.3429
 9381SOL    HW239780   3.496   2.968   7.501 -0.7377  0.9373 -1.2542
 9382SOL     OW39781   2.799   2.399   4.440  0.4042  0.7075  0.8926
 9382SOL    HW139782   2.832   2.480   4.480  1.1025 -0.0733  1.8895
 9382SOL    HW239783   2.704   2.406   4.434  0.1829 -1.3489  1.8450
 9383SOL     OW39784   4.693   1.407  11.117  0.1121  0.6178  0.4053
 9383SOL    HW139785   0.020   1.470  11.090  1.8204 -1.0928  0.6374
 9383SOL    HW239786   0.006   1.331  11.140 -2.5016 -0.7530  1.8485
 9384SOL     OW39787   4.215   4.274   6.538  0.3494 -0.3749  0.5946
 9384SOL    HW139788   4.132   4.238   6.569  0.0019  0.9033  1.1375
 9384SOL    HW239789   4.210   4.364   6.571 -3.3835 -0.8716  1.3349
 9385SOL     OW39790   1.276   1.551  16.135 -0.6184  0.0507 -0.1886
 9385SOL    HW139791   1.257   1.583  16.223  0.8168  0.9532 -0.2064
 9385SOL    HW239792   1.232   1.615  16.078 -1.5003  0.7404  1.2844
 9386SOL     OW39793   4.161   1.042   0.489 -0.0126 -0.0467 -0.3826
 9386SOL    HW139794   4.203   1.041   0.403  2.3623 -0.2820  0.7746
 9386SOL    HW239795   4.112   0.959   0.488  0.7836 -0.4995 -1.4391
 9387SOL     OW39796   4.343   0.238  13.590 -0.2002 -0.7093 -0.1044
 9387SOL    HW139797   4.316   0.273  13.675 -1.5991  0.0668 -0.8621
 9387SOL    HW239798   4.261   0.252  13.542  0.5695  0.2614 -1.1507
 9388SOL     OW39799   2.881   2.230   5.478  0.2581  0.5920 -0.6113
 9388SOL    HW139800   2.883   2.144   5.437 -2.7420  0.1348  0.1856
 9388SOL    HW239801   2.878   2.215   5.573 -0.3001 -1.6250 -0.9806
 9389SOL     OW39802   3.216   0.518   4.582  0.6541 -0.4057 -0.1976
 9389SOL    HW139803   3.195   0.592   4.639 -0.6288 -1.3525  0.5703
 9389SOL    HW239804   3.244   0.459   4.653 -1.6124  0.1835  1.1834
 9390SOL     OW39805   4.329   0.517  10.555 -0.2084 -0.1333  0.5693
 9390SOL    HW139806   4.347   0.444  10.497  1.8585  0.3447  0.6009
 9390SOL    HW239807   4.333   0.470  10.638 -0.1541 -1.7243 -0.3525
 9391SOL     OW39808   3.822   1.996   3.583  0.5126  0.6175 -0.5077
 9391SOL    HW139809   3.873   2.072   3.555 -0.8864  1.4050 -0.9249
 9391SOL    HW239810   3.890   1.950   3.632 -0.8897 -1.6796 -0.7112
 9392SOL     OW39811   1.763   1.190  15.747  0.5952 -0.3567  0.6449
 9392SOL    HW139812   1.738   1.195  15.839 -0.7198  0.9546  0.2019
 9392SOL    HW239813   1.718   1.116  15.708  1.4097 -1.4172  1.7009
 9393SOL     OW39814   1.945   0.982   3.087 -0.3034  0.8408 -0.0226
 9393SOL    HW139815   2.022   0.926   3.098 -0.2771  0.6389 -1.2443
 9393SOL    HW239816   1.919   1.007   3.175 -1.6778 -0.3063 -0.1094
 9394SOL     OW39817   0.284   2.146   2.591 -0.5916 -0.5485 -0.2987
 9394SOL    HW139818   0.355   2.206   2.566 -0.5814 -0.2473  0.4506
 9394SOL    HW239819   0.306   2.128   2.682 -0.3356 -0.8914 -0.4318
 9395SOL     OW39820   1.418   0.991  12.041  0.0402 -0.1674  0.7187
 9395SOL    HW139821   1.417   1.058  12.109 -0.4622  0.0126  0.5313
 9395SOL    HW239822   1.385   0.911  12.083 -1.9854 -0.3784 -1.2835
 9396SOL     OW39823   1.617   4.431   4.706 -0.2781 -0.4965 -0.0440
 9396SOL    HW139824   1.566   4.382   4.642 -0.1154  0.1410 -0.6616
 9396SOL    HW239825   1.680   4.364   4.733 -2.1817 -2.2757 -0.0394
 9397SOL     OW39826   2.050   2.527   5.159  0.1099  0.4602  0.0300
 9397SOL    HW139827   1.990   2.470   5.110 -0.1419 -1.3323  2.3978
 9397SOL    HW239828   2.110   2.550   5.089  0.5815  1.0718  0.6272
 9398SOL     OW39829   4.228   3.327   8.182  0.2214  0.0492  1.1646
 9398SOL    HW139830   4.256   3.287   8.100  1.0388  2.0896  0.4415
 9398SOL    HW239831   4.283   3.282   8.246  0.1833 -1.8341 -0.1429
 9399SOL     OW39832   0.013   4.464   3.024 -0.4707 -0.1501 -0.3549
 9399SOL    HW139833   4.711   4.456   3.110 -0.9524 -0.3962 -0.6066
 9399SOL    HW239834   0.072   4.539   3.028 -1.8738  0.9441 -0.1336
 9400SOL     OW39835   1.963   0.818   1.242 -0.0430 -0.1932 -0.2144
 9400SOL    HW139836   1.889   0.761   1.264 -0.6772  0.3719 -0.8573
 9400SOL    HW239837   2.029   0.776   1.298 -1.8537  0.8718  2.7467
 9401SOL     OW39838   0.920   2.230  16.936 -0.6498  1.1525  0.0622
 9401SOL    HW139839   1.001   2.254  16.891  0.5992 -1.6797  0.8276
 9401SOL    HW239840   0.863   2.298  16.899 -2.1303 -0.0923  0.0699
 9402SOL     OW39841   3.714   2.526   7.939 -0.6685  0.2320 -0.1980
 9402SOL    HW139842   3.753   2.534   7.852  0.8718 -0.4352  0.4212
 9402SOL    HW239843   3.700   2.432   7.951 -1.4278  0.0831 -2.2632
 9403SOL     OW39844   0.644   2.823   3.121 -0.2118 -0.4656  0.4542
 9403SOL    HW139845   0.670   2.839   3.212  4.5841 -1.1773 -0.7802
 9403SOL    HW239846   0.550   2.802   3.121 -0.6640  1.5323  1.0188
 9404SOL     OW39847   2.106   4.353   6.798 -0.3194 -0.0082  0.2296
 9404SOL    HW139848   2.068   4.358   6.710  1.1801  1.5881 -0.3108
 9404SOL    HW239849   2.041   4.414   6.834  1.1005  1.8174 -0.3611
 9405SOL     OW39850   2.181   1.810   3.709 -0.1518  0.8049 -0.0488
 9405SOL    HW139851   2.108   1.752   3.687 -0.0395  0.2592  1.0033
 9405SOL    HW239852   2.178   1.889   3.655 -0.6987  0.3080 -0.7342
 9406SOL     OW39853   2.887   0.494   3.301  0.0169 -0.4875 -0.3769
 9406SOL    HW139854   2.945   0.530   3.368 -0.7251  0.9025 -0.4788
 9406SOL    HW239855   2.869   0.409   3.341  0.6788 -1.2285 -1.6548
 9407SOL     OW39856   0.276   3.037   4.537 -0.4587  1.0862  0.1695
 9407SOL    HW139857   0.275   3.119   4.586  1.9812  1.6548 -0.7222
 9407SOL    HW239858   0.181   3.028   4.529 -0.3761  0.4293 -0.0020
 9408SOL     OW39859   0.146   4.105   8.310 -0.1394 -0.3661  0.3424
 9408SOL    HW139860   0.227   4.060   8.287  0.4502 -0.2256  2.1177
 9408SOL    HW239861   0.161   4.192   8.274 -1.0258 -0.4701 -0.2737
 9409SOL     OW39862   2.041   0.262   6.754  0.2470  0.0122  0.4958
 9409SOL    HW139863   1.977   0.317   6.709  0.4721  1.0744  1.4739
 9409SOL    HW239864   1.989   0.182   6.764 -2.3678  1.4712 -1.2776
 9410SOL     OW39865   4.728   3.993   3.794  0.1664  0.3843  0.6220
 9410SOL    HW139866   4.707   4.070   3.846  1.5624  0.8096  0.5546
 9410SOL    HW239867   4.644   3.986   3.749 -0.2080  0.3462  1.3228
 9411SOL     OW39868   2.312   4.605  13.079 -0.0690 -0.8979 -0.7916
 9411SOL    HW139869   2.386   4.548  13.057 -0.3292 -1.2149 -0.8449
 9411SOL    HW239870   2.349   4.689  13.106  0.7537 -1.4308 -0.2653
 9412SOL     OW39871   0.129   4.011   2.203  0.3437  0.3260  0.1797
 9412SOL    HW139872   0.083   3.970   2.130  0.8099 -0.6142  0.4086
 9412SOL    HW239873   0.116   3.937   2.263 -2.3014 -1.6282 -2.7937
 9413SOL     OW39874   3.415   4.459   2.820 -0.0835 -0.6062  0.1864
 9413SOL    HW139875   3.390   4.425   2.906 -0.2127  0.4344  0.5714
 9413SOL    HW239876   3.330   4.468   2.776  1.1291 -0.6831 -2.1459
 9414SOL     OW39877   2.951   2.829  11.100  0.1334 -0.1796  0.6358
 9414SOL    HW139878   2.931   2.920  11.120 -0.2083 -0.1265  0.0559
 9414SOL    HW239879   3.042   2.840  11.071 -0.4590 -3.6294 -2.6198
 9415SOL     OW39880   3.058   2.414  14.515 -0.1956 -0.4097  0.1879
 9415SOL    HW139881   3.075   2.471  14.590 -0.6760  0.5414 -0.4349
 9415SOL    HW239882   2.972   2.375  14.526 -0.3879  0.8612  3.1499
 9416SOL     OW39883   4.339   2.487   2.370  0.4353  0.3618 -0.4006
 9416SOL    HW139884   4.258   2.451   2.336 -0.8981  1.5216  1.5050
 9416SOL    HW239885   4.379   2.409   2.409 -1.3299  0.7303  2.1733
 9417SOL     OW39886   0.966   3.214   8.144  0.0202  0.3581  0.3046
 9417SOL    HW139887   0.954   3.309   8.153 -0.1918  0.5105 -1.6234
 9417SOL    HW239888   0.901   3.199   8.076  0.7900  0.5225 -0.4635
 9418SOL     OW39889   3.735   3.114   7.541 -0.2834  0.0474  0.0216
 9418SOL    HW139890   3.827   3.101   7.564 -0.4023  1.6196  1.4022
 9418SOL    HW239891   3.686   3.095   7.621 -0.0595  1.3473  0.4756
 9419SOL     OW39892   2.725   1.278   2.621  0.2558 -0.0673  0.1324
 9419SOL    HW139893   2.766   1.317   2.544  0.4526  1.1219  0.8524
 9419SOL    HW239894   2.704   1.358   2.669 -0.6498 -1.2198  1.6596
 9420SOL     OW39895   3.561   2.308   4.170  0.7443  0.0588  0.4129
 9420SOL    HW139896   3.471   2.320   4.201  0.5673  1.8177 -0.7633
 9420SOL    HW239897   3.565   2.329   4.077 -0.7283  0.0827  0.3578
 9421SOL     OW39898   3.724   2.471   7.429 -0.0746  0.1435  0.6458
 9421SOL    HW139899   3.694   2.558   7.453  2.5387  1.2614 -0.1682
 9421SOL    HW239900   3.646   2.440   7.382 -0.2863 -1.3577  1.9827
 9422SOL     OW39901   3.692   1.476  13.329 -0.0199 -0.0524 -0.2688
 9422SOL    HW139902   3.645   1.550  13.367 -0.5312 -1.0100  0.9616
 9422SOL    HW239903   3.770   1.462  13.382 -0.1795 -2.8936 -0.8189
 9423SOL     OW39904   0.326   2.090   9.329 -0.1140  0.4075 -0.1588
 9423SOL    HW139905   0.395   2.037   9.369  1.1641  2.1878 -0.0379
 9423SOL    HW239906   0.319   2.046   9.244  2.6489  0.1127 -0.2124
 9424SOL     OW39907   1.511   4.262   2.470 -0.7049  0.0464  0.1789
 9424SOL    HW139908   1.555   4.178   2.478  2.2581  1.2258 -3.9948
 9424SOL    HW239909   1.442   4.251   2.404 -1.0611 -0.0399  0.5660
 9425SOL     OW39910   0.685   0.190  16.340  0.5883 -0.1981  0.4413
 9425SOL    HW139911   0.707   0.180  16.248  0.1720  1.9186  0.1079
 9425SOL    HW239912   0.700   0.103  16.378 -0.8927  0.3613  2.3291
 9426SOL     OW39913   3.944   0.113   4.534  0.5199  0.0164  0.0795
 9426SOL    HW139914   3.952   0.197   4.489 -2.1229 -0.2916 -0.9740
 9426SOL    HW239915   3.851   0.119   4.557  0.6723 -1.1401  1.0452
 9427SOL     OW39916   1.592   1.121   4.769  0.6300 -0.0839 -0.0182
 9427SOL    HW139917   1.501   1.101   4.794  0.2763  0.1900 -1.1127
 9427SOL    HW239918   1.616   1.052   4.708  3.9201  0.8178  0.2564
 9428SOL     OW39919   2.875   1.539  17.314  0.1690  0.1025  0.3068
 9428SOL    HW139920   2.887   1.454  17.356 -2.5577 -0.3461  0.2158
 9428SOL    HW239921   2.861   1.524  17.220  0.8089 -0.7246  0.3433
 9429SOL     OW39922   4.474   3.977  17.422 -0.4273  0.4686  0.2050
 9429SOL    HW139923   4.547   4.029  17.389  0.1195  1.1648  2.5670
 9429SOL    HW239924   4.402   4.039  17.428 -1.9869 -1.0924 -2.5647
 9430SOL     OW39925   3.986   1.713   0.870 -0.0267 -0.2735 -0.6073
 9430SOL    HW139926   3.894   1.720   0.846 -0.5412 -1.4655  1.0300
 9430SOL    HW239927   4.026   1.720   0.784 -0.0962 -0.5174 -0.6577
 9431SOL     OW39928   3.256   0.501   6.390 -0.1631  0.1940 -0.6218
 9431SOL    HW139929   3.311   0.450   6.449 -0.0340  1.5308  0.4175
 9431SOL    HW239930   3.169   0.481   6.425 -0.4171 -1.3736 -2.1630
 9432SOL     OW39931   0.076   2.692   3.703  0.3592  0.0706 -0.3102
 9432SOL    HW139932   0.129   2.768   3.681  0.8843 -0.8011 -2.1064
 9432SOL    HW239933   0.065   2.637   3.625  0.0886 -0.2836 -0.0242
 9433SOL     OW39934   0.407   1.433   8.027 -0.0738  0.1751 -0.0976
 9433SOL    HW139935   0.386   1.340   8.015 -0.7872  0.0800  1.8838
 9433SOL    HW239936   0.502   1.430   8.023  0.0798  2.3028  2.0062
 9434SOL     OW39937   0.016   1.691  12.048  0.2041 -0.2954  0.0118
 9434SOL    HW139938   4.725   1.782  12.050  2.7865  0.5719 -0.3877
 9434SOL    HW239939   4.694   1.650  11.987 -0.6374 -1.8815  1.9180
 9435SOL     OW39940   1.385   2.961   4.882 -0.1405  0.3872 -1.0673
 9435SOL    HW139941   1.420   3.017   4.951 -0.4220 -0.1074 -0.5204
 9435SOL    HW239942   1.454   2.970   4.816 -2.4227  1.8979 -3.2531
 9436SOL     OW39943   1.083   1.555  12.807 -0.2057  0.2911 -0.9250
 9436SOL    HW139944   1.061   1.620  12.874  0.4695  0.7231 -1.1249
 9436SOL    HW239945   1.054   1.477  12.855  2.4539 -0.2590 -0.2214
 9437SOL     OW39946   1.177   4.142   9.784 -0.4713 -0.3169 -0.0064
 9437SOL    HW139947   1.193   4.049   9.804  1.9746  0.5071  1.7777
 9437SOL    HW239948   1.251   4.164   9.727 -0.3640  0.0502  0.2728
 9438SOL     OW39949   3.469   2.339   4.469  0.7748  0.0111 -0.2044
 9438SOL    HW139950   3.467   2.429   4.502  1.4489  0.7822 -2.2757
 9438SOL    HW239951   3.396   2.349   4.407  0.3186  0.6977  0.4485
 9439SOL     OW39952   3.915   2.205  16.111 -0.3724 -0.0762  0.0875
 9439SOL    HW139953   3.824   2.191  16.084  0.1448 -3.0968 -0.1004
 9439SOL    HW239954   3.902   2.298  16.132 -0.8696 -0.0822 -0.1812
 9440SOL     OW39955   2.108   2.573   6.373  0.1408 -0.1059  0.1191
 9440SOL    HW139956   2.091   2.635   6.302  0.3392  1.7106  1.6314
 9440SOL    HW239957   2.034   2.513   6.366 -0.3953  0.8841 -2.6716
 9441SOL     OW39958   3.392   4.220   5.467  0.0966 -0.0157  0.0378
 9441SOL    HW139959   3.385   4.162   5.391 -1.9300 -1.3312  1.1906
 9441SOL    HW239960   3.484   4.220   5.492  0.2384  2.0165 -0.5060
 9442SOL     OW39961   0.431   3.593   4.945  0.5802 -0.2319 -0.6066
 9442SOL    HW139962   0.360   3.532   4.962  1.3900 -0.7659  0.8453
 9442SOL    HW239963   0.488   3.559   5.013  0.6565  0.7712 -0.1726
 9443SOL     OW39964   1.869   1.555  16.610  0.7224  0.0657  0.2297
 9443SOL    HW139965   1.906   1.484  16.558  0.1649  0.6823 -1.0343
 9443SOL    HW239966   1.890   1.635  16.562  0.4850 -0.7077 -1.1662
 9444SOL     OW39967   3.437   0.807   8.163  0.1401 -0.0451  0.8786
 9444SOL    HW139968   3.366   0.780   8.105 -0.9453 -3.6558  3.8943
 9444SOL    HW239969   3.451   0.723   8.206  2.7493 -0.9701 -1.7435
 9445SOL     OW39970   4.520   3.177  12.516 -0.3682 -0.4170  0.1995
 9445SOL    HW139971   4.512   3.147  12.426  3.3766  2.9832 -1.2493
 9445SOL    HW239972   4.613   3.197  12.523 -0.6860  1.0565  0.3716
 9446SOL     OW39973   0.572   3.883  12.147  0.1571  0.2485  0.1058
 9446SOL    HW139974   0.643   3.896  12.209 -0.9660  1.6729  1.0771
 9446SOL    HW239975   0.518   3.823  12.200  0.3934 -0.8993 -0.9467
 9447SOL     OW39976   0.372   0.169   5.627 -0.6361 -0.0155  0.0849
 9447SOL    HW139977   0.279   0.193   5.637 -0.4424  1.4251 -1.5222
 9447SOL    HW239978   0.400   0.256   5.597  0.2407  1.0024  3.8553
 9448SOL     OW39979   1.700   2.820  10.990 -0.6035  0.0008  0.1598
 9448SOL    HW139980   1.786   2.793  10.958 -1.7306 -0.1147 -2.7964
 9448SOL    HW239981   1.654   2.890  10.943 -1.1651  0.3400  1.2203
 9449SOL     OW39982   3.928   2.010   1.658  0.0863 -0.0074  0.0677
 9449SOL    HW139983   3.884   1.973   1.581  1.2856 -2.9228  0.7860
 9449SOL    HW239984   3.956   2.096   1.626  0.6290  0.2024  1.1291
 9450SOL     OW39985   3.586   1.531   6.215 -0.2584 -0.0405 -0.1629
 9450SOL    HW139986   3.660   1.545   6.274 -0.3165 -1.0483  0.1487
 9450SOL    HW239987   3.645   1.479   6.161 -2.4535 -1.0633 -1.5736
 9451SOL     OW39988   4.398   4.605   6.781  0.3760 -0.1753 -0.1845
 9451SOL    HW139989   4.450   4.600   6.700 -0.5730  1.7801 -0.9174
 9451SOL    HW239990   4.423   4.527   6.830 -3.4962 -1.5544 -0.4103
 9452SOL     OW39991   3.053   1.291  17.075 -0.1380  0.2145  0.0900
 9452SOL    HW139992   3.145   1.284  17.101  0.2842  0.4074 -1.3193
 9452SOL    HW239993   3.002   1.276  17.154 -0.8256  0.3216 -0.3325
 9453SOL     OW39994   1.318   4.214   3.530 -0.2365  0.0144 -0.1729
 9453SOL    HW139995   1.304   4.305   3.502  1.0389  0.5042  0.7929
 9453SOL    HW239996   1.286   4.167   3.453  0.4397  1.2086 -1.2109
 9454SOL     OW39997   3.258   2.949   8.241  0.1931 -0.5624 -0.5792
 9454SOL    HW139998   3.166   2.934   8.264 -0.5280 -0.6728 -3.5988
 9454SOL    HW239999   3.258   3.044   8.248 -2.2917 -0.5836 -0.2859
 9455SOL     OW40000   2.502   4.593   2.161 -0.0399  0.5540 -0.6266
 9455SOL    HW140001   2.582   4.563   2.204 -1.6708 -0.1279  1.9425
 9455SOL    HW240002   2.489   4.524   2.095  0.0119 -0.3550  0.3072
 9456SOL     OW40003   1.200   4.407   4.052 -0.5867  0.0390  0.0496
 9456SOL    HW140004   1.166   4.318   4.049 -0.4427  0.0602 -2.4814
 9456SOL    HW240005   1.295   4.392   4.058 -0.4572  1.0005  0.3592
 9457SOL     OW40006   0.812   3.839  12.921  0.1238  0.0558  0.1346
 9457SOL    HW140007   0.847   3.766  12.972 -0.7063  0.3438  1.1163
 9457SOL    HW240008   0.863   3.910  12.960  0.5618  0.6687 -1.5322
 9458SOL     OW40009   2.627   4.376   3.579  0.3392 -0.0561  0.0632
 9458SOL    HW140010   2.660   4.292   3.547 -1.5434 -0.5389 -0.6442
 9458SOL    HW240011   2.550   4.351   3.630 -1.0677  2.1889 -0.9704
 9459SOL     OW40012   1.499   0.210   3.553 -0.3585 -0.2144 -0.3261
 9459SOL    HW140013   1.454   0.130   3.524 -2.8814  0.6810  1.1649
 9459SOL    HW240014   1.537   0.189   3.638 -2.6598 -2.5536  0.1325
 9460SOL     OW40015   3.219   4.602   8.366 -0.0813  0.0535  0.1302
 9460SOL    HW140016   3.162   4.555   8.304  1.8889 -2.0394 -0.0908
 9460SOL    HW240017   3.275   4.532   8.398  0.9430 -0.2006 -2.2117
 9461SOL     OW40018   2.324   1.722   4.110 -0.0119  0.4612  0.5658
 9461SOL    HW140019   2.319   1.712   4.205  0.7087  1.2551  0.6853
 9461SOL    HW240020   2.409   1.766   4.102  0.6723 -0.8976  0.3202
 9462SOL     OW40021   1.658   3.826   4.502 -0.2501 -0.5300  0.4669
 9462SOL    HW140022   1.563   3.822   4.512 -0.5930  1.8117 -1.6676
 9462SOL    HW240023   1.660   3.829   4.406  1.3053 -0.3160  0.5067
 9463SOL     OW40024   3.045   4.142   2.033  0.2087  0.1243  0.2045
 9463SOL    HW140025   3.053   4.153   2.128 -0.8766  0.1497  0.2831
 9463SOL    HW240026   2.969   4.195   2.014  0.4070 -0.2068 -1.5215
 9464SOL     OW40027   4.374   2.984   1.314 -0.6447  0.4922  0.0036
 9464SOL    HW140028   4.366   2.969   1.408 -0.5486  0.9725  0.0907
 9464SOL    HW240029   4.390   2.895   1.284  2.3914  0.6352  1.2174
 9465SOL     OW40030   4.184   3.249   2.313 -0.1117  0.1588 -0.5244
 9465SOL    HW140031   4.138   3.331   2.295 -2.4613 -0.6729  1.6969
 9465SOL    HW240032   4.236   3.272   2.389 -0.2166  0.1169 -0.4400
 9466SOL     OW40033   0.425   0.555   5.707  0.7129  0.1586  0.0805
 9466SOL    HW140034   0.367   0.497   5.755  1.3539 -0.4403  0.1237
 9466SOL    HW240035   0.509   0.509   5.712  0.4750 -0.0398  2.0666
 9467SOL     OW40036   1.848   2.323   7.215 -0.7135  0.0471 -0.4292
 9467SOL    HW140037   1.919   2.259   7.218 -0.8823 -0.1475 -0.6030
 9467SOL    HW240038   1.802   2.282   7.288 -1.8295 -1.2050 -1.8363
 9468SOL     OW40039   3.579   3.748  12.298  0.0262  0.7587 -0.1682
 9468SOL    HW140040   3.614   3.820  12.351  0.0339  0.0971  0.7233
 9468SOL    HW240041   3.484   3.763  12.305  0.2949  2.0187  0.7622
 9469SOL     OW40042   3.261   4.473   3.066  0.0176  0.1026 -0.4113
 9469SOL    HW140043   3.241   4.379   3.057  1.4932 -0.3086  0.6097
 9469SOL    HW240044   3.171   4.494   3.093  0.9122  0.1012  2.6092
 9470SOL     OW40045   0.157   3.015   6.952  0.1127  0.1073 -1.0982
 9470SOL    HW140046   0.069   3.017   6.915 -0.3971 -0.5879  0.0780
 9470SOL    HW240047   0.207   3.096   6.936 -0.8069  0.4343 -2.2442
 9471SOL     OW40048   0.752   1.306   0.849 -0.5628  0.5600  0.5883
 9471SOL    HW140049   0.672   1.302   0.796  1.1189  0.3258 -1.9734
 9471SOL    HW240050   0.760   1.395   0.881  2.3966  0.5261 -0.0533
 9472SOL     OW40051   4.677   0.424   6.430  0.4223  0.1190  0.2892
 9472SOL    HW140052   4.590   0.383   6.423  2.4383 -4.1721 -0.0417
 9472SOL    HW240053   0.001   0.354   6.447 -2.1560 -2.8778 -2.2645
 9473SOL     OW40054   1.865   0.197   2.326 -0.6207  0.0632 -0.4122
 9473SOL    HW140055   1.794   0.138   2.302  0.6929 -1.5338 -0.3773
 9473SOL    HW240056   1.827   0.261   2.386  0.6985  0.7084 -0.2654
 9474SOL     OW40057   0.330   1.966   2.807 -0.2713  0.0273 -0.1507
 9474SOL    HW140058   0.360   1.876   2.795 -0.1867  0.0697 -0.2557
 9474SOL    HW240059   0.271   1.960   2.883 -0.3708  0.5999 -0.1816
 9475SOL     OW40060   1.592   4.003   2.471 -0.7767  0.0897  0.4561
 9475SOL    HW140061   1.617   4.012   2.379 -0.5649 -3.5328  0.1785
 9475SOL    HW240062   1.677   3.979   2.507 -0.5701  1.5780  0.9831
 9476SOL     OW40063   0.789   1.338  15.055  0.0986  0.5064  0.6781
 9476SOL    HW140064   0.728   1.266  15.068 -0.0270  0.5814  0.5065
 9476SOL    HW240065   0.801   1.348  14.960  0.9144 -0.7943  0.6481
 9477SOL     OW40066   2.072   4.479  10.833  0.1773 -0.8363  0.0145
 9477SOL    HW140067   2.050   4.507  10.744  1.8704 -1.4482 -0.5933
 9477SOL    HW240068   2.107   4.390  10.823  0.9285 -0.3102 -1.8921
 9478SOL     OW40069   0.218   3.356   5.036 -0.5071  1.0300  0.0631
 9478SOL    HW140070   0.197   3.424   5.099  0.4650  1.0056  0.4129
 9478SOL    HW240071   0.155   3.383   4.970 -1.5238  0.8828  0.9738
 9479SOL     OW40072   4.531   4.565   3.653 -0.3288 -0.1422 -0.1495
 9479SOL    HW140073   4.546   4.489   3.710 -0.6155  1.1819  1.6851
 9479SOL    HW240074   4.607   4.620   3.670 -0.5315 -0.4653  1.7435
 9480SOL     OW40075   3.242   2.175   6.454  0.1719  0.3098  0.4633
 9480SOL    HW140076   3.310   2.165   6.521  0.3677 -0.3775  0.1630
 9480SOL    HW240077   3.278   2.248   6.405  0.4274 -1.3456 -1.7889
 9481SOL     OW40078   0.541   3.122   8.187  0.1451  0.0343 -0.1650
 9481SOL    HW140079   0.467   3.061   8.193 -1.7733  2.3506 -0.2594
 9481SOL    HW240080   0.597   3.063   8.136 -0.7611 -2.2650  1.4502
 9482SOL     OW40081   0.102   2.362   5.930  0.0226 -0.2971 -0.4533
 9482SOL    HW140082   0.181   2.411   5.956 -0.7766  0.8409 -0.1756
 9482SOL    HW240083   0.057   2.351   6.013  2.8675  0.5153  1.2116
 9483SOL     OW40084   1.078   4.239   5.046 -0.1196 -0.2357 -0.4131
 9483SOL    HW140085   1.118   4.173   5.103 -1.4752 -0.8244 -0.1389
 9483SOL    HW240086   1.024   4.192   4.982 -2.5895  0.7974  0.8995
 9484SOL     OW40087   1.327   3.530   8.437  0.3690  0.8585  0.1169
 9484SOL    HW140088   1.329   3.555   8.530  0.3360 -0.7652  0.5544
 9484SOL    HW240089   1.291   3.443   8.450  0.0950  0.6600 -2.1260
 9485SOL     OW40090   2.050   0.901   7.515  0.1432  0.6488 -0.1073
 9485SOL    HW140091   2.073   0.973   7.456 -0.2202  0.4152 -0.5309
 9485SOL    HW240092   2.136   0.885   7.554  0.9105  0.6063 -1.8427
 9486SOL     OW40093   1.789   4.154  13.542  0.2190 -0.0454  0.8284
 9486SOL    HW140094   1.850   4.163  13.469 -0.2307  2.2351  0.7118
 9486SOL    HW240095   1.825   4.222  13.599 -2.4003  2.6164 -0.6989
 9487SOL     OW40096   1.394   4.716   3.369 -0.3191 -0.0991 -0.3575
 9487SOL    HW140097   1.330   4.698   3.300  0.5804  0.5573 -1.3726
 9487SOL    HW240098   1.474   4.680   3.329  0.4383  1.1336  0.0441
 9488SOL     OW40099   1.008   0.153   5.271 -0.0322  0.2080  0.0923
 9488SOL    HW140100   0.925   0.107   5.262 -0.2658  0.8409 -0.9624
 9488SOL    HW240101   1.022   0.155   5.366  0.7054  0.6048 -0.0239
 9489SOL     OW40102   2.933   4.637   8.151 -0.0541  0.2629 -0.1243
 9489SOL    HW140103   2.871   4.613   8.221  1.1500 -0.1589  0.8061
 9489SOL    HW240104   2.966   4.722   8.177 -1.1016  0.1673  1.5360
 9490SOL     OW40105   4.108   1.614   7.723  0.5367  0.3560  0.0526
 9490SOL    HW140106   4.139   1.667   7.796  0.5102  2.2989 -1.3242
 9490SOL    HW240107   4.153   1.663   7.654  1.7594 -2.2227 -1.0035
 9491SOL     OW40108   1.823   1.846   7.423  0.7141  0.2510 -0.0655
 9491SOL    HW140109   1.905   1.893   7.433  0.6821  0.7247 -1.9724
 9491SOL    HW240110   1.825   1.765   7.474  0.5926  0.3311  0.0645
 9492SOL     OW40111   2.533   2.541   6.909 -0.2891  0.1134  0.1003
 9492SOL    HW140112   2.482   2.477   6.858 -0.5913  1.1952 -0.9660
 9492SOL    HW240113   2.478   2.524   6.986  0.3587  2.0083  0.9832
 9493SOL     OW40114   1.561   0.620   6.466  0.2324  0.2841  0.4819
 9493SOL    HW140115   1.488   0.584   6.516 -0.0594  0.4368  0.1648
 9493SOL    HW240116   1.543   0.588   6.378  0.5269  0.6580  0.2877
 9494SOL     OW40117   3.559   4.652  16.853 -0.2322 -0.2021 -0.2116
 9494SOL    HW140118   3.580   4.559  16.863 -1.0292 -0.1661  1.7007
 9494SOL    HW240119   3.613   4.694  16.919  1.1420  0.3060 -1.6638
 9495SOL     OW40120   2.854   0.757   5.964 -0.5919  0.1094 -0.0684
 9495SOL    HW140121   2.836   0.766   5.870  0.4366 -1.1401 -0.3973
 9495SOL    HW240122   2.853   0.661   5.962 -1.3861  0.1491 -1.6166
 9496SOL     OW40123   2.727   0.869  16.781  0.2642 -0.1012 -0.0100
 9496SOL    HW140124   2.811   0.910  16.803 -0.7803  1.1390  1.6037
 9496SOL    HW240125   2.738   0.791  16.836  0.0328  0.7045  1.1655
 9497SOL     OW40126   1.936   1.660   5.966 -0.4659 -0.1728  0.3916
 9497SOL    HW140127   1.874   1.636   5.897 -1.2035 -0.6327  1.2163
 9497SOL    HW240128   1.903   1.592   6.025  1.0244  0.3989  1.8856
 9498SOL     OW40129   3.356   2.503   5.028  0.0112  0.1737  0.5406
 9498SOL    HW140130   3.303   2.463   4.959  2.4804  0.5692 -1.5887
 9498SOL    HW240131   3.440   2.466   5.004  0.2347  1.3082 -0.4143
 9499SOL     OW40132   4.323   1.599   8.181  0.3631  0.5510 -0.4010
 9499SOL    HW140133   4.408   1.583   8.139  0.1890 -0.6575 -0.2997
 9499SOL    HW240134   4.291   1.521   8.226 -1.3778  1.8615  0.6041
 9500SOL     OW40135   2.971   3.002  14.664  0.0437  0.2296  0.1446
 9500SOL    HW140136   2.926   2.920  14.644  1.2811 -0.9492  2.2178
 9500SOL    HW240137   3.062   2.975  14.660 -0.1821 -0.3716 -0.8228
 9501SOL     OW40138   3.281   3.547   2.194  0.0048  0.0759 -0.5394
 9501SOL    HW140139   3.240   3.626   2.159 -0.2331  0.6372  0.9953
 9501SOL    HW240140   3.368   3.583   2.214 -0.2214 -0.3462  1.2650
 9502SOL     OW40141   1.768   0.311   6.332  0.4781  0.2489  0.3830
 9502SOL    HW140142   1.692   0.309   6.274  2.4959 -2.6554 -2.1413
 9502SOL    HW240143   1.818   0.384   6.296 -0.8900  2.2267  2.5079
 9503SOL     OW40144   0.806   2.895   1.384 -0.2420 -0.0147  0.0467
 9503SOL    HW140145   0.797   2.984   1.351 -1.1494 -0.5293 -1.0856
 9503SOL    HW240146   0.808   2.923   1.476 -1.9354 -0.2640  0.1451
 9504SOL     OW40147   2.738   3.714   2.894  0.2601 -0.2612 -0.0019
 9504SOL    HW140148   2.666   3.767   2.929  0.5426  0.3517 -0.3552
 9504SOL    HW240149   2.686   3.635   2.881  0.4172 -0.1152 -1.4878
 9505SOL     OW40150   4.007   1.525   2.359  0.1902 -0.6193 -0.1130
 9505SOL    HW140151   4.100   1.545   2.366 -0.2666  0.8681  1.6086
 9505SOL    HW240152   4.002   1.430   2.356 -0.7191 -0.6358  1.8614
 9506SOL     OW40153   1.150   1.946   6.422 -0.0002 -0.4903 -0.3924
 9506SOL    HW140154   1.222   1.897   6.382 -0.0628 -0.4177 -0.5944
 9506SOL    HW240155   1.126   1.881   6.488  0.8368 -0.4963 -0.0981
 9507SOL     OW40156   2.772   1.766  10.246 -0.5495  0.0295 -0.0383
 9507SOL    HW140157   2.808   1.850  10.274 -1.6376  0.7694 -0.8454
 9507SOL    HW240158   2.689   1.763  10.294 -1.8399  0.8107 -2.1955
 9508SOL     OW40159   0.068   1.694   6.903  0.5922 -0.7650 -1.0578
 9508SOL    HW140160   0.116   1.656   6.977 -0.9075  0.0900  0.3287
 9508SOL    HW240161   4.732   1.732   6.948  2.1028  0.5206  0.3719
 9509SOL     OW40162   2.630   1.969   5.632  0.5855  0.1921 -0.1531
 9509SOL    HW140163   2.714   1.979   5.587  0.3678 -0.9009 -0.8008
 9509SOL    HW240164   2.641   1.879   5.662  1.8212  0.2419 -0.4871
 9510SOL     OW40165   2.742   2.928   4.776 -0.4772 -0.1229  0.2268
 9510SOL    HW140166   2.807   2.966   4.716 -0.3662  0.3550  0.6503
 9510SOL    HW240167   2.700   3.004   4.815  0.7571  0.9026 -0.4400
 9511SOL     OW40168   1.649   4.039   2.176 -0.1864 -0.3160 -0.0175
 9511SOL    HW140169   1.642   4.117   2.121  2.1301  1.5748  2.3448
 9511SOL    HW240170   1.569   3.991   2.158 -0.2277  0.5271 -2.0658
 9512SOL     OW40171   1.577   0.452   0.927 -0.3963  0.4974 -0.1569
 9512SOL    HW140172   1.487   0.432   0.901 -0.3031 -0.3216  0.1352
 9512SOL    HW240173   1.589   0.386   0.995  0.4244  0.0145 -0.7699
 9513SOL     OW40174   4.569   3.574   9.090  0.2368  0.4063  0.1592
 9513SOL    HW140175   4.538   3.629   9.162  1.1081  0.3573  0.5815
 9513SOL    HW240176   4.574   3.643   9.024 -2.8262 -0.3343 -0.8237
 9514SOL     OW40177   3.950   4.180  16.540  0.1932  0.1236 -0.6126
 9514SOL    HW140178   3.991   4.167  16.454  0.2424 -1.0799 -0.4163
 9514SOL    HW240179   3.863   4.143  16.523 -0.1910 -0.6225  2.9900
 9515SOL     OW40180   1.616   2.690   5.040  0.4744  0.3187  0.2144
 9515SOL    HW140181   1.690   2.747   5.060  1.9873 -2.5627  2.7581
 9515SOL    HW240182   1.614   2.648   5.126 -0.8456  2.9211  1.4585
 9516SOL     OW40183   3.887   0.526   2.829  0.5280 -0.0238  0.1402
 9516SOL    HW140184   3.822   0.466   2.865  0.5787 -0.8712 -1.2055
 9516SOL    HW240185   3.942   0.463   2.782  0.9379  0.9934 -0.7611
 9517SOL     OW40186   3.653   2.761   9.909  0.1330  0.1722 -0.1270
 9517SOL    HW140187   3.595   2.822   9.954 -1.1641  0.9643 -2.8497
 9517SOL    HW240188   3.634   2.774   9.816  1.5918 -0.0497 -0.4487
 9518SOL     OW40189   3.632   2.395   7.042  0.0015  0.4549  0.0430
 9518SOL    HW140190   3.581   2.469   7.075  0.7282  2.2228 -2.7709
 9518SOL    HW240191   3.577   2.380   6.966  0.5198 -0.0820 -0.2260
 9519SOL     OW40192   4.126   4.666   4.651  0.1948  0.7027  0.2019
 9519SOL    HW140193   4.068   4.730   4.608  2.0717  1.9946 -0.3719
 9519SOL    HW240194   4.206   4.713   4.671  1.3170 -1.0510 -0.2234
 9520SOL     OW40195   2.444   3.351   8.277 -0.0446  0.1226  0.2482
 9520SOL    HW140196   2.385   3.381   8.346 -0.3417  1.3238 -0.5460
 9520SOL    HW240197   2.473   3.432   8.236 -1.0387 -0.3185 -1.3196
 9521SOL     OW40198   2.706   0.164   5.945 -0.3212 -0.1885 -0.0796
 9521SOL    HW140199   2.711   0.166   5.849 -3.7321 -0.1497 -0.2435
 9521SOL    HW240200   2.798   0.147   5.963  0.4134  0.7152 -3.0078
 9522SOL     OW40201   0.292   2.392   7.435 -0.5080 -0.3225  0.3292
 9522SOL    HW140202   0.206   2.353   7.451 -0.8844  0.9353  1.3441
 9522SOL    HW240203   0.292   2.385   7.339  0.7112  0.6765  0.2529
 9523SOL     OW40204   0.837   4.489   2.809 -0.5466  0.2976 -0.0503
 9523SOL    HW140205   0.924   4.449   2.810 -0.7961 -0.2888 -2.1447
 9523SOL    HW240206   0.808   4.479   2.718  2.1057 -0.3485 -0.8190
 9524SOL     OW40207   0.292   2.403   5.450  0.2847  0.3187 -0.5523
 9524SOL    HW140208   0.364   2.374   5.394 -0.4331 -2.3101 -0.1438
 9524SOL    HW240209   0.285   2.333   5.515 -0.5046  0.7810 -0.1472
 9525SOL     OW40210   4.220   3.548   3.949 -0.3182  0.2580 -0.4545
 9525SOL    HW140211   4.145   3.606   3.962 -1.7741 -1.7568  0.1657
 9525SOL    HW240212   4.205   3.485   4.019  0.3257  0.1784 -0.3837
 9526SOL     OW40213   1.901   2.396   6.964  0.3740 -0.3391  0.2318
 9526SOL    HW140214   1.863   2.334   7.027  3.0413 -1.1995  0.9966
 9526SOL    HW240215   1.978   2.432   7.006 -0.2870  2.5700 -1.0910
 9527SOL     OW40216   2.494   0.754   6.059  0.4601 -0.0915  0.4731
 9527SOL    HW140217   2.433   0.826   6.049  2.0181  1.1254 -0.3084
 9527SOL    HW240218   2.553   0.774   6.132  0.4794  2.3075 -0.1926
 9528SOL     OW40219   3.839   0.032  13.368 -0.1943 -0.0561 -0.2461
 9528SOL    HW140220   3.931   0.011  13.382  0.0903  0.2108 -1.7654
 9528SOL    HW240221   3.810   0.023  13.459  1.0871 -0.5450  0.1112
 9529SOL     OW40222   3.780   4.671  13.647  0.5003 -0.0219 -0.1537
 9529SOL    HW140223   3.714   4.602  13.652 -0.4039  0.9473  1.2611
 9529SOL    HW240224   3.770   4.707  13.735 -1.3695  0.0727 -0.4168
 9530SOL     OW40225   1.097   4.427   1.757  0.1660 -0.2732  0.4962
 9530SOL    HW140226   1.036   4.393   1.692 -0.6287 -0.1816  1.1861
 9530SOL    HW240227   1.044   4.503   1.781 -1.5073 -0.6920 -1.9892
 9531SOL     OW40228   0.319   0.924   1.123 -0.1837  0.3971 -0.0823
 9531SOL    HW140229   0.279   1.010   1.136 -0.7478 -0.2807  2.7231
 9531SOL    HW240230   0.342   0.902   1.213 -0.0661 -0.4988 -0.3394
 9532SOL     OW40231   0.375   2.996  12.403  0.3672 -0.4468  0.1009
 9532SOL    HW140232   0.401   3.067  12.344  1.0386  0.3254  1.3085
 9532SOL    HW240233   0.396   2.925  12.342 -1.0402 -0.7511 -0.0305
 9533SOL     OW40234   3.560   0.091  11.360 -0.0613  0.3196  0.2854
 9533SOL    HW140235   3.648   0.128  11.363 -0.0110  0.4230 -2.4884
 9533SOL    HW240236   3.559   0.037  11.439 -1.5520 -1.4589 -0.9643
 9534SOL     OW40237   4.155   2.860   2.477 -0.1656  0.1643 -0.1059
 9534SOL    HW140238   4.100   2.812   2.416  0.3672  0.1147 -0.5480
 9534SOL    HW240239   4.098   2.934   2.496 -1.3115  0.0467 -3.0648
 9535SOL     OW40240   1.940   4.688   5.401  0.3344  0.3077 -0.0795
 9535SOL    HW140241   1.976   0.028   5.441  0.9466 -0.0340  0.0455
 9535SOL    HW240242   1.888   4.650   5.471  0.9954 -1.4384 -0.5328
 9536SOL     OW40243   0.494   0.066   4.515 -0.0631  0.0114  0.5007
 9536SOL    HW140244   0.568   0.044   4.458  1.5526  1.1454  2.1308
 9536SOL    HW240245   0.546   0.120   4.575 -0.2813  0.1165  0.5938
 9537SOL     OW40246   0.266   2.977   0.506 -0.0396  0.1243  0.5295
 9537SOL    HW140247   0.236   2.981   0.416  0.7141 -0.5774  0.2457
 9537SOL    HW240248   0.353   2.941   0.492  0.5171  0.7305  2.3935
 9538SOL     OW40249   4.087   0.247   0.005  0.0876  0.1572  0.3608
 9538SOL    HW140250   4.064   0.235   0.097 -0.4132 -0.2384  0.1859
 9538SOL    HW240251   4.131   0.164  17.740  1.1203  0.4575  1.4570
 9539SOL     OW40252   1.982   1.341   5.903  0.1006 -0.2357  0.0316
 9539SOL    HW140253   2.032   1.312   5.827 -2.5905 -0.1448 -1.7826
 9539SOL    HW240254   2.049   1.343   5.971 -0.3392  2.3232  0.3759
 9540SOL     OW40255   4.642   2.513  17.250  0.0166 -0.3818 -0.4909
 9540SOL    HW140256   4.666   2.511  17.158  0.9997 -0.9522 -0.2204
 9540SOL    HW240257   4.578   2.584  17.257  0.9899  0.4899 -0.5980
 9541SOL     OW40258   1.620   3.134   2.041 -0.2197 -0.2779 -0.2526
 9541SOL    HW140259   1.695   3.094   2.084  0.4259  1.4957  0.2826
 9541SOL    HW240260   1.550   3.121   2.106 -1.0339  0.1227 -1.0464
 9542SOL     OW40261   1.451   3.294   1.535 -0.2188 -0.2563 -0.1406
 9542SOL    HW140262   1.387   3.246   1.483 -1.1460 -0.8574  1.5214
 9542SOL    HW240263   1.397   3.367   1.566  0.4203  1.2519 -2.6357
 9543SOL     OW40264   2.463   1.039   6.765 -0.6398  0.0999  0.1649
 9543SOL    HW140265   2.404   0.969   6.794  0.7416 -1.7406 -1.5342
 9543SOL    HW240266   2.540   0.989   6.792 -0.2793 -0.6724 -2.3381
 9544SOL     OW40267   0.160   4.147   5.458 -0.7000 -0.3034  0.7629
 9544SOL    HW140268   0.242   4.107   5.428  0.0905  1.4945  0.5098
 9544SOL    HW240269   0.148   4.208   5.385  0.7732 -0.9674 -0.0348
 9545SOL     OW40270   2.919   4.145  15.404  0.1012 -1.0767 -0.1430
 9545SOL    HW140271   2.878   4.200  15.470 -1.5357 -0.2365 -1.8624
 9545SOL    HW240272   2.846   4.142  15.342 -1.0464  0.4442  1.1394
 9546SOL     OW40273   1.635   4.132   1.383 -0.1709  0.3464 -0.1804
 9546SOL    HW140274   1.613   4.065   1.319  2.5749 -0.6831 -0.0305
 9546SOL    HW240275   1.609   4.092   1.466 -1.1992  0.3563 -0.4986
 9547SOL     OW40276   4.369   0.897   8.401  0.0808 -0.2977  0.3602
 9547SOL    HW140277   4.451   0.902   8.451 -0.6499  0.2733  1.4852
 9547SOL    HW240278   4.407   0.954   8.333  0.8557 -0.7977  0.3753
 9548SOL     OW40279   4.705   4.331   5.762 -0.1817 -0.4059 -0.0169
 9548SOL    HW140280   4.636   4.396   5.766  0.6871  0.5111  0.1482
 9548SOL    HW240281   0.036   4.390   5.733  0.5819 -0.6479  1.3233
 9549SOL     OW40282   4.676   3.410  15.045 -0.3543  0.0688 -0.0491
 9549SOL    HW140283   0.030   3.424  15.024 -0.1347 -0.9130  0.2640
 9549SOL    HW240284   4.645   3.499  15.060 -0.1097  0.3819 -1.4212
 9550SOL     OW40285   0.006   3.338  16.323 -0.4034 -0.5817 -0.3720
 9550SOL    HW140286   4.705   3.353  16.409  0.0140 -1.4029 -0.0310
 9550SOL    HW240287   4.665   3.343  16.271 -1.6700  0.7614  1.6953
 9551SOL     OW40288   1.605   2.733   8.494 -0.1505 -0.1909  0.4332
 9551SOL    HW140289   1.665   2.663   8.519  0.7154  0.3706 -0.0977
 9551SOL    HW240290   1.640   2.744   8.405  0.5501  0.5712  0.8122
 9552SOL     OW40291   2.140   1.620   0.528  0.0121 -0.5426 -0.1976
 9552SOL    HW140292   2.154   1.591   0.438  0.2965  0.2990 -0.4251
 9552SOL    HW240293   2.058   1.668   0.515  1.2355  2.1168  1.9875
 9553SOL     OW40294   4.150   4.393   6.856 -0.2359 -0.0305  0.0627
 9553SOL    HW140295   4.139   4.439   6.939  0.2062 -0.3282  0.2881
 9553SOL    HW240296   4.244   4.376   6.862 -0.0474  1.4610  1.1889
 9554SOL     OW40297   4.140   0.879   5.103 -0.0138 -0.8087 -0.0429
 9554SOL    HW140298   4.128   0.794   5.061 -0.5796 -0.4166 -0.6870
 9554SOL    HW240299   4.062   0.917   5.061 -1.9697 -0.5221  3.8226
 9555SOL     OW40300   4.587   2.947   5.170  0.1123 -0.5365  0.2470
 9555SOL    HW140301   4.531   2.958   5.093 -0.8587  0.3540  1.0866
 9555SOL    HW240302   4.670   2.985   5.139  0.5753 -0.3211  1.7893
 9556SOL     OW40303   4.389   2.537   3.792 -0.3233 -0.2341 -0.2333
 9556SOL    HW140304   4.315   2.477   3.804 -0.4352 -0.0457  0.0164
 9556SOL    HW240305   4.357   2.609   3.845  1.2805 -0.0310  0.4648
 9557SOL     OW40306   0.858   1.461   3.589 -0.4146 -0.2270  0.3807
 9557SOL    HW140307   0.925   1.529   3.601 -1.1366  0.6531 -0.5741
 9557SOL    HW240308   0.917   1.389   3.611 -1.3560 -1.0082  0.3564
 9558SOL     OW40309   0.172   4.383  11.432  0.4703 -0.1930  0.0928
 9558SOL    HW140310   0.160   4.478  11.433 -0.2398 -0.2651 -1.1634
 9558SOL    HW240311   0.078   4.363  11.433  0.4781 -0.2731 -0.6910
 9559SOL     OW40312   3.335   3.804   7.998 -0.1689  0.5714  0.0607
 9559SOL    HW140313   3.281   3.812   8.076  0.3916  0.5648  0.4527
 9559SOL    HW240314   3.310   3.877   7.942  0.7443 -0.3318 -1.5414
 9560SOL     OW40315   3.094   2.724   3.914 -0.9808  0.1208 -0.6753
 9560SOL    HW140316   3.029   2.655   3.902  1.6795 -2.6059  0.8088
 9560SOL    HW240317   3.088   2.777   3.835 -2.9157  1.3323  0.2580
 9561SOL     OW40318   1.998   0.345   0.332  0.0841  0.0810  0.0201
 9561SOL    HW140319   1.989   0.311   0.421 -1.1561  1.3763  0.3938
 9561SOL    HW240320   1.995   0.266   0.279  1.6196 -0.2447  0.4141
 9562SOL     OW40321   1.259   1.341   7.764  0.6929 -0.0795 -0.5683
 9562SOL    HW140322   1.184   1.316   7.710  0.2902 -2.2067  0.9651
 9562SOL    HW240323   1.327   1.288   7.724  2.5448  1.2266  0.8423
 9563SOL     OW40324   0.102   2.206   4.233  0.6507 -0.6523  0.6036
 9563SOL    HW140325   0.096   2.294   4.270 -0.0627 -1.3280  2.1338
 9563SOL    HW240326   0.162   2.160   4.293  0.3217  2.6267  3.4854
 9564SOL     OW40327   1.419   2.743   5.381  0.5223  0.3832  0.2932
 9564SOL    HW140328   1.418   2.785   5.295  1.4118  1.1510  0.6539
 9564SOL    HW240329   1.462   2.660   5.362  1.2887  0.9169 -0.2862
 9565SOL     OW40330   3.002   1.468   6.241  0.0548  0.3448 -0.0991
 9565SOL    HW140331   3.077   1.506   6.286 -0.2731 -0.6672  1.2996
 9565SOL    HW240332   2.933   1.534   6.242 -1.5401 -1.2563 -2.4346
 9566SOL     OW40333   1.851   0.099   7.283 -0.6733 -0.0841  0.5000
 9566SOL    HW140334   1.820   0.071   7.197 -0.4194  1.2320 -0.0254
 9566SOL    HW240335   1.897   0.178   7.254 -0.0403 -0.0003  1.7182
 9567SOL     OW40336   3.401   0.750   8.644 -0.1784  0.1449  0.8309
 9567SOL    HW140337   3.325   0.808   8.653  0.7708  1.4887  0.1094
 9567SOL    HW240338   3.361   0.679   8.595  1.1323 -0.3733  0.5123
 9568SOL     OW40339   1.643   2.944   3.393 -0.3241  0.3652 -0.4382
 9568SOL    HW140340   1.622   2.869   3.447  2.6877 -0.6028 -0.6242
 9568SOL    HW240341   1.559   2.959   3.349 -0.3230  0.2422 -0.4829
 9569SOL     OW40342   0.079   4.607   9.124  0.0951 -0.3914 -0.3272
 9569SOL    HW140343   0.024   4.683   9.137 -0.8849 -1.0144 -0.8195
 9569SOL    HW240344   0.023   4.530   9.129  0.5000 -0.5592  1.4867
   4.73902   4.73902  17.75392
