Membrane in water
40344
    1TMC1    C1    1   0.507   3.474  11.369  0.2910  0.2136 -1.3369
    1TMC1    C2    2   0.403   3.565  11.384  0.1971  0.3691 -0.0562
    1TMC1    C3    3   0.399   3.671  11.294 -0.6066  0.4095 -0.3756
    1TMC1    C4    4   0.608   3.495  11.276  0.2902  0.2298  0.0823
    1TMC1    C5    5   0.602   3.609  11.195  0.2978 -0.5832 -0.0252
    1TMC1    C6    6   0.499   3.701  11.206 -0.4743 -0.4363 -1.0472
    1TMC1     C    7   0.512   3.360  11.456 -0.3427 -0.2774  0.4272
    1TMC1     O    8   0.409   3.338  11.518  0.5326 -0.6221 -0.4053
    1TMC1     H    9   0.326   3.557  11.459 -0.6818  1.4112 -0.8463
    1TMC1    H1   10   0.690   3.426  11.261  1.0026  1.3448 -1.1470
    1TMC1    H2   11   0.479   3.775  11.129 -0.2853 -0.8158 -1.4648
    1TMC1    C7   12   0.726   3.645  11.123  0.0168 -0.0423 -0.4444
    1TMC1    C8   13   0.283   3.751  11.271 -0.2567 -0.3526  0.4329
    1TMC1    O1   14   0.811   3.568  11.080  0.1583  0.4181 -0.1399
    1TMC1    O2   15   0.284   3.873  11.275  0.3986 -0.1325 -0.1904
    1TMC1    O3   16   0.718   3.778  11.087 -0.5057  0.5297  0.3270
    1TMC1    H3   17   0.654   3.830  11.141 -0.8857  0.3401  0.0550
    1TMC1    O5   18   0.185   3.686  11.216 -0.4005 -0.2611 -0.2909
    1TMC1    H5   19   0.187   3.588  11.207 -0.4985 -0.1359 -1.6301
    2MPD2     C   20   0.701   2.933  11.659  0.0902 -0.3216  0.4433
    2MPD2    C1   21   0.580   2.996  11.684  0.5494 -0.3888  0.9697
    2MPD2    C2   22   0.563   3.120  11.624 -0.4327 -0.3937 -0.2182
    2MPD2    C3   23   0.642   3.163  11.518 -0.1292  0.4322  0.3985
    2MPD2    C4   24   0.749   3.086  11.481  0.0117 -0.5853 -0.2030
    2MPD2    C5   25   0.781   2.971  11.551 -0.2817  0.0876  0.5669
    2MPD2     H   26   0.478   3.176  11.661 -1.8284 -2.8626  0.3373
    2MPD2    H1   27   0.810   3.115  11.396 -0.0465  2.0964  0.6664
    2MPD2    H2   28   0.735   2.842  11.708  1.4364  0.3669  0.7775
    2MPD2    H3   29   0.859   2.899  11.528  0.3502  1.0012 -0.1059
    2MPD2     N   30   0.628   3.287  11.451  0.2952  0.6796 -0.1510
    2MPD2    H5   31   0.701   3.308  11.384  1.3453 -1.8723  0.1643
    2MPD2    N1   32   0.491   2.959  11.792 -0.2820  0.0525 -0.3865
    2MPD2    H7   33   0.411   3.019  11.810  0.7161  1.5970 -1.0346
    3TMC1    C1   34   3.954   3.771  11.340 -0.1593  0.5510  0.3605
    3TMC1    C2   35   4.050   3.776  11.238  0.1255 -0.8874  0.2945
    3TMC1    C3   36   4.038   3.693  11.134 -0.0577  0.4076  0.6048
    3TMC1    C4   37   3.850   3.689  11.336 -0.1109 -0.2414 -0.6189
    3TMC1    C5   38   3.834   3.617  11.217 -0.2703  0.8905  0.0614
    3TMC1    C6   39   3.926   3.621  11.119 -0.0208  0.3634 -0.0733
    3TMC1     C   40   3.964   3.869  11.444 -0.6270  0.9121  0.0482
    3TMC1     O   41   3.893   3.847  11.540  0.0893 -0.3597 -0.1732
    3TMC1     H   42   4.146   3.822  11.260 -1.2079  2.4074 -0.8302
    3TMC1    H1   43   3.766   3.700  11.402  0.2660 -0.4743 -0.1037
    3TMC1    H2   44   3.912   3.543  11.045  0.8623  2.1047 -2.0658
    3TMC1    C7   45   3.704   3.560  11.184  0.0049 -0.4360  0.4115
    3TMC1    C8   46   4.161   3.667  11.064 -0.2767 -0.8931  0.1106
    3TMC1    O1   47   3.656   3.548  11.071  0.4462  0.6903 -0.6583
    3TMC1    O2   48   4.247   3.751  11.033 -0.1964 -0.2725  0.4209
    3TMC1    O3   49   3.683   3.478  11.286 -0.1305 -0.0599 -0.5181
    3TMC1    H3   50   3.742   3.492  11.363 -1.1104 -1.1903  0.4357
    3TMC1    O5   51   4.177   3.532  11.071 -0.0168  0.3244 -0.0154
    3TMC1    H5   52   4.104   3.477  11.105 -0.0961  0.3226 -0.1863
    4MPD2     C   53   4.037   4.350  11.612 -0.1257 -0.1716 -0.6541
    4MPD2    C1   54   4.056   4.348  11.475 -0.6156 -0.1640  0.0769
    4MPD2    C2   55   4.053   4.228  11.408  0.1203  0.5756 -0.0732
    4MPD2    C3   56   4.017   4.109  11.475  0.3096  0.0950 -0.3014
    4MPD2    C4   57   3.980   4.114  11.612 -0.0565 -0.5197 -0.6881
    4MPD2    C5   58   3.997   4.235  11.675 -0.2267  1.1287  0.1593
    4MPD2     H   59   4.075   4.225  11.302  1.1257  0.9194  0.1242
    4MPD2    H1   60   3.939   4.030  11.667 -0.1627  0.3328  0.5248
    4MPD2    H2   61   4.046   4.444  11.665  1.2181 -1.1996  0.9332
    4MPD2    H3   62   3.970   4.248  11.779 -0.2116  1.8495  0.0747
    4MPD2     N   63   4.017   3.986  11.401  0.3288  0.2502  0.0800
    4MPD2    H5   64   4.044   3.983  11.303 -1.3910 -2.8481 -0.2877
    4MPD2    N1   65   4.089   4.463  11.403 -0.1585  0.1203 -0.4156
    4MPD2    H7   66   4.076   4.458  11.302  2.0917  0.8006 -0.7404
    5TCq1    O1   67   4.631   0.919  12.185 -0.4124 -0.6871  0.7276
    5TCq1    C1   68   4.566   0.922  12.064 -0.8532 -0.4207 -0.5693
    5TCq1    O2   69   4.455   0.881  12.043  0.1296 -0.5970 -0.4163
    5TCq1    C2   70   4.658   0.969  11.972  0.7132 -0.1802 -0.2590
    5TCq1    C3   71   0.003   1.081  12.016  0.0851  0.0658 -0.5982
    5TCq1    C4   72   0.070   1.137  11.910 -0.0055  0.4430  0.6563
    5TCq1    C5   73   0.074   1.085  11.783 -0.1344  0.2939 -0.0771
    5TCq1    C6   74   4.732   0.978  11.753  0.5383 -0.1029 -0.1339
    5TCq1    C7   75   4.651   0.920  11.844 -0.4416 -0.1750  0.4194
    5TCq1    C8   76   4.729   0.944  11.611  0.0286 -0.0264 -0.0108
    5TCq1    O4   77   0.091   0.971  11.553  0.8180 -0.1562  0.4935
    5TCq1    C9   78   0.135   1.263  11.931  0.1440 -0.4353  0.1484
    5TCq1    O5   79   0.106   1.317  12.041 -0.6904 -0.2290  0.4708
    5TCq1    O6   80   0.229   1.296  11.852 -0.1046  0.3308 -0.5622
    5TCq1    H1   81   4.726   0.937  12.166 -0.2624 -0.7059  1.4394
    5TCq1    H2   82   4.724   1.137  12.108 -1.6709 -3.6504  1.3566
    5TCq1    H3   83   0.137   1.132  11.708 -2.0147  1.6069 -0.8225
    5TCq1    H4   84   4.598   0.827  11.832  0.4449 -0.6909  0.5395
    6MPD2     C   85   4.441   0.809  11.434  0.5428 -0.7840 -0.6477
    6MPD2    C1   86   4.567   0.861  11.442  0.7376 -0.6875  0.8777
    6MPD2    C2   87   4.649   0.883  11.332 -1.2432  0.5403 -0.3290
    6MPD2    C3   88   4.603   0.824  11.212  0.3036 -0.3617 -0.1295
    6MPD2    C4   89   4.475   0.769  11.203  0.1167  0.8382 -0.2945
    6MPD2    C5   90   4.392   0.765  11.309 -0.3955 -0.9738 -0.2623
    6MPD2     H   91   0.002   0.945  11.341 -0.4694 -0.4654 -1.0796
    6MPD2    H1   92   4.440   0.717  11.114  0.5977 -0.6811  0.4115
    6MPD2    H2   93   4.376   0.787  11.518  2.1445 -2.9882  0.0472
    6MPD2    H3   94   4.300   0.707  11.319 -2.1773  2.0267  0.6366
    6MPD2     N   95   4.690   0.828  11.105  0.2885 -0.1975  0.1431
    6MPD2    H5   96   0.047   0.856  11.134  1.0934 -0.6408 -1.9871
    6MPD2    N1   97   4.603   0.902  11.575 -0.3487 -0.1575 -0.2477
    6MPD2    H7   98   4.534   0.897  11.649 -2.5387 -1.9831 -2.4339
    7TCq1    O1   99   3.008   0.587  12.475  0.5726  0.3853  0.1776
    7TCq1    C1  100   3.061   0.503  12.559 -1.1119 -0.3834  0.0659
    7TCq1    O2  101   3.110   0.531  12.668 -0.2006 -0.1860 -0.3004
    7TCq1    C2  102   2.999   0.380  12.532 -0.9273 -0.3121  0.2705
    7TCq1    C3  103   2.967   0.344  12.403  0.7472 -0.1725  0.4822
    7TCq1    C4  104   2.876   0.244  12.380  0.0101 -0.1752  0.1454
    7TCq1    C5  105   2.816   0.175  12.487  0.1228 -0.7502  0.4913
    7TCq1    C6  106   2.850   0.215  12.613 -0.2434  0.3573 -0.4895
    7TCq1    C7  107   2.950   0.309  12.636 -0.2215 -0.6880  0.2605
    7TCq1    C8  108   2.814   0.137  12.728 -0.6879 -0.3124  0.0134
    7TCq1    O4  109   2.791   0.016  12.716  0.5315  0.7735 -0.7265
    7TCq1    C9  110   2.818   0.222  12.253 -0.3314  0.8230 -0.7870
    7TCq1    O5  111   2.873   0.275  12.151 -0.1108 -0.2353 -0.1928
    7TCq1    O6  112   2.701   0.171  12.244 -0.2739 -0.1819 -0.4924
    7TCq1    H1  113   2.953   0.539  12.409  0.5660 -0.9209  1.1481
    7TCq1    H2  114   3.001   0.395  12.314  0.8358 -2.2854 -0.6861
    7TCq1    H3  115   2.738   0.105  12.463  0.0890 -0.7378  0.5634
    7TCq1    H4  116   2.971   0.348  12.735  0.1751 -1.8066  0.6050
    8MPD2     C  117   2.693   0.123  13.236  0.1815  0.1309  0.1270
    8MPD2    C1  118   2.709   0.018  13.147 -0.3892  0.0115  0.0476
    8MPD2    C2  119   2.741   0.047  13.014 -0.5274  0.1802  0.1238
    8MPD2    C3  120   2.762   0.181  12.971 -0.1033 -0.4765 -0.1568
    8MPD2    C4  121   2.748   0.283  13.058  0.3005  0.0404 -0.2080
    8MPD2    C5  122   2.716   0.252  13.189  0.0760 -0.1578 -0.4656
    8MPD2     H  123   2.753   4.698  12.947 -1.9099  0.0474  0.0302
    8MPD2    H1  124   2.765   0.387  13.035  1.2498  0.2634  1.5502
    8MPD2    H2  125   2.668   0.111  13.341 -0.0869 -1.2838 -0.0925
    8MPD2    H3  126   2.706   0.335  13.258  0.8073  1.3937 -2.2317
    8MPD2     N  127   2.801   0.219  12.843 -0.6357 -0.6494 -0.2000
    8MPD2    H5  128   2.795   0.317  12.818 -0.6591 -0.3879  0.8394
    8MPD2    N1  129   2.684   4.621  13.191 -0.2758 -0.4437 -0.3991
    8MPD2    H7  130   2.684   4.604  13.291 -0.0332 -0.6262 -0.4301
    9TMC1    C1  131   0.242   4.520  11.342 -0.3959  0.0763  0.2304
    9TMC1    C2  132   0.315   4.408  11.315  0.1698  0.4376 -0.9144
    9TMC1    C3  133   0.420   4.423  11.227 -0.5612  0.1530 -0.0568
    9TMC1    C4  134   0.283   4.645  11.295 -0.4143 -0.0315  0.4000
    9TMC1    C5  135   0.394   4.647  11.211  0.4043  0.0452  0.1418
    9TMC1    C6  136   0.459   4.536  11.170  0.3318  0.2492 -0.5000
    9TMC1     C  137   0.138   4.512  11.447 -0.2368 -0.1995 -1.0941
    9TMC1     O  138   0.071   4.606  11.464  0.2566  0.3689 -0.1884
    9TMC1     H  139   0.291   4.313  11.362  1.7020 -1.6868 -4.4399
    9TMC1    H1  140   0.240   4.736  11.337  1.3453  0.9397  0.0874
    9TMC1    H2  141   0.537   4.545  11.095  0.8694 -0.3515 -0.0181
    9TMC1    C7  142   0.440   0.035  11.159 -0.4673 -0.0675  0.3552
    9TMC1    C8  143   0.475   4.298  11.177  0.2405 -0.1738 -0.6212
    9TMC1    O1  144   0.555   0.069  11.140  0.2895  0.2428  0.0749
    9TMC1    O2  145   0.410   4.201  11.156  0.2604  1.0807 -0.4025
    9TMC1    O3  146   0.332   0.107  11.132  0.1399  0.2600  0.2897
    9TMC1    H3  147   0.245   0.064  11.151  0.1455  0.6163  1.1282
    9TMC1    O5  148   0.589   4.324  11.112  0.0691  0.6850 -0.3474
    9TMC1    H5  149   0.646   4.394  11.149  0.8069  0.9118 -1.8813
   10MPD2     C  150   4.683   4.447  11.674  0.2747  0.3763  0.7528
   10MPD2    C1  151   0.062   4.377  11.642  0.4703 -0.3066 -0.7327
   10MPD2    C2  152   0.093   4.270  11.720  0.3374  0.5825  0.0341
   10MPD2    C3  153   0.018   4.227  11.823  0.3489 -0.3753  1.0568
   10MPD2    C4  154   4.631   4.286  11.847  0.3003 -0.3302 -0.0972
   10MPD2    C5  155   4.606   4.402  11.781  0.4608  0.2292  0.0412
   10MPD2     H  156   0.178   4.211  11.688  0.8503  1.7710 -0.7716
   10MPD2    H1  157   4.567   4.250  11.927  2.0221 -2.4074  0.3638
   10MPD2    H2  158   4.648   4.534  11.619  0.3792 -1.2839 -1.9328
   10MPD2    H3  159   4.519   4.453  11.819  0.8869  0.2495  0.9834
   10MPD2     N  160   0.051   4.108  11.893 -0.4456 -0.2659 -0.5248
   10MPD2    H5  161   4.710   4.064  11.943  0.7992 -2.4754 -0.5092
   10MPD2    N1  162   0.146   4.402  11.530 -0.2170  0.1107 -0.5019
   10MPD2    H7  163   0.223   4.337  11.519  0.2711  0.4727  0.8691
   11TCq1    O1  164   1.087   4.143  13.511  0.4379 -0.0794 -0.1479
   11TCq1    C1  165   1.055   4.060  13.609 -0.1495  0.3535  0.2784
   11TCq1    O2  166   1.035   3.939  13.597 -0.0729  0.1149  0.3685
   11TCq1    C2  167   1.103   4.110  13.735  0.1885 -0.4812  0.6984
   11TCq1    C3  168   1.072   4.241  13.768 -0.0876 -0.1843  0.0749
   11TCq1    C4  169   1.043   4.263  13.900 -0.3475  0.2053  0.1137
   11TCq1    C5  170   1.061   4.162  13.993 -0.3052  0.0080 -0.9240
   11TCq1    C6  171   1.103   4.035  13.959  0.2974 -0.2503  0.4576
   11TCq1    C7  172   1.120   4.008  13.825 -0.1774 -0.4548 -0.0848
   11TCq1    C8  173   1.068   3.936  14.052 -0.3770  0.2601  0.8854
   11TCq1    O4  174   1.012   3.966  14.156  0.0176  0.5094 -0.4573
   11TCq1    C9  175   1.020   4.398  13.945 -0.8173 -0.4650 -0.1872
   11TCq1    O5  176   0.926   4.404  14.026 -0.2125 -0.6177  0.0816
   11TCq1    O6  177   1.057   4.491  13.866  0.1088 -0.7530  0.3894
   11TCq1    H1  178   1.110   4.235  13.534  1.2588 -0.1820 -0.5361
   11TCq1    H2  179   1.061   4.321  13.697  0.5134 -1.2225 -1.1933
   11TCq1    H3  180   1.045   4.188  14.097 -1.9073 -1.0812 -0.8939
   11TCq1    H4  181   1.162   3.914  13.791 -1.4801 -1.5905  1.4554
   12MPD2     C  182   1.010   3.683  14.198 -0.2034  0.2498 -0.5166
   12MPD2    C1  183   1.057   3.688  14.067  0.0709 -0.1765 -0.1002
   12MPD2    C2  184   1.070   3.570  13.992  0.1400 -0.4738 -0.6023
   12MPD2    C3  185   1.034   3.448  14.047 -0.4532 -0.0106 -0.1551
   12MPD2    C4  186   1.003   3.443  14.179 -0.2611 -0.3261  0.5187
   12MPD2    C5  187   0.986   3.557  14.250 -0.2381  0.4144 -0.0160
   12MPD2     H  188   1.103   3.573  13.889 -0.5782 -1.6850 -0.8669
   12MPD2    H1  189   0.991   3.342  14.215  0.5587 -0.9080 -0.8086
   12MPD2    H2  190   0.993   3.765  14.268 -1.1116  0.4664 -0.9998
   12MPD2    H3  191   0.963   3.547  14.355  0.8768  0.9813  0.2877
   12MPD2     N  192   1.049   3.330  13.972 -0.3285  0.7622 -0.0115
   12MPD2    H5  193   1.046   3.240  14.020  0.2763  1.7666  1.8927
   12MPD2    N1  194   1.092   3.811  14.004  0.0560  0.6610 -0.3946
   12MPD2    H7  195   1.147   3.815  13.919  0.3285 -0.1792 -0.2649
   13TCq1    O1  196   1.038   4.303  11.797  0.0789 -0.1046 -0.4232
   13TCq1    C1  197   0.984   4.417  11.754 -0.4980 -0.1894  0.0568
   13TCq1    O2  198   1.029   4.532  11.760  0.4862 -0.1353  0.2943
   13TCq1    C2  199   0.893   4.382  11.641  0.8564  0.4605  0.1667
   13TCq1    C3  200   0.904   4.469  11.538  0.9062  0.0183 -0.3057
   13TCq1    C4  201   0.802   4.458  11.445  1.0993  0.0813 -0.5809
   13TCq1    C5  202   0.693   4.373  11.462 -0.4435 -0.0388  0.2085
   13TCq1    C6  203   0.690   4.296  11.575  0.0440 -0.5336 -0.0904
   13TCq1    C7  204   0.789   4.297  11.669  0.0620 -0.5842  0.3109
   13TCq1    C8  205   0.583   4.196  11.568  0.7704  0.9230 -0.0115
   13TCq1    O4  206   0.489   4.208  11.489  0.0622 -0.1255 -0.5615
   13TCq1    C9  207   0.828   4.529  11.321  0.2201 -0.2910  0.0426
   13TCq1    O5  208   0.766   4.490  11.217  0.5782  0.1594  0.6109
   13TCq1    O6  209   0.920   4.611  11.313 -0.2932 -0.4544 -0.2836
   13TCq1    H1  210   0.993   4.216  11.787  2.6541 -1.3539 -1.0951
   13TCq1    H2  211   0.997   4.519  11.514 -0.8613  3.1379 -0.5333
   13TCq1    H3  212   0.615   4.369  11.387 -0.3792 -1.9400  0.2531
   13TCq1    H4  213   0.777   4.249  11.766 -1.5469  0.6251  0.7179
   14MPD2     C  214   0.673   3.854  11.663  0.5535  0.0589  0.1416
   14MPD2    C1  215   0.585   3.962  11.636  0.0213  0.0786 -0.2023
   14MPD2    C2  216   0.449   3.943  11.617  0.0197 -0.6167  0.3223
   14MPD2    C3  217   0.395   3.818  11.628 -1.1666  0.5891  0.2077
   14MPD2    C4  218   0.476   3.708  11.650 -0.3992 -0.6019  0.2400
   14MPD2    C5  219   0.609   3.734  11.659 -0.4708  0.1482  0.4047
   14MPD2     H  220   0.373   4.018  11.599 -1.4530 -1.6105  2.3317
   14MPD2    H1  221   0.437   3.609  11.672 -0.2543  0.2850  4.5427
   14MPD2    H2  222   0.781   3.860  11.662  0.5320  0.8164  3.2373
   14MPD2    H3  223   0.682   3.653  11.657  0.8896  1.3731  0.6872
   14MPD2     N  224   0.253   3.817  11.622  0.2663 -0.0404  0.5860
   14MPD2    H5  225   0.209   3.906  11.601  1.1245  0.1067 -0.6017
   14MPD2    N1  226   0.640   4.091  11.626  0.0157  0.4749 -0.0584
   14MPD2    H7  227   0.733   4.106  11.663  0.2593  1.0838 -0.9251
   15TCq1    O1  228   2.718   3.382   2.589 -0.0725 -0.5555 -0.2214
   15TCq1    C1  229   2.654   3.295   2.513  0.1954 -0.4077  0.7937
   15TCq1    O2  230   2.536   3.275   2.501  0.8176 -0.0279 -0.0699
   15TCq1    C2  231   2.765   3.234   2.429 -0.2472 -0.1615  0.5242
   15TCq1    C3  232   2.873   3.174   2.486  0.3026  0.0900 -0.4438
   15TCq1    C4  233   2.962   3.109   2.408  0.4024 -0.8440  0.0481
   15TCq1    C5  234   2.943   3.110   2.276  0.2975 -0.1535 -0.2479
   15TCq1    C6  235   2.828   3.164   2.215  0.3878  0.3113  0.5166
   15TCq1    C7  236   2.736   3.226   2.295 -0.2013  0.3858 -0.3334
   15TCq1    C8  237   2.820   3.144   2.070  0.0221  0.5910  0.2826
   15TCq1    O4  238   2.922   3.111   2.016  0.7153  0.1670  0.1073
   15TCq1    C9  239   3.080   3.051   2.473 -0.5323  0.2701  0.4041
   15TCq1    O5  240   3.089   3.055   2.600 -0.2669 -0.3052 -0.1910
   15TCq1    O6  241   3.172   3.013   2.397  0.0856 -0.6737  0.0872
   15TCq1    H1  242   2.813   3.398   2.569 -0.3426  0.9639 -0.3064
   15TCq1    H2  243   2.898   3.172   2.592  0.6131 -0.3437 -0.5276
   15TCq1    H3  244   3.016   3.049   2.223 -0.3492  0.3795 -1.7587
   15TCq1    H4  245   2.647   3.279   2.263 -0.6815  1.1637  2.2921
   16MPD2     C  246   2.524   3.178   1.846 -0.3085  0.0865 -0.7104
   16MPD2    C1  247   2.653   3.137   1.888  0.0582 -0.8133 -0.1021
   16MPD2    C2  248   2.720   3.060   1.792  0.6206  0.7389  0.0391
   16MPD2    C3  249   2.665   3.018   1.670 -0.2925 -0.0230 -0.1832
   16MPD2    C4  250   2.543   3.068   1.634  0.2742  0.2011 -0.3564
   16MPD2    C5  251   2.479   3.154   1.718 -0.4576  0.1013 -0.0120
   16MPD2     H  252   2.816   3.024   1.825  1.4126  1.0916 -1.8443
   16MPD2    H1  253   2.502   3.052   1.535  1.7817  0.0440 -0.9572
   16MPD2    H2  254   2.461   3.235   1.913  0.5248  0.4924 -0.2809
   16MPD2    H3  255   2.387   3.204   1.691 -0.9074 -1.5297 -1.4897
   16MPD2     N  256   2.734   2.921   1.592 -0.3262 -0.3979  0.0574
   16MPD2    H5  257   2.819   2.885   1.636  0.1538  1.3402  0.5520
   16MPD2    N1  258   2.696   3.175   2.016 -0.7255 -0.3035  0.1584
   16MPD2    H7  259   2.639   3.234   2.076 -0.8223 -1.3168  1.0657
   17TMC1    C1  260   4.535   2.720  11.951  0.1624 -0.0268 -1.2698
   17TMC1    C2  261   4.577   2.617  11.880  0.2515  0.4098  0.5248
   17TMC1    C3  262   4.546   2.495  11.922  0.0762 -0.3695 -0.2972
   17TMC1    C4  263   4.477   2.706  12.075 -0.2084  0.4491 -0.1880
   17TMC1    C5  264   4.451   2.573  12.116  0.0920  0.0820  0.0918
   17TMC1    C6  265   4.482   2.469  12.038  0.6372 -0.3724  0.6639
   17TMC1     C  266   4.560   2.857  11.915 -0.1503  0.2396  0.2115
   17TMC1     O  267   4.475   2.939  11.941 -0.2931  0.2639 -0.6255
   17TMC1     H  268   4.623   2.635  11.784  1.4384  2.5098  1.4822
   17TMC1    H1  269   4.431   2.784  12.136  0.0938  1.6032 -1.4322
   17TMC1    H2  270   4.456   2.370  12.071 -1.8536  0.6633  1.8219
   17TMC1    C7  271   4.378   2.546  12.241 -0.7116 -0.3013  0.2288
   17TMC1    C8  272   4.582   2.376  11.838 -0.5209  0.2091 -0.3251
   17TMC1    O1  273   4.344   2.433  12.278  0.6654 -0.6597 -0.2171
   17TMC1    O2  274   4.505   2.284  11.824 -0.2665 -0.6727 -0.1872
   17TMC1    O3  275   4.384   2.655  12.319  0.3606 -0.3701  0.4011
   17TMC1    H3  276   4.433   2.737  12.298  0.2359 -0.4852 -0.3390
   17TMC1    O5  277   4.673   2.416  11.746 -0.0127  0.1958 -0.4461
   17TMC1    H5  278   4.697   2.339  11.690  0.6764  0.5835 -0.6903
   18MPD2     C  279   4.683   3.116  11.811 -0.3667  0.3501  0.2658
   18MPD2    C1  280   4.718   2.991  11.775 -0.1112 -0.1655 -0.3512
   18MPD2    C2  281   0.083   2.975  11.679 -0.0021  0.2598  0.0475
   18MPD2    C3  282   0.150   3.087  11.632 -0.0622  0.0639  0.8290
   18MPD2    C4  283   0.115   3.206  11.676 -0.0652  0.2331 -0.6396
   18MPD2    C5  284   0.002   3.223  11.752  0.0875  0.0512  0.8659
   18MPD2     H  285   0.109   2.874  11.651 -0.9146 -0.2781  1.1161
   18MPD2    H1  286   0.163   3.299  11.647  1.3301 -0.2023  0.2694
   18MPD2    H2  287   4.608   3.142  11.884  1.6919 -0.2294  2.5781
   18MPD2    H3  288   4.708   3.322  11.783 -0.5455 -0.2597  1.2566
   18MPD2     N  289   0.257   3.080  11.540  0.5852 -0.0927 -0.1524
   18MPD2    H5  290   0.286   3.168  11.498 -0.3291  0.2586 -0.0470
   18MPD2    N1  291   4.671   2.870  11.829  0.1769  0.2148  1.0854
   18MPD2    H7  292   4.726   2.789  11.805  1.7879  1.3580  0.9536
   19TMC2    C1  293   2.579   3.980  14.059  0.4452 -0.4511  0.2677
   19TMC2    C2  294   2.559   4.092  13.980  0.4642 -0.2396  0.1168
   19TMC2    C3  295   2.450   4.094  13.903  0.6491 -0.3910 -1.1624
   19TMC2    C4  296   2.493   3.874  14.050 -0.2664  0.1170  0.3505
   19TMC2    C5  297   2.378   3.885  13.970 -0.0889  0.1312  0.0389
   19TMC2    C6  298   2.355   3.995  13.894  0.4191  0.0873 -1.8963
   19TMC2     C  299   2.687   3.977  14.147 -0.4288  0.3512  0.0171
   19TMC2     O  300   2.758   4.077  14.168  0.4288  0.3217  0.4233
   19TMC2     H  301   2.626   4.177  13.979  1.3903 -0.9745 -0.4268
   19TMC2    H1  302   2.501   3.780  14.103 -3.2934 -0.4384 -0.1789
   19TMC2    H2  303   2.273   4.005  13.823 -0.8294  1.7762 -0.1932
   19TMC2    C7  304   2.317   3.756  13.939 -0.2318 -0.0373 -0.1579
   19TMC2    C8  305   2.455   4.198  13.796  0.1266  1.1362  0.0063
   19TMC2    O1  306   2.397   3.663  13.945 -0.6747 -0.4386 -0.1398
   19TMC2    O2  307   2.394   4.171  13.694 -0.1585  0.2171  0.1257
   19TMC2    O5  308   2.490   4.323  13.839 -0.3169  0.1035 -0.4187
   19TMC2    H5  309   2.510   4.331  13.935 -0.4895 -0.9727 -0.2928
   20MPD2     C  310   2.858   3.911  14.383 -0.2962  0.3031  0.0366
   20MPD2    C1  311   2.807   3.821  14.296 -0.2607  0.6962 -0.2883
   20MPD2    C2  312   2.826   3.688  14.316 -0.4213 -0.1674  0.4434
   20MPD2    C3  313   2.891   3.638  14.425  0.6266 -0.2510 -0.4040
   20MPD2    C4  314   2.950   3.728  14.509  0.5321 -1.0327 -0.7475
   20MPD2    C5  315   2.929   3.861  14.490 -0.3813 -1.0867 -0.3844
   20MPD2     H  316   2.794   3.619  14.238 -0.7931  0.8072 -0.2708
   20MPD2    H1  317   3.002   3.685  14.594 -0.4066  1.1632  0.9412
   20MPD2    H2  318   2.842   4.018  14.374  1.5392  0.5556 -0.2085
   20MPD2    H3  319   2.975   3.930  14.560  1.4317 -1.1456 -1.5023
   20MPD2     N  320   2.908   3.503  14.444 -0.0880 -0.2053  0.5619
   20MPD2    H5  321   2.966   3.477  14.524 -0.9545  0.4692  1.4146
   20MPD2    N1  322   2.711   3.851  14.194 -0.2705  0.0924 -0.4878
   20MPD2    H7  323   2.652   3.773  14.167 -0.6072 -0.1038  0.7782
   21TMC2    C1  324   4.232   3.554  14.518 -0.2809  0.3801 -0.0936
   21TMC2    C2  325   4.325   3.473  14.579 -0.7661 -0.3621  0.2366
   21TMC2    C3  326   4.369   3.508  14.705  0.9397 -0.0778 -0.2495
   21TMC2    C4  327   4.166   3.646  14.598  0.6092 -0.0633  0.5834
   21TMC2    C5  328   4.206   3.667  14.731 -0.2312  0.4589  0.4890
   21TMC2    C6  329   4.316   3.604  14.782 -0.0136  0.0108  0.0381
   21TMC2     C  330   4.295   3.614  14.401 -1.0202  0.2583 -0.0061
   21TMC2     O  331   4.401   3.566  14.375  0.6039  0.2486  0.2155
   21TMC2     H  332   4.370   3.393  14.521  1.5296  1.5665 -0.6180
   21TMC2    H1  333   4.095   3.715  14.553  0.0436 -0.7510  0.4128
   21TMC2    H2  334   4.355   3.625  14.881 -1.2487  2.5226 -0.0213
   21TMC2    C7  335   4.190   3.803  14.796  0.4042 -0.4192  0.6372
   21TMC2    C8  336   4.509   3.499  14.724  1.0338 -0.0571  0.4171
   21TMC2    O1  337   4.245   3.831  14.903  0.0572  0.1620  0.0786
   21TMC2    O2  338   4.565   3.463  14.828 -0.1105 -0.1305 -0.1327
   21TMC2    O5  339   4.564   3.505  14.602 -0.3577  0.6738  0.3323
   21TMC2    H5  340   4.493   3.526  14.537  1.7004  2.8380 -1.2216
   22MPD2     C  341   4.506   4.061  14.281 -0.4495 -0.2392  0.3776
   22MPD2    C1  342   4.561   3.942  14.323  0.0184 -0.8197 -0.4387
   22MPD2    C2  343   4.480   3.835  14.357  0.5436 -0.7348  0.7456
   22MPD2    C3  344   4.342   3.843  14.333  0.1616 -0.1489  0.7133
   22MPD2    C4  345   4.292   3.956  14.271  0.5584 -0.1065 -0.1464
   22MPD2    C5  346   4.372   4.063  14.245 -0.3247  0.5489  0.3739
   22MPD2     H  347   4.530   3.747  14.395 -0.6637 -2.5241 -1.7983
   22MPD2    H1  348   4.186   3.948  14.248 -0.0131  2.6983  1.5664
   22MPD2    H2  349   4.566   4.147  14.253  0.4248 -0.7527  0.6624
   22MPD2    H3  350   4.353   4.149  14.181  0.3286  1.6627  1.6712
   22MPD2     N  351   4.256   3.740  14.370 -0.6022 -0.2115  0.8714
   22MPD2    H5  352   4.158   3.767  14.378 -0.9828 -2.1544  2.7665
   22MPD2    N1  353   4.696   3.924  14.359 -0.4384  0.6580 -0.3752
   22MPD2    H7  354   4.727   3.832  14.388 -0.7280  0.3596 -1.0359
   23TMC2    C1  355   0.792   0.256  14.435  0.4614 -0.5749 -0.0577
   23TMC2    C2  356   0.809   0.325  14.323  0.6700 -0.0149 -0.0634
   23TMC2    C3  357   0.696   0.354  14.250  0.0032  0.2647 -0.1931
   23TMC2    C4  358   0.675   0.201  14.475  0.4329 -0.2864  0.3530
   23TMC2    C5  359   0.566   0.239  14.406  0.5966  0.8913  0.0378
   23TMC2    C6  360   0.577   0.300  14.282  0.0011 -0.8527  0.3121
   23TMC2     C  361   0.899   0.237  14.529 -0.5586 -0.0415 -0.6450
   23TMC2     O  362   0.880   0.170  14.631  0.5954 -0.0909 -0.2410
   23TMC2     H  363   0.908   0.357  14.293  0.3314  0.7571 -0.3541
   23TMC2    H1  364   0.664   0.160  14.575  0.6534 -3.3624 -0.8830
   23TMC2    H2  365   0.490   0.299  14.217  1.1214  2.6649 -1.2313
   23TMC2    C7  366   0.446   0.172  14.442  0.7633 -0.2433  0.9306
   23TMC2    C8  367   0.715   0.392  14.109 -0.1411  0.4606  0.4987
   23TMC2    O1  368   0.456   0.060  14.477  0.3064 -0.1352 -0.5277
   23TMC2    O2  369   0.826   0.369  14.063  0.9353  1.0269 -0.2039
   23TMC2    O5  370   0.633   0.493  14.081 -0.7428 -0.2404  0.2684
   23TMC2    H5  371   0.549   0.505  14.131 -0.7523  2.2880 -0.3284
   24MPD2     C  372   1.408   0.266  14.622 -0.6011 -0.0414  0.4626
   24MPD2    C1  373   1.309   0.178  14.676 -0.2333 -0.1706 -0.2467
   24MPD2    C2  374   1.178   0.209  14.643 -0.1135  0.2807 -0.6812
   24MPD2    C3  375   1.143   0.296  14.544 -0.3661  0.1680 -0.7062
   24MPD2    C4  376   1.244   0.371  14.487  0.2336 -0.1479 -0.0234
   24MPD2    C5  377   1.377   0.358  14.523  0.0304 -0.0820  0.8096
   24MPD2     H  378   1.107   0.130  14.665  0.5185 -0.4467 -1.2866
   24MPD2    H1  379   1.224   0.441  14.407 -1.7480 -1.0048 -0.2895
   24MPD2    H2  380   1.506   0.262  14.669 -1.4996 -1.0429  2.2662
   24MPD2    H3  381   1.457   0.416  14.477 -3.0954  1.5584 -2.5942
   24MPD2     N  382   1.016   0.303  14.486  0.3967  0.0006 -0.1846
   24MPD2    H5  383   1.012   0.370  14.409  0.1040  1.1173  0.8017
   24MPD2    N1  384   1.351   0.078  14.766 -0.1031  0.2984  1.1213
   24MPD2    H7  385   1.448   0.086  14.794  0.0790 -0.8145  0.8023
   25TMC2    C1  386   3.719   2.518  11.700 -0.1611 -0.2684  0.4029
   25TMC2    C2  387   3.617   2.616  11.684  0.4025 -0.0073 -0.2500
   25TMC2    C3  388   3.554   2.651  11.798 -0.3114 -0.3286 -0.4983
   25TMC2    C4  389   3.751   2.471  11.826 -0.3082 -0.1905  0.0488
   25TMC2    C5  390   3.681   2.520  11.931 -0.3125  0.4775  0.0505
   25TMC2    C6  391   3.583   2.611  11.924 -0.2331 -0.0447 -0.1642
   25TMC2     C  392   3.804   2.492  11.586  0.0127 -0.1946  0.3727
   25TMC2     O  393   3.791   2.570  11.494  0.0053 -0.3090 -0.2398
   25TMC2     H  394   3.580   2.644  11.586 -0.3261  3.0880  0.8892
   25TMC2    H1  395   3.846   2.421  11.837  0.1049  0.3151 -1.1670
   25TMC2    H2  396   3.510   2.643  11.998 -0.5408  0.3110 -0.6205
   25TMC2    C7  397   3.729   2.476  12.064 -0.1895 -0.3351 -0.2863
   25TMC2    C8  398   3.427   2.721  11.769  0.2245  0.0729  0.1080
   25TMC2    O1  399   3.828   2.403  12.066  0.2257 -0.0373 -0.0728
   25TMC2    O2  400   3.334   2.719  11.844 -0.0642 -0.3362  0.3044
   25TMC2    O5  401   3.465   2.824  11.688 -0.1444  0.8594 -0.4617
   25TMC2    H5  402   3.558   2.828  11.655 -0.1823  2.6945 -0.3347
   26MPD2     C  403   4.175   2.239  11.325 -0.0658 -0.0064 -0.4357
   26MPD2    C1  404   4.120   2.154  11.427 -0.0114 -0.0068 -0.0745
   26MPD2    C2  405   4.025   2.195  11.515 -0.4601 -0.5950 -0.0482
   26MPD2    C3  406   3.976   2.326  11.502 -0.2952  0.4994  0.6228
   26MPD2    C4  407   4.039   2.409  11.411 -0.3505 -0.5306  0.0997
   26MPD2    C5  408   4.127   2.367  11.315  0.5819 -1.1240  0.0630
   26MPD2     H  409   3.986   2.127  11.590  0.7648 -1.9131 -0.6134
   26MPD2    H1  410   3.988   2.504  11.401  0.1571 -0.1266  1.2687
   26MPD2    H2  411   4.254   2.213  11.256  0.4779 -1.0496  0.5858
   26MPD2    H3  412   4.172   2.425  11.235 -2.2503  0.9970  0.0011
   26MPD2     N  413   3.870   2.369  11.587 -0.0734 -0.1110 -0.3332
   26MPD2    H5  414   3.850   2.310  11.667 -1.1423  0.5847 -0.0931
   26MPD2    N1  415   4.182   2.028  11.438 -0.0789  0.1244  0.1675
   26MPD2    H7  416   4.275   2.025  11.398  0.2077 -1.1307  0.9388
   27TMC2    C1  417   3.278   4.178  11.953  0.6207 -0.2112  0.4575
   27TMC2    C2  418   3.222   4.203  11.838 -0.2692 -0.2158  0.1289
   27TMC2    C3  419   3.221   4.332  11.790  0.2733  0.0464  0.2427
   27TMC2    C4  420   3.342   4.280  12.017 -0.0043  0.5355  0.3519
   27TMC2    C5  421   3.365   4.395  11.958 -0.2306 -0.2178 -0.2678
   27TMC2    C6  422   3.289   4.433  11.849 -0.4173  0.5214  0.1119
   27TMC2     C  423   3.258   4.058  12.026 -0.3177  0.8246 -0.5910
   27TMC2     O  424   3.250   3.957  11.960  0.1957 -0.1923 -0.2917
   27TMC2     H  425   3.171   4.119  11.792  0.1177  0.1054 -0.8849
   27TMC2    H1  426   3.388   4.260  12.113  2.3577 -1.0538 -1.1054
   27TMC2    H2  427   3.307   4.528  11.799 -1.4177  0.0727 -1.0915
   27TMC2    C7  428   3.389   4.496  12.057 -0.5829  0.5121  0.3353
   27TMC2    C8  429   3.189   4.347  11.650 -0.1288 -0.0220  0.0048
   27TMC2    O1  430   3.358   4.474  12.172 -0.1218 -0.2902 -0.2673
   27TMC2    O2  431   3.159   4.253  11.580  0.4296 -0.5171  0.0440
   27TMC2    O5  432   3.118   4.459  11.647 -0.0476  0.3412  0.1664
   27TMC2    H5  433   3.126   4.528  11.715 -2.0089 -0.1273  0.8493
   28MPD2     C  434   3.221   3.828  12.482 -0.7226 -0.6139 -0.3376
   28MPD2    C1  435   3.237   3.964  12.505 -0.1174 -0.4751 -0.4002
   28MPD2    C2  436   3.254   4.039  12.390  1.0822  0.0494 -0.5725
   28MPD2    C3  437   3.242   3.982  12.265  0.0206 -0.1060  0.1742
   28MPD2    C4  438   3.221   3.848  12.250  0.2707 -1.0306 -0.3730
   28MPD2    C5  439   3.216   3.774  12.358  0.1715  0.3081 -0.0370
   28MPD2     H  440   3.288   4.142  12.402  1.1682  0.0124 -0.5038
   28MPD2    H1  441   3.228   3.798  12.154 -2.2807 -1.9228 -0.0782
   28MPD2    H2  442   3.207   3.765  12.569  0.6627 -0.3458  0.0812
   28MPD2    H3  443   3.199   3.667  12.351  0.6036  0.1313  1.6055
   28MPD2     N  444   3.266   4.074  12.165 -0.0143  0.0035  0.2784
   28MPD2    H5  445   3.271   4.170  12.196 -1.1119  0.5039 -1.1002
   28MPD2    N1  446   3.233   4.013  12.636 -0.0820  0.2718 -0.1101
   28MPD2    H7  447   3.247   3.948  12.713 -2.1643  0.3283  0.3310
   29TMC2    C1  448   3.520   2.418  14.093 -0.1792 -0.2935  0.1890
   29TMC2    C2  449   3.636   2.443  14.027 -0.1187  1.0265 -0.4123
   29TMC2    C3  450   3.709   2.552  14.070 -0.5578  1.1208  0.1592
   29TMC2    C4  451   3.473   2.495  14.195  0.1205 -0.3467 -0.1242
   29TMC2    C5  452   3.554   2.600  14.233 -0.6232 -0.5383 -0.1180
   29TMC2    C6  453   3.670   2.632  14.171  0.4268 -0.5885 -0.5416
   29TMC2     C  454   3.462   2.288  14.073 -0.0819 -0.2008 -0.2661
   29TMC2     O  455   3.534   2.211  14.014  0.1576  0.3741 -0.6488
   29TMC2     H  456   3.688   2.371  13.965  3.1563  1.4276  1.8444
   29TMC2    H1  457   3.382   2.467  14.247  0.2295 -0.3682  0.0513
   29TMC2    H2  458   3.731   2.719  14.191  0.6278 -0.5881 -1.1733
   29TMC2    C7  459   3.528   2.635  14.370  0.4700 -0.5846 -0.1489
   29TMC2    C8  460   3.834   2.580  14.002 -0.0377 -0.1908 -0.3935
   29TMC2    O1  461   3.416   2.623  14.414 -0.0302 -0.3434 -0.0547
   29TMC2    O2  462   3.917   2.659  14.042 -0.1777 -0.1182  0.4273
   29TMC2    O5  463   3.820   2.555  13.869  0.5964  0.5255 -0.9315
   29TMC2    H5  464   3.736   2.513  13.841  0.2608 -0.1242  1.0278
   30MPD2     C  465   3.055   1.962  14.088 -0.2200  0.4536  1.3557
   30MPD2    C1  466   3.195   1.936  14.085 -0.2439  0.1759  0.4803
   30MPD2    C2  467   3.283   2.039  14.097 -0.4863  0.2973  0.2872
   30MPD2    C3  468   3.241   2.174  14.103  0.0398 -1.1048  0.4662
   30MPD2    C4  469   3.102   2.195  14.112 -0.9589  0.0311  0.4952
   30MPD2    C5  470   3.017   2.092  14.115 -0.2252  0.1783  0.1525
   30MPD2     H  471   3.389   2.018  14.098 -0.0439  2.5423  1.4520
   30MPD2    H1  472   3.054   2.292  14.102  0.3374  0.6533  0.3082
   30MPD2    H2  473   2.982   1.890  14.051  0.1235  0.6619  0.2775
   30MPD2    H3  474   2.910   2.108  14.109 -0.5602 -1.4274  1.7728
   30MPD2     N  475   3.325   2.287  14.101 -0.0450  0.2161  0.4512
   30MPD2    H5  476   3.278   2.375  14.119 -1.6739 -1.0086  2.1616
   30MPD2    N1  477   3.249   1.806  14.049 -0.4849  0.2023  0.1665
   30MPD2    H7  478   3.349   1.794  14.054 -1.0772 -3.2348  4.1434
   31TMC2    C1  479   1.045   0.870  15.129  0.2894 -0.3319  0.3042
   31TMC2    C2  480   0.903   0.894  15.146  0.2157 -0.1906 -0.0093
   31TMC2    C3  481   0.854   0.851  15.264 -0.0852 -0.3794 -1.0938
   31TMC2    C4  482   1.119   0.800  15.217  0.1095  0.5284  0.1123
   31TMC2    C5  483   1.059   0.765  15.330  0.0965 -0.0773 -0.1617
   31TMC2    C6  484   0.930   0.788  15.356 -0.1807 -0.0666 -0.5893
   31TMC2     C  485   1.106   0.945  15.025 -0.3746  0.6404 -1.1998
   31TMC2     O  486   1.030   1.003  14.945 -0.2771 -0.2082  0.6164
   31TMC2     H  487   0.844   0.964  15.087  1.3086 -1.0337 -2.1019
   31TMC2    H1  488   1.225   0.777  15.214 -0.5331 -2.3364 -0.3831
   31TMC2    H2  489   0.890   0.771  15.455  0.8887 -0.4183 -0.2112
   31TMC2    C7  490   1.151   0.742  15.447 -0.1937  0.0679 -0.7616
   31TMC2    C8  491   0.724   0.897  15.312 -0.0584 -0.3085 -0.3924
   31TMC2    O1  492   1.223   0.646  15.439  0.7015 -0.1417 -0.6329
   31TMC2    O2  493   0.694   0.913  15.429 -0.2179  0.1498 -0.4006
   31TMC2    O5  494   0.640   0.847  15.221  0.2703 -0.3325 -0.2823
   31TMC2    H5  495   0.692   0.826  15.141 -0.7939 -1.4223 -0.6805
   32MPD2     C  496   1.531   1.153  14.796 -0.6358 -0.4220 -0.5572
   32MPD2    C1  497   1.398   1.178  14.778 -0.5596 -0.6664  0.1255
   32MPD2    C2  498   1.300   1.105  14.847 -0.6337 -0.0928  0.3779
   32MPD2    C3  499   1.334   1.020  14.956 -0.1757  0.3472 -0.0828
   32MPD2    C4  500   1.464   1.008  14.972  1.0805 -0.8516 -0.6905
   32MPD2    C5  501   1.561   1.066  14.896  0.8132  0.8615  0.4275
   32MPD2     H  502   1.195   1.117  14.820 -1.4055 -1.8121  2.6005
   32MPD2    H1  503   1.506   0.943  15.049 -1.0490  0.1067  1.2892
   32MPD2    H2  504   1.608   1.200  14.736 -0.4063  0.7911  0.6776
   32MPD2    H3  505   1.663   1.055  14.929  0.9020  0.6756  0.0911
   32MPD2     N  506   1.243   0.950  15.042 -0.1720  0.5201 -0.7585
   32MPD2    H5  507   1.286   0.904  15.121 -2.0260 -0.4443 -0.3286
   32MPD2    N1  508   1.371   1.276  14.680 -0.7465 -0.5104  0.0490
   32MPD2    H7  509   1.454   1.320  14.641 -2.1924  0.7332 -1.6234
   33TMC2    C1  510   0.447   3.793  10.674 -0.1736  0.5016 -0.1400
   33TMC2    C2  511   0.335   3.860  10.718 -0.5001 -0.0448 -0.2680
   33TMC2    C3  512   0.275   3.945  10.633 -0.2115 -0.0844 -0.2632
   33TMC2    C4  513   0.508   3.814  10.548  0.3992 -0.9506  0.0474
   33TMC2    C5  514   0.440   3.899  10.463  1.0060 -0.2930  0.2995
   33TMC2    C6  515   0.335   3.968  10.511 -0.5637 -0.1158  0.1116
   33TMC2     C  516   0.483   3.667  10.747 -0.7150 -0.1431 -0.2316
   33TMC2     O  517   0.419   3.656  10.853 -0.0424 -0.4998  0.2671
   33TMC2     H  518   0.274   3.821  10.799  1.6161  2.0588  2.3310
   33TMC2    H1  519   0.602   3.770  10.518  1.1983 -0.1260  1.3809
   33TMC2    H2  520   0.281   4.045  10.457  0.5400  1.3623  1.1268
   33TMC2    C7  521   0.497   3.912  10.330 -0.1757  0.0336 -0.6620
   33TMC2    C8  522   0.135   3.982  10.645  0.4026 -0.1476 -0.5861
   33TMC2    O1  523   0.616   3.901  10.314  0.0965 -0.4417  0.3112
   33TMC2    O2  524   0.073   4.025  10.544  0.0140  0.2457  0.2767
   33TMC2    O5  525   0.080   3.965  10.769  0.3367  0.6058  0.4070
   33TMC2    H5  526   0.146   3.945  10.838  0.1078  3.0560  1.3257
   34MPD2     C  527   0.745   3.242  10.842  0.1693  0.5353 -0.3764
   34MPD2    C1  528   0.627   3.287  10.909  0.4619 -0.1227 -0.3963
   34MPD2    C2  529   0.558   3.401  10.859 -0.7267 -0.0221 -0.4394
   34MPD2    C3  530   0.616   3.465  10.748 -0.1937  0.4537  0.3884
   34MPD2    C4  531   0.733   3.425  10.693  0.5210 -0.1385  0.7275
   34MPD2    C5  532   0.803   3.319  10.748 -0.4347  0.0054  0.2242
   34MPD2     H  533   0.472   3.437  10.915  0.8922  0.5989  1.6407
   34MPD2    H1  534   0.785   3.485  10.619  2.4768 -2.5550  0.1429
   34MPD2    H2  535   0.794   3.153  10.879 -0.1635  0.4895 -0.0395
   34MPD2    H3  536   0.895   3.293  10.698 -0.6484  0.2033 -0.2665
   34MPD2     N  537   0.571   3.582  10.686  0.5060  0.7414  0.2141
   34MPD2    H5  538   0.629   3.618  10.611  0.8048 -1.3625 -0.5664
   34MPD2    N1  539   0.590   3.214  11.023 -1.1850 -0.2470 -0.0215
   34MPD2    H7  540   0.649   3.134  11.044 -2.8619 -0.8960  2.2238
   35TMC2    C1  541   1.958   4.613  11.319  0.1727  0.1033  0.7906
   35TMC2    C2  542   1.839   4.630  11.249  1.0649 -0.3141 -0.1876
   35TMC2    C3  543   1.725   4.570  11.286 -0.5351  0.2211 -1.2657
   35TMC2    C4  544   1.965   4.535  11.433  0.2415 -0.3279 -0.3696
   35TMC2    C5  545   1.836   4.500  11.479 -0.2888  0.0345 -0.0872
   35TMC2    C6  546   1.720   4.505  11.400 -0.2895  0.0020 -0.4962
   35TMC2     C  547   2.078   4.671  11.255 -0.4955  0.1204 -0.0330
   35TMC2     O  548   2.057   0.010  11.160  0.4813  0.2351 -0.1041
   35TMC2     H  549   1.841   4.689  11.158  0.2496  0.4251  0.2721
   35TMC2    H1  550   2.048   4.531  11.502  0.2601 -0.3735 -0.3946
   35TMC2    H2  551   1.623   4.474  11.435  1.2737 -1.4094  2.5669
   35TMC2    C7  552   1.813   4.428  11.601 -0.7327 -0.0678 -0.5156
   35TMC2    C8  553   1.607   4.573  11.194 -0.6402  0.5087 -0.2970
   35TMC2    O1  554   1.700   4.376  11.619  0.1342 -0.1286 -0.0046
   35TMC2    O2  555   1.492   4.608  11.238  0.3068 -0.0258 -0.1802
   35TMC2    O5  556   1.651   4.560  11.067  0.0804  0.5026  0.2007
   35TMC2    H5  557   1.736   4.513  11.053  0.7446  1.5937  0.6266
   36MPD2     C  558   2.566   0.042  11.257 -0.5601  0.5275  1.1392
   36MPD2    C1  559   2.556   4.681  11.347  0.7567 -0.1531  0.1158
   36MPD2    C2  560   2.426   4.627  11.356 -0.0238  0.1702  0.4255
   36MPD2    C3  561   2.318   4.687  11.295  0.1132  0.0474  0.1625
   36MPD2    C4  562   2.334   0.050  11.201 -0.2042  0.1177 -0.6100
   36MPD2    C5  563   2.461   0.092  11.178  0.8489 -0.4191  0.4611
   36MPD2     H  564   2.399   4.549  11.427  1.2842 -0.2222  0.4749
   36MPD2    H1  565   2.255   0.101  11.148 -1.1579 -0.7065  0.0326
   36MPD2    H2  566   2.665   0.082  11.238 -0.8182  0.8733  0.5462
   36MPD2    H3  567   2.487   0.165  11.103  0.5677 -1.0910 -0.2854
   36MPD2     N  568   2.193   4.636  11.323 -0.0457 -0.4344 -0.1333
   36MPD2    H5  569   2.190   4.554  11.382 -1.1759  0.4386  1.0254
   36MPD2    N1  570   2.663   4.654  11.435 -0.3925 -0.3986 -0.0235
   36MPD2    H7  571   2.753   4.702  11.429 -0.7325  0.4531  1.7207
   37TMC2    C1  572   0.123   4.517  12.184  0.2275 -0.2885 -0.0515
   37TMC2    C2  573   0.232   4.543  12.261 -1.1098 -0.3170 -0.1572
   37TMC2    C3  574   0.350   4.555  12.193  0.7158  0.0265  0.5527
   37TMC2    C4  575   0.126   4.492  12.050  0.0047 -0.0655  0.2224
   37TMC2    C5  576   0.250   4.516  11.986  0.1761  0.2932 -0.0803
   37TMC2    C6  577   0.356   4.561  12.060 -0.1168 -0.1583 -0.2250
   37TMC2     C  578   4.735   4.462  12.253 -0.2453  0.8529  0.3360
   37TMC2     O  579   4.671   4.376  12.192  0.4348  0.2218 -0.3738
   37TMC2     H  580   0.229   4.533  12.369  0.6345  1.1104  0.0270
   37TMC2    H1  581   0.033   4.488  11.993  0.1214 -3.2388  0.2955
   37TMC2    H2  582   0.443   4.602  12.009 -0.4151  0.8617  0.0909
   37TMC2    C7  583   0.241   4.580  11.858  0.4200  0.4308 -0.4869
   37TMC2    C8  584   0.463   4.615  12.263 -0.4374  0.3105  0.5860
   37TMC2    O1  585   0.151   4.661  11.846 -0.6661 -0.2555 -0.2035
   37TMC2    O2  586   0.576   4.615  12.214 -0.1638 -0.6722 -0.1463
   37TMC2    O5  587   0.418   4.717  12.340 -0.8167 -0.3146  0.6948
   37TMC2    H5  588   0.329   4.705  12.380 -1.5496 -1.7244 -1.3817
   38MPD2     C  589   4.642   4.267  12.719 -0.0619  0.1664 -0.9630
   38MPD2    C1  590   4.710   4.391  12.730  0.1679 -0.4329  0.2313
   38MPD2    C2  591   0.002   4.460  12.619 -0.3702 -0.4584  0.5419
   38MPD2    C3  592   4.700   4.420  12.494  0.0044  1.1156 -0.2739
   38MPD2    C4  593   4.625   4.303  12.487  0.5527 -0.1818 -0.0956
   38MPD2    C5  594   4.598   4.223  12.596  0.2018  0.1593 -0.7804
   38MPD2     H  595   0.050   4.557  12.625 -2.1299  0.5101 -0.8175
   38MPD2    H1  596   4.583   4.271  12.392  1.0270  0.0684 -0.3905
   38MPD2    H2  597   4.614   4.203  12.802  0.5561  0.0190 -0.8702
   38MPD2    H3  598   4.532   4.137  12.590  1.8697 -1.2361  1.0848
   38MPD2     N  599   0.009   4.493  12.381 -0.2871 -0.1677 -0.1006
   38MPD2    H5  600   0.064   4.577  12.398 -1.8776  0.7311  0.6478
   38MPD2    N1  601   0.015   4.452  12.855  0.8266  0.0181  0.1911
   38MPD2    H7  602   0.081   4.529  12.855  0.3360  0.4489  1.1985
   39TMC2    C1  603   3.389   1.929   1.864 -0.1110 -0.2038 -0.0881
   39TMC2    C2  604   3.349   1.851   1.966 -0.2491  0.3774 -0.4798
   39TMC2    C3  605   3.429   1.779   2.044 -0.2741 -0.0684  0.3523
   39TMC2    C4  606   3.529   1.930   1.846 -0.7343 -0.9378  0.2263
   39TMC2    C5  607   3.611   1.857   1.926  0.5361  0.0234  0.6807
   39TMC2    C6  608   3.565   1.775   2.021 -0.7530  0.0046  0.6157
   39TMC2     C  609   3.301   1.981   1.768  0.2970 -0.1553  0.8286
   39TMC2     O  610   3.191   2.010   1.816 -0.2351 -0.2762  0.2559
   39TMC2     H  611   3.244   1.833   1.984 -0.2326  1.0408  0.2818
   39TMC2    H1  612   3.571   1.999   1.774 -1.2565 -2.6091 -1.6883
   39TMC2    H2  613   3.626   1.716   2.088  1.1958 -0.3263 -1.4671
   39TMC2    C7  614   3.747   1.852   1.894 -0.1806  0.3975 -0.1750
   39TMC2    C8  615   3.368   1.696   2.149  0.7907  0.0608  0.1254
   39TMC2    O1  616   3.803   1.745   1.930  0.6660 -0.9141 -0.8453
   39TMC2    O2  617   3.247   1.667   2.150 -0.3775 -0.4579  0.1742
   39TMC2    O5  618   3.430   1.742   2.262 -0.3656  0.6904 -0.4341
   39TMC2    H5  619   3.514   1.792   2.253 -0.4178  1.2185  1.9804
   40MPD2     C  620   3.346   1.933   1.409 -0.1508 -0.1794 -0.7163
   40MPD2    C1  621   3.289   1.994   1.518  0.3619  0.2426 -0.5644
   40MPD2    C2  622   3.175   2.070   1.512 -0.4629 -0.5515  0.4670
   40MPD2    C3  623   3.111   2.071   1.388 -0.5301 -0.5168 -0.3135
   40MPD2    C4  624   3.160   2.001   1.276  1.3339  0.0955  0.1172
   40MPD2    C5  625   3.286   1.943   1.289  0.8089 -0.1004  0.4003
   40MPD2     H  626   3.137   2.109   1.606  3.0398  0.7435  1.3537
   40MPD2    H1  627   3.126   2.014   1.174  0.3842  1.0308  0.5581
   40MPD2    H2  628   3.432   1.868   1.422 -0.7630 -0.4073  2.1305
   40MPD2    H3  629   3.336   1.905   1.201  1.3150  2.6849 -0.5098
   40MPD2     N  630   2.981   2.136   1.371 -0.3850  0.6785 -0.1095
   40MPD2    H5  631   2.945   2.113   1.279 -0.2950 -0.5577  0.1599
   40MPD2    N1  632   3.350   1.966   1.638 -0.2428  0.0844  0.6977
   40MPD2    H7  633   3.428   1.900   1.632 -0.6536 -0.5925  2.8959
   41TMC2    C1  634   1.990   4.529  13.438 -0.2768 -0.4295  0.1381
   41TMC2    C2  635   1.895   4.464  13.369 -0.1775  0.4582  0.1545
   41TMC2    C3  636   1.882   4.497  13.240  0.4717 -0.2847 -0.3429
   41TMC2    C4  637   2.069   4.634  13.393 -0.4613 -0.1354 -0.1588
   41TMC2    C5  638   2.037   4.687  13.267  0.6242  0.1965 -0.3803
   41TMC2    C6  639   1.946   4.616  13.188 -0.0990  0.8599  1.0507
   41TMC2     C  640   2.004   4.480  13.571  0.4964 -0.6967 -0.0717
   41TMC2     O  641   1.963   4.367  13.604  0.1380  0.6802  0.1157
   41TMC2     H  642   1.847   4.377  13.412  0.4627  1.3425  2.6890
   41TMC2    H1  643   2.151   4.667  13.456  1.7827 -1.6671 -2.2858
   41TMC2    H2  644   1.903   4.656  13.097 -0.9364 -2.9381 -0.2107
   41TMC2    C7  645   2.142   0.034  13.196  0.0944 -0.2430 -0.5196
   41TMC2    C8  646   1.798   4.420  13.153 -0.5876  0.7176 -0.4055
   41TMC2    O1  647   2.251   0.054  13.255 -0.5655  0.3416  0.1330
   41TMC2    O2  648   1.802   4.447  13.031  0.3561  0.0142  0.1248
   41TMC2    O5  649   1.775   4.296  13.194  0.1364  0.1416  0.0142
   41TMC2    H5  650   1.746   4.296  13.288 -0.1833 -1.9370 -0.0962
   42MPD2     C  651   2.055   4.447  13.871 -0.5058  0.6936 -0.1764
   42MPD2    C1  652   2.076   4.562  13.801  0.0553  0.7289 -0.0916
   42MPD2    C2  653   2.121   4.678  13.858  0.4050 -0.2989  0.1074
   42MPD2    C3  654   2.162   4.669  13.992 -0.1977 -0.0563 -0.5310
   42MPD2    C4  655   2.148   4.551  14.061  0.3211  0.1250  0.1761
   42MPD2    C5  656   2.094   4.440  14.000  0.0272  0.0963 -0.8575
   42MPD2     H  657   2.131   0.032  13.798 -0.5147 -0.5123 -0.3667
   42MPD2    H1  658   2.190   4.536  14.160  0.2635  3.0182  0.6415
   42MPD2    H2  659   2.023   4.354  13.826 -1.7636  0.0290  2.0848
   42MPD2    H3  660   2.096   4.348  14.057 -1.8542  0.5043 -0.1267
   42MPD2     N  661   2.219   0.031  14.068  0.3117  0.1071  0.1283
   42MPD2    H5  662   2.243   4.734  14.161  0.2936  1.5014  0.6221
   42MPD2    N1  663   2.050   4.572  13.666 -0.6361 -0.1254  0.0409
   42MPD2    H7  664   2.062   4.666  13.628  0.3237  0.6148  2.2076
   43TMC2    C1  665   3.276   3.306   1.181 -0.1249 -0.1455 -0.2943
   43TMC2    C2  666   3.154   3.376   1.201  0.1770 -0.1529  0.3297
   43TMC2    C3  667   3.153   3.432   1.329 -0.1455  0.1745  0.1842
   43TMC2    C4  668   3.373   3.285   1.275  0.4258  0.3008  0.4883
   43TMC2    C5  669   3.355   3.340   1.398 -0.3867  0.1557  0.3832
   43TMC2    C6  670   3.244   3.417   1.428 -0.5193  0.6300 -0.2018
   43TMC2     C  671   3.298   3.243   1.047  0.3689  0.1825 -0.0531
   43TMC2     O  672   3.417   3.221   1.013 -0.1694 -0.0280 -0.0411
   43TMC2     H  673   3.089   3.390   1.116 -0.5160 -0.0826  0.8692
   43TMC2    H1  674   3.461   3.225   1.254 -0.8087 -0.7955 -1.5696
   43TMC2    H2  675   3.239   3.476   1.519 -2.0703 -1.5947  1.1405
   43TMC2    C7  676   3.464   3.317   1.500 -0.6652 -0.1813 -0.1082
   43TMC2    C8  677   3.044   3.520   1.353 -0.0092  0.3175 -0.3167
   43TMC2    O1  678   3.572   3.312   1.447 -0.4317  0.0925 -0.0262
   43TMC2    O2  679   3.043   3.591   1.450  0.3775  0.4017 -0.2583
   43TMC2    O5  680   2.961   3.527   1.253  0.7032  0.4860  0.0185
   43TMC2    H5  681   2.974   3.458   1.185  2.1312 -0.4988  1.2954
   44MPD2     C  682   3.098   2.982   0.639  0.4229 -0.0741  0.0775
   44MPD2    C1  683   3.231   3.009   0.677  0.0149  0.5030 -0.7245
   44MPD2    C2  684   3.253   3.083   0.789  0.3042  0.0961  0.2136
   44MPD2    C3  685   3.152   3.130   0.870  0.5827 -0.1718  0.3138
   44MPD2    C4  686   3.022   3.098   0.833 -0.3340 -0.3038 -0.4252
   44MPD2    C5  687   3.000   3.034   0.714 -0.2078 -0.3018  0.2185
   44MPD2     H  688   3.355   3.098   0.825  0.0598 -3.2826  2.3429
   44MPD2    H1  689   2.933   3.125   0.889 -0.7973 -0.7981 -0.9195
   44MPD2    H2  690   3.071   2.927   0.549  2.6860  0.1777 -0.7631
   44MPD2    H3  691   2.896   3.012   0.689 -0.2965 -1.6303  1.7409
   44MPD2     N  692   3.172   3.199   0.990  0.2417 -0.1349 -0.3335
   44MPD2    H5  693   3.082   3.225   1.030  0.1235  0.1184 -0.7647
   44MPD2    N1  694   3.340   2.973   0.600  0.0126  0.1359 -0.4395
   44MPD2    H7  695   3.431   3.011   0.623  0.4558 -0.1765 -1.6617
   45TMC2    C1  696   4.525   0.322   9.724 -0.4525  0.5815  0.3159
   45TMC2    C2  697   4.619   0.324   9.625  0.1384 -0.2836  0.4067
   45TMC2    C3  698   4.696   0.437   9.624 -0.1277  0.2461  0.1802
   45TMC2    C4  699   4.492   0.430   9.806  0.0592 -0.4996 -0.3154
   45TMC2    C5  700   4.570   0.541   9.794  0.4725 -0.0685  0.1457
   45TMC2    C6  701   4.672   0.546   9.705  0.4935 -0.0131  0.3984
   45TMC2     C  702   4.442   0.201   9.718  0.4973  0.3774 -0.0242
   45TMC2     O  703   4.486   0.109   9.652  0.4732  0.3327  0.0048
   45TMC2     H  704   4.634   0.241   9.558  1.8376 -0.3374  0.8543
   45TMC2    H1  705   4.419   0.405   9.882  0.5028  0.9234  0.5679
   45TMC2    H2  706   4.727   0.638   9.687  0.7548  0.4815  3.7981
   45TMC2    C7  707   4.518   0.656   9.869 -0.2058  0.7689 -0.2713
   45TMC2    C8  708   0.003   0.470   9.494  0.2754  0.0002  0.4706
   45TMC2    O1  709   4.471   0.628   9.982 -0.2022  0.0881 -0.3767
   45TMC2    O2  710   4.688   0.438   9.387 -0.0585  0.3856  0.5360
   45TMC2    O5  711   0.122   0.529   9.503  0.3695 -0.1145  0.3457
   45TMC2    H5  712   0.152   0.520   9.596 -0.1260 -1.8009  0.3419
   46MPD2     C  713   4.224   4.725   9.716 -0.2837  0.4088 -0.4442
   46MPD2    C1  714   4.206   0.126   9.723  0.0971 -0.1317 -0.1599
   46MPD2    C2  715   4.078   0.177   9.691 -0.6933 -0.3544  0.0632
   46MPD2    C3  716   3.973   0.091   9.656  0.2395 -0.2202  0.4632
   46MPD2    C4  717   4.002   4.686   9.655 -1.1642  0.2101 -0.6957
   46MPD2    C5  718   4.129   4.635   9.674  0.9842 -0.8721 -0.3385
   46MPD2     H  719   4.076   0.285   9.688 -1.4977 -0.3914 -0.5269
   46MPD2    H1  720   3.921   4.615   9.645 -0.5410 -0.4913 -0.7579
   46MPD2    H2  721   4.321   4.679   9.725 -0.4128  0.3148  0.4033
   46MPD2    H3  722   4.143   4.528   9.665  1.1151 -0.8143 -0.8467
   46MPD2     N  723   3.842   0.136   9.622 -0.6039 -0.0388  0.1549
   46MPD2    H5  724   3.818   0.233   9.642 -0.5156 -0.2541  1.3141
   46MPD2    N1  725   4.309   0.224   9.749 -0.2728  0.4586 -0.1978
   46MPD2    H7  726   4.282   0.319   9.772 -1.9162 -0.1330  0.3059
   47TMC2    C1  727   0.661   1.133   9.187 -0.0280 -0.9024  0.3159
   47TMC2    C2  728   0.616   1.051   9.084  0.7380 -0.3757 -0.6440
   47TMC2    C3  729   0.483   1.028   9.067  0.4471 -0.4941  0.4269
   47TMC2    C4  730   0.571   1.203   9.261 -0.1642  0.1579  0.1860
   47TMC2    C5  731   0.441   1.186   9.242  0.8257  0.0888  0.6254
   47TMC2    C6  732   0.392   1.095   9.151 -0.6212 -0.0069  0.3976
   47TMC2     C  733   0.800   1.155   9.214  0.1182  0.8196 -0.8592
   47TMC2     O  734   0.831   1.251   9.283  0.0473  0.3514 -0.0589
   47TMC2     H  735   0.688   1.013   9.013  0.7153 -1.7587  0.0651
   47TMC2    H1  736   0.609   1.275   9.333 -0.0951 -0.0869  0.3939
   47TMC2    H2  737   0.287   1.078   9.130 -0.3778  0.9269 -1.5438
   47TMC2    C7  738   0.357   1.219   9.349 -0.5625  0.0288 -0.5497
   47TMC2    C8  739   0.428   0.944   8.963  0.3352  0.5806 -0.4144
   47TMC2    O1  740   0.244   1.232   9.314 -0.1769 -0.0398 -0.7110
   47TMC2    O2  741   0.307   0.947   8.933 -0.3148  0.0145 -0.0020
   47TMC2    O5  742   0.507   0.838   8.947 -0.1499 -0.3583 -0.2296
   47TMC2    H5  743   0.593   0.856   8.989 -0.8180  0.8094  0.6601
   48MPD2     C  744   1.092   1.130   9.239 -0.2883 -0.2446  0.3195
   48MPD2    C1  745   1.012   1.021   9.222 -0.1703 -0.3642  0.4807
   48MPD2    C2  746   1.072   0.895   9.226  0.7341 -0.7094  0.0891
   48MPD2    C3  747   1.204   0.880   9.272 -0.3266  0.1037 -0.3259
   48MPD2    C4  748   1.277   0.992   9.304  1.0849  0.6891  0.0606
   48MPD2    C5  749   1.226   1.116   9.280  0.0079  0.9626 -0.7172
   48MPD2     H  750   1.011   0.809   9.203  0.4817  0.3142 -3.0226
   48MPD2    H1  751   1.380   0.981   9.336  0.7469 -2.1686  0.1468
   48MPD2    H2  752   1.053   1.231   9.236  0.3291 -0.0682 -1.4956
   48MPD2    H3  753   1.278   1.209   9.303 -0.7723  1.2944 -0.3084
   48MPD2     N  754   1.255   0.743   9.302  0.3679 -0.3266 -0.3534
   48MPD2    H5  755   1.197   0.664   9.275 -0.6961  0.9564 -1.8138
   48MPD2    N1  756   0.872   1.039   9.185 -0.8149 -0.1617  0.2554
   48MPD2    H7  757   0.820   0.955   9.160 -0.4091 -0.4346  0.3257
   49TMC2    C1  758   4.689   4.351  10.487  0.0349 -0.2216  0.1692
   49TMC2    C2  759   4.674   4.258  10.389 -0.4105  0.8940  0.3304
   49TMC2    C3  760   0.042   4.247  10.293 -0.4890 -0.2118  0.2270
   49TMC2    C4  761   0.069   4.422  10.508  0.0677 -0.5488 -0.1808
   49TMC2    C5  762   0.166   4.403  10.409  0.3846 -0.1843 -0.2159
   49TMC2    C6  763   0.151   4.328  10.299 -0.0177 -0.2387  0.5770
   49TMC2     C  764   4.612   4.325  10.607 -0.1557 -0.2189  0.0292
   49TMC2     O  765   4.607   4.415  10.692  0.4419 -0.0854  0.3294
   49TMC2     H  766   4.578   4.215  10.365 -1.0099  3.1004 -1.2217
   49TMC2    H1  767   0.086   4.465  10.606  1.1156  0.0398 -0.6272
   49TMC2    H2  768   0.227   4.313  10.223 -0.0866  0.5517  0.3523
   49TMC2    C7  769   0.278   4.495  10.431 -0.4086 -0.1228  0.6091
   49TMC2    C8  770   0.018   4.174  10.166 -0.5057  0.1373  0.3193
   49TMC2    O1  771   0.295   4.545  10.540 -0.6694  1.0017  0.0506
   49TMC2    O2  772   0.042   4.228  10.059 -0.2608  0.0263  0.3760
   49TMC2    O5  773   4.654   4.084  10.186  0.0826 -0.6462 -0.4611
   49TMC2    H5  774   4.643   4.029  10.266 -0.1272 -1.6506 -1.1819
   50MPD2     C  775   4.434   4.209  10.821  0.1680  0.2193  0.7587
   50MPD2    C1  776   4.486   4.140  10.707  0.6113  0.3041  0.6845
   50MPD2    C2  777   4.454   4.010  10.698  0.4440  0.0748  0.7083
   50MPD2    C3  778   4.374   3.937  10.789 -0.2316 -0.3839  0.1834
   50MPD2    C4  779   4.316   4.009  10.895  0.2332 -0.6479 -0.0885
   50MPD2    C5  780   4.351   4.137  10.906  0.5760 -0.2017 -0.5788
   50MPD2     H  781   4.490   3.966  10.606 -0.1082 -2.3555  1.6629
   50MPD2    H1  782   4.260   3.964  10.977 -0.7011  0.9209  0.1274
   50MPD2    H2  783   4.452   4.315  10.832 -3.1439  0.6558  1.9420
   50MPD2    H3  784   4.313   4.198  10.987  0.8434  0.9594 -1.3240
   50MPD2     N  785   4.345   3.804  10.770  0.2672  0.0978 -0.6368
   50MPD2    H5  786   4.284   3.765  10.842  0.0275  0.3535 -0.7024
   50MPD2    N1  787   4.565   4.200  10.607 -0.1498  0.6673 -0.2959
   50MPD2    H7  788   4.604   4.137  10.538 -0.7867 -0.3987  0.3121
   51TMC2    C1  789   1.430   1.153   1.366  0.1785  0.0172 -0.1692
   51TMC2    C2  790   1.452   1.113   1.232 -0.5773  0.6211  0.5721
   51TMC2    C3  791   1.574   1.147   1.182  0.4678  0.6309  0.2017
   51TMC2    C4  792   1.526   1.213   1.436 -0.5284 -0.0212 -0.3989
   51TMC2    C5  793   1.655   1.227   1.392 -0.7455  0.4933 -0.3047
   51TMC2    C6  794   1.680   1.202   1.255 -0.3413  0.3638  0.7882
   51TMC2     C  795   1.294   1.141   1.420 -0.3103  0.4883  0.0835
   51TMC2     O  796   1.203   1.153   1.338  0.3183  0.2150 -0.5296
   51TMC2     H  797   1.373   1.074   1.169  0.1786  2.4186 -1.4777
   51TMC2    H1  798   1.502   1.255   1.533  1.5110 -0.3382  0.2480
   51TMC2    H2  799   1.772   1.219   1.200 -0.8780 -0.5732 -0.4179
   51TMC2    C7  800   1.744   1.319   1.461  0.3874 -0.1492 -0.0623
   51TMC2    C8  801   1.608   1.109   1.045  0.1089 -0.6007  0.2103
   51TMC2    O1  802   1.700   1.374   1.563 -0.2587 -0.0602  0.5544
   51TMC2    O2  803   1.702   1.149   0.986 -0.2063  0.0089 -0.2549
   51TMC2    O5  804   1.571   0.976   1.032  0.1744 -0.2382  0.2905
   51TMC2    H5  805   1.523   0.940   1.109 -0.7397  0.3200 -0.0194
   52MPD2     C  806   0.936   1.078   1.785 -0.4076  0.1699  0.1247
   52MPD2    C1  807   0.933   1.134   1.662  0.4056  0.2493 -0.0835
   52MPD2    C2  808   1.043   1.150   1.582 -0.3026  0.0515  0.7415
   52MPD2    C3  809   1.166   1.100   1.628  0.8334 -0.5256  0.8309
   52MPD2    C4  810   1.173   1.041   1.752 -0.0647  0.2346  0.0420
   52MPD2    C5  811   1.058   1.022   1.823  0.9428 -0.0816 -0.0689
   52MPD2     H  812   1.039   1.213   1.494 -0.1260 -3.0725 -1.4938
   52MPD2    H1  813   1.265   0.991   1.782 -0.2200  0.0458  0.2063
   52MPD2    H2  814   0.858   1.053   1.855 -2.4184  1.3870 -1.6799
   52MPD2    H3  815   1.058   0.960   1.912 -0.5202 -0.2352 -0.1676
   52MPD2     N  816   1.287   1.110   1.551 -0.1563 -0.6143 -0.4334
   52MPD2    H5  817   1.368   1.077   1.603  1.9574  1.0589 -2.6761
   52MPD2    N1  818   0.809   1.173   1.615 -0.1549  0.0281  0.0967
   52MPD2    H7  819   0.807   1.227   1.529  1.9187 -2.5094 -1.5529
   53TMC2    C1  820   0.262   0.418  11.373 -0.2638 -0.2507  0.9256
   53TMC2    C2  821   0.240   0.417  11.237  0.5403  0.0198 -0.0783
   53TMC2    C3  822   0.118   0.445  11.201  1.0153  0.0335 -0.2108
   53TMC2    C4  823   0.180   0.470  11.468  0.9676  0.3155 -0.0845
   53TMC2    C5  824   0.055   0.496  11.424  0.2609 -0.0737  0.2365
   53TMC2    C6  825   0.021   0.494  11.292  0.3277 -0.6909 -0.5925
   53TMC2     C  826   0.368   0.334  11.422  0.2550 -0.1296  0.4249
   53TMC2     O  827   0.476   0.350  11.363  0.5498 -0.5253  0.2394
   53TMC2     H  828   0.301   0.345  11.182 -1.4185 -0.6136 -1.3954
   53TMC2    H1  829   0.206   0.459  11.573  0.8686  2.4805  0.1616
   53TMC2    H2  830   4.652   0.507  11.265  0.2181  0.9012  0.5935
   53TMC2    C7  831   4.691   0.541  11.518 -0.2429  0.1452  0.3574
   53TMC2    C8  832   0.076   0.420  11.073 -0.3236  0.4407 -0.3275
   53TMC2    O1  833   4.573   0.534  11.493 -0.0073 -0.4203  0.0783
   53TMC2    O2  834   4.695   0.420  11.039 -0.4447  0.3860 -0.3088
   53TMC2    O5  835   0.190   0.432  10.991 -0.3464  0.2956  0.0996
   53TMC2    H5  836   0.278   0.449  11.032  0.8172 -0.1512 -2.2342
   54MPD2     C  837   0.521   0.091  11.498  0.6283 -0.1530 -0.3871
   54MPD2    C1  838   0.397   0.113  11.541 -0.2302  0.6127  0.1613
   54MPD2    C2  839   0.330   0.018  11.620  0.1447 -0.1693 -0.5242
   54MPD2    C3  840   0.401   4.648  11.676  0.7619  0.8272  0.3731
   54MPD2    C4  841   0.529   4.627  11.632 -0.6982  0.4329 -0.4289
   54MPD2    C5  842   0.580   4.709  11.532 -0.8908  0.0416 -0.5076
   54MPD2     H  843   0.227   0.036  11.647  0.9334 -1.3018  3.2711
   54MPD2    H1  844   0.593   4.549  11.672  0.7158  2.5616  1.4881
   54MPD2    H2  845   0.576   0.159  11.433  1.5822 -0.7996 -0.2574
   54MPD2    H3  846   0.682   4.696  11.500 -0.9578  0.7046 -1.0049
   54MPD2     N  847   0.347   4.555  11.777 -0.5520  0.2051  0.3336
   54MPD2    H5  848   0.420   4.492  11.809 -2.4206 -1.4410  1.3573
   54MPD2    N1  849   0.325   0.234  11.507 -0.4106  0.3718  0.1674
   54MPD2    H7  850   0.237   0.242  11.556 -0.7534 -0.2466 -0.3375
   55TMC2    C1  851   1.523   3.844   0.319  0.1569 -1.0652  0.0496
   55TMC2    C2  852   1.612   3.913   0.242 -0.2390  0.3892  0.1261
   55TMC2    C3  853   1.702   3.841   0.169 -0.2152  0.7650  0.2892
   55TMC2    C4  854   1.515   3.708   0.316  0.3859 -0.1436  0.1533
   55TMC2    C5  855   1.604   3.637   0.234 -0.0339 -0.1011  0.0448
   55TMC2    C6  856   1.698   3.706   0.165  0.3126 -0.8218  0.0894
   55TMC2     C  857   1.413   3.915   0.390  0.1476  0.2487  0.2076
   55TMC2     O  858   1.351   3.857   0.481  0.1760  0.0167 -0.2899
   55TMC2     H  859   1.631   4.020   0.249  1.1264  0.2316 -1.2993
   55TMC2    H1  860   1.427   3.663   0.362 -0.6211 -0.3363 -2.0000
   55TMC2    H2  861   1.762   3.649   0.099 -1.0043 -1.7944 -0.3499
   55TMC2    C7  862   1.612   3.491   0.238 -0.2874 -0.0447  0.4152
   55TMC2    C8  863   1.765   3.916   0.064  0.0117 -0.0553 -0.3236
   55TMC2    O1  864   1.673   3.441   0.145 -0.2371 -0.2529  0.0453
   55TMC2    O2  865   1.730   4.029   0.045 -0.6320  0.2077  0.4997
   55TMC2    O5  866   1.896   3.879   0.081  0.0545 -0.7290  0.1201
   55TMC2    H5  867   1.914   3.784   0.068  1.5842 -0.2434 -1.2831
   56MPD2     C  868   1.322   4.263   0.382  0.5761 -0.5646 -0.3100
   56MPD2    C1  869   1.304   4.129   0.413  0.1247 -0.0383 -0.7076
   56MPD2    C2  870   1.197   4.100   0.502  0.7317 -0.6172  0.3384
   56MPD2    C3  871   1.114   4.202   0.548  0.2901 -0.1553 -0.2228
   56MPD2    C4  872   1.143   4.332   0.519 -0.2221  0.1949  0.2921
   56MPD2    C5  873   1.244   4.360   0.437  0.1804  0.3621 -0.2770
   56MPD2     H  874   1.170   3.996   0.517 -1.2621 -0.1009  0.3095
   56MPD2    H1  875   1.096   4.420   0.560  1.1488  1.5228 -0.9693
   56MPD2    H2  876   1.413   4.299   0.335  1.3191 -1.7659  0.1921
   56MPD2    H3  877   1.267   4.464   0.415  0.3169 -0.0736 -2.1898
   56MPD2     N  878   1.000   4.170   0.627  0.5168 -0.5836 -0.2949
   56MPD2    H5  879   0.979   4.072   0.645 -0.8179 -0.0263  1.2425
   56MPD2    N1  880   1.398   4.041   0.358  0.1950  0.2304  0.6229
   56MPD2    H7  881   1.462   4.085   0.293  0.5918 -0.9861  0.1976
   57TMC2    C1  882   0.656   3.702  14.068  0.1542 -0.1878  0.4269
   57TMC2    C2  883   0.660   3.570  14.111 -0.7473  0.0722  0.0648
   57TMC2    C3  884   0.674   3.475  14.012 -0.3443 -0.8166 -0.2788
   57TMC2    C4  885   0.685   3.740  13.937  0.2077  0.9800 -0.4807
   57TMC2    C5  886   0.720   3.640  13.852  0.3570  0.8822  0.6353
   57TMC2    C6  887   0.728   3.506  13.890  0.0010 -0.0944  0.3596
   57TMC2     C  888   0.526   3.752  14.108 -0.2609 -0.0578  0.2103
   57TMC2     O  889   0.441   3.668  14.128  0.4418  0.4966 -0.0101
   57TMC2     H  890   0.620   3.542  14.207 -0.1796  0.2527  0.3550
   57TMC2    H1  891   0.717   3.841  13.915  0.7495  0.7400 -0.7907
   57TMC2    H2  892   0.743   3.427  13.817 -1.9360  1.2444 -1.4914
   57TMC2    C7  893   0.754   3.675  13.717 -0.9628  0.0303  0.5893
   57TMC2    C8  894   0.689   3.332  14.051 -0.8623  0.8308  0.5779
   57TMC2    O1  895   0.711   3.783  13.669 -0.2818 -0.2889 -0.0372
   57TMC2    O2  896   0.724   3.293  14.163  0.1993 -0.7262 -0.2274
   57TMC2    O5  897   0.639   3.255  13.947  0.5366  0.2304  0.0513
   57TMC2    H5  898   0.592   3.311  13.882 -0.3548 -1.2609 -0.5796
   58MPD2     C  899   0.178   4.086  13.951 -0.2804  0.0624 -0.8920
   58MPD2    C1  900   0.157   3.963  14.006 -0.4247  0.4131 -0.1861
   58MPD2    C2  901   0.265   3.897  14.061  0.0878 -0.5091 -0.2133
   58MPD2    C3  902   0.390   3.955  14.060 -0.4374  0.5089  0.4138
   58MPD2    C4  903   0.406   4.079  14.028 -0.6317  1.0096 -0.2846
   58MPD2    C5  904   0.301   4.144  13.965 -0.3605  0.0388 -0.2527
   58MPD2     H  905   0.258   3.794  14.093 -0.0147  0.3578  2.5540
   58MPD2    H1  906   0.508   4.117  14.022 -0.8618  1.3961 -1.7022
   58MPD2    H2  907   0.095   4.137  13.902 -0.8774  1.9611  2.0651
   58MPD2    H3  908   0.317   4.232  13.904 -0.9298  1.6059  1.8417
   58MPD2     N  909   0.513   3.886  14.077  0.0307  0.4746 -0.5100
   58MPD2    H5  910   0.602   3.935  14.069  0.1493  0.0141 -1.9732
   58MPD2    N1  911   0.043   3.883  13.993 -0.1248  0.4588 -0.4621
   58MPD2    H7  912   0.054   3.789  14.028  0.5997  0.1804 -1.4154
   59TMC2    C1  913   2.784   3.858  12.616  0.3734  0.1753 -0.6025
   59TMC2    C2  914   2.749   3.742  12.677 -0.2902 -0.8574  0.1782
   59TMC2    C3  915   2.747   3.633  12.591 -0.8234 -0.7767  0.1184
   59TMC2    C4  916   2.818   3.866  12.485  0.2937  0.4310 -0.1065
   59TMC2    C5  917   2.844   3.752  12.415  0.2442  0.0147 -0.3207
   59TMC2    C6  918   2.803   3.633  12.469 -0.5655 -0.0233 -0.2129
   59TMC2     C  919   2.802   3.979  12.689  0.4824 -0.9342  0.0492
   59TMC2     O  920   2.740   4.079  12.653  0.0732 -0.0405 -0.4456
   59TMC2     H  921   2.728   3.735  12.783 -1.7045 -3.4125 -0.2663
   59TMC2    H1  922   2.861   3.958  12.448  0.9976 -0.8142 -2.4298
   59TMC2    H2  923   2.788   3.546  12.405 -0.9253  0.9425 -1.4472
   59TMC2    C7  924   2.861   3.760  12.272 -0.4633  0.4503 -0.1111
   59TMC2    C8  925   2.688   3.505  12.628  0.0179  0.1756  0.7796
   59TMC2    O1  926   2.880   3.658  12.207 -0.0198  0.2352 -0.0323
   59TMC2    O2  927   2.732   3.392  12.599  0.0747  0.0753 -0.4303
   59TMC2    O5  928   2.591   3.527  12.718 -0.1782  0.5458  0.0260
   59TMC2    H5  929   2.563   3.620  12.706 -2.4868 -0.4759 -2.6703
   60MPD2     C  930   2.909   4.168  12.869 -0.2100 -0.3080  1.1850
   60MPD2    C1  931   2.902   4.037  12.910 -0.6820 -0.2063  0.2717
   60MPD2    C2  932   2.959   3.995  13.034  0.4790  0.3007  0.3494
   60MPD2    C3  933   3.018   4.087  13.119  0.6154 -0.5007  0.1188
   60MPD2    C4  934   3.010   4.222  13.081  0.1826 -0.4158 -0.3001
   60MPD2    C5  935   2.969   4.256  12.956  0.0503  0.1746 -0.0085
   60MPD2     H  936   2.962   3.886  13.041 -3.0144  0.1970  0.1695
   60MPD2    H1  937   3.033   4.311  13.139 -0.9340 -0.4136  0.1446
   60MPD2    H2  938   2.886   4.204  12.769  0.6794 -1.7808  0.4481
   60MPD2    H3  939   2.978   4.361  12.932  3.3082  0.3060  1.9170
   60MPD2     N  940   3.086   4.049  13.240  0.2016 -0.4981  0.0703
   60MPD2    H5  941   3.113   4.116  13.311  1.6294  0.0980 -1.0401
   60MPD2    N1  942   2.852   3.942  12.811 -0.0568  0.1210 -0.5881
   60MPD2    H7  943   2.865   3.847  12.843 -0.6085  0.3652  0.3468
   61TMC2    C1  944   2.435   0.815  15.615  0.5014 -0.4468 -0.0920
   61TMC2    C2  945   2.485   0.752  15.724  0.6439  0.3148 -0.1542
   61TMC2    C3  946   2.505   0.830  15.836  0.5420  0.2316  0.0913
   61TMC2    C4  947   2.394   0.942  15.611 -0.1532 -0.9699 -0.3907
   61TMC2    C5  948   2.395   1.014  15.730  0.2496  0.3933  0.2761
   61TMC2    C6  949   2.465   0.962  15.839 -0.1241  0.2589 -0.1929
   61TMC2     C  950   2.446   0.747  15.487  0.0192 -0.2652  0.2299
   61TMC2     O  951   2.455   0.625  15.488  0.0856 -0.5269 -0.0591
   61TMC2     H  952   2.537   0.657  15.715 -0.3665 -0.2886  0.4186
   61TMC2    H1  953   2.337   0.972  15.524 -1.5209  0.0324  0.8603
   61TMC2    H2  954   2.498   1.027  15.919 -1.7976  0.5333  0.2596
   61TMC2    C7  955   2.384   1.153  15.711  0.8694  0.6872 -0.3814
   61TMC2    C8  956   2.600   0.789  15.939 -0.2665 -0.3739 -0.0650
   61TMC2    O1  957   2.381   1.196  15.596  0.0885 -0.1692  0.2150
   61TMC2    O2  958   2.657   0.869  16.016  0.1785  0.0667  0.1373
   61TMC2    O5  959   2.573   0.660  15.963 -0.1270 -0.2795  0.4925
   61TMC2    H5  960   2.502   0.618  15.910 -0.6753  0.9775  0.2470
   62MPD2     C  961   2.478   0.674  15.194  1.2238 -0.9963  0.0277
   62MPD2    C1  962   2.500   0.803  15.246 -0.4895 -0.1023  0.7866
   62MPD2    C2  963   2.545   0.901  15.159 -0.2054 -0.5020 -0.1184
   62MPD2    C3  964   2.573   0.872  15.030  0.1200  0.0969 -0.3324
   62MPD2    C4  965   2.554   0.743  14.982 -0.4874  0.2507  0.3355
   62MPD2    C5  966   2.521   0.641  15.069 -0.1732  0.1959  0.6629
   62MPD2     H  967   2.541   1.003  15.197  0.2946 -0.2876 -0.6493
   62MPD2    H1  968   2.574   0.713  14.880  1.3101 -1.6521  1.2399
   62MPD2    H2  969   2.445   0.599  15.265  2.1620  0.0596  1.5738
   62MPD2    H3  970   2.503   0.537  15.047 -0.3339  0.3089  0.2605
   62MPD2     N  971   2.617   0.962  14.933 -0.1188 -0.4236 -0.1736
   62MPD2    H5  972   2.629   0.928  14.838  0.3092 -0.2486 -0.1813
   62MPD2    N1  973   2.472   0.837  15.383 -0.0524  0.2030 -0.3202
   62MPD2    H7  974   2.465   0.934  15.412 -0.0633 -1.1081  4.0258
   63TMC2    C1  975   1.570   0.876  10.348 -0.0504 -0.6654 -0.4536
   63TMC2    C2  976   1.653   0.815  10.435  0.3846 -1.3826 -0.2512
   63TMC2    C3  977   1.774   0.868  10.471 -0.4009 -0.6360  0.6380
   63TMC2    C4  978   1.597   1.003  10.309  0.2220 -0.1594  0.1097
   63TMC2    C5  979   1.707   1.068  10.374 -0.5919 -0.7011  0.0930
   63TMC2    C6  980   1.804   1.005  10.447 -0.9540 -0.0059  0.6026
   63TMC2     C  981   1.441   0.817  10.311  0.5790 -0.2334  0.2102
   63TMC2     O  982   1.395   0.868  10.210  0.1865 -0.3403 -0.2686
   63TMC2     H  983   1.633   0.714  10.469  3.6580 -1.9814 -0.0382
   63TMC2    H1  984   1.522   1.065  10.263 -0.2783  0.1729  1.3853
   63TMC2    H2  985   1.904   1.045  10.459  0.8848 -3.7613 -2.2373
   63TMC2    C7  986   1.703   1.212  10.351 -0.0251 -0.5118 -0.7873
   63TMC2    C8  987   1.831   0.796  10.580 -0.2991 -0.1843 -0.1402
   63TMC2    O1  988   1.669   1.241  10.233 -0.3927  0.5073  0.3816
   63TMC2    O2  989   1.763   0.725  10.655  0.3747  0.5982 -0.2844
   63TMC2    O5  990   1.955   0.845  10.605  0.1475 -0.8972  0.2636
   63TMC2    H5  991   1.989   0.889  10.525 -2.7259  0.3459 -0.2719
   64MPD2     C  992   1.119   0.429  10.227  0.0440  0.1977  0.2872
   64MPD2    C1  993   1.211   0.388  10.319 -0.4440 -0.5078 -0.2099
   64MPD2    C2  994   1.295   0.482  10.381 -0.0378 -0.4639 -0.4942
   64MPD2    C3  995   1.297   0.615  10.329 -0.8077  1.2046 -0.9031
   64MPD2    C4  996   1.211   0.641  10.232  0.3198  0.7938  0.1863
   64MPD2    C5  997   1.123   0.556  10.174  0.9636  0.1465  0.6656
   64MPD2     H  998   1.371   0.453  10.452  1.0695  1.1453 -1.0170
   64MPD2    H1  999   1.212   0.732  10.173  0.4149 -0.7669 -2.2127
   64MPD2    H2 1000   1.043   0.359  10.195 -1.0929  0.9279  1.4118
   64MPD2    H3 1001   1.052   0.586  10.098  0.3188 -0.2039  1.1325
   64MPD2     N 1002   1.398   0.700  10.375  0.1433 -0.2470  0.3840
   64MPD2    H5 1003   1.449   0.658  10.452  0.1345 -1.9684 -0.5694
   64MPD2    N1 1004   1.229   0.256  10.360 -0.1081 -0.2813  0.4336
   64MPD2    H7 1005   1.307   0.227  10.419 -0.1082 -0.5268  0.3164
   65TMC2    C1 1006   2.797   0.671  15.523  0.3362 -0.5947 -0.2246
   65TMC2    C2 1007   2.828   0.634  15.397 -0.0312  0.0611  0.8289
   65TMC2    C3 1008   2.865   0.729  15.307 -0.0345 -0.0488 -0.9493
   65TMC2    C4 1009   2.795   0.802  15.559  0.8874 -0.8364  0.3237
   65TMC2    C5 1010   2.824   0.892  15.466 -0.2348  1.0005 -0.1857
   65TMC2    C6 1011   2.870   0.860  15.344  0.0673 -0.1674 -0.2199
   65TMC2     C 1012   2.797   0.578  15.636  0.6156 -0.3878 -0.3100
   65TMC2     O 1013   2.834   0.618  15.746 -0.3694  0.0314 -0.3463
   65TMC2     H 1014   2.837   0.529  15.374  1.3396  0.8914 -2.4224
   65TMC2    H1 1015   2.761   0.827  15.659  1.6546  2.1308 -0.1689
   65TMC2    H2 1016   2.861   0.926  15.258 -3.1820  0.1631  0.3774
   65TMC2    C7 1017   2.788   1.033  15.490  0.0808  0.1238 -0.4277
   65TMC2    C8 1018   2.877   0.687  15.166  0.8752 -0.0865  0.0576
   65TMC2    O1 1019   2.797   1.113  15.393  0.1451 -0.6044  0.0458
   65TMC2    O2 1020   2.852   0.571  15.130 -0.1246  0.5878 -0.2115
   65TMC2    O5 1021   2.985   0.753  15.108  0.8735  0.2845 -0.1063
   65TMC2    H5 1022   2.998   0.838  15.155  0.1247 -1.7073  3.7269
   66MPD2     C 1023   2.744   0.350  15.816 -0.0387 -0.1333  0.2537
   66MPD2    C1 1024   2.690   0.362  15.691  0.0854 -0.1528  0.6600
   66MPD2    C2 1025   2.597   0.275  15.644  1.1032 -0.0349  0.0936
   66MPD2    C3 1026   2.542   0.172  15.711 -0.1565  0.5650 -0.2020
   66MPD2    C4 1027   2.587   0.157  15.838 -0.4443 -0.6966  0.2203
   66MPD2    C5 1028   2.692   0.240  15.883  0.4072 -0.0664 -0.2072
   66MPD2     H 1029   2.547   0.305  15.553 -0.9801 -0.9006  0.9762
   66MPD2    H1 1030   2.554   0.078  15.904  1.6375 -1.8406 -0.1090
   66MPD2    H2 1031   2.830   0.407  15.847 -1.3464 -0.2439  4.1562
   66MPD2    H3 1032   2.734   0.222  15.981  0.7818 -0.7580 -0.4961
   66MPD2     N 1033   2.434   0.089  15.662  0.0470  0.3464  0.4997
   66MPD2    H5 1034   2.402   0.107  15.567 -1.2215 -0.5490  0.7664
   66MPD2    N1 1035   2.717   0.469  15.604 -0.2266  0.0044 -0.5081
   66MPD2    H7 1036   2.683   0.474  15.509 -1.1982 -0.6170 -0.1930
   67TMC2    C1 1037   3.140   3.965  14.202  0.0044 -0.0763 -0.2541
   67TMC2    C2 1038   3.056   4.075  14.183 -0.3720  1.4932  0.3137
   67TMC2    C3 1039   3.075   4.173  14.278  0.5149  0.2423  0.0468
   67TMC2    C4 1040   3.234   3.957  14.300  0.3434  0.0108 -0.8615
   67TMC2    C5 1041   3.234   4.056  14.393  0.1416  0.0178  0.0818
   67TMC2    C6 1042   3.165   4.173  14.382 -0.0534 -0.1084  0.4148
   67TMC2     C 1043   3.125   3.842  14.127  0.1643 -0.3835 -0.1453
   67TMC2     O 1044   3.197   3.746  14.158  0.1101 -0.1953  0.3187
   67TMC2     H 1045   2.991   4.084  14.097 -0.4678 -0.5369  0.1668
   67TMC2    H1 1046   3.285   3.863  14.315  1.5136  0.8334  0.2855
   67TMC2    H2 1047   3.171   4.252  14.456 -2.1737  0.0435  0.4472
   67TMC2    C7 1048   3.311   4.028  14.515  0.0075  0.2174  0.5149
   67TMC2    C8 1049   3.018   4.307  14.247 -0.5835  0.1753 -0.3640
   67TMC2    O1 1050   3.399   3.940  14.508 -0.0617 -0.0049 -0.0886
   67TMC2    O2 1051   3.077   4.407  14.290 -0.0191  0.2325  0.3188
   67TMC2    O5 1052   2.882   4.296  14.246 -0.5566  0.3770 -0.1863
   67TMC2    H5 1053   2.851   4.207  14.217 -0.9793  0.4586  0.0192
   68MPD2     C 1054   3.013   3.603  13.995  0.3725  0.2358 -0.6781
   68MPD2    C1 1055   2.967   3.730  13.974 -1.0323  0.0661 -0.1018
   68MPD2    C2 1056   2.852   3.751  13.893  0.2049 -0.4475  0.1359
   68MPD2    C3 1057   2.800   3.641  13.827 -0.4702  0.2185  0.3861
   68MPD2    C4 1058   2.861   3.519  13.840 -0.0176 -0.7488  0.0419
   68MPD2    C5 1059   2.963   3.495  13.922 -0.4856 -0.7427  0.6087
   68MPD2     H 1060   2.804   3.847  13.885  1.9848  0.2840 -1.8464
   68MPD2    H1 1061   2.840   3.438  13.771  0.9990 -0.1303 -0.9840
   68MPD2    H2 1062   3.098   3.581  14.057 -0.5689 -2.3998 -0.3109
   68MPD2    H3 1063   3.015   3.399  13.928 -1.0151 -1.1338 -1.1494
   68MPD2     N 1064   2.685   3.649  13.746  0.3615  0.2806  0.3188
   68MPD2    H5 1065   2.671   3.569  13.686  1.3381  1.4803 -1.5152
   68MPD2    N1 1066   3.014   3.841  14.043 -0.1349  0.0306 -0.8463
   68MPD2    H7 1067   2.980   3.933  14.018  0.9197  0.6136 -0.1046
   69TMC2    C1 1068   4.579   0.057  11.940  0.0508 -0.1941  0.3092
   69TMC2    C2 1069   4.498   0.069  11.830  0.3331  0.0003  0.2098
   69TMC2    C3 1070   4.537   0.161  11.737  0.1305  0.2724  0.0055
   69TMC2    C4 1071   4.705   0.113  11.948  0.1221  0.1863  0.3292
   69TMC2    C5 1072   4.735   0.204  11.854  0.4360  0.2581  0.1451
   69TMC2    C6 1073   4.650   0.228  11.743  0.3138  0.4540  0.2755
   69TMC2     C 1074   4.525   4.735  12.059 -0.0447  0.8561 -0.2703
   69TMC2     O 1075   4.590   0.021  12.159 -0.6770  0.1615 -0.3142
   69TMC2     H 1076   4.394   0.041  11.825 -0.4023  2.8944 -0.6361
   69TMC2    H1 1077   0.036   0.085  12.029 -0.2453  2.7063  1.4917
   69TMC2    H2 1078   4.661   0.312  11.674  3.5708  1.6177  2.2106
   69TMC2    C7 1079   0.130   0.251  11.844 -0.3223  0.3679  0.7730
   69TMC2    C8 1080   4.438   0.207  11.648 -0.6502 -0.0704  0.1563
   69TMC2    O1 1081   0.162   0.289  11.731  0.1444  0.7222 -0.0681
   69TMC2    O2 1082   4.344   0.268  11.695  0.0663  0.3283  0.4765
   69TMC2    O5 1083   4.494   0.231  11.524 -0.4846  0.3306 -0.3745
   69TMC2    H5 1084   4.572   0.173  11.512 -1.5471 -0.9159 -1.4163
   70MPD2     C 1085   4.267   4.485  12.120 -0.4640  0.2467 -0.1934
   70MPD2    C1 1086   4.360   4.578  12.145 -0.1540  0.3565 -0.4649
   70MPD2    C2 1087   4.388   4.595  12.279  0.8175 -0.3515 -0.1810
   70MPD2    C3 1088   4.343   4.510  12.375 -0.6226  0.2788  0.3329
   70MPD2    C4 1089   4.258   4.401  12.347 -0.2526  0.2749  0.1870
   70MPD2    C5 1090   4.217   4.396  12.217  0.0361  0.1709  0.5624
   70MPD2     H 1091   4.445   4.678  12.319  0.6122 -0.0532 -0.5077
   70MPD2    H1 1092   4.209   4.347  12.426 -0.4870 -1.7505 -1.3517
   70MPD2    H2 1093   4.221   4.471  12.022 -2.3291 -0.5268  0.7937
   70MPD2    H3 1094   4.137   4.329  12.186  0.3448 -1.0845  2.5331
   70MPD2     N 1095   4.371   4.540  12.511 -0.3518 -0.3125  0.9824
   70MPD2    H5 1096   4.433   4.619  12.531  0.6992 -0.9526  0.2479
   70MPD2    N1 1097   4.405   4.654  12.040  0.4200  0.2023  0.1023
   70MPD2    H7 1098   4.359   4.648  11.949 -0.5405 -0.3112  0.6212
   71TMC2    C1 1099   2.946   1.786   1.473 -0.1694 -0.5209  0.4047
   71TMC2    C2 1100   3.045   1.721   1.538 -0.5874  0.1963  0.2752
   71TMC2    C3 1101   3.042   1.738   1.672 -1.0012 -0.2333 -0.5189
   71TMC2    C4 1102   2.851   1.871   1.535 -0.1827  0.4737 -0.4160
   71TMC2    C5 1103   2.862   1.887   1.670 -0.2755  1.2287  0.2447
   71TMC2    C6 1104   2.955   1.817   1.741  0.0292 -0.7700  0.0673
   71TMC2     C 1105   2.942   1.789   1.331  1.4525  0.9430 -1.1347
   71TMC2     O 1106   2.855   1.863   1.283  0.0445  0.3918 -0.8873
   71TMC2     H 1107   3.125   1.661   1.497 -0.2934  2.4424 -2.4685
   71TMC2    H1 1108   2.775   1.922   1.477 -1.1865 -0.7844 -0.2086
   71TMC2    H2 1109   2.967   1.834   1.847 -0.3154 -0.1495  0.0020
   71TMC2    C7 1110   2.770   1.957   1.752 -0.1518  0.3165 -0.6604
   71TMC2    C8 1111   3.137   1.658   1.748 -0.5340  0.5122  0.3363
   71TMC2    O1 1112   2.812   1.994   1.862 -0.1938 -0.1244  0.4862
   71TMC2    O2 1113   3.238   1.601   1.706 -0.5711 -0.3440  0.1803
   71TMC2    O5 1114   3.064   1.602   1.846 -0.4212  0.0719  0.3023
   71TMC2    H5 1115   2.986   1.658   1.866  0.8061  1.8006  0.2810
   72MPD2     C 1116   2.978   1.571   0.865 -0.3091  1.0895 -0.5178
   72MPD2    C1 1117   2.925   1.694   0.898  0.0061 -0.6954 -0.6819
   72MPD2    C2 1118   2.931   1.728   1.034 -0.5341  0.3423  0.8507
   72MPD2    C3 1119   2.993   1.650   1.132  0.2374  0.1162  0.3456
   72MPD2    C4 1120   3.037   1.528   1.096 -0.6068 -0.3791 -0.2112
   72MPD2    C5 1121   3.033   1.489   0.966  0.5921  0.6821 -0.3506
   72MPD2     H 1122   2.901   1.827   1.065 -2.8386  0.2449 -1.0621
   72MPD2    H1 1123   3.091   1.460   1.162  1.1694  1.4036  0.1972
   72MPD2    H2 1124   2.990   1.540   0.761  1.4728 -1.6136  0.4774
   72MPD2    H3 1125   3.088   1.400   0.939 -0.1444 -0.2625  1.2325
   72MPD2     N 1126   3.007   1.686   1.270  0.3083  0.0071 -0.7685
   72MPD2    H5 1127   3.068   1.627   1.326 -0.1004 -0.3991 -0.7517
   72MPD2    N1 1128   2.865   1.788   0.809  0.5645  0.1114 -0.0917
   72MPD2    H7 1129   2.835   1.880   0.837 -0.3806 -0.1205 -0.3125
   73TMC2    C1 1130   1.864   3.011  14.290 -0.0880  0.2276  0.1680
   73TMC2    C2 1131   1.855   3.035  14.423  0.9069  0.0325 -0.7967
   73TMC2    C3 1132   1.859   2.923  14.506 -0.0724 -1.3135 -0.4172
   73TMC2    C4 1133   1.890   2.883  14.242  0.7260 -0.0498 -0.2122
   73TMC2    C5 1134   1.913   2.776  14.325  0.1036 -0.3839 -0.3835
   73TMC2    C6 1135   1.896   2.798  14.459 -0.0736 -0.1984  0.4791
   73TMC2     C 1136   1.956   3.100  14.233 -0.5935 -0.4868  0.4679
   73TMC2     O 1137   2.052   3.056  14.176 -0.0851 -0.0099  0.2387
   73TMC2     H 1138   1.819   3.126  14.469 -0.3386 -1.8200  1.9008
   73TMC2    H1 1139   1.907   2.870  14.135 -1.1092 -2.7641 -0.1718
   73TMC2    H2 1140   1.933   2.723  14.528  0.6538  1.6907  2.1435
   73TMC2    C7 1141   2.035   2.697  14.285 -0.5381 -0.5782  0.0144
   73TMC2    C8 1142   1.807   2.946  14.637 -0.3674 -0.5646 -0.4682
   73TMC2    O1 1143   2.059   2.589  14.335 -0.3025  0.5229 -0.2376
   73TMC2    O2 1144   1.805   3.058  14.681  0.4806  0.0112 -0.0938
   73TMC2    O5 1145   1.711   2.849  14.650 -0.1845  0.5861  0.2415
   73TMC2    H5 1146   1.727   2.770  14.593  2.0838  0.1549  1.4903
   74MPD2     C 1147   2.218   3.538  14.211 -0.1289 -0.4068 -0.2739
   74MPD2    C1 1148   2.257   3.407  14.182  0.4667 -0.5955  0.7005
   74MPD2    C2 1149   2.165   3.302  14.194  0.3019 -0.0072  0.4306
   74MPD2    C3 1150   2.036   3.327  14.240  0.4001 -0.0479 -0.0910
   74MPD2    C4 1151   2.003   3.457  14.270 -0.3280 -0.5224 -0.0714
   74MPD2    C5 1152   2.090   3.560  14.250  0.2056  0.0136  0.2479
   74MPD2     H 1153   2.190   3.209  14.145  0.2529  0.6409 -0.8533
   74MPD2    H1 1154   1.906   3.484  14.311  0.0709  0.5167  0.1701
   74MPD2    H2 1155   2.287   3.621  14.197 -1.3439  0.6797  0.1581
   74MPD2    H3 1156   2.055   3.660  14.275 -0.8821 -0.6505  1.3375
   74MPD2     N 1157   1.936   3.227  14.268  0.3033 -0.0750 -0.2163
   74MPD2    H5 1158   1.849   3.261  14.308  0.5224  0.1892  0.0336
   74MPD2    N1 1159   2.388   3.388  14.124 -0.0804  0.2038 -0.0299
   74MPD2    H7 1160   2.436   3.472  14.095 -0.1981  0.7183  1.2626
   75TMC2    C1 1161   2.506   3.732  13.627 -0.2332 -0.0316 -0.1170
   75TMC2    C2 1162   2.440   3.609  13.632  1.0352 -0.0381 -0.6465
   75TMC2    C3 1163   2.329   3.605  13.551  0.5521  0.3585 -0.0867
   75TMC2    C4 1164   2.459   3.841  13.559  0.2436  1.1774 -0.5577
   75TMC2    C5 1165   2.346   3.835  13.484  0.0199 -0.1614 -0.0374
   75TMC2    C6 1166   2.287   3.715  13.484 -0.7156  0.6354 -0.6784
   75TMC2     C 1167   2.614   3.761  13.715 -0.1867 -0.0700  0.0555
   75TMC2     O 1168   2.644   3.878  13.721 -0.0374 -0.0124  0.3523
   75TMC2     H 1169   2.468   3.533  13.704 -2.1750 -1.7107 -1.1725
   75TMC2    H1 1170   2.528   3.924  13.549  1.0591  0.5561 -0.1011
   75TMC2    H2 1171   2.207   3.698  13.411 -0.1721 -1.2227 -0.8485
   75TMC2    C7 1172   2.303   3.946  13.398  0.1395  0.6130 -0.0816
   75TMC2    C8 1173   2.261   3.483  13.507 -0.1791  0.2084  0.6880
   75TMC2    O1 1174   2.211   3.909  13.331 -0.2438 -0.4464  0.1557
   75TMC2    O2 1175   2.168   3.483  13.426 -0.1194  0.2704  0.1752
   75TMC2    O5 1176   2.347   3.383  13.528  0.2399 -0.2423  0.3960
   75TMC2    H5 1177   2.403   3.381  13.608  2.2899 -2.1706 -1.0928
   76TMC2    C1 1178   1.345   4.637  11.572 -0.9334  1.0738 -0.4574
   76TMC2    C2 1179   1.302   4.568  11.468 -0.3033 -0.3462 -0.3209
   76TMC2    C3 1180   1.293   4.431  11.483 -0.0930 -0.5489 -0.8772
   76TMC2    C4 1181   1.383   4.584  11.688  0.0260  0.2974  0.1618
   76TMC2    C5 1182   1.373   4.451  11.699  0.5817 -0.4030  0.0523
   76TMC2    C6 1183   1.330   4.370  11.597  0.1399  0.1131  0.0800
   76TMC2     C 1184   1.309   0.040  11.555  0.2332  0.5085 -0.1448
   76TMC2     O 1185   1.228   0.070  11.470 -0.0823  0.2999  0.1057
   76TMC2     H 1186   1.281   4.619  11.375 -1.0113  0.3767  0.2318
   76TMC2    H1 1187   1.365   4.653  11.770  0.1250 -0.8951  1.1840
   76TMC2    H2 1188   1.333   4.262  11.603  0.7558  0.0999 -0.4473
   76TMC2    C7 1189   1.421   4.390  11.822  0.3758 -0.4369 -0.1608
   76TMC2    C8 1190   1.260   4.348  11.374  0.7129 -0.0659  0.9815
   76TMC2    O1 1191   1.373   4.287  11.864  0.2681 -0.0592  0.9364
   76TMC2    O2 1192   1.218   4.235  11.384  0.0983  0.1183  0.3450
   76TMC2    O5 1193   1.293   4.412  11.258  0.2554  0.3622  0.6943
   76TMC2    H5 1194   1.348   4.492  11.267  0.3437  0.6268 -2.1810
   77MPD2     C 1195   1.302   0.531  11.694 -0.2419 -0.7879  0.2454
   77MPD2    C1 1196   1.199   0.446  11.645  0.5652 -0.2544 -0.2232
   77MPD2    C2 1197   1.219   0.313  11.635  0.5830  0.1202 -0.5285
   77MPD2    C3 1198   1.339   0.256  11.667  0.1375  0.2533 -0.1421
   77MPD2    C4 1199   1.448   0.333  11.704 -0.8247  0.0716 -0.2158
   77MPD2    C5 1200   1.423   0.469  11.717 -0.2153  0.4600 -0.3664
   77MPD2     H 1201   1.138   0.247  11.607  0.3213 -0.6409  2.1060
   77MPD2    H1 1202   1.547   0.291  11.709 -0.2271  1.3853 -1.1523
   77MPD2    H2 1203   1.290   0.637  11.713 -0.3930 -0.5143 -1.3385
   77MPD2    H3 1204   1.500   0.536  11.754  1.4075  0.1889 -3.2696
   77MPD2     N 1205   1.371   0.118  11.649  0.3207 -0.5043  0.3356
   77MPD2    H5 1206   1.455   0.078  11.689 -0.3148 -2.1203  0.0764
   77MPD2    N1 1207   1.068   0.494  11.621 -0.1160 -0.2606  0.3541
   77MPD2    H7 1208   0.993   0.427  11.610  0.3613 -0.6491 -0.5184
   78TMC2    C1 1209   2.615   1.663   1.098 -0.4644 -0.0174  0.5228
   78TMC2    C2 1210   2.547   1.733   1.191 -0.1118 -0.4569  0.1255
   78TMC2    C3 1211   2.529   1.684   1.318  1.2229 -0.3535 -0.0194
   78TMC2    C4 1212   2.664   1.544   1.130  0.1257  0.2442 -0.1814
   78TMC2    C5 1213   2.648   1.496   1.260  0.5281 -0.0099 -0.5966
   78TMC2    C6 1214   2.577   1.562   1.350 -0.1931  0.4807 -0.1934
   78TMC2     C 1215   2.565   1.685   0.963  0.1461  0.2214 -0.3223
   78TMC2     O 1216   2.502   1.787   0.938  0.1059 -0.3340 -0.5638
   78TMC2     H 1217   2.491   1.818   1.154  2.2792  0.9976 -0.1557
   78TMC2    H1 1218   2.743   1.497   1.072 -0.8667 -0.7123 -0.7429
   78TMC2    H2 1219   2.564   1.523   1.450 -1.1593 -3.3301 -1.8311
   78TMC2    C7 1220   2.754   1.403   1.305 -0.9635  0.2640  0.4130
   78TMC2    C8 1221   2.493   1.777   1.424 -0.3883 -0.3208  0.2324
   78TMC2    O1 1222   2.809   1.333   1.223 -0.1884 -0.2834  0.1259
   78TMC2    O2 1223   2.515   1.739   1.540  0.5331  0.1617  0.5400
   78TMC2    O5 1224   2.544   1.888   1.384  0.5579 -0.5164 -0.8913
   78TMC2    H5 1225   2.541   1.882   1.286  2.4309  3.6543 -1.2198
   79MPD1     C 1226   2.476   1.533   0.486 -0.7032  0.1622  0.9439
   79MPD1    C1 1227   2.492   1.656   0.537  0.1326  0.2838  0.2282
   79MPD1    C2 1228   2.516   1.669   0.674  0.7033 -0.4505 -0.1828
   79MPD1    C3 1229   2.513   1.560   0.760 -0.3601  0.5287 -0.2467
   79MPD1    C4 1230   2.492   1.435   0.699 -0.0540  0.0105  0.1436
   79MPD1    C5 1231   2.486   1.424   0.568  0.0746  0.6502  0.2210
   79MPD1     H 1232   2.535   1.769   0.710  0.7135  0.2551 -2.1640
   79MPD1    H1 1233   2.476   1.350   0.764  2.1895  0.4043  1.2120
   79MPD1    H2 1234   2.467   1.520   0.379  2.5427 -0.3767  0.7215
   79MPD1    H3 1235   2.467   1.326   0.527  0.4850  0.4874  0.4204
   79MPD1     N 1236   2.550   1.567   0.899 -0.4673 -0.0950 -0.2910
   79MPD1    H5 1237   2.577   1.485   0.952  1.9569  0.7046 -0.2928
   79MPD1    N1 1238   2.509   1.761   0.447 -0.4286 -0.0499 -0.6372
   79MPD1    H6 1239   2.494   1.854   0.487  1.3738  0.4561 -1.1041
   79MPD1    H7 1240   2.455   1.748   0.362 -3.1471  2.8263  0.6556
   80TMC2    C1 1241   0.570   4.286  12.355 -0.1755 -0.2464  0.0942
   80TMC2    C2 1242   0.621   4.275  12.227 -0.4768  0.0050  0.0099
   80TMC2    C3 1243   0.534   4.241  12.123  0.5928  0.0250 -0.6652
   80TMC2    C4 1244   0.438   4.266  12.377 -0.2902 -0.0212  0.2985
   80TMC2    C5 1245   0.357   4.228  12.272 -0.3394  0.1428 -0.6357
   80TMC2    C6 1246   0.401   4.230  12.146  0.3284 -0.7877 -0.7170
   80TMC2     C 1247   0.661   4.323  12.460  0.6678  0.8100  0.2314
   80TMC2     O 1248   0.781   4.315  12.433 -0.4807  1.0091  0.3304
   80TMC2     H 1249   0.727   4.288  12.208 -0.6084  0.3524 -0.4820
   80TMC2    H1 1250   0.403   4.264  12.480 -0.6199 -2.3200  0.1570
   80TMC2    H2 1251   0.328   4.209  12.069  2.2535 -2.1626 -2.1507
   80TMC2    C7 1252   0.232   4.154  12.296 -0.5085  0.0071  0.5109
   80TMC2    C8 1253   0.595   4.271  11.993 -0.4439  0.1152 -0.6568
   80TMC2    O1 1254   0.152   4.145  12.202  0.1008  0.3363  0.2435
   80TMC2    O2 1255   0.712   4.313  11.977  0.1957  0.7880 -0.0096
   80TMC2    O5 1256   0.499   4.302  11.903  0.1379 -0.3941  0.8709
   80TMC2    H5 1257   0.417   4.247  11.903 -0.6566  0.7650  3.6313
   81MPD2     C 1258   0.797   4.440  12.707  0.7383 -0.0637 -0.1596
   81MPD2    C1 1259   0.664   4.454  12.676  0.1847 -0.2053 -0.4696
   81MPD2    C2 1260   0.574   4.512  12.765  0.4817 -0.0772  0.3465
   81MPD2    C3 1261   0.612   4.538  12.894 -0.2411  0.3912  0.4300
   81MPD2    C4 1262   0.745   4.533  12.931 -0.0416 -0.8895  0.4106
   81MPD2    C5 1263   0.831   4.474  12.837 -0.4704 -0.7006  0.2198
   81MPD2     H 1264   0.472   4.524  12.731  0.9058 -2.1100 -1.7208
   81MPD2    H1 1265   0.786   4.553  13.030 -1.6342 -1.8563  1.2606
   81MPD2    H2 1266   0.876   4.405  12.642  0.5077 -2.0236  0.6239
   81MPD2    H3 1267   0.931   4.468  12.877  0.3200 -0.7131 -1.7687
   81MPD2     N 1268   0.521   4.574  12.995 -0.0150 -0.1510 -0.0283
   81MPD2    H5 1269   0.551   4.565  13.091  0.5468  0.0022 -0.1865
   81MPD2    N1 1270   0.598   4.393  12.562 -0.2919  0.6209  0.2183
   81MPD2    H7 1271   0.498   4.401  12.551 -0.3019 -0.1011 -0.2163
   82TMC2    C1 1272   2.548   3.742  11.836  0.2402  0.3419  0.1459
   82TMC2    C2 1273   2.500   3.743  11.963  0.4117  0.3111 -0.2988
   82TMC2    C3 1274   2.552   3.658  12.051 -0.2547 -0.2271 -0.0756
   82TMC2    C4 1275   2.662   3.680  11.802  0.4674  0.1693  0.3572
   82TMC2    C5 1276   2.711   3.581  11.884 -0.0591 -0.0540 -0.3979
   82TMC2    C6 1277   2.661   3.572  12.013  0.3183  0.6281 -0.4083
   82TMC2     C 1278   2.450   3.756  11.731  0.4841 -0.0336 -0.6049
   82TMC2     O 1279   2.479   3.758  11.614 -0.2685 -0.4522 -0.1213
   82TMC2     H 1280   2.404   3.789  11.987  1.4943  1.9523  0.9012
   82TMC2    H1 1281   2.690   3.691  11.698 -1.7949  0.8041 -0.1825
   82TMC2    H2 1282   2.715   3.514  12.086 -2.4181  1.5060  2.3324
   82TMC2    C7 1283   2.713   3.454  11.824  0.0460  0.4860 -0.3144
   82TMC2    C8 1284   2.484   3.607  12.170  0.0272 -0.6490  0.2828
   82TMC2    O1 1285   2.635   3.381  11.881 -0.3555  0.2032 -0.7182
   82TMC2    O2 1286   2.502   3.497  12.217  0.4378 -0.3468  0.1305
   82TMC2    O5 1287   2.479   3.715  12.247  0.8081  0.4235  0.0062
   82TMC2    H5 1288   2.492   3.801  12.201 -0.3673 -0.2295 -1.5251
   83MPD2     C 1289   1.977   3.639  11.583  0.5655  0.4101 -0.2046
   83MPD2    C1 1290   2.070   3.724  11.525  0.0180 -0.0454 -0.5490
   83MPD2    C2 1291   2.186   3.754  11.588 -0.3141  0.7363  0.5587
   83MPD2    C3 1292   2.210   3.691  11.703 -0.3637  0.8466 -0.0120
   83MPD2    C4 1293   2.110   3.621  11.767 -0.2983  0.1114  1.2578
   83MPD2    C5 1294   1.999   3.588  11.703  0.1031  0.5442 -0.0937
   83MPD2     H 1295   2.264   3.815  11.545  1.0747 -1.2358  0.3044
   83MPD2    H1 1296   2.121   3.566  11.860  3.4663 -2.8886 -0.9767
   83MPD2    H2 1297   1.889   3.606  11.529 -1.1274  1.1049  2.1338
   83MPD2    H3 1298   1.937   3.508  11.743  0.0391  0.4114 -0.4613
   83MPD2     N 1299   2.330   3.700  11.774  0.1857  0.7023 -0.2099
   83MPD2    H5 1300   2.325   3.664  11.869 -1.5894 -1.2324 -1.0453
   83MPD2    N1 1301   2.046   3.755  11.391  0.0822  0.2977  0.7325
   83MPD2    H7 1302   1.956   3.725  11.355  0.5772 -2.4093  1.7662
   84TMC2    C1 1303   4.174   3.428  10.725  0.4635  0.9327  1.0634
   84TMC2    C2 1304   4.252   3.324  10.693 -0.8455 -0.0425  0.8058
   84TMC2    C3 1305   4.373   3.364  10.645  0.4828 -0.5467 -0.0976
   84TMC2    C4 1306   4.216   3.558  10.729 -0.1245  0.3934 -0.6104
   84TMC2    C5 1307   4.343   3.588  10.690  0.4240  0.4035  0.0260
   84TMC2    C6 1308   4.423   3.490  10.640 -0.2355 -0.4801 -0.1625
   84TMC2     C 1309   4.052   3.399  10.800  0.2255 -0.7512  0.7364
   84TMC2     O 1310   3.979   3.492  10.833 -0.7231 -0.2901  0.2359
   84TMC2     H 1311   4.213   3.229  10.657 -2.0177  1.0021 -0.6744
   84TMC2    H1 1312   4.144   3.639  10.740 -1.8224 -1.1232 -0.6495
   84TMC2    H2 1313   4.525   3.506  10.607  0.2083 -0.2726  1.3154
   84TMC2    C7 1314   4.393   3.718  10.672 -0.2797 -0.1700  0.2882
   84TMC2    C8 1315   4.468   3.261  10.587 -0.0473  0.4673 -0.7330
   84TMC2    O1 1316   4.489   3.736  10.597  0.4440 -0.3866  0.4847
   84TMC2    O2 1317   4.562   3.295  10.515  0.3637 -0.3024 -0.3720
   84TMC2    O5 1318   4.468   3.164  10.686  0.3890 -0.1388  0.5580
   84TMC2    H5 1319   4.392   3.156  10.747 -0.2798 -0.8916 -0.3828
   85TMC2    C1 1320   0.883   1.463  15.789  0.1851  0.1018  0.5039
   85TMC2    C2 1321   0.751   1.435  15.744  0.3245 -0.2440  0.1549
   85TMC2    C3 1322   0.669   1.533  15.709 -0.0913  0.8646 -0.6891
   85TMC2    C4 1323   0.923   1.594  15.813 -0.3358  0.2437 -0.0870
   85TMC2    C5 1324   0.825   1.689  15.787  0.0657 -0.3042 -0.5123
   85TMC2    C6 1325   0.698   1.664  15.737 -0.7828 -0.3402 -0.0900
   85TMC2     C 1326   0.962   1.354  15.847  0.5399 -0.3085  0.2143
   85TMC2     O 1327   1.061   1.377  15.914  0.1037 -0.2956  0.0513
   85TMC2     H 1328   0.717   1.334  15.724 -0.7640  0.1166  0.1615
   85TMC2    H1 1329   1.023   1.626  15.841 -0.7785  2.0174 -0.5604
   85TMC2    H2 1330   0.625   1.738  15.708  0.4960  0.9906  0.0579
   85TMC2    C7 1331   0.874   1.827  15.774  0.0000  0.1090  0.2606
   85TMC2    C8 1332   0.537   1.488  15.666 -0.3735  1.2602  0.0875
   85TMC2    O1 1333   0.994   1.838  15.791 -0.3634 -0.5995 -0.4703
   85TMC2    O2 1334   0.501   1.507  15.552 -0.0211 -0.0412  0.0274
   85TMC2    O5 1335   0.453   1.502  15.772 -0.1650 -0.0999 -0.3892
   85TMC2    H5 1336   0.505   1.495  15.855  0.8500  1.3734 -0.9079
   86MPD2     C 1337   0.864   0.941  16.115 -0.2591 -0.4632 -0.5317
   86MPD2    C1 1338   0.798   0.922  15.994 -0.3808 -0.4425  0.5467
   86MPD2    C2 1339   0.824   1.019  15.894  0.0199  0.8025 -0.4487
   86MPD2    C3 1340   0.906   1.127  15.921  0.0724 -0.7984  0.3268
   86MPD2    C4 1341   0.965   1.140  16.043  0.3709  0.0273  0.3931
   86MPD2    C5 1342   0.953   1.042  16.143 -0.0576  0.1231  0.0350
   86MPD2     H 1343   0.777   1.021  15.796  2.9231  3.7991 -1.7978
   86MPD2    H1 1344   1.012   1.232  16.075  1.8163 -0.1111 -1.3122
   86MPD2    H2 1345   0.858   0.857  16.183 -0.5094 -2.1942 -2.6820
   86MPD2    H3 1346   0.992   1.043  16.244 -1.0028  0.8503  0.3948
   86MPD2     N 1347   0.906   1.233  15.830 -1.1506  0.3731  0.0894
   86MPD2    H5 1348   0.842   1.217  15.753  1.0189  0.7025 -1.7951
   86MPD2    N1 1349   0.706   0.815  15.977  0.2292 -0.7413 -0.3802
   86MPD2    H7 1350   0.693   0.788  15.880 -0.3371 -2.1936  0.0859
   87TMC2    C1 1351   3.618   4.293   0.990 -0.5078 -0.3145 -0.1698
   87TMC2    C2 1352   3.741   4.260   1.025  0.0876  0.2979  0.6798
   87TMC2    C3 1353   3.829   4.364   1.036 -0.6081 -0.1111 -0.3907
   87TMC2    C4 1354   3.577   4.420   0.979  0.1992 -0.7005 -0.1686
   87TMC2    C5 1355   3.662   4.522   1.005 -0.0620  0.5597 -0.0362
   87TMC2    C6 1356   3.792   4.497   1.033 -0.2791  0.1044 -0.1927
   87TMC2     C 1357   3.542   4.211   0.902  0.9525 -0.0344  0.1785
   87TMC2     O 1358   3.485   4.275   0.820 -0.0790  0.9247  0.0312
   87TMC2     H 1359   3.772   4.157   1.036  1.7020  0.7693  0.4593
   87TMC2    H1 1360   3.471   4.439   0.965  0.2140 -1.6314 -1.5640
   87TMC2    H2 1361   3.859   4.577   1.060  1.6703 -1.7208  0.3459
   87TMC2    C7 1362   3.620   4.662   0.964 -0.0839 -0.5988  0.7724
   87TMC2    C8 1363   3.967   4.326   1.038 -0.6420  0.2302  0.1535
   87TMC2    O1 1364   3.498   4.673   0.954  0.2332 -0.2720 -0.6689
   87TMC2    O2 1365   4.008   4.221   1.092 -0.2553 -0.0485 -0.3181
   87TMC2    O5 1366   4.053   4.429   1.008  0.3013  0.6567 -0.7072
   87TMC2    H5 1367   4.016   4.499   0.951  0.9144  0.7615 -0.9830
   88MPD2     C 1368   3.846   0.193   0.854 -0.0201  0.0296 -0.3469
   88MPD2    C1 1369   3.726   0.147   0.900 -0.4064  0.0183  0.3261
   88MPD2    C2 1370   3.614   0.233   0.909 -0.2300  0.7705  0.2946
   88MPD2    C3 1371   3.631   0.360   0.876 -0.6286 -1.2336 -0.2737
   88MPD2    C4 1372   3.755   0.416   0.839  0.1039  0.1949 -0.2628
   88MPD2    C5 1373   3.859   0.325   0.818 -0.0357 -0.1382 -0.3205
   88MPD2     H 1374   3.522   0.191   0.950  0.2000 -0.0061  0.4753
   88MPD2    H1 1375   3.772   0.521   0.815 -0.6029 -0.4092 -3.4225
   88MPD2    H2 1376   3.926   0.126   0.823 -0.3932 -0.9570  0.7912
   88MPD2    H3 1377   3.953   0.363   0.780 -0.2093 -0.0870 -0.6958
   88MPD2     N 1378   3.518   0.446   0.882 -0.1019  0.1023  0.3271
   88MPD2    H5 1379   3.444   0.404   0.938 -0.0658  0.5870  0.7381
   88MPD2    N1 1380   3.731   0.010   0.938  0.0209  0.0417  0.3033
   88MPD2    H7 1381   3.824   4.706   0.941 -0.5730 -1.4643 -1.5202
   89TMC2    C1 1382   4.161   2.378   1.400 -0.8833  0.2798  0.6402
   89TMC2    C2 1383   4.126   2.487   1.475 -0.0247  0.1064  0.1868
   89TMC2    C3 1384   4.121   2.606   1.410  0.4972  0.0229 -0.0211
   89TMC2    C4 1385   4.209   2.397   1.270 -0.4813 -0.0402  0.3050
   89TMC2    C5 1386   4.197   2.514   1.205 -0.4011 -0.3024  0.2755
   89TMC2    C6 1387   4.157   2.626   1.280 -0.0244  0.2538 -0.6451
   89TMC2     C 1388   4.177   2.249   1.452 -1.1352 -0.3352  0.4580
   89TMC2     O 1389   4.254   2.173   1.392  0.0975  0.5329  0.3445
   89TMC2     H 1390   4.104   2.467   1.579  0.4686 -2.7961 -0.2639
   89TMC2    H1 1391   4.220   2.310   1.206  0.2738  0.5696 -0.3857
   89TMC2    H2 1392   4.168   2.728   1.245  1.0400  0.4093  0.1413
   89TMC2    C7 1393   4.253   2.525   1.072  0.4857  0.4331 -0.4957
   89TMC2    C8 1394   4.127   2.727   1.489 -0.2479  0.3313 -0.2897
   89TMC2    O1 1395   4.323   2.433   1.031 -0.4925 -0.0832 -0.1915
   89TMC2    O2 1396   4.074   2.831   1.454  0.4758 -0.6094 -0.4212
   89TMC2    O5 1397   4.257   2.719   1.532 -0.3974  0.1607  0.8624
   89TMC2    H5 1398   4.292   2.628   1.544 -0.2113 -0.3817 -3.9672
   90MPD2     C 1399   3.994   1.851   1.731 -0.1283  0.4682  0.2275
   90MPD2    C1 1400   3.911   1.965   1.748  0.2547  0.6085 -0.3423
   90MPD2    C2 1401   3.944   2.087   1.696 -0.0358 -0.6335  0.4143
   90MPD2    C3 1402   4.050   2.102   1.614 -0.3335  0.2807  0.5591
   90MPD2    C4 1403   4.133   1.989   1.596  0.2740  0.1066  0.4289
   90MPD2    C5 1404   4.104   1.864   1.652 -0.0579 -0.3463 -0.2484
   90MPD2     H 1405   3.875   2.168   1.717  0.4505  0.2197 -1.2827
   90MPD2    H1 1406   4.228   1.993   1.544  1.6939 -3.4580  2.8249
   90MPD2    H2 1407   3.956   1.757   1.770  2.0375 -0.2119  0.7264
   90MPD2    H3 1408   4.157   1.773   1.627  1.0280  0.4725 -0.9015
   90MPD2     N 1409   4.075   2.224   1.544 -0.5709  0.2107  0.4103
   90MPD2    H5 1410   4.016   2.304   1.565  1.6773  1.8416  0.6270
   90MPD2    N1 1411   3.796   1.961   1.829  0.1095 -0.4254  0.2840
   90MPD2    H7 1412   3.741   2.046   1.836  2.4747  1.1567 -0.5379
   91TMC2    C1 1413   0.758   1.573  16.415 -0.5230 -0.6084 -0.2635
   91TMC2    C2 1414   0.802   1.538  16.545  0.1934  0.1369  0.3207
   91TMC2    C3 1415   0.707   1.488  16.622 -0.4152 -0.6743  0.1763
   91TMC2    C4 1416   0.629   1.548  16.370 -0.9643  0.2102  0.0760
   91TMC2    C5 1417   0.549   1.473  16.455 -0.0457  0.5916  0.6596
   91TMC2    C6 1418   0.582   1.457  16.583  0.0757 -0.7815  0.2536
   91TMC2     C 1419   0.860   1.571  16.313 -0.1829  0.4496 -0.0879
   91TMC2     O 1420   0.826   1.514  16.212 -0.2819  0.0874  0.2114
   91TMC2     H 1421   0.910   1.529  16.547  0.2215  0.8994  2.1339
   91TMC2    H1 1422   0.593   1.584  16.274 -1.7166  0.0781  0.3088
   91TMC2    H2 1423   0.511   1.426  16.658  0.5179 -0.7643  0.6783
   91TMC2    C7 1424   0.415   1.425  16.408  0.3619 -0.2785  0.4682
   91TMC2    C8 1425   0.754   1.449  16.747  0.3616 -0.5370 -0.0261
   91TMC2    O1 1426   0.337   1.383  16.494 -0.2591 -0.0790 -0.3647
   91TMC2    O2 1427   0.847   1.505  16.809 -0.8303 -0.2651 -0.0609
   91TMC2    O5 1428   0.711   1.320  16.766  0.0373 -0.5906 -0.5913
   91TMC2    H5 1429   0.663   1.289  16.686  2.9723 -0.7041 -2.2802
   92MPD2     C 1430   1.083   1.607  16.129 -0.3310  0.1298  0.8272
   92MPD2    C1 1431   1.072   1.666  16.250  0.5982 -0.3019 -0.8665
   92MPD2    C2 1432   1.169   1.755  16.289 -0.5693 -0.2283  0.3308
   92MPD2    C3 1433   1.265   1.801  16.194  0.2886  0.4665 -0.0073
   92MPD2    C4 1434   1.258   1.747  16.070 -0.5378  0.3974  0.0637
   92MPD2    C5 1435   1.186   1.635  16.050  0.4074  0.8525 -0.2390
   92MPD2     H 1436   1.161   1.800  16.387 -0.0259  0.5530  0.0108
   92MPD2    H1 1437   1.323   1.775  15.988  1.0509 -2.0045  0.4942
   92MPD2    H2 1438   1.003   1.539  16.101 -0.6663 -0.0814  2.2822
   92MPD2    H3 1439   1.191   1.588  15.952 -1.1164 -0.4102  0.2958
   92MPD2     N 1440   1.357   1.902  16.215 -0.2975 -0.0336  1.1904
   92MPD2    H5 1441   1.415   1.919  16.134  0.4312  0.4233  1.8145
   92MPD2    N1 1442   0.970   1.646  16.343  0.6721  0.1350 -0.5388
   92MPD2    H7 1443   0.972   1.699  16.429 -0.9525  0.5798 -0.7824
   93TMC2    C1 1444   2.348   1.587  13.543 -0.7609  0.4657 -0.0205
   93TMC2    C2 1445   2.385   1.516  13.432  0.4385 -0.3959 -0.0277
   93TMC2    C3 1446   2.507   1.539  13.376  0.1585 -0.5946 -0.3173
   93TMC2    C4 1447   2.431   1.677  13.606 -0.1735 -0.8256  0.6620
   93TMC2    C5 1448   2.555   1.694  13.544  0.0598  0.5103 -0.2118
   93TMC2    C6 1449   2.594   1.629  13.427  0.8801  0.1090  0.2892
   93TMC2     C 1450   2.219   1.565  13.585  0.0927 -0.8776 -0.3910
   93TMC2     O 1451   2.174   1.450  13.601  0.3736  0.1716 -0.0752
   93TMC2     H 1452   2.308   1.452  13.390 -0.7924 -0.6552  2.6228
   93TMC2    H1 1453   2.409   1.713  13.706 -2.4585  0.1587 -0.1939
   93TMC2    H2 1454   2.690   1.639  13.378  0.7334  0.0209 -0.0219
   93TMC2    C7 1455   2.659   1.784  13.589  0.1595 -0.1642  0.1302
   93TMC2    C8 1456   2.540   1.487  13.250 -0.2816 -0.2880  0.1455
   93TMC2    O1 1457   2.772   1.742  13.580 -0.1797 -0.1017  0.1664
   93TMC2    O2 1458   2.654   1.464  13.215  0.3249 -0.6222  0.0768
   93TMC2    O5 1459   2.455   1.557  13.176 -0.1019  0.3013  0.2369
   93TMC2    H5 1460   2.390   1.607  13.230  1.3033  1.7364  0.5876
   94MPD2     C 1461   1.936   1.599  13.618  0.3735  0.4442 -0.8197
   94MPD2    C1 1462   2.024   1.700  13.644 -0.3158  0.3488 -0.0804
   94MPD2    C2 1463   1.971   1.830  13.669 -0.1904 -0.2379  0.2120
   94MPD2    C3 1464   1.835   1.858  13.664 -0.4766  0.7068  0.5742
   94MPD2    C4 1465   1.747   1.755  13.640  0.4977 -0.8074 -0.0877
   94MPD2    C5 1466   1.799   1.631  13.622 -0.1641  0.3695 -0.2369
   94MPD2     H 1467   2.033   1.918  13.675  1.4576 -1.2880 -1.3808
   94MPD2    H1 1468   1.641   1.773  13.634  1.2871  4.3575  1.3413
   94MPD2    H2 1469   1.974   1.499  13.602  1.2134  0.7405 -0.6672
   94MPD2    H3 1470   1.728   1.552  13.601 -3.2059  2.9135  0.4808
   94MPD2     N 1471   1.774   1.990  13.689 -0.3597  0.6349 -0.1645
   94MPD2    H5 1472   1.673   1.989  13.676 -0.2480  1.9174 -1.1585
   94MPD2    N1 1473   2.163   1.684  13.626  0.3900  0.1811 -0.6753
   94MPD2    H7 1474   2.225   1.765  13.626  0.3280  0.2243 -1.4418
   95TMC2    C1 1475   1.982   3.819  16.178 -0.2228 -0.4018 -0.9865
   95TMC2    C2 1476   1.928   3.699  16.159  0.4146  0.1395 -0.9429
   95TMC2    C3 1477   1.922   3.613  16.269  1.0353  0.9348  0.5517
   95TMC2    C4 1478   2.016   3.870  16.302 -0.0999  0.0907  0.2709
   95TMC2    C5 1479   2.000   3.789  16.410 -0.0014  0.0656  0.1997
   95TMC2    C6 1480   1.960   3.655  16.394  0.4380 -0.0383  0.4469
   95TMC2     C 1481   2.003   3.906  16.064  0.1547 -0.5417 -0.1754
   95TMC2     O 1482   2.056   4.012  16.090  0.4393 -0.1987 -0.5455
   95TMC2     H 1483   1.911   3.647  16.066 -2.6625  1.4043 -1.1047
   95TMC2    H1 1484   2.059   3.968  16.316 -0.8101  0.1143  2.3677
   95TMC2    H2 1485   1.940   3.598  16.484 -1.3747  1.3482  0.9316
   95TMC2    C7 1486   2.028   3.834  16.551 -0.0994  0.2028  0.4622
   95TMC2    C8 1487   1.886   3.475  16.247  0.1854  0.7454 -0.7133
   95TMC2    O1 1488   2.010   3.743  16.636 -0.6251 -0.1479 -0.1574
   95TMC2    O2 1489   1.804   3.452  16.164  0.2206 -0.0221  0.1262
   95TMC2    O5 1490   2.008   3.424  16.256  0.3636  0.4513 -0.6652
   95TMC2    H5 1491   2.069   3.470  16.317 -0.3416 -0.8523  1.0330
   96MPD2     C 1492   2.007   4.017  15.558 -0.0267 -0.4804  1.3039
   96MPD2    C1 1493   2.032   4.100  15.667  0.0475 -0.6985 -0.2442
   96MPD2    C2 1494   2.021   4.042  15.793 -0.4953 -0.0427  0.5298
   96MPD2    C3 1495   1.978   3.913  15.814  0.3568  0.1346 -0.0448
   96MPD2    C4 1496   1.948   3.835  15.708  0.7381 -0.2721 -1.1266
   96MPD2    C5 1497   1.968   3.885  15.579  0.0511 -0.1041  0.2462
   96MPD2     H 1498   2.039   4.103  15.881  1.4792 -2.8345  2.0637
   96MPD2    H1 1499   1.912   3.736  15.730  1.1686 -0.0693  0.5272
   96MPD2    H2 1500   2.004   4.051  15.455  1.8548 -1.8002  0.8125
   96MPD2    H3 1501   1.943   3.815  15.500  0.4152 -0.3494  0.3472
   96MPD2     N 1502   1.956   3.855  15.942 -0.1171 -0.2636 -0.1202
   96MPD2    H5 1503   1.918   3.762  15.947  3.0744 -1.5356  0.9270
   96MPD2    N1 1504   2.066   4.238  15.639 -0.4458 -0.2200 -0.0230
   96MPD2    H7 1505   2.077   4.263  15.542  1.2771 -5.2073 -1.1195
   97TMC2    C1 1506   4.681   2.167   0.183  0.7363 -0.0520  0.2522
   97TMC2    C2 1507   4.627   2.110   0.075  0.3837  0.5281  0.1667
   97TMC2    C3 1508   4.597   2.185  17.709 -0.2646  0.0600  0.2627
   97TMC2    C4 1509   4.691   2.303   0.194  0.3669 -0.7777  0.3597
   97TMC2    C5 1510   4.658   2.374   0.085 -0.0047 -0.6549  0.0218
   97TMC2    C6 1511   4.615   2.320  17.710  0.2706  0.3298 -0.1632
   97TMC2     C 1512   4.706   2.087   0.306  0.1635  0.1227 -0.2481
   97TMC2     O 1513   4.635   1.986   0.310  0.1452  0.1875 -0.0160
   97TMC2     H 1514   4.614   2.004   0.060 -0.6803  0.5589  0.8307
   97TMC2    H1 1515   4.710   2.355   0.287 -1.2474 -0.0311  0.2815
   97TMC2    H2 1516   4.601   2.387  17.626  2.3615  1.7149  0.5839
   97TMC2    C7 1517   4.665   2.517   0.099  0.0135 -0.3980  0.0599
   97TMC2    C8 1518   4.547   2.119  17.594 -0.0053 -0.9083  0.5598
   97TMC2    O1 1519   0.001   2.554   0.186  0.0413  0.3533  0.6025
   97TMC2    O2 1520   4.499   2.008  17.595 -0.4313 -0.0514  0.4526
   97TMC2    O5 1521   4.619   2.172  17.493 -0.5565  0.0386 -0.7377
   97TMC2    H5 1522   4.677   2.251  17.504  0.2405 -0.1787 -3.3480
   98MPD2     C 1523   0.101   2.025   0.798 -0.3200  0.2361 -0.5865
   98MPD2    C1 1524   0.062   1.924   0.707 -0.6542 -0.2884  0.5266
   98MPD2    C2 1525   0.040   1.959   0.575 -0.5911  0.2945  0.3702
   98MPD2    C3 1526   0.057   2.095   0.534 -0.0902 -0.0516  0.1317
   98MPD2    C4 1527   0.119   2.184   0.625  0.4460 -0.0360 -0.0847
   98MPD2    C5 1528   0.139   2.155   0.758  0.7622 -0.6893 -0.4686
   98MPD2     H 1529   0.017   1.880   0.505  1.7391 -0.4336  0.4191
   98MPD2    H1 1530   0.150   2.280   0.586 -0.6376 -0.2356 -1.4447
   98MPD2    H2 1531   0.112   1.987   0.899  0.6496  0.1744 -0.7171
   98MPD2    H3 1532   0.193   2.228   0.817 -0.0353 -1.2073  0.9102
   98MPD2     N 1533   0.050   2.142   0.404 -0.5012  0.4462 -0.3573
   98MPD2    H5 1534   0.088   2.235   0.389 -1.5450  0.8206 -0.7113
   98MPD2    N1 1535   0.031   1.791   0.761  0.1750  0.5592 -0.4816
   98MPD2    H7 1536   0.041   1.783   0.862 -1.6168  1.9262 -0.1955
   99TMC2    C1 1537   3.389   3.359   2.334  0.6536  0.3445 -0.1949
   99TMC2    C2 1538   3.425   3.291   2.446  0.8446  0.4908 -0.2111
   99TMC2    C3 1539   3.336   3.279   2.552  0.2629  0.2449  0.7478
   99TMC2    C4 1540   3.264   3.415   2.321 -0.2466 -0.7378 -0.1973
   99TMC2    C5 1541   3.177   3.398   2.427  0.4227 -0.2327  0.3630
   99TMC2    C6 1542   3.208   3.330   2.543  0.1716  0.5285 -0.0917
   99TMC2     C 1543   3.484   3.374   2.223  0.3494 -0.6918  0.0922
   99TMC2     O 1544   3.601   3.370   2.257 -0.5911 -0.4253 -0.0136
   99TMC2     H 1545   3.525   3.249   2.454  0.9921  1.3656  2.4878
   99TMC2    H1 1546   3.243   3.476   2.234  1.2633 -1.4456 -1.0594
   99TMC2    H2 1547   3.134   3.325   2.622 -0.6727  2.0007 -0.7905
   99TMC2    C7 1548   3.043   3.445   2.404 -0.7108  0.4045  0.3925
   99TMC2    C8 1549   3.380   3.231   2.684 -0.4998  1.0109  0.6106
   99TMC2    O1 1550   2.974   3.463   2.504  0.4533  0.7028 -0.2651
   99TMC2    O2 1551   3.498   3.230   2.721  0.4857 -0.3452  0.2462
   99TMC2    O5 1552   3.294   3.131   2.721  0.5866  0.1777  0.2681
   99TMC2    H5 1553   3.213   3.112   2.669  2.5108  0.3672 -2.8089
  100MPD2     C 1554   3.636   3.388   1.968  0.1504  0.2626 -0.0329
  100MPD2    C1 1555   3.500   3.390   1.979  0.3496 -0.2052 -0.3842
  100MPD2    C2 1556   3.425   3.378   1.866  0.3141 -0.8150  0.6111
  100MPD2    C3 1557   3.494   3.374   1.742 -0.3363  0.5638 -0.2315
  100MPD2    C4 1558   3.635   3.380   1.733 -0.6474 -0.4744 -0.3666
  100MPD2    C5 1559   3.707   3.398   1.851  0.0879 -0.2759 -0.0634
  100MPD2     H 1560   3.317   3.373   1.868  0.3057  0.0541  1.9605
  100MPD2    H1 1561   3.689   3.354   1.644  0.9294 -1.9259  1.0075
  100MPD2    H2 1562   3.700   3.400   2.055 -0.7372  1.1162  0.5077
  100MPD2    H3 1563   3.815   3.392   1.856  0.1745  2.2860  1.1026
  100MPD2     N 1564   3.412   3.354   1.629  0.0796 -0.4436  0.1015
  100MPD2    H5 1565   3.313   3.365   1.650  0.0935 -0.5707  0.2404
  100MPD2    N1 1566   3.426   3.389   2.098  0.5764 -0.4777 -0.0651
  100MPD2    H7 1567   3.326   3.371   2.095  0.5151 -0.5679  2.9585
  101TMC2    C1 1568   4.050   4.457  13.174 -0.5676 -0.0080  0.2827
  101TMC2    C2 1569   4.102   4.545  13.265  0.1366 -0.4501 -0.1918
  101TMC2    C3 1570   4.135   4.678  13.218 -0.2919  1.0603  0.2002
  101TMC2    C4 1571   4.044   4.488  13.041 -1.0065  0.2114  0.6195
  101TMC2    C5 1572   4.081   4.613  12.996  0.7604  0.2041 -0.3687
  101TMC2    C6 1573   4.123   4.709  13.086 -0.2948 -0.0515 -0.6134
  101TMC2     C 1574   3.981   4.338  13.241  0.2978 -0.4064  0.1686
  101TMC2     O 1575   3.938   4.353  13.354  0.5497  0.6916  0.2528
  101TMC2     H 1576   4.116   4.523  13.370  0.7320  1.9990  0.2519
  101TMC2    H1 1577   3.987   4.415  12.984  1.2332 -0.0808 -1.2855
  101TMC2    H2 1578   4.141   0.077  13.057  2.8243  0.2197  2.2820
  101TMC2    C7 1579   4.088   4.631  12.850  0.2574 -0.1930 -0.1563
  101TMC2    C8 1580   4.190   0.048  13.306 -0.1260  0.1239  0.1479
  101TMC2    O1 1581   4.123   0.003  12.804  0.0224 -0.3834  0.0673
  101TMC2    O2 1582   4.265   0.134  13.258 -0.0995  0.4505  0.4578
  101TMC2    O5 1583   4.187   0.023  13.441  0.3762 -0.6962  0.5091
  101TMC2    H5 1584   4.101   4.724  13.471  0.1872 -0.9881 -0.3749
  102MPD2     C 1585   3.990   3.993  13.096  0.7410  0.1944 -0.3654
  102MPD2    C1 1586   3.943   4.092  13.176 -0.4681 -0.5280 -1.0229
  102MPD2    C2 1587   3.828   4.068  13.251 -0.0847 -0.4200  0.5938
  102MPD2    C3 1588   3.775   3.936  13.261  0.6480  0.0446 -0.1946
  102MPD2    C4 1589   3.827   3.840  13.174 -0.2482 -0.5276 -0.3816
  102MPD2    C5 1590   3.942   3.867  13.101 -0.2697 -0.3597  0.8156
  102MPD2     H 1591   3.794   4.147  13.316 -0.7798  0.3272 -0.6724
  102MPD2    H1 1592   3.788   3.738  13.179 -1.2479 -0.1661 -0.8491
  102MPD2    H2 1593   4.081   4.014  13.040  0.1880  1.5145 -0.7956
  102MPD2    H3 1594   3.980   3.790  13.034 -0.2836  0.4391 -0.1099
  102MPD2     N 1595   3.660   3.912  13.338 -0.5012 -0.2945 -0.1951
  102MPD2    H5 1596   3.627   3.993  13.390 -1.0903  0.9358 -2.4466
  102MPD2    N1 1597   3.988   4.224  13.159 -0.0417 -0.3554  0.1862
  102MPD2    H7 1598   4.056   4.232  13.084 -0.4605 -0.2799 -0.1840
  103TMC2    C1 1599   2.033   0.029  12.204 -0.9008 -0.6583  0.0816
  103TMC2    C2 1600   2.106   0.122  12.130 -0.0195  0.0879  0.9401
  103TMC2    C3 1601   2.168   0.220  12.203 -0.2733 -0.8623  0.1792
  103TMC2    C4 1602   2.019   0.037  12.339 -0.5507 -0.2505  0.0953
  103TMC2    C5 1603   2.088   0.134  12.407  0.6310 -0.5510  0.5884
  103TMC2    C6 1604   2.166   0.231  12.342  0.1045  0.4686 -0.7287
  103TMC2     C 1605   1.927   4.699  12.133  0.0168  0.3790 -0.2784
  103TMC2     O 1606   1.900   0.008  12.024  0.1354 -0.0838 -0.0303
  103TMC2     H 1607   2.116   0.120  12.022 -1.6080  0.4613  0.7779
  103TMC2    H1 1608   1.948   4.708  12.389 -0.5056  1.0104  1.7641
  103TMC2    H2 1609   2.207   0.314  12.398 -0.7865  0.4338 -0.0320
  103TMC2    C7 1610   2.101   0.109  12.550 -0.2671 -0.3867 -0.4938
  103TMC2    C8 1611   2.239   0.307  12.122  0.1892 -0.2247  0.5979
  103TMC2    O1 1612   2.015   0.037  12.600  0.0867 -0.8318  0.3984
  103TMC2    O2 1613   2.195   0.344  12.014  0.0446 -0.1143  0.6306
  103TMC2    O5 1614   2.363   0.260  12.133 -0.3609  0.0566  0.1103
  103TMC2    H5 1615   2.385   0.219  12.219  3.1945 -0.5465 -1.0637
  104MPD2     C 1616   1.746   4.400  12.242 -0.3966 -0.0535 -0.0515
  104MPD2    C1 1617   1.775   4.500  12.155  0.3490  0.4244 -0.1557
  104MPD2    C2 1618   1.696   4.506  12.038  0.7213  0.1221  0.5621
  104MPD2    C3 1619   1.591   4.432  12.006  0.5362 -0.1040 -0.2200
  104MPD2    C4 1620   1.578   4.326  12.094 -0.2203  0.1916 -0.3066
  104MPD2    C5 1621   1.644   4.318  12.215 -0.4474 -0.2337 -0.7668
  104MPD2     H 1622   1.719   4.583  11.965  2.0124  0.3141  1.1815
  104MPD2    H1 1623   1.496   4.258  12.072 -1.8361  2.0945 -0.1518
  104MPD2    H2 1624   1.797   4.388  12.336  0.3130  0.9765 -0.3156
  104MPD2    H3 1625   1.625   4.235  12.282 -1.6699 -0.1464 -1.0065
  104MPD2     N 1626   1.517   4.467  11.885  0.1315  0.2919  0.1210
  104MPD2    H5 1627   1.548   4.546  11.830  0.9927 -0.7745 -0.9278
  104MPD2    N1 1628   1.887   4.577  12.192  0.1992  0.6399 -0.1870
  104MPD2    H7 1629   1.944   4.546  12.270 -2.9287 -1.3391  1.3057
  105TMC2    C1 1630   3.017   3.890   0.204  0.7431  0.0110  0.1585
  105TMC2    C2 1631   2.962   4.011   0.224 -0.2821  0.6495 -0.7084
  105TMC2    C3 1632   2.977   4.069   0.345  0.4680 -0.1768  0.2437
  105TMC2    C4 1633   3.071   3.812   0.304  0.5022  0.0872 -0.4950
  105TMC2    C5 1634   3.085   3.873   0.426 -0.0985 -0.7856  0.4372
  105TMC2    C6 1635   3.033   4.002   0.446  0.3001 -0.0086 -0.0125
  105TMC2     C 1636   3.029   3.835   0.074 -0.1847 -0.3064  0.0915
  105TMC2     O 1637   3.011   3.712   0.074 -0.0463  0.1600  0.1613
  105TMC2     H 1638   2.907   4.058   0.143  0.8486 -0.5633 -2.1636
  105TMC2    H1 1639   3.118   3.717   0.283 -2.1046 -0.7086 -2.7561
  105TMC2    H2 1640   3.019   4.045   0.544  0.7893  2.3638 -0.9909
  105TMC2    C7 1641   3.177   3.810   0.519 -0.1046 -0.2477 -0.0819
  105TMC2    C8 1642   2.941   4.203   0.379 -0.2500  0.4997 -0.4859
  105TMC2    O1 1643   3.201   3.688   0.501 -0.0366  0.3239  0.1215
  105TMC2    O2 1644   3.006   4.275   0.453  1.2270  0.6050 -0.0365
  105TMC2    O5 1645   2.808   4.213   0.375  0.0494 -0.3650  0.1122
  105TMC2    H5 1646   2.761   4.146   0.322 -1.6722  2.5630 -2.0326
  106MPD2     C 1647   3.267   3.792  17.378 -0.2189 -1.1144 -0.0886
  106MPD2    C1 1648   3.303   3.910  17.445 -0.7727 -0.0654 -0.8010
  106MPD2    C2 1649   3.223   3.963  17.545 -0.3859 -0.0333 -0.2809
  106MPD2    C3 1650   3.118   3.883  17.597  0.1038  0.1040 -0.2936
  106MPD2    C4 1651   3.086   3.761  17.545 -0.1196  0.4915  0.1095
  106MPD2    C5 1652   3.159   3.717  17.429 -0.3700 -0.0313  0.0844
  106MPD2     H 1653   3.257   4.051  17.598 -0.5472 -0.8220  1.1238
  106MPD2    H1 1654   3.015   3.690  17.586 -0.8896  1.6950  0.8490
  106MPD2    H2 1655   3.313   3.754  17.287 -0.0852 -0.9165 -0.1038
  106MPD2    H3 1656   3.144   3.615  17.395 -0.1902  0.0430 -0.2117
  106MPD2     N 1657   3.063   3.922  17.722 -0.2640 -0.3794 -0.7316
  106MPD2    H5 1658   3.082   4.016   0.012  2.6964 -1.4655  0.7409
  106MPD2    N1 1659   3.413   3.986  17.408  0.0969  0.2251  0.1860
  106MPD2    H7 1660   3.417   4.084  17.433  0.4112  0.3966 -0.5563
  107TMC2    C1 1661   3.249   3.364  11.288 -0.6480  0.0214 -0.0973
  107TMC2    C2 1662   3.277   3.490  11.253  0.2109 -0.6888  0.3653
  107TMC2    C3 1663   3.346   3.517  11.146 -0.0165  0.1361  0.4651
  107TMC2    C4 1664   3.302   3.260  11.219 -0.2745  0.2701 -0.1579
  107TMC2    C5 1665   3.375   3.284  11.104  0.9787  0.8663  0.6161
  107TMC2    C6 1666   3.393   3.417  11.063 -0.6796  0.2070  0.4177
  107TMC2     C 1667   3.166   3.353  11.409 -0.4810 -0.3745  0.0936
  107TMC2     O 1668   3.199   3.427  11.502  0.0060 -0.8439 -0.0048
  107TMC2     H 1669   3.221   3.576  11.290  1.6038  0.6599 -0.6456
  107TMC2    H1 1670   3.294   3.160  11.260  1.1761 -0.4064 -1.4974
  107TMC2    H2 1671   3.447   3.441  10.973  0.5597 -2.2551  0.4949
  107TMC2    C7 1672   3.468   3.180  11.056 -0.0716 -0.2766  0.3711
  107TMC2    C8 1673   3.328   3.656  11.096  0.2621  0.7233 -0.2022
  107TMC2    O1 1674   3.430   3.063  11.077 -0.2332  0.0173 -0.3312
  107TMC2    O2 1675   3.256   3.735  11.148  0.1104  0.0064  0.1007
  107TMC2    O5 1676   3.443   3.683  11.025 -0.1381  0.5019 -0.5799
  107TMC2    H5 1677   3.501   3.605  11.033 -3.1117 -1.8390 -1.9102
  108MPD2     C 1678   3.042   3.018  11.487 -0.2979  0.2870  0.2647
  108MPD2    C1 1679   3.077   3.152  11.513  0.0212 -0.8249 -0.3418
  108MPD2    C2 1680   3.074   3.193  11.645  0.2920 -0.4486  0.7002
  108MPD2    C3 1681   3.044   3.102  11.747 -0.0271  0.4930 -0.5527
  108MPD2    C4 1682   3.009   2.971  11.710 -0.3255 -0.1974  0.1455
  108MPD2    C5 1683   3.023   2.927  11.584  0.0265 -0.2880  0.4417
  108MPD2     H 1684   3.096   3.298  11.664 -2.2053  0.1188  0.3810
  108MPD2    H1 1685   2.980   2.893  11.779 -0.5881  1.7283  2.1767
  108MPD2    H2 1686   3.037   2.987  11.384 -1.2615  0.5303  0.2406
  108MPD2    H3 1687   3.002   2.827  11.548 -0.3927  0.2158 -0.6774
  108MPD2     N 1688   3.021   3.150  11.876  0.1800  0.5748  0.3032
  108MPD2    H5 1689   2.998   3.087  11.952  0.8602  0.8650  0.7553
  108MPD2    N1 1690   3.103   3.231  11.404  0.4531  0.0406 -1.3529
  108MPD2    H7 1691   3.086   3.184  11.315  1.8034  0.8827 -2.0641
  109TMC2    C1 1692   3.781   1.088   0.241  0.2099 -0.1174 -0.8443
  109TMC2    C2 1693   3.797   1.124   0.113 -0.4875 -0.9400  0.2445
  109TMC2    C3 1694   3.921   1.123   0.061 -0.1010 -0.4274  0.0022
  109TMC2    C4 1695   3.888   1.050   0.314 -0.0936  0.0783  0.6155
  109TMC2    C5 1696   4.013   1.031   0.256 -0.2179  0.7258 -0.5468
  109TMC2    C6 1697   4.031   1.076   0.130 -0.4398  0.2994 -0.5156
  109TMC2     C 1698   3.665   1.135   0.316  0.7314 -0.2037 -0.0153
  109TMC2     O 1699   3.587   1.185   0.235 -0.3398 -0.4236  0.5601
  109TMC2     H 1700   3.714   1.164   0.055 -0.1391  1.9588  1.7390
  109TMC2    H1 1701   3.878   1.004   0.412  1.0967  0.8905  1.1248
  109TMC2    H2 1702   4.124   1.071   0.075  0.8272  0.9063  1.6160
  109TMC2    C7 1703   4.126   1.048   0.345  0.2351  0.4239  0.0750
  109TMC2    C8 1704   3.942   1.192  17.674 -0.7254 -0.5798 -0.2579
  109TMC2    O1 1705   4.104   1.118   0.440  0.5891  0.0809  0.7883
  109TMC2    O2 1706   3.850   1.199  17.593  0.2512  0.4729 -0.2302
  109TMC2    O5 1707   4.060   1.263  17.674 -1.0003  0.6800 -0.2249
  109TMC2    H5 1708   4.088   1.283   0.025  1.5838 -0.3094 -0.7859
  110MPD2     C 1709   3.406   1.301   0.727  0.5329 -0.0450 -0.4464
  110MPD2    C1 1710   3.504   1.214   0.769  0.3453  0.1495  0.0362
  110MPD2    C2 1711   3.585   1.161   0.678 -0.2649  0.3531 -0.2604
  110MPD2    C3 1712   3.572   1.185   0.543  0.3443 -0.6436 -0.5447
  110MPD2    C4 1713   3.471   1.268   0.501 -0.1740 -0.2492  0.6016
  110MPD2    C5 1714   3.390   1.331   0.592  0.1794  0.1605  0.4794
  110MPD2     H 1715   3.658   1.087   0.709  0.0147  1.7831  2.4404
  110MPD2    H1 1716   3.448   1.293   0.398 -2.4060 -1.4969  0.8016
  110MPD2    H2 1717   3.334   1.329   0.804 -0.4156 -0.2740 -1.2550
  110MPD2    H3 1718   3.326   1.415   0.570 -0.5088 -0.2553  0.8834
  110MPD2     N 1719   3.666   1.123   0.457 -0.2051 -0.0804 -0.1826
  110MPD2    H5 1720   3.745   1.079   0.503 -0.4481 -0.3672 -0.0408
  110MPD2    N1 1721   3.499   1.176   0.902 -0.2963 -0.3774 -0.4796
  110MPD2    H7 1722   3.439   1.233   0.961  1.0645  1.8612 -1.2673
  111TMC2    C1 1723   3.285   0.443  11.467  0.5559 -0.5265  0.0841
  111TMC2    C2 1724   3.187   0.411  11.562  0.3109 -1.0557  0.6365
  111TMC2    C3 1725   3.227   0.327  11.666 -0.1361  0.4436 -0.0852
  111TMC2    C4 1726   3.400   0.368  11.458 -0.4177 -0.3254  0.8701
  111TMC2    C5 1727   3.426   0.267  11.547 -0.8917 -1.2675  0.6566
  111TMC2    C6 1728   3.336   0.245  11.645  0.5891  0.0588  0.0089
  111TMC2     C 1729   3.261   0.555  11.374  0.2870  0.1971  0.0474
  111TMC2     O 1730   3.331   0.554  11.275  0.4303 -0.1812 -0.4351
  111TMC2     H 1731   3.096   0.468  11.551  1.4405  0.4349 -1.0037
  111TMC2    H1 1732   3.474   0.413  11.393 -1.5952  2.5144  1.4787
  111TMC2    H2 1733   3.354   0.162  11.713 -0.8126 -0.4083 -0.1826
  111TMC2    C7 1734   3.562   0.222  11.581 -0.4212  0.5146 -0.7501
  111TMC2    C8 1735   3.142   0.300  11.781 -0.2493  0.2456 -0.5681
  111TMC2    O1 1736   3.575   0.147  11.679 -0.6123 -0.7051 -0.1884
  111TMC2    O2 1737   3.128   0.189  11.835  0.7435  0.9445 -0.3539
  111TMC2    O5 1738   3.051   0.397  11.785 -0.5364  0.5002  0.2598
  111TMC2    H5 1739   3.090   0.484  11.764 -1.1938  0.6302 -0.3984
  112MPD2     C 1740   3.108   1.027  11.250  0.4179 -1.3310  0.5178
  112MPD2    C1 1741   3.184   0.939  11.180  0.1736 -0.6016  0.6407
  112MPD2    C2 1742   3.203   0.811  11.234  0.4398  1.0434 -1.0675
  112MPD2    C3 1743   3.154   0.780  11.357 -0.0306 -0.1828  0.2254
  112MPD2    C4 1744   3.075   0.872  11.423 -0.3807 -0.1658 -0.2033
  112MPD2    C5 1745   3.052   0.993  11.368 -0.1195  0.8201 -0.4751
  112MPD2     H 1746   3.246   0.728  11.179 -0.4811 -0.0820 -0.0907
  112MPD2    H1 1747   3.034   0.857  11.523  2.4204  0.0390  0.9809
  112MPD2    H2 1748   3.093   1.127  11.211  1.2664 -1.5550 -0.3772
  112MPD2    H3 1749   2.999   1.074  11.418 -0.9666 -0.1996  0.2712
  112MPD2     N 1750   3.176   0.654  11.418 -0.2983  0.2696  0.5797
  112MPD2    H5 1751   3.127   0.632  11.504 -0.2136  0.2108  0.6124
  112MPD2    N1 1752   3.240   0.963  11.049  0.0579  0.0037  0.2597
  112MPD2    H7 1753   3.300   0.890  11.011 -0.7178 -0.3767 -0.2250
  113TMC2    C1 1754   2.050   3.671   0.844  0.1210  0.4202  0.1310
  113TMC2    C2 1755   2.043   3.807   0.818 -0.3934 -0.4454  0.2525
  113TMC2    C3 1756   1.947   3.883   0.881 -0.2993  0.6716 -0.2126
  113TMC2    C4 1757   1.974   3.611   0.941 -0.0892 -0.2172  0.1009
  113TMC2    C5 1758   1.876   3.691   0.995 -0.3591  0.4629 -0.0444
  113TMC2    C6 1759   1.866   3.824   0.972 -0.0470 -1.0500 -0.1365
  113TMC2     C 1760   2.170   3.605   0.797  1.0177  1.0653 -0.7747
  113TMC2     O 1761   2.258   3.676   0.754  0.4659 -0.0617  0.4077
  113TMC2     H 1762   2.111   3.853   0.747  0.9280  0.2843  2.0194
  113TMC2    H1 1763   1.968   3.504   0.954  1.3431 -0.3249 -0.1272
  113TMC2    H2 1764   1.783   3.878   1.016  0.0901  0.4696 -1.7358
  113TMC2    C7 1765   1.765   3.630   1.065 -0.0486  0.4050 -0.2543
  113TMC2    C8 1766   1.922   4.021   0.836 -0.0825 -0.1067  0.1708
  113TMC2    O1 1767   1.662   3.696   1.081  0.8438 -0.5165 -0.3554
  113TMC2    O2 1768   2.003   4.080   0.764  0.4237  0.8693 -0.2012
  113TMC2    O5 1769   1.786   4.040   0.850 -0.5901  0.6791 -0.3099
  113TMC2    H5 1770   1.737   3.962   0.884  0.9057 -0.7309 -1.4014
  114MPD2     C 1771   2.417   3.197   0.634 -0.9286  0.1237  0.3732
  114MPD2    C1 1772   2.463   3.324   0.664  0.0859 -0.4136  0.1395
  114MPD2    C2 1773   2.362   3.413   0.697 -0.4668 -0.2402 -1.1076
  114MPD2    C3 1774   2.229   3.382   0.718  0.5150 -0.1244 -0.2611
  114MPD2    C4 1775   2.191   3.250   0.710 -0.0010 -0.4529 -0.4053
  114MPD2    C5 1776   2.283   3.163   0.651 -0.7007 -0.6732  0.5765
  114MPD2     H 1777   2.395   3.514   0.716 -1.7754  0.4529 -2.5527
  114MPD2    H1 1778   2.087   3.227   0.731  0.3266  0.0997  1.8622
  114MPD2    H2 1779   2.484   3.116   0.606 -2.7610 -1.4595  0.6029
  114MPD2    H3 1780   2.249   3.061   0.634 -0.6135 -0.5849 -0.0944
  114MPD2     N 1781   2.137   3.472   0.774  0.4318 -0.2975 -0.0194
  114MPD2    H5 1782   2.045   3.435   0.795  0.6895 -0.6600  0.4560
  114MPD2    N1 1783   2.600   3.367   0.650 -0.4410  0.2671  0.1782
  114MPD2    H7 1784   2.619   3.466   0.664  0.1595  0.3714 -1.3365
  115TMC2    C1 1785   3.806   1.391  17.216 -0.3711  0.8225 -0.6005
  115TMC2    C2 1786   3.860   1.267  17.246  0.3773  0.0328 -0.6008
  115TMC2    C3 1787   3.988   1.263  17.299  0.1501 -0.5060  0.6748
  115TMC2    C4 1788   3.868   1.506  17.239 -0.2192 -0.3085 -0.0701
  115TMC2    C5 1789   4.005   1.501  17.270 -0.0793 -0.6325 -1.0146
  115TMC2    C6 1790   4.065   1.378  17.299 -0.1976  0.4678  0.0254
  115TMC2     C 1791   3.665   1.387  17.174  0.5692 -0.4652  0.1149
  115TMC2     O 1792   3.602   1.281  17.158  0.3523  0.6564 -0.3372
  115TMC2     H 1793   3.798   1.182  17.217 -1.3587  0.8725  0.6878
  115TMC2    H1 1794   3.822   1.604  17.242 -1.1701 -0.7132 -1.5568
  115TMC2    H2 1795   4.171   1.377  17.323 -0.4990 -0.1124  1.3373
  115TMC2    C7 1796   4.077   1.621  17.312  0.2466 -0.2235  0.3715
  115TMC2    C8 1797   4.065   1.144  17.321  0.6705 -1.1976 -0.4106
  115TMC2    O1 1798   4.175   1.597  17.382  0.1327  0.0202  0.2143
  115TMC2    O2 1799   4.186   1.149  17.302 -0.1736  0.1286  0.9256
  115TMC2    O5 1800   3.992   1.032  17.354  0.0287 -0.3524  0.2629
  115TMC2    H5 1801   3.897   1.054  17.363 -0.0443 -0.0543 -1.1774
  116MPD2     C 1802   3.211   1.603  17.153  0.1091 -0.5578  0.1270
  116MPD2    C1 1803   3.242   1.471  17.153  0.8093  0.5815  0.8286
  116MPD2    C2 1804   3.376   1.436  17.149 -0.6601 -0.1887  0.5673
  116MPD2    C3 1805   3.478   1.536  17.155  0.0831 -0.3806 -0.6027
  116MPD2    C4 1806   3.442   1.666  17.152  0.2360  0.1453 -0.2256
  116MPD2    C5 1807   3.313   1.703  17.167  0.5085 -0.0106 -0.5045
  116MPD2     H 1808   3.404   1.333  17.134 -3.0847 -0.7885  0.2527
  116MPD2    H1 1809   3.520   1.742  17.157 -0.4125  0.7035  1.2597
  116MPD2    H2 1810   3.108   1.636  17.145 -0.2400 -1.6217  0.2544
  116MPD2    H3 1811   3.281   1.807  17.175  0.5434  0.0218 -0.7633
  116MPD2     N 1812   3.612   1.507  17.169  0.6746 -0.3610  0.5714
  116MPD2    H5 1813   3.670   1.590  17.176 -0.3695  0.3665  0.6216
  116MPD2    N1 1814   3.142   1.370  17.129  0.3375 -0.0719  0.2379
  116MPD2    H7 1815   3.050   1.399  17.098  0.2358 -1.4921 -0.7932
  117TMC2    C1 1816   2.129   2.880  13.821  0.5188  0.4295 -0.5996
  117TMC2    C2 1817   2.237   2.828  13.757  0.3255  0.2298 -0.0708
  117TMC2    C3 1818   2.329   2.916  13.697  0.4383 -0.1525 -0.5049
  117TMC2    C4 1819   2.121   3.014  13.844  0.1470  0.6440  0.5471
  117TMC2    C5 1820   2.218   3.096  13.788 -0.1221 -0.6223 -0.1453
  117TMC2    C6 1821   2.311   3.050  13.702  0.1481 -0.3752 -0.7425
  117TMC2     C 1822   2.025   2.794  13.864 -0.1896 -0.1521 -0.0430
  117TMC2     O 1823   2.064   2.681  13.874  0.3236 -0.7272 -0.5628
  117TMC2     H 1824   2.245   2.720  13.746 -2.7089 -0.2969  3.0491
  117TMC2    H1 1825   2.049   3.050  13.916 -0.6815  2.0018 -0.9735
  117TMC2    H2 1826   2.386   3.115  13.659 -0.4628  1.5160  1.0630
  117TMC2    C7 1827   2.219   3.241  13.815  0.0665 -0.1472  0.2587
  117TMC2    C8 1828   2.440   2.852  13.637  0.4484  0.3447 -0.8041
  117TMC2    O1 1829   2.323   3.299  13.778  0.2144 -0.2154  0.3651
  117TMC2    O2 1830   2.477   2.743  13.678 -0.4695  0.1419  0.0676
  117TMC2    O5 1831   2.513   2.938  13.561 -0.0582 -0.3741 -0.6701
  117TMC2    H5 1832   2.461   3.006  13.513  1.1050  0.1751 -1.1726
  118MPD2     C 1833   1.923   3.455  13.829  0.1028 -0.1004  0.4191
  118MPD2    C1 1834   2.058   3.426  13.845 -0.5274  0.0771  0.1017
  118MPD2    C2 1835   2.151   3.528  13.875  0.5301  0.1576 -0.2616
  118MPD2    C3 1836   2.099   3.660  13.891 -0.4476 -0.0287 -0.9284
  118MPD2    C4 1837   1.965   3.686  13.880  0.7836 -0.2577 -0.0202
  118MPD2    C5 1838   1.877   3.580  13.860  0.1103  0.6037 -0.6842
  118MPD2     H 1839   2.257   3.511  13.886  0.5754  1.0467  0.6990
  118MPD2    H1 1840   1.917   3.780  13.902  1.8024  0.3097 -0.2082
  118MPD2    H2 1841   1.851   3.374  13.817  0.5886 -0.3664 -0.6475
  118MPD2    H3 1842   1.771   3.603  13.865  0.2043  0.4499  1.7946
  118MPD2     N 1843   2.182   3.763  13.924 -0.4843 -0.4376 -0.5441
  118MPD2    H5 1844   2.129   3.849  13.928 -0.4914 -0.4728  0.0250
  118MPD2    N1 1845   2.093   3.287  13.839 -0.5127 -0.0438  0.4025
  118MPD2    H7 1846   2.015   3.224  13.822 -0.0338 -0.9706  1.6222
  119TMC2    C1 1847   4.326   3.374  13.102  0.6650 -0.1182 -0.2111
  119TMC2    C2 1848   4.354   3.485  13.019  0.5848 -0.2016  0.1578
  119TMC2    C3 1849   4.250   3.557  12.958  0.4195 -0.0252  0.0366
  119TMC2    C4 1850   4.200   3.336  13.116  0.3534  0.0240 -0.1866
  119TMC2    C5 1851   4.097   3.410  13.064  0.0773  0.1047  0.0177
  119TMC2    C6 1852   4.124   3.518  12.981 -0.0010 -0.1176  0.5577
  119TMC2     C 1853   4.385   3.387  13.227  0.0488  0.3946  0.2039
  119TMC2     O 1854   4.304   3.386  13.319  0.0017  0.2322 -0.7293
  119TMC2     H 1855   4.450   3.533  13.032 -0.8244  2.6439  0.0114
  119TMC2    H1 1856   4.182   3.248  13.178  0.2982  1.5204  1.9184
  119TMC2    H2 1857   4.050   3.589  12.944 -0.7120  0.8722  3.9279
  119TMC2    C7 1858   3.993   3.441  13.157 -0.3196  0.1657  0.1735
  119TMC2    C8 1859   4.281   3.699  12.917 -0.8614  0.1922  0.1503
  119TMC2    O1 1860   3.892   3.500  13.118  0.4505 -0.0533 -0.3286
  119TMC2    O2 1861   4.216   3.794  12.960  0.1056 -0.4558  0.1551
  119TMC2    O5 1862   4.408   3.701  12.864  0.4283 -0.4823  0.3365
  119TMC2    H5 1863   4.454   3.615  12.856  0.1798 -0.5731 -0.0936
  120MPD2     C 1864   0.056   3.505  13.514  0.5438  0.7444 -0.5111
  120MPD2    C1 1865   4.661   3.499  13.550 -0.5910 -1.0669 -0.2021
  120MPD2    C2 1866   4.563   3.454  13.456 -0.3948 -0.9424 -0.2667
  120MPD2    C3 1867   4.605   3.418  13.329  0.2748 -0.8157 -0.2837
  120MPD2    C4 1868   0.001   3.412  13.298 -0.3210 -0.7574  0.6697
  120MPD2    C5 1869   0.096   3.453  13.395  0.6349 -0.5836 -0.3605
  120MPD2     H 1870   4.460   3.448  13.488 -0.0789 -0.7881  0.7508
  120MPD2    H1 1871   0.037   3.380  13.201  0.2131  0.1500  0.5726
  120MPD2    H2 1872   0.135   3.536  13.583  2.0622  1.0238 -2.3782
  120MPD2    H3 1873   0.203   3.458  13.379  0.4612 -0.6316 -1.5301
  120MPD2     N 1874   4.522   3.394  13.221 -1.0333 -0.0512  0.0046
  120MPD2    H5 1875   4.568   3.361  13.136 -2.1345 -0.4361 -0.4439
  120MPD2    N1 1876   4.627   3.555  13.679 -0.4602 -0.7174  0.1263
  120MPD2    H7 1877   4.707   3.595  13.729  0.1336 -2.1731  0.3472
  121TMC2    C1 1878   1.336   1.087  14.311  0.0616  0.3974  1.2809
  121TMC2    C2 1879   1.418   1.044  14.408 -0.2471  0.4270 -0.3640
  121TMC2    C3 1880   1.373   0.974  14.513  0.3489  0.4116  0.5857
  121TMC2    C4 1881   1.202   1.060  14.316  0.7082 -0.3541  0.2082
  121TMC2    C5 1882   1.158   0.996  14.431  0.1836  0.3270 -0.1849
  121TMC2    C6 1883   1.239   0.948  14.525 -0.2245  0.0061  0.4834
  121TMC2     C 1884   1.390   1.130  14.186  0.3076 -0.3773  0.4201
  121TMC2     O 1885   1.315   1.117  14.091 -0.0621 -0.4478 -0.2907
  121TMC2     H 1886   1.525   1.037  14.392 -0.4790 -2.8804 -0.4904
  121TMC2    H1 1887   1.135   1.100  14.240  0.1532  0.6790  1.2390
  121TMC2    H2 1888   1.205   0.883  14.605  0.1095 -0.4587  0.2379
  121TMC2    C7 1889   1.018   0.980  14.457 -0.4977  0.1070  0.2711
  121TMC2    C8 1890   1.460   0.876  14.575 -0.4542 -0.3874 -0.3918
  121TMC2    O1 1891   0.988   0.898  14.541 -1.2733 -0.1078 -0.0504
  121TMC2    O2 1892   1.579   0.898  14.580 -0.7567  0.1011 -0.0870
  121TMC2    O5 1893   1.409   0.751  14.551  0.1981 -0.0928  0.2164
  121TMC2    H5 1894   1.316   0.755  14.520 -0.1936  0.2496  1.4439
  122MPD2     C 1895   1.691   1.323  14.090  0.8280 -1.2298  0.5359
  122MPD2    C1 1896   1.579   1.248  14.071  0.1997 -0.7879 -0.0231
  122MPD2    C2 1897   1.537   1.217  13.939 -0.0289 -0.5226 -0.2095
  122MPD2    C3 1898   1.605   1.268  13.827 -0.7129  0.5570  0.0345
  122MPD2    C4 1899   1.710   1.355  13.849 -0.5146  0.1382 -0.6541
  122MPD2    C5 1900   1.745   1.388  13.978 -0.0667 -0.2951 -0.0571
  122MPD2     H 1901   1.447   1.157  13.930 -0.3203 -0.0481 -0.4413
  122MPD2    H1 1902   1.750   1.412  13.766 -0.5193 -0.5898 -1.1601
  122MPD2    H2 1903   1.724   1.348  14.190 -1.5381  0.6509  0.8562
  122MPD2    H3 1904   1.820   1.465  13.988 -1.9773  1.7414 -1.2988
  122MPD2     N 1905   1.560   1.237  13.694  0.0260 -0.5344 -0.3053
  122MPD2    H5 1906   1.612   1.278  13.617  0.5755  2.7118  1.8082
  122MPD2    N1 1907   1.509   1.197  14.188 -0.3817 -0.1943 -0.1670
  122MPD2    H7 1908   1.549   1.207  14.281  2.0085  0.7070 -1.2771
  123TMC2    C1 1909   4.131   4.498  10.906  0.3256 -0.4255 -0.1413
  123TMC2    C2 1910   4.248   4.551  10.953 -0.1398  0.2960 -0.1104
  123TMC2    C3 1911   4.343   4.579  10.866 -0.7231  0.2293 -0.2207
  123TMC2    C4 1912   4.109   4.482  10.775 -0.5003  0.1987  0.8758
  123TMC2    C5 1913   4.202   4.529  10.686  0.5403 -0.2858  0.6545
  123TMC2    C6 1914   4.322   4.576  10.728 -0.5326  0.7741 -0.2690
  123TMC2     C 1915   4.057   4.401  10.997  0.0449 -0.1016 -0.0985
  123TMC2     O 1916   4.053   4.429  11.118  0.3772  0.2817 -0.0186
  123TMC2     H 1917   4.271   4.530  11.057  4.1745  0.4349 -1.0393
  123TMC2    H1 1918   4.020   4.433  10.738 -2.5790  1.3795  4.3728
  123TMC2    H2 1919   4.397   4.618  10.663 -0.3839  0.5146 -0.2622
  123TMC2    C7 1920   4.214   4.421  10.588 -0.1382 -0.0631 -0.3481
  123TMC2    C8 1921   4.471   4.632  10.902 -0.5152 -0.2777 -0.5169
  123TMC2    O1 1922   4.160   4.320  10.624 -0.4244 -0.0871 -0.3657
  123TMC2    O2 1923   4.535   4.600  11.001  1.1082 -0.0036 -0.1993
  123TMC2    O5 1924   4.463   0.024  10.870  0.1491 -0.7225  0.1364
  123TMC2    H5 1925   4.383   0.043  10.817 -0.7330  0.2843  1.8248
  124MPD2     C 1926   3.795   3.974  11.059  0.0683 -0.5672 -0.0273
  124MPD2    C1 1927   3.862   3.964  10.941  0.6224 -0.2510  0.6508
  124MPD2    C2 1928   3.950   4.068  10.905  0.3558 -0.2498  0.1173
  124MPD2    C3 1929   3.966   4.179  10.989 -0.2948  0.2952  0.3249
  124MPD2    C4 1930   3.892   4.186  11.106 -0.0092  0.2256 -0.3120
  124MPD2    C5 1931   3.809   4.085  11.137  0.3744  0.2106 -0.3580
  124MPD2     H 1932   4.007   4.055  10.814 -0.2192 -0.1360 -0.2645
  124MPD2    H1 1933   3.897   4.270  11.174 -2.4779 -0.3686  0.6022
  124MPD2    H2 1934   3.718   3.906  11.093 -3.0801  2.9774 -0.0223
  124MPD2    H3 1935   3.746   4.101  11.224  0.1983 -1.2447 -0.2080
  124MPD2     N 1936   4.042   4.285  10.937  0.2909  0.1448  0.6835
  124MPD2    H5 1937   4.085   4.265  10.848  0.9925 -2.2108  1.5477
  124MPD2    N1 1938   3.842   3.849  10.868  0.2439 -0.0379 -0.5069
  124MPD2    H7 1939   3.749   3.809  10.870  0.1243  0.1590 -1.9773
  125TMC2    C1 1940   4.421   1.767   9.835  0.3361  0.6505 -0.4509
  125TMC2    C2 1941   4.336   1.667   9.809  0.3069 -0.4960  0.0146
  125TMC2    C3 1942   4.390   1.555   9.752 -0.5743 -0.0964 -0.1398
  125TMC2    C4 1943   4.557   1.759   9.812 -0.2366  0.0214 -0.8988
  125TMC2    C5 1944   4.608   1.648   9.751 -0.0242  1.0302 -0.6588
  125TMC2    C6 1945   4.523   1.540   9.722  0.1688  0.0394 -0.0929
  125TMC2     C 1946   4.367   1.885   9.905  0.0315  0.6572 -0.0921
  125TMC2     O 1947   4.248   1.886   9.934  0.5430 -0.6083  0.5125
  125TMC2     H 1948   4.229   1.678   9.822  0.3850  0.4338 -0.1512
  125TMC2    H1 1949   4.628   1.837   9.834  1.7847 -1.9044 -0.5747
  125TMC2    H2 1950   4.562   1.446   9.684  0.2249 -0.5112  1.3307
  125TMC2    C7 1951   0.017   1.625   9.753  0.9119 -0.0844 -0.3394
  125TMC2    C8 1952   4.306   1.447   9.735 -0.0106  0.2748  0.3128
  125TMC2    O1 1953   0.091   1.687   9.828 -0.4160  0.4552  0.3712
  125TMC2    O2 1954   4.328   1.367   9.643  0.4928  0.1740 -0.1709
  125TMC2    O5 1955   4.258   1.411   9.855  0.1548 -0.3556  0.0577
  125TMC2    H5 1956   4.243   1.488   9.914  0.3202 -0.0710 -0.2689
  126MPD1     C 1957   4.427   2.381  10.006 -0.3400 -0.2400 -0.2786
  126MPD1    C1 1958   4.542   2.338   9.954  0.1068 -0.2483  0.0014
  126MPD1    C2 1959   4.551   2.204   9.928 -0.1470  0.4322  0.5321
  126MPD1    C3 1960   4.438   2.125   9.937  0.0015 -0.1840 -0.1487
  126MPD1    C4 1961   4.313   2.177   9.977  0.1324 -1.3202  0.6634
  126MPD1    C5 1962   4.314   2.299  10.015  0.3033  0.2605  0.2050
  126MPD1     H 1963   4.647   2.160   9.906  0.0306  0.6235  0.9258
  126MPD1    H1 1964   4.226   2.112   9.985 -0.8479  0.1812  2.0225
  126MPD1    H2 1965   4.405   2.479  10.047  0.1151  2.4317 -6.3974
  126MPD1    H3 1966   4.226   2.328  10.071 -0.1854  1.0356 -0.9734
  126MPD1     N 1967   4.458   1.989   9.905 -0.7802 -0.0607  0.1835
  126MPD1    H5 1968   4.551   1.962   9.874 -0.4993  2.1600 -0.8753
  126MPD1    N1 1969   4.646   2.431   9.941  0.4977 -0.0559  0.4379
  126MPD1    H6 1970   4.719   2.401   9.877 -0.0892 -0.2937 -0.1142
  126MPD1    H7 1971   4.609   2.521   9.912 -0.0827 -0.1849  0.7822
  127TMC2    C1 1972   1.018   4.309   9.607 -0.0339  0.5562 -0.2417
  127TMC2    C2 1973   1.123   4.229   9.639 -0.5633  0.5406  1.2121
  127TMC2    C3 1974   1.090   4.129   9.725  0.4485 -0.3785 -0.6997
  127TMC2    C4 1975   0.887   4.283   9.646 -0.0223  0.7874  0.0020
  127TMC2    C5 1976   0.863   4.186   9.742  0.3560  0.0217 -0.7602
  127TMC2    C6 1977   0.966   4.104   9.775  0.2351 -0.0086  0.4058
  127TMC2     C 1978   1.044   4.438   9.559 -0.6087  0.3597 -0.1711
  127TMC2     O 1979   1.157   4.478   9.572  0.5460 -0.1818 -0.6354
  127TMC2     H 1980   1.226   4.246   9.609 -0.9181 -0.9412 -0.8327
  127TMC2    H1 1981   0.814   4.357   9.615 -1.5756 -0.2040  1.2437
  127TMC2    H2 1982   0.953   4.018   9.840 -2.9379  1.4086  1.6177
  127TMC2    C7 1983   0.729   4.145   9.759  0.4519  0.1802  0.3721
  127TMC2    C8 1984   1.200   4.056   9.776 -0.0792  0.5813  0.2430
  127TMC2    O1 1985   0.654   4.170   9.665 -0.0967  0.1283 -0.0935
  127TMC2    O2 1986   1.314   4.088   9.749  0.1193  0.2439 -0.2997
  127TMC2    O5 1987   1.161   3.932   9.782  0.2233 -0.1977  0.4024
  127TMC2    H5 1988   1.091   3.922   9.850  0.0101  0.1626  0.2330
  128MPD2     C 1989   0.882   4.587   9.273 -0.5846  0.1194  0.1104
  128MPD2    C1 1990   0.964   4.589   9.384  0.0273 -0.4594  0.2010
  128MPD2    C2 1991   1.061   4.692   9.409  0.1534 -1.2578 -0.6484
  128MPD2    C3 1992   1.069   0.059   9.316 -0.1185  0.0106 -0.4128
  128MPD2    C4 1993   0.992   0.060   9.203  0.1277  0.5992  0.3817
  128MPD2    C5 1994   0.895   4.693   9.188 -0.2275  0.1983  0.4619
  128MPD2     H 1995   1.131   4.700   9.491 -0.7604 -1.4119  0.1374
  128MPD2    H1 1996   0.993   0.140   9.130 -0.3595 -0.3598 -0.6715
  128MPD2    H2 1997   0.807   4.511   9.252  0.4442 -0.4701 -1.3871
  128MPD2    H3 1998   0.829   4.688   9.102  0.9405  0.8402 -0.4570
  128MPD2     N 1999   1.170   0.157   9.338 -0.7145 -0.5388  0.2918
  128MPD2    H5 2000   1.215   0.135   9.426 -1.6459 -0.7754  0.7106
  128MPD2    N1 2001   0.953   4.475   9.462 -0.6089 -0.5566  0.1081
  128MPD2    H7 2002   0.873   4.413   9.451  0.9172 -2.3998 -0.5737
  129TMC2    C1 2003   0.043   0.346   1.879 -0.5720 -0.0465 -0.1159
  129TMC2    C2 2004   0.160   0.358   1.957  0.2392  0.3880  0.1482
  129TMC2    C3 2005   0.225   0.243   1.990  0.3131  0.1236 -0.3837
  129TMC2    C4 2006   4.722   0.227   1.854  0.3170  0.7123 -0.1428
  129TMC2    C5 2007   0.049   0.113   1.886 -0.8355  0.0780 -0.7495
  129TMC2    C6 2008   0.175   0.124   1.945  0.8939  0.1343  0.0454
  129TMC2     C 2009   4.722   0.465   1.818  0.0122  0.1570 -0.4101
  129TMC2     O 2010   4.601   0.454   1.792 -0.1786 -0.6096 -0.2990
  129TMC2     H 2011   0.185   0.452   2.004 -0.7556  1.2236 -0.9824
  129TMC2    H1 2012   4.630   0.219   1.798 -1.2522  0.5439  2.4868
  129TMC2    H2 2013   0.231   0.033   1.965 -0.9247 -1.0041  0.0076
  129TMC2    C7 2014   4.720   4.723   1.854  0.7250 -0.6701 -0.3316
  129TMC2    C8 2015   0.342   0.242   2.077 -0.2305  0.4819  1.0958
  129TMC2    O1 2016   4.608   4.732   1.806 -0.6699  0.0847 -0.6883
  129TMC2    O2 2017   0.383   0.148   2.146 -0.3724 -0.3656 -0.1232
  129TMC2    O5 2018   0.419   0.334   2.024 -0.1738  0.2168  0.1806
  129TMC2    H5 2019   0.365   0.394   1.969  0.4208  1.0571  0.5201
  130MPD2     C 2020   4.624   0.747   1.777  0.1835 -0.2848  0.3372
  130MPD2    C1 2021   0.021   0.711   1.788  0.6845  0.3950 -0.4709
  130MPD2    C2 2022   0.117   0.809   1.766 -0.5794  0.6096 -0.0440
  130MPD2    C3 2023   0.085   0.939   1.723 -0.6830  0.2171  0.2711
  130MPD2    C4 2024   4.687   0.975   1.707 -0.1297  0.6525  0.2055
  130MPD2    C5 2025   4.591   0.874   1.733  0.0199  0.0603  0.0410
  130MPD2     H 2026   0.221   0.780   1.778 -1.2992 -1.3090  1.4945
  130MPD2    H1 2027   4.652   1.072   1.675 -2.3503  0.7926  3.0952
  130MPD2    H2 2028   4.543   0.676   1.783  0.6293 -1.0610 -2.8033
  130MPD2    H3 2029   4.485   0.897   1.726  0.1192  0.3379 -0.5502
  130MPD2     N 2030   0.193   1.024   1.693  0.2482 -0.5709 -0.3537
  130MPD2    H5 2031   0.285   0.984   1.710  0.0965 -1.4010 -1.5048
  130MPD2    N1 2032   0.062   0.582   1.815  0.3326 -0.0898  0.4661
  130MPD2    H7 2033   0.163   0.573   1.822  0.3562 -2.0159 -2.7466
  131TMC2    C1 2034   4.113   4.532  10.053  0.4352 -0.1493  0.9584
  131TMC2    C2 2035   4.060   4.589  10.164 -1.1569 -0.4853 -0.0424
  131TMC2    C3 2036   4.107   4.709  10.204 -0.1695  0.1969 -0.0415
  131TMC2    C4 2037   4.224   4.587   9.989 -0.3566 -0.1598 -0.1629
  131TMC2    C5 2038   4.290   4.695  10.047 -0.0444 -0.4619 -0.2801
  131TMC2    C6 2039   4.232   0.021  10.154  0.6944  1.1921 -0.1886
  131TMC2     C 2040   4.069   4.402  10.008  0.0248  0.7196 -0.0880
  131TMC2     O 2041   4.082   4.371   9.889  0.1832 -0.8494 -0.3463
  131TMC2     H 2042   3.964   4.549  10.197 -1.8199 -0.0775 -1.4806
  131TMC2    H1 2043   4.273   4.527   9.913  0.7909 -0.4967  0.8404
  131TMC2    H2 2044   4.282   0.097  10.213 -0.4703  1.4975  0.4065
  131TMC2    C7 2045   4.431   4.716  10.003 -0.2462  0.3508  0.6437
  131TMC2    C8 2046   4.062   0.039  10.327  0.3445  0.0322  0.3787
  131TMC2    O1 2047   4.483   4.643   9.919  0.3541 -0.4089 -0.1960
  131TMC2    O2 2048   4.090   0.159  10.340  0.2133 -0.4714  0.2128
  131TMC2    O5 2049   4.017   4.688  10.416 -0.3132  0.7651 -0.0301
  131TMC2    H5 2050   4.002   4.594  10.389 -0.0798  0.6663  0.1793
  132MPD2     C 2051   3.886   4.166   9.957 -0.6043  0.9858  1.0606
  132MPD2    C1 2052   3.941   4.204  10.080  0.4246 -0.8468 -0.7838
  132MPD2    C2 2053   3.912   4.127  10.192  0.0099 -0.2574  0.1764
  132MPD2    C3 2054   3.836   4.013  10.180 -0.4277 -0.3510 -0.2250
  132MPD2    C4 2055   3.778   3.980  10.058  0.3283 -0.7359 -0.4913
  132MPD2    C5 2056   3.800   4.058   9.947 -0.4949  0.2216 -0.2917
  132MPD2     H 2057   3.945   4.163  10.289 -3.4591  0.5466  1.0567
  132MPD2    H1 2058   3.717   3.892  10.036 -2.4019  1.0001  0.0948
  132MPD2    H2 2059   3.909   4.227   9.871  0.7200 -1.3376 -0.2063
  132MPD2    H3 2060   3.751   4.023   9.857  0.1112  1.1108 -0.9682
  132MPD2     N 2061   3.807   3.942  10.300 -0.1000 -0.8879  0.1100
  132MPD2    H5 2062   3.851   3.977  10.384  1.1569 -1.6981 -0.2199
  132MPD2    N1 2063   4.005   4.330  10.109 -0.3530 -0.4289  0.1892
  132MPD2    H7 2064   4.016   4.362  10.204 -0.8052  1.6544 -0.4531
  133TMC2    C1 2065   3.902   1.185   9.605 -0.0889 -0.2887 -0.4124
  133TMC2    C2 2066   3.848   1.126   9.716 -0.0989 -1.0792 -0.2236
  133TMC2    C3 2067   3.826   1.209   9.822  0.8186 -0.1024 -0.4195
  133TMC2    C4 2068   3.948   1.315   9.604  0.1306  0.1930  0.8286
  133TMC2    C5 2069   3.941   1.385   9.719 -0.4017  0.3726 -0.5398
  133TMC2    C6 2070   3.891   1.333   9.835 -0.1889  0.8859 -0.1988
  133TMC2     C 2071   3.939   1.095   9.498 -0.5950  0.3337  0.2176
  133TMC2     O 2072   4.028   1.133   9.424 -0.1434 -0.2380 -0.1073
  133TMC2     H 2073   3.789   1.036   9.729 -1.9843  0.3550  1.1678
  133TMC2    H1 2074   3.988   1.340   9.506 -0.7872  1.2985  0.7301
  133TMC2    H2 2075   3.863   1.394   9.920 -0.1519  0.2075  0.3014
  133TMC2    C7 2076   3.967   1.529   9.721 -0.0880 -0.3548  0.1012
  133TMC2    C8 2077   3.782   1.145   9.942 -0.6916 -0.3725  0.3769
  133TMC2    O1 2078   3.991   1.581   9.827  0.1850 -0.2879 -0.3400
  133TMC2    O2 2079   3.793   1.024   9.962 -0.0543  0.2250  0.6076
  133TMC2    O5 2080   3.688   1.224  10.001  0.6114 -0.2110 -0.5971
  133TMC2    H5 2081   3.674   1.319   9.978  3.6224  0.9678  2.4283
  134MPD2     C 2082   3.997   0.861   9.333  0.0290  0.1229  0.0573
  134MPD2    C1 2083   3.888   0.866   9.420 -0.1535 -0.1692  0.0512
  134MPD2    C2 2084   3.803   0.755   9.424  0.4872 -0.1704 -0.2365
  134MPD2    C3 2085   3.823   0.644   9.340  0.7634  0.0832  0.4735
  134MPD2    C4 2086   3.930   0.648   9.255  0.8779  0.3788  0.0229
  134MPD2    C5 2087   4.020   0.750   9.259  0.2454 -0.0045 -0.0827
  134MPD2     H 2088   3.728   0.748   9.502  0.1238 -0.3814 -0.6065
  134MPD2    H1 2089   3.970   0.558   9.210  1.3808 -0.1864  1.6032
  134MPD2    H2 2090   4.075   0.937   9.333 -0.2589  0.4052 -1.5793
  134MPD2    H3 2091   4.107   0.749   9.195 -0.6284  1.1619 -1.2889
  134MPD2     N 2092   3.753   0.521   9.352 -0.6663 -0.3368 -0.4014
  134MPD2    H5 2093   3.773   0.451   9.282 -1.5029 -1.0168  0.0309
  134MPD2    N1 2094   3.868   0.977   9.505  0.0944  0.8776 -0.1650
  134MPD2    H7 2095   3.777   0.982   9.550 -0.1589 -1.9301 -0.3695
  135TMC2    C1 2096   0.869   2.326   9.884  0.0570  0.1205 -0.2312
  135TMC2    C2 2097   0.930   2.442   9.858 -0.3006 -0.0656  0.0863
  135TMC2    C3 2098   0.877   2.551   9.916 -0.1664 -0.2785 -0.0840
  135TMC2    C4 2099   0.767   2.313   9.971 -0.2079  0.1490  0.2278
  135TMC2    C5 2100   0.724   2.417  10.036 -0.8750  0.0782 -0.1717
  135TMC2    C6 2101   0.782   2.536  10.010 -0.4083 -0.3570 -0.3868
  135TMC2     C 2102   0.925   2.207   9.818  0.2385  0.9460  0.6993
  135TMC2     O 2103   1.039   2.213   9.779  0.0400 -0.1189  0.3849
  135TMC2     H 2104   1.014   2.435   9.790  0.5064  0.8482  0.9949
  135TMC2    H1 2105   0.727   2.213   9.983  1.3267 -0.3132  1.3156
  135TMC2    H2 2106   0.748   2.625  10.062 -0.6425 -0.5139 -0.2701
  135TMC2    C7 2107   0.641   2.403  10.157 -0.1208 -0.0755 -0.0344
  135TMC2    C8 2108   0.937   2.682   9.887 -0.3460  0.3152 -0.5996
  135TMC2    O1 2109   0.600   2.507  10.201 -0.2818  0.0871  0.1858
  135TMC2    O2 2110   0.889   2.784   9.935  0.8377  0.0037  0.8713
  135TMC2    O5 2111   1.039   2.673   9.801 -0.1268  0.0618  0.1469
  135TMC2    H5 2112   1.074   2.585   9.777 -0.4307 -0.3655  1.2744
  136MPD2     C 2113   0.989   1.925   9.723  0.2767  0.1358 -0.4360
  136MPD2    C1 2114   0.865   1.975   9.746  0.7069  1.2732 -0.0054
  136MPD2    C2 2115   0.752   1.892   9.704 -0.8428 -0.1332 -0.4126
  136MPD2    C3 2116   0.764   1.770   9.640 -0.3365 -0.5136  0.5903
  136MPD2    C4 2117   0.894   1.732   9.613 -0.2463  0.2828 -0.3161
  136MPD2    C5 2118   0.997   1.812   9.653  0.4279 -0.1935  0.6960
  136MPD2     H 2119   0.654   1.933   9.724 -0.2121  1.6482 -1.0355
  136MPD2    H1 2120   0.911   1.632   9.576 -1.1045  0.6707 -1.7540
  136MPD2    H2 2121   1.087   1.963   9.749  1.2191 -0.6330 -2.8648
  136MPD2    H3 2122   1.096   1.769   9.642  1.2881  1.8436  0.4849
  136MPD2     N 2123   0.652   1.697   9.590 -0.0475  0.3460  0.7867
  136MPD2    H5 2124   0.682   1.615   9.538 -0.0414  0.2764  0.9002
  136MPD2    N1 2125   0.837   2.100   9.802  0.3597 -0.4133 -0.3812
  136MPD2    H7 2126   0.742   2.119   9.833  0.5920 -1.9192  1.2328
  137TMC2    C1 2127   0.295   0.491   9.200  0.2424 -0.1419 -0.8800
  137TMC2    C2 2128   0.196   0.403   9.171  0.0236 -0.1012  0.4297
  137TMC2    C3 2129   0.081   0.449   9.105 -0.6612 -0.7895 -0.3105
  137TMC2    C4 2130   0.281   0.618   9.169 -0.4591 -1.3553 -0.2471
  137TMC2    C5 2131   0.161   0.663   9.113  0.6247 -0.2118 -0.0409
  137TMC2    C6 2132   0.058   0.582   9.081  0.7055 -0.7655 -0.6328
  137TMC2     C 2133   0.389   0.471   9.305  0.2465 -0.1609  0.2478
  137TMC2     O 2134   0.473   0.556   9.320  0.2779  0.2996  0.2315
  137TMC2     H 2135   0.198   0.303   9.213 -3.0495 -0.7332 -0.8987
  137TMC2    H1 2136   0.363   0.687   9.186 -2.8241  1.2200  0.7502
  137TMC2    H2 2137   4.698   0.612   9.039  0.2568  0.2176  1.0688
  137TMC2    C7 2138   0.117   0.788   9.165  0.5329  0.0055 -0.0900
  137TMC2    C8 2139   4.704   0.357   9.062 -0.2439  0.1887 -0.2002
  137TMC2    O1 2140   0.026   0.851   9.113  0.0458  0.4627  0.4760
  137TMC2    O2 2141   4.584   0.381   9.054 -0.1900  0.3836  0.3129
  137TMC2    O5 2142   0.020   0.237   9.031  0.3249 -0.2698  0.0915
  137TMC2    H5 2143   0.116   0.243   9.013  0.1494 -0.0829 -0.7972
  138MPD2     C 2144   0.412   0.233   9.584  0.1942 -0.3321 -0.5797
  138MPD2    C1 2145   0.435   0.350   9.516 -0.5180 -0.3478 -0.3849
  138MPD2    C2 2146   0.525   0.440   9.574 -0.5478 -0.4295 -0.0632
  138MPD2    C3 2147   0.584   0.424   9.700 -0.1314 -0.5161  0.2617
  138MPD2    C4 2148   0.552   0.310   9.768  0.2458 -0.0368 -0.8323
  138MPD2    C5 2149   0.472   0.214   9.706 -0.2700  0.0351  0.9785
  138MPD2     H 2150   0.556   0.528   9.520 -2.9410 -0.0888 -0.9199
  138MPD2    H1 2151   0.584   0.291   9.870 -1.5857 -1.7697 -0.5748
  138MPD2    H2 2152   0.338   0.161   9.552  1.5870 -2.4895  1.1064
  138MPD2    H3 2153   0.439   0.133   9.770 -0.8817 -0.5844 -0.1322
  138MPD2     N 2154   0.670   0.525   9.758 -0.1181 -0.1912  0.4861
  138MPD2    H5 2155   0.662   0.612   9.706  1.6507 -0.0045  0.5285
  138MPD2    N1 2156   0.367   0.364   9.388 -0.0072 -0.2231  0.5594
  138MPD2    H7 2157   0.295   0.295   9.373  3.0586 -3.1213 -0.7959
  139TMC2    C1 2158   0.976   3.762  13.214 -1.1171  0.4807 -1.7066
  139TMC2    C2 2159   0.918   3.726  13.092 -1.2660 -0.4575 -0.1263
  139TMC2    C3 2160   0.796   3.783  13.062 -0.5456 -0.1928 -0.7038
  139TMC2    C4 2161   0.918   3.855  13.296  0.2760 -0.2563  0.4697
  139TMC2    C5 2162   0.794   3.909  13.261 -0.4666 -1.0752  0.0131
  139TMC2    C6 2163   0.729   3.867  13.145  0.2790  0.5867 -0.0927
  139TMC2     C 2164   1.099   3.692  13.256  0.7940 -0.8354  0.8728
  139TMC2     O 2165   1.146   3.609  13.179  0.7039 -0.3146  0.3010
  139TMC2     H 2166   0.964   3.648  13.033 -1.1679  1.6296 -2.8389
  139TMC2    H1 2167   0.978   3.908  13.369 -1.3247  2.5931 -0.2373
  139TMC2    H2 2168   0.645   3.925  13.107 -0.3775 -2.0964 -2.7243
  139TMC2    C7 2169   0.772   4.042  13.307  0.2858  0.8535  0.0937
  139TMC2    C8 2170   0.723   3.765  12.933 -0.7906 -0.8932 -0.0280
  139TMC2    O1 2171   0.751   4.126  13.222  0.1901 -0.3605  0.0468
  139TMC2    O2 2172   0.620   3.827  12.922  0.3433  0.0675  0.2388
  139TMC2    O5 2173   0.726   3.628  12.924 -0.1144 -0.4275  0.0784
  139TMC2    H5 2174   0.815   3.587  12.920  0.6791  1.2811  0.0732
  140MPD2     C 2175   1.195   3.624  13.590  0.3809 -0.0163  0.1372
  140MPD2    C1 2176   1.218   3.644  13.458 -0.3345 -0.0197  0.1667
  140MPD2    C2 2177   1.335   3.604  13.396  0.5755  0.3634 -0.1851
  140MPD2    C3 2178   1.425   3.531  13.469 -0.4039  0.1925  0.1653
  140MPD2    C4 2179   1.398   3.503  13.595  0.6012 -0.9103  0.1031
  140MPD2    C5 2180   1.285   3.542  13.656  0.3597 -0.0372  0.0520
  140MPD2     H 2181   1.357   3.622  13.291  1.8457  1.2027  0.2179
  140MPD2    H1 2182   1.481   3.466  13.653  1.5982  0.6513 -0.3145
  140MPD2    H2 2183   1.104   3.655  13.641  1.0992  1.1385  0.7185
  140MPD2    H3 2184   1.269   3.527  13.762 -1.5999  2.7099  0.1696
  140MPD2     N 2185   1.548   3.487  13.412  0.4244 -0.1501 -0.7849
  140MPD2    H5 2186   1.563   3.525  13.319 -2.3458  1.7501 -0.4704
  140MPD2    N1 2187   1.109   3.697  13.393 -0.1379  0.5961 -0.4899
  140MPD2    H7 2188   1.046   3.758  13.445  0.0398 -0.4515  0.9436
  141TMC2    C1 2189   2.271   0.251  14.131  0.1521  0.0869  0.2657
  141TMC2    C2 2190   2.332   0.210  14.244  0.2046  0.1365 -0.0256
  141TMC2    C3 2191   2.414   0.302  14.302  0.6903  0.6339  0.2594
  141TMC2    C4 2192   2.267   0.382  14.088  0.4685  0.1131 -0.2696
  141TMC2    C5 2193   2.366   0.462  14.145 -0.4950 -0.0672 -0.4622
  141TMC2    C6 2194   2.439   0.427  14.257 -0.2189 -0.0635  0.1815
  141TMC2     C 2195   2.222   0.162  14.025  0.0716  0.2686 -0.7943
  141TMC2     O 2196   2.193   0.210  13.917  0.0055  0.1444 -0.3583
  141TMC2     H 2197   2.334   0.109  14.284  0.5234 -0.0765 -0.5889
  141TMC2    H1 2198   2.217   0.412  13.997 -0.4806 -0.8538 -0.0755
  141TMC2    H2 2199   2.526   0.476  14.299 -0.7443  0.1712  1.0076
  141TMC2    C7 2200   2.384   0.593  14.102 -0.1117  0.6330 -0.9060
  141TMC2    C8 2201   2.476   0.262  14.424  0.8954 -0.5436 -0.6104
  141TMC2    O1 2202   2.352   0.620  13.991 -0.2378  0.0975 -0.4012
  141TMC2    O2 2203   2.595   0.260  14.442 -0.2080  0.5709  0.7303
  141TMC2    O5 2204   2.380   0.197  14.492 -0.2900  0.5130 -0.3308
  141TMC2    H5 2205   2.291   0.224  14.460 -1.3532 -0.6019  1.7105
  142TMC2    C1 2206   4.255   3.594  10.327 -0.3820  0.1139  0.1067
  142TMC2    C2 2207   4.384   3.568  10.279 -0.3461  0.1252  1.2898
  142TMC2    C3 2208   4.444   3.669  10.220 -0.2352  0.4874  0.1963
  142TMC2    C4 2209   4.195   3.720  10.323  0.4884  0.1068  0.0687
  142TMC2    C5 2210   4.271   3.816  10.270 -0.5383 -0.9279  0.4898
  142TMC2    C6 2211   4.397   3.793  10.219 -1.4342  0.3861 -0.5380
  142TMC2     C 2212   4.174   3.480  10.361  0.1376  0.8814  1.3074
  142TMC2     O 2213   4.223   3.371  10.387 -0.3649  0.3198  0.0528
  142TMC2     H 2214   4.422   3.467  10.285 -0.3520  0.1285  1.3941
  142TMC2    H1 2215   4.104   3.737  10.379  0.5574  0.2413  0.1402
  142TMC2    H2 2216   4.461   3.878  10.200 -0.8074 -0.2616 -1.3171
  142TMC2    C7 2217   4.238   3.956  10.294  0.2179  0.0660  0.0530
  142TMC2    C8 2218   4.585   3.655  10.207 -1.1000  0.1545  0.9487
  142TMC2    O1 2219   4.145   3.974  10.378 -0.3919  0.5311  0.0885
  142TMC2    O2 2220   4.648   3.566  10.264 -0.0559 -0.0425 -0.4320
  142TMC2    O5 2221   4.634   3.759  10.134  0.3208  0.4758 -0.3215
  142TMC2    H5 2222   4.556   3.796  10.087 -1.0316 -0.8141  0.8694
  143MPD2     C 2223   3.748   3.213  10.340  0.2494 -0.4688  0.3625
  143MPD2    C1 2224   3.859   3.187  10.420  0.1360  0.4250  0.2670
  143MPD2    C2 2225   3.957   3.284  10.418 -0.3089  0.7938  0.0152
  143MPD2    C3 2226   3.950   3.398  10.336 -0.0772 -0.1136 -0.2615
  143MPD2    C4 2227   3.841   3.417  10.257  0.1984  0.1807  0.1201
  143MPD2    C5 2228   3.749   3.318  10.257  0.0239  0.0618  0.2826
  143MPD2     H 2229   4.044   3.275  10.481 -0.9147 -0.0690  0.7256
  143MPD2    H1 2230   3.826   3.501  10.190 -2.3040 -1.4353 -1.3139
  143MPD2    H2 2231   3.659   3.153  10.352 -0.8971  0.3199 -4.0927
  143MPD2    H3 2232   3.665   3.336  10.191 -0.3030  2.5466  1.3921
  143MPD2     N 2233   4.043   3.502  10.332  0.9207  0.1305 -0.1834
  143MPD2    H5 2234   4.022   3.584  10.276  1.3718  0.4233  0.0710
  143MPD2    N1 2235   3.853   3.067  10.495 -0.1877 -0.6676 -0.5506
  143MPD2    H7 2236   3.779   3.002  10.475 -0.1787 -1.2190  1.1809
  144TMC2    C1 2237   2.679   2.762   0.748  0.8209  0.6588 -0.0206
  144TMC2    C2 2238   2.734   2.683   0.647  0.0150  0.0734  0.6197
  144TMC2    C3 2239   2.860   2.629   0.670  0.2074  1.2130  0.0276
  144TMC2    C4 2240   2.752   2.807   0.858 -0.1372 -0.7711  0.3307
  144TMC2    C5 2241   2.874   2.746   0.871 -0.0481 -0.1904  0.3200
  144TMC2    C6 2242   2.926   2.653   0.788 -0.4566 -0.4741  0.4116
  144TMC2     C 2243   2.548   2.812   0.732 -0.3398 -0.1573 -0.0180
  144TMC2     O 2244   2.504   2.803   0.618  0.0004  0.1311 -0.5057
  144TMC2     H 2245   2.673   2.647   0.565  0.0319 -0.5179  0.8689
  144TMC2    H1 2246   2.707   2.881   0.923 -0.1847  0.5473 -1.2268
  144TMC2    H2 2247   3.013   2.591   0.807 -0.1037 -0.4042 -1.0167
  144TMC2    C7 2248   2.970   2.787   0.972 -0.6484  0.7282 -0.3745
  144TMC2    C8 2249   2.908   2.504   0.609 -0.1652 -0.3303 -0.2291
  144TMC2    O1 2250   3.071   2.727   0.985 -0.1464  0.1932  0.5402
  144TMC2    O2 2251   2.961   2.405   0.663  0.0010  0.3384  0.0193
  144TMC2    O5 2252   2.889   2.525   0.477  0.1454  0.6759 -0.1103
  144TMC2    H5 2253   2.874   2.619   0.456 -0.6580  0.0281 -2.4060
  145MPD2     C 2254   2.083   2.850   0.949  0.6645 -1.2076  0.4328
  145MPD2    C1 2255   2.119   2.868   0.816  0.3877 -0.1512 -0.0481
  145MPD2    C2 2256   2.256   2.840   0.790 -0.1049  0.0236  0.5123
  145MPD2    C3 2257   2.354   2.824   0.883 -0.0879 -0.2991  0.7304
  145MPD2    C4 2258   2.311   2.815   1.021 -0.9492  0.4366 -0.3124
  145MPD2    C5 2259   2.177   2.809   1.040  0.0254 -0.6187 -0.8238
  145MPD2     H 2260   2.278   2.865   0.687  0.3433 -1.5368  0.2312
  145MPD2    H1 2261   2.376   2.814   1.107  0.2327 -2.3953 -1.2098
  145MPD2    H2 2262   1.984   2.879   0.984  0.6106 -0.2422 -0.5100
  145MPD2    H3 2263   2.142   2.793   1.141  0.9134 -2.5755 -0.8317
  145MPD2     N 2264   2.492   2.826   0.857  0.3362 -0.5161 -0.3951
  145MPD2    H5 2265   2.553   2.815   0.938 -0.6431  0.0522  0.4219
  145MPD2    N1 2266   2.030   2.915   0.707 -0.4145 -0.6563 -0.3221
  145MPD2    H7 2267   2.068   2.916   0.613  0.5883 -0.5169  0.0788
  146TMC2    C1 2268   3.454   1.322  12.732  0.2521 -0.3087 -0.5580
  146TMC2    C2 2269   3.354   1.367  12.652 -0.0183  0.2941 -0.8414
  146TMC2    C3 2270   3.341   1.298  12.534  0.1705 -0.2362 -0.1467
  146TMC2    C4 2271   3.543   1.221  12.694 -0.0115 -0.4083 -0.1700
  146TMC2    C5 2272   3.526   1.157  12.574 -0.4897 -0.0433 -0.4695
  146TMC2    C6 2273   3.430   1.199  12.496  0.1986  0.0696  0.1657
  146TMC2     C 2274   3.451   1.383  12.864  0.3182  0.0278 -0.8906
  146TMC2     O 2275   3.396   1.493  12.875  0.1954 -0.3138 -0.1199
  146TMC2     H 2276   3.278   1.437  12.686  0.3226 -0.3980  1.3494
  146TMC2    H1 2277   3.633   1.200  12.751  0.7217 -1.2288 -1.6399
  146TMC2    H2 2278   3.413   1.156  12.398  0.8311  0.0981  0.0467
  146TMC2    C7 2279   3.601   1.042  12.534 -0.3731  0.2973  0.2628
  146TMC2    C8 2280   3.222   1.318  12.458  0.2360 -0.3488  0.0412
  146TMC2    O1 2281   3.587   1.000  12.422 -0.1861 -0.4870 -0.3459
  146TMC2    O2 2282   3.175   1.237  12.377 -0.4706 -1.2353 -0.4404
  146TMC2    O5 2283   3.163   1.439  12.469  0.3689 -0.0311  0.1454
  146TMC2    H5 2284   3.214   1.504  12.522 -0.9455  1.0814  0.0246
  147MPD2     C 2285   3.825   0.590  12.644  0.2447  0.6343  0.0343
  147MPD2    C1 2286   3.832   0.673  12.752 -0.3919 -0.0584  0.1393
  147MPD2    C2 2287   3.774   0.798  12.748  0.1771  0.2598 -0.2707
  147MPD2    C3 2288   3.720   0.843  12.627  0.2258 -0.3560 -0.4027
  147MPD2    C4 2289   3.719   0.762  12.514  0.5335 -0.4902 -0.0212
  147MPD2    C5 2290   3.774   0.638  12.529 -0.5783 -0.2038  0.8304
  147MPD2     H 2291   3.778   0.862  12.836  0.5371  0.8937 -0.7487
  147MPD2    H1 2292   3.682   0.792  12.417  2.5062 -0.6871 -0.8470
  147MPD2    H2 2293   3.899   0.512  12.636  0.4452  0.8177  0.0844
  147MPD2    H3 2294   3.787   0.577  12.440  1.4309  0.3491  0.7532
  147MPD2     N 2295   3.662   0.971  12.638  0.2157 -0.0813 -0.1792
  147MPD2    H5 2296   3.676   1.017  12.727  0.1079  0.0908 -0.2523
  147MPD2    N1 2297   3.918   0.633  12.855  0.4461 -0.6237  0.5397
  147MPD2    H7 2298   3.968   0.546  12.842  0.0078 -0.8637  0.4468
  148TMC2    C1 2299   3.856   0.249  10.540  0.1155  0.5459  0.2411
  148TMC2    C2 2300   3.982   0.276  10.591  0.5248 -0.4887 -0.6548
  148TMC2    C3 2301   4.036   0.196  10.693  0.1391  0.3954 -0.0803
  148TMC2    C4 2302   3.787   0.145  10.590 -0.4431 -0.5532 -1.1123
  148TMC2    C5 2303   3.852   0.064  10.683  0.8989 -0.0129 -0.3226
  148TMC2    C6 2304   3.978   0.079  10.734 -0.2046 -0.1757 -0.8899
  148TMC2     C 2305   3.791   0.355  10.457 -0.5082 -0.3921  0.2536
  148TMC2     O 2306   3.821   0.467  10.488 -0.0387 -0.6368  0.1133
  148TMC2     H 2307   4.032   0.369  10.565  0.0184 -0.1258 -0.3523
  148TMC2    H1 2308   3.688   0.121  10.553  0.3753 -0.9817 -3.0304
  148TMC2    H2 2309   4.033   0.012  10.799 -2.5941 -0.6235  0.6384
  148TMC2    C7 2310   3.786   4.671  10.708 -0.1373 -0.2286 -0.4860
  148TMC2    C8 2311   4.179   0.202  10.705 -0.0158 -0.3992  0.2438
  148TMC2    O1 2312   3.741   4.625  10.604  0.0074 -0.6487 -0.0125
  148TMC2    O2 2313   4.243   0.117  10.764 -0.8840  0.6946 -0.0140
  148TMC2    O5 2314   4.232   0.250  10.588 -0.1979  0.4088  0.0298
  148TMC2    H5 2315   4.166   0.308  10.543  1.0276  0.4337 -1.6975
  149MPD2     C 2316   3.543   0.487  10.404 -1.3464 -0.9481  0.1768
  149MPD2    C1 2317   3.567   0.358  10.364 -0.3665 -0.0110 -0.6605
  149MPD2    C2 2318   3.464   0.277  10.319 -0.3351 -0.5515 -0.0145
  149MPD2    C3 2319   3.332   0.328  10.319 -0.4059  0.6315  0.7985
  149MPD2    C4 2320   3.309   0.456  10.356 -0.5399  0.5614  0.2599
  149MPD2    C5 2321   3.417   0.537  10.391  0.8733 -0.1458 -0.2328
  149MPD2     H 2322   3.482   0.176  10.284  0.2224 -0.6561  0.5552
  149MPD2    H1 2323   3.206   0.487  10.351 -0.4611  1.2437  2.7812
  149MPD2    H2 2324   3.618   0.549  10.452  0.8074 -2.1509 -1.6239
  149MPD2    H3 2325   3.397   0.642  10.410  1.3680 -0.2300  0.7195
  149MPD2     N 2326   3.221   0.239  10.308 -0.1894 -0.2016  0.0362
  149MPD2    H5 2327   3.128   0.279  10.305 -0.2623 -0.4574 -0.9449
  149MPD2    N1 2328   3.692   0.299  10.384  0.2813  0.6296 -0.2168
  149MPD2    H7 2329   3.708   0.200  10.365 -0.9497  0.4681 -0.4179
  150TMC2    C1 2330   1.195   3.804  12.305 -0.0319 -0.3858  0.0143
  150TMC2    C2 2331   1.169   3.875  12.189 -0.0925 -0.2308 -0.1062
  150TMC2    C3 2332   1.282   3.909  12.113 -0.6356  0.8583  0.8431
  150TMC2    C4 2333   1.321   3.779  12.348 -0.5890  0.7196  0.9751
  150TMC2    C5 2334   1.428   3.834  12.283 -0.1845  0.0496 -0.1176
  150TMC2    C6 2335   1.406   3.896  12.162 -0.4446  0.4041 -0.4520
  150TMC2     C 2336   1.091   3.724  12.370 -0.6633  0.8959 -0.3957
  150TMC2     O 2337   1.119   3.638  12.457  0.3860  0.2431 -0.1173
  150TMC2     H 2338   1.069   3.897  12.152  0.2139  2.9457  0.9712
  150TMC2    H1 2339   1.337   3.720  12.438  1.1875 -2.0827 -1.1509
  150TMC2    H2 2340   1.496   3.915  12.105  0.3455 -0.9128  0.3368
  150TMC2    C7 2341   1.564   3.822  12.333  0.4502  0.4201 -0.0483
  150TMC2    C8 2342   1.264   3.976  11.987  0.7281  0.1021 -0.5552
  150TMC2    O1 2343   1.643   3.899  12.285  0.4078  0.6400  0.5475
  150TMC2    O2 2344   1.156   3.995  11.940 -0.2564  0.2308  0.2826
  150TMC2    O5 2345   1.372   4.054  11.986  0.0848 -0.9936 -0.0079
  150TMC2    H5 2346   1.368   4.138  11.935  0.2938 -0.9949 -0.0292
  151MPD2     C 2347   0.590   3.570  12.414  0.4669 -0.0280  0.2141
  151MPD2    C1 2348   0.594   3.667  12.323  0.3467 -0.5169 -0.0956
  151MPD2    C2 2349   0.720   3.727  12.300  0.2347  0.2120  0.1274
  151MPD2    C3 2350   0.836   3.682  12.361  0.0394  0.7989  0.1114
  151MPD2    C4 2351   0.830   3.571  12.445 -0.1831 -0.0888  1.0495
  151MPD2    C5 2352   0.706   3.530  12.477  0.4877 -0.3300 -0.4777
  151MPD2     H 2353   0.733   3.815  12.239 -2.6837 -0.0805 -0.9176
  151MPD2    H1 2354   0.918   3.524  12.486  0.7452  0.2202 -0.5566
  151MPD2    H2 2355   0.505   3.502  12.413  1.0623 -0.7671 -0.4853
  151MPD2    H3 2356   0.700   3.436  12.531  2.5851 -0.6629 -0.8112
  151MPD2     N 2357   0.961   3.751  12.324 -0.1890 -0.5833 -0.2515
  151MPD2    H5 2358   0.943   3.828  12.261 -4.9177 -0.9806  0.6224
  151MPD2    N1 2359   0.471   3.699  12.264 -0.1773 -0.0875 -0.6096
  151MPD2    H7 2360   0.402   3.626  12.275 -0.3666 -0.0044 -1.2809
  152TMC2    C1 2361   1.142   3.473  12.760  0.2913  0.0464 -0.2798
  152TMC2    C2 2362   1.229   3.400  12.686  0.0826  0.5840  0.4651
  152TMC2    C3 2363   1.346   3.455  12.647  0.1093  0.2148  0.4902
  152TMC2    C4 2364   1.185   3.592  12.810  0.3647  0.3646  0.6665
  152TMC2    C5 2365   1.301   3.652  12.776 -0.5690  0.2424 -0.4406
  152TMC2    C6 2366   1.381   3.584  12.686  0.1970  0.0403  0.5248
  152TMC2     C 2367   1.009   3.430  12.775 -0.4655  0.3365  0.7499
  152TMC2     O 2368   0.937   3.500  12.846  0.1240  0.9920  0.1074
  152TMC2     H 2369   1.192   3.312  12.636  0.1472  0.4869  0.5880
  152TMC2    H1 2370   1.124   3.655  12.874  1.2336 -0.1589  2.0383
  152TMC2    H2 2371   1.478   3.618  12.651  0.2936 -0.2958  0.4639
  152TMC2    C7 2372   1.287   3.797  12.742 -0.2396  0.4928 -0.6083
  152TMC2    C8 2373   1.415   3.408  12.525  0.2218 -0.0524 -1.2393
  152TMC2    O1 2374   1.174   3.841  12.724  0.1578 -0.4015  0.1509
  152TMC2    O2 2375   1.433   3.483  12.434 -0.3497 -0.7585 -0.4115
  152TMC2    O5 2376   1.399   3.273  12.506 -0.8496 -0.0343 -0.1972
  152TMC2    H5 2377   1.383   3.227  12.591 -1.3854 -0.8238 -0.7243
  153MPD2     C 2378   0.869   3.101  12.724  0.2401 -0.1393  0.3093
  153MPD2    C1 2379   0.867   3.232  12.747  0.3817  0.2251 -1.0202
  153MPD2    C2 2380   0.750   3.295  12.794  0.0433 -0.2092  0.2870
  153MPD2    C3 2381   0.632   3.219  12.805 -0.0018  0.4842  0.0721
  153MPD2    C4 2382   0.645   3.082  12.785 -0.0265  0.2109 -0.4093
  153MPD2    C5 2383   0.765   3.023  12.755 -0.1129 -0.7212  0.2616
  153MPD2     H 2384   0.743   3.403  12.789  1.7736 -0.1729 -1.2977
  153MPD2    H1 2385   0.560   3.016  12.798  0.4734 -0.5891 -1.1981
  153MPD2    H2 2386   0.949   3.052  12.669 -1.3763 -0.6870 -1.5769
  153MPD2    H3 2387   0.769   2.916  12.736  0.4621 -0.3944 -1.4386
  153MPD2     N 2388   0.510   3.284  12.843 -0.1108 -0.2876  0.1868
  153MPD2    H5 2389   0.513   3.386  12.844  1.8962 -0.3543  0.4325
  153MPD2    N1 2390   0.985   3.304  12.723  0.2159 -0.1506  0.0362
  153MPD2    H7 2391   1.063   3.257  12.677  0.5332 -0.0106  0.4255
  154TMC2    C1 2392   2.905   4.589  17.623  0.0850 -0.0854  0.0331
  154TMC2    C2 2393   2.953   4.464  17.630 -0.0707  0.3412  0.4998
  154TMC2    C3 2394   3.080   4.445  17.589  0.0512  0.1132  0.3103
  154TMC2    C4 2395   2.973   4.694  17.569 -0.4219 -0.5879 -0.6549
  154TMC2    C5 2396   3.098   4.666  17.527 -0.4016 -0.5631  0.2134
  154TMC2    C6 2397   3.155   4.543  17.526  0.2089  0.2347 -0.2601
  154TMC2     C 2398   2.768   4.609  17.669  0.1889  0.2944  0.4707
  154TMC2     O 2399   2.706   4.707  17.633 -0.6377  0.2598 -0.3979
  154TMC2     H 2400   2.900   4.385  17.681 -1.5054  1.3426  0.5804
  154TMC2    H1 2401   2.919   0.052  17.563 -1.4007 -1.3039 -3.2540
  154TMC2    H2 2402   3.261   4.532  17.506 -0.3408 -1.8842 -1.9446
  154TMC2    C7 2403   3.189   0.044  17.510  0.1381  0.9925 -0.6533
  154TMC2    C8 2404   3.101   4.304  17.585  0.2785 -0.6098 -0.3587
  154TMC2    O1 2405   3.293   0.015  17.451 -0.4848 -0.4882  0.1985
  154TMC2    O2 2406   3.049   4.223  17.662  0.0968  0.5219 -0.2166
  154TMC2    O5 2407   3.174   4.279  17.479 -0.3467 -0.2149  0.2134
  154TMC2    H5 2408   3.183   4.354  17.417 -2.3044 -0.4042 -0.3036
  155MPD2     C 2409   2.546   4.650   0.114  0.0367 -0.1647  0.0046
  155MPD2    C1 2410   2.652   4.567   0.143  0.6975 -0.0753 -0.6638
  155MPD2    C2 2411   2.659   4.510   0.265 -0.1410  0.5252  0.0921
  155MPD2    C3 2412   2.575   4.553   0.367  0.9561 -0.2472  0.2123
  155MPD2    C4 2413   2.478   4.641   0.339  0.4234  0.0212  0.5401
  155MPD2    C5 2414   2.461   4.688   0.210  0.8734  0.6953  0.2347
  155MPD2     H 2415   2.743   4.443   0.275  0.8694  1.4207 -2.2655
  155MPD2    H1 2416   2.413   4.662   0.422  0.9929 -1.0063  1.2467
  155MPD2    H2 2417   2.526   4.684   0.013  0.9393  2.2843  0.6407
  155MPD2    H3 2418   2.378   0.021   0.193  1.0687  0.9511  0.3045
  155MPD2     N 2419   2.612   4.512   0.498  0.1724 -0.2135 -0.2393
  155MPD2    H5 2420   2.668   4.428   0.497  1.2415  0.4875  0.3185
  155MPD2    N1 2421   2.751   4.546   0.047 -0.2744 -0.0139  0.1019
  155MPD2    H7 2422   2.824   4.486   0.082 -1.2856 -1.1229  0.3253
  156TMC2    C1 2423   0.474   1.384  11.279 -0.2684 -0.1102 -0.4579
  156TMC2    C2 2424   0.396   1.280  11.242  0.7331  0.9761 -0.3588
  156TMC2    C3 2425   0.279   1.317  11.186 -0.5471  0.3779  0.0456
  156TMC2    C4 2426   0.449   1.514  11.253 -0.3126  0.5769 -0.4593
  156TMC2    C5 2427   0.329   1.540  11.198  0.7085 -0.1616 -0.5207
  156TMC2    C6 2428   0.232   1.446  11.170  0.5440 -0.0463 -0.1831
  156TMC2     C 2429   0.560   1.365  11.399 -0.0599  0.0198 -0.2375
  156TMC2     O 2430   0.593   1.472  11.457  0.1097 -0.2437  0.3356
  156TMC2     H 2431   0.433   1.179  11.227 -0.3981  0.4267  0.5488
  156TMC2    H1 2432   0.507   1.600  11.285 -0.6874  1.4352 -2.0606
  156TMC2    H2 2433   0.140   1.470  11.119  0.3966 -0.9694 -0.3540
  156TMC2    C7 2434   0.272   1.670  11.224  0.0853 -0.4902  0.4605
  156TMC2    C8 2435   0.185   1.216  11.141  0.4153 -0.1435 -0.7347
  156TMC2    O1 2436   0.345   1.754  11.268  0.0466  0.7593 -0.6325
  156TMC2    O2 2437   0.098   1.227  11.054  0.6909 -0.3507 -0.2286
  156TMC2    O5 2438   0.213   1.098  11.210  0.1422  0.1545  0.5158
  156TMC2    H5 2439   0.273   1.101  11.287 -1.0664  1.7349  1.3924
  157MPD2     C 2440   0.668   1.061  11.558  0.0376  0.4953  0.1361
  157MPD2    C1 2441   0.668   1.192  11.535  0.5351 -0.2433  0.0143
  157MPD2    C2 2442   0.765   1.268  11.587 -0.4456  0.6604 -0.5275
  157MPD2    C3 2443   0.858   1.218  11.684 -0.5184  0.3648  0.2891
  157MPD2    C4 2444   0.839   1.081  11.726 -0.2582 -0.0745  0.3515
  157MPD2    C5 2445   0.746   1.007  11.659 -0.7563 -0.3528 -0.3298
  157MPD2     H 2446   0.783   1.373  11.573  0.3549  1.0325  3.4710
  157MPD2    H1 2447   0.906   1.028  11.792  1.1430 -0.9385 -1.7756
  157MPD2    H2 2448   0.586   1.006  11.514 -0.3308  1.4268 -0.3388
  157MPD2    H3 2449   0.729   0.901  11.675 -1.5656 -0.0128  0.9965
  157MPD2     N 2450   0.959   1.299  11.736 -0.3637  0.0922 -0.5464
  157MPD2    H5 2451   0.959   1.397  11.708 -0.7757  0.5784  1.1345
  157MPD2    N1 2452   0.583   1.236  11.437  0.4436 -0.0199  0.2271
  157MPD2    H7 2453   0.516   1.170  11.398  0.1562  0.5028 -0.1678
  158TMC2    C1 2454   1.389   0.157  12.865 -0.8920 -0.0230 -0.0590
  158TMC2    C2 2455   1.436   0.128  12.743 -0.4312 -0.9725 -0.4282
  158TMC2    C3 2456   1.382   0.196  12.637 -0.5992 -0.4246  0.7128
  158TMC2    C4 2457   1.272   0.232  12.882  0.1216 -0.0329 -0.5725
  158TMC2    C5 2458   1.223   0.299  12.765  0.8658 -0.0051 -0.0582
  158TMC2    C6 2459   1.270   0.271  12.645 -0.0539 -0.5414 -0.0964
  158TMC2     C 2460   1.463   0.105  12.982  0.5227  0.2173 -0.4268
  158TMC2     O 2461   1.585   0.101  12.976  0.1698  0.0617 -0.2615
  158TMC2     H 2462   1.525   0.066  12.745  0.6104  0.5105 -0.7552
  158TMC2    H1 2463   1.235   0.272  12.976 -0.5347 -1.9190 -0.0384
  158TMC2    H2 2464   1.243   0.331  12.558  0.9991  1.9612  1.2886
  158TMC2    C7 2465   1.085   0.353  12.767 -0.3366 -0.2318 -0.0544
  158TMC2    C8 2466   1.436   0.160  12.508 -0.5326  0.0716  0.1245
  158TMC2    O1 2467   1.040   0.421  12.677 -0.3727  0.0349 -0.2958
  158TMC2    O2 2468   1.377   0.196  12.406  0.2610 -0.1336 -0.3858
  158TMC2    O5 2469   1.571   0.152  12.515  0.1562 -0.1183  0.1503
  158TMC2    H5 2470   1.607   0.145  12.605  0.6752  2.8236  0.1883
  159MPD2     C 2471   1.489   0.033  13.480  0.9798  0.0125 -0.4227
  159MPD2    C1 2472   1.356   0.066  13.454  0.6507  0.0613 -0.2500
  159MPD2    C2 2473   1.330   0.095  13.320 -0.6385  0.2541  0.0131
  159MPD2    C3 2474   1.422   0.072  13.219  0.0212  0.2427  0.6206
  159MPD2    C4 2475   1.554   0.035  13.250 -0.0440  0.4150 -0.1446
  159MPD2    C5 2476   1.585   0.016  13.384 -0.3393 -0.1586  0.2452
  159MPD2     H 2477   1.232   0.128  13.288 -0.8438 -1.8896 -1.5752
  159MPD2    H1 2478   1.628   0.005  13.177 -0.0623  1.9390 -0.7924
  159MPD2    H2 2479   1.526   0.021  13.582  0.0207 -1.8619 -0.3128
  159MPD2    H3 2480   1.687   0.001  13.416  0.0984 -0.5349 -1.3719
  159MPD2     N 2481   1.374   0.087  13.090  0.3883 -1.1893 -0.6035
  159MPD2    H5 2482   1.275   0.095  13.068 -0.2284 -0.4699  2.4507
  159MPD2    N1 2483   1.275   0.097  13.559  0.5484 -0.2479 -0.1401
  159MPD2    H7 2484   1.307   0.063  13.649 -2.2952  1.9114  1.6631
  160TMC2    C1 2485   1.609   3.549   1.541 -0.0118 -1.0869 -0.1015
  160TMC2    C2 2486   1.736   3.523   1.602 -0.5003 -0.3935  0.0091
  160TMC2    C3 2487   1.840   3.602   1.573  0.3372 -0.0358  0.2447
  160TMC2    C4 2488   1.582   3.660   1.470  0.1564  0.2930 -0.1058
  160TMC2    C5 2489   1.694   3.730   1.437 -0.2301  0.4663 -0.1838
  160TMC2    C6 2490   1.823   3.696   1.478 -0.4497 -0.3804  0.4588
  160TMC2     C 2491   1.498   3.458   1.577  0.7132  0.2622 -0.0243
  160TMC2     O 2492   1.539   3.360   1.645  0.2170  0.1561  0.3393
  160TMC2     H 2493   1.746   3.435   1.666  2.9230 -0.1229 -0.1614
  160TMC2    H1 2494   1.496   3.669   1.404 -0.0558 -0.6235  0.0438
  160TMC2    H2 2495   1.911   3.755   1.458 -1.3335  0.9615  0.5219
  160TMC2    C7 2496   1.679   3.866   1.388  0.1333 -0.4175 -0.0747
  160TMC2    C8 2497   1.971   3.559   1.606 -0.4248 -0.4270  0.0357
  160TMC2    O1 2498   1.566   3.915   1.404  0.1496  0.0216 -0.2154
  160TMC2    O2 2499   2.078   3.576   1.549  0.1892 -0.0874  0.0172
  160TMC2    O5 2500   1.960   3.521   1.737 -0.2756  0.0455 -0.0955
  160TMC2    H5 2501   1.870   3.523   1.774 -0.2463 -0.2044 -0.0155
  161MPD2     C 2502   1.269   3.269   1.547 -0.0164  0.4794 -0.6962
  161MPD2    C1 2503   1.267   3.404   1.524  0.3416  0.3852  0.1588
  161MPD2    C2 2504   1.156   3.456   1.469 -0.2702 -0.3201  0.2525
  161MPD2    C3 2505   1.045   3.381   1.439 -0.1547 -0.3538 -0.4930
  161MPD2    C4 2506   1.045   3.244   1.468 -0.0543  0.5640 -0.4338
  161MPD2    C5 2507   1.156   3.197   1.516 -0.8624 -0.2442  0.3957
  161MPD2     H 2508   1.155   3.562   1.445 -1.2620 -0.6424 -1.1270
  161MPD2    H1 2509   0.957   3.182   1.453  0.5725 -0.7988  1.5752
  161MPD2    H2 2510   1.366   3.223   1.564  0.1825  0.5781 -1.5735
  161MPD2    H3 2511   1.168   3.091   1.539  2.1571 -0.1123 -0.6750
  161MPD2     N 2512   0.936   3.453   1.380 -0.4338  0.5046 -0.3670
  161MPD2    H5 2513   0.935   3.553   1.391 -0.1652  0.1512  2.8421
  161MPD2    N1 2514   1.375   3.496   1.540  0.5950 -0.2070  0.5931
  161MPD2    H7 2515   1.358   3.594   1.521 -0.3997 -0.3536  0.7142
  162TMC2    C1 2516   3.945   0.415   1.185 -0.9306 -0.5570  0.1813
  162TMC2    C2 2517   3.869   0.524   1.159 -0.4994 -0.2059 -0.3386
  162TMC2    C3 2518   3.735   0.525   1.185  0.6472  0.1503  0.4598
  162TMC2    C4 2519   3.888   0.305   1.245 -0.0362 -0.1884 -0.0484
  162TMC2    C5 2520   3.750   0.294   1.248 -0.2832  0.1923 -0.0769
  162TMC2    C6 2521   3.671   0.411   1.226  0.2433  0.5164 -0.0236
  162TMC2     C 2522   4.065   0.394   1.104  0.2254 -0.3361  0.2555
  162TMC2     O 2523   4.089   0.472   1.012 -0.0303 -0.0269 -0.0287
  162TMC2     H 2524   3.917   0.621   1.144 -0.7492 -0.2945 -1.7653
  162TMC2    H1 2525   3.952   0.224   1.279 -0.4483 -1.0421 -1.3180
  162TMC2    H2 2526   3.563   0.407   1.236  0.1265 -0.2800 -1.5421
  162TMC2    C7 2527   3.679   0.165   1.270  0.5047  0.5485  1.2809
  162TMC2    C8 2528   3.668   0.648   1.153 -0.0616 -0.3827  0.5412
  162TMC2    O1 2529   3.559   0.169   1.299 -0.1905  0.4858 -0.0039
  162TMC2    O2 2530   3.733   0.738   1.092  0.3957 -0.2833 -0.3716
  162TMC2    O5 2531   3.551   0.656   1.218  0.2081 -0.1953 -0.0481
  162TMC2    H5 2532   3.527   0.581   1.277 -0.1142 -0.9267 -1.1254
  163MPD2     C 2533   4.486   0.151   0.988 -0.2106  0.5462 -0.8648
  163MPD2    C1 2534   4.374   0.175   0.913 -0.3316  0.4795 -0.7211
  163MPD2    C2 2535   4.265   0.234   0.975  0.7472  0.3939  0.2547
  163MPD2    C3 2536   4.269   0.270   1.117 -0.1569 -0.1262  0.3880
  163MPD2    C4 2537   4.379   0.241   1.183 -0.2774 -0.2576 -0.0993
  163MPD2    C5 2538   4.494   0.188   1.120 -0.2544  0.3828  0.3218
  163MPD2     H 2539   4.173   0.264   0.926  2.0045  1.9057 -1.2156
  163MPD2    H1 2540   4.378   0.260   1.290  1.9203 -0.5637 -0.0234
  163MPD2    H2 2541   4.577   0.111   0.944  1.4605  1.1510  2.0258
  163MPD2    H3 2542   4.586   0.164   1.170 -0.5068  0.2521  0.7204
  163MPD2     N 2543   4.163   0.336   1.173  0.2623  0.3587 -0.1010
  163MPD2    H5 2544   4.159   0.350   1.274 -0.7179 -1.1346  0.0708
  163MPD2    N1 2545   4.374   0.130   0.777  0.0351 -0.0202 -0.3324
  163MPD2    H7 2546   4.458   0.083   0.744  0.9013  0.0855  1.7275
  164TMC2    C1 2547   4.162   4.676  11.345 -0.1954  0.5300 -0.2089
  164TMC2    C2 2548   4.290   4.729  11.351  0.2400 -0.3688  0.3343
  164TMC2    C3 2549   4.324   0.078  11.248  1.0656  0.2107 -0.4757
  164TMC2    C4 2550   4.076   4.697  11.240  0.1486 -0.2134 -0.4377
  164TMC2    C5 2551   4.111   0.057  11.150 -0.9674 -0.0026 -0.3886
  164TMC2    C6 2552   4.236   0.117  11.147  0.7665 -0.2091  0.5572
  164TMC2     C 2553   4.128   4.583  11.456  0.3281 -0.0737 -0.5924
  164TMC2     O 2554   4.186   4.606  11.556  0.3555 -0.0272 -0.8007
  164TMC2     H 2555   4.360   4.721  11.433  0.8394  2.5338  0.0948
  164TMC2    H1 2556   3.981   4.644  11.238 -0.9659  1.7158  1.5483
  164TMC2    H2 2557   4.265   0.179  11.063  1.1711 -1.4453 -0.2114
  164TMC2    C7 2558   3.999   0.107  11.069  0.0340  0.5126  0.2903
  164TMC2    C8 2559   4.466   0.084  11.232 -0.7965  0.1277  0.0664
  164TMC2    O1 2560   3.894   0.048  11.060  0.0936  0.3096 -0.2069
  164TMC2    O2 2561   4.542   0.018  11.299  0.3238 -0.1665 -0.0127
  164TMC2    O5 2562   4.481   0.212  11.192 -0.0949  0.7311 -0.3040
  164TMC2    H5 2563   4.390   0.247  11.182  0.1736  1.9515  1.5168
  165TMC2    C1 2564   2.044   1.776   1.899  0.8306  0.1912  0.5620
  165TMC2    C2 2565   2.172   1.760   1.956  0.6214  0.0792  0.6410
  165TMC2    C3 2566   2.212   1.872   2.020  0.1425 -0.2654 -0.1203
  165TMC2    C4 2567   1.968   1.888   1.895  0.2653 -0.2837  0.1099
  165TMC2    C5 2568   2.007   1.988   1.978 -0.0780  0.1887 -0.2026
  165TMC2    C6 2569   2.136   1.984   2.035  0.4072  0.2559  1.0619
  165TMC2     C 2570   2.004   1.678   1.801  0.1447 -0.1025  0.4617
  165TMC2     O 2571   1.883   1.669   1.774  0.2226  0.0635  0.4020
  165TMC2     H 2572   2.229   1.669   1.961  0.3505  0.0039  2.3486
  165TMC2    H1 2573   1.874   1.885   1.841  0.5805 -1.8772 -0.3324
  165TMC2    H2 2574   2.185   2.073   2.073 -0.4682  1.7587 -1.3910
  165TMC2    C7 2575   1.960   2.117   1.946  0.1907  0.0423 -0.5271
  165TMC2    C8 2576   2.352   1.879   2.046 -0.2364 -0.2163 -0.5558
  165TMC2    O1 2577   2.030   2.213   1.971 -0.4024 -0.2413  0.6008
  165TMC2    O2 2578   2.433   1.816   1.984 -0.5335 -0.8518 -0.4738
  165TMC2    O5 2579   2.369   1.904   2.177  0.0199 -0.8450  0.0006
  165TMC2    H5 2580   2.282   1.927   2.215  0.0042 -1.5676  0.4188
  166MPD2     C 2581   2.121   1.338   1.432 -0.6300  0.5561  0.1972
  166MPD2    C1 2582   1.998   1.375   1.487  0.4609 -0.0311 -0.0394
  166MPD2    C2 2583   1.991   1.462   1.592  0.3972  0.3944  0.5262
  166MPD2    C3 2584   2.110   1.517   1.638  0.2803  0.3966  0.0699
  166MPD2    C4 2585   2.228   1.478   1.583  0.9380 -0.1529 -0.2329
  166MPD2    C5 2586   2.237   1.391   1.479  0.1235  0.4966  0.1098
  166MPD2     H 2587   1.896   1.490   1.635  0.9965  1.0309  1.4243
  166MPD2    H1 2588   2.323   1.518   1.614  1.4725  0.6772 -3.0178
  166MPD2    H2 2589   2.141   1.271   1.349 -1.7020  0.8136 -0.2572
  166MPD2    H3 2590   2.328   1.352   1.434  0.0185  0.6297 -0.2191
  166MPD2     N 2591   2.109   1.621   1.736  0.4262  0.5432  0.6233
  166MPD2    H5 2592   2.205   1.642   1.761  1.3644 -1.1199 -1.5279
  166MPD2    N1 2593   1.880   1.308   1.429  0.5276 -0.0880  0.6453
  166MPD2    H7 2594   1.900   1.238   1.358  2.4744 -0.2840  1.3845
  167TMC2    C1 2595   3.709   0.078  12.653  0.1411  0.0573 -0.3640
  167TMC2    C2 2596   3.737   0.179  12.745  0.2843  0.3827 -0.3150
  167TMC2    C3 2597   3.755   0.139  12.877 -0.4736 -0.8355  0.3773
  167TMC2    C4 2598   3.701   4.679  12.687  0.0442  0.2543  0.0033
  167TMC2    C5 2599   3.701   4.651  12.821  0.2822 -0.1403 -0.6221
  167TMC2    C6 2600   3.731   0.009  12.916 -1.1125  0.6366 -0.4754
  167TMC2     C 2601   3.702   0.123  12.516 -0.3543  0.5147  0.3948
  167TMC2     O 2602   3.753   0.228  12.486 -0.0805  0.0618 -0.0875
  167TMC2     H 2603   3.764   0.281  12.717 -1.2044  0.4911 -1.3235
  167TMC2    H1 2604   3.700   4.603  12.609  0.3392  0.4011 -0.1411
  167TMC2    H2 2605   3.736   4.727  13.023 -0.9465  1.3122 -0.3725
  167TMC2    C7 2606   3.695   4.517  12.868 -0.0444  0.6645  0.4279
  167TMC2    C8 2607   3.829   0.235  12.954 -1.2002 -0.1006 -0.0595
  167TMC2    O1 2608   3.735   4.494  12.981  0.0142 -0.1362  0.3118
  167TMC2    O2 2609   3.907   0.191  13.035 -0.2130 -0.3750  0.1585
  167TMC2    O5 2610   3.777   0.357  12.943  0.9125  0.4188  0.5875
  167TMC2    H5 2611   3.692   0.356  12.894  1.8585  1.7748 -1.0999
  168MPD2     C 2612   3.701   0.139  12.220  0.0063  0.0922  0.6028
  168MPD2    C1 2613   3.639   0.038  12.291  1.0617 -0.0708  0.6806
  168MPD2    C2 2614   3.557   4.683  12.226 -0.4347  0.0144  0.2400
  168MPD2    C3 2615   3.548   4.688  12.084 -0.0560 -0.5237  0.1332
  168MPD2    C4 2616   3.620   0.050  12.011 -0.0690  0.0241 -0.3203
  168MPD2    C5 2617   3.694   0.141  12.084 -0.6017 -0.7186 -1.1892
  168MPD2     H 2618   3.501   4.611  12.284 -3.0366  1.8480 -0.0341
  168MPD2    H1 2619   3.611   0.063  11.904  0.3834  0.6584 -0.2785
  168MPD2    H2 2620   3.747   0.227  12.263  0.5290 -0.4135  1.0794
  168MPD2    H3 2621   3.748   0.220  12.033 -0.9636 -0.5367 -1.2922
  168MPD2     N 2622   3.470   4.595  12.005  1.0121 -0.1438  0.0345
  168MPD2    H5 2623   3.487   4.609  11.906  0.5111 -0.4414 -0.0927
  168MPD2    N1 2624   3.649   0.027  12.437  0.4294  0.7422  0.3152
  168MPD2    H7 2625   3.598   4.684  12.476 -2.0481  1.7941 -0.8130
  169MPD1     C 2626   1.373   0.343   8.592 -0.5510  0.2393  0.1785
  169MPD1    C1 2627   1.256   0.272   8.610 -0.0389 -0.6228 -0.0866
  169MPD1    C2 2628   1.243   0.175   8.709  0.3663 -0.6801  0.4863
  169MPD1    C3 2629   1.350   0.145   8.788  0.0589  0.3769  0.2677
  169MPD1    C4 2630   1.466   0.215   8.765 -0.9160 -0.4008  0.4802
  169MPD1    C5 2631   1.482   0.310   8.668 -0.6840 -0.0709 -0.5054
  169MPD1     H 2632   1.151   0.120   8.727 -0.2535  0.4630  0.7750
  169MPD1    H1 2633   1.558   0.213   8.823 -1.5504 -0.0555  1.5050
  169MPD1    H2 2634   1.389   0.423   8.520 -0.1416 -0.5971 -0.6507
  169MPD1    H3 2635   1.575   0.366   8.660 -0.5764 -0.2718 -0.6619
  169MPD1     N 2636   1.336   0.050   8.888  0.0318  0.5090  0.2417
  169MPD1    H5 2637   1.246   0.003   8.885 -0.1162  0.6952  1.6124
  169MPD1    N1 2638   1.147   0.291   8.524  0.0299  0.2091  0.2091
  169MPD1    H6 2639   1.147   0.380   8.475 -0.8211 -0.2103 -0.5498
  169MPD1    H7 2640   1.055   0.276   8.565  0.5959 -1.5861  0.8349
  170MPD1     C 2641   4.489   1.474  12.910  0.1608 -0.0566  0.5244
  170MPD1    C1 2642   4.514   1.397  13.026 -0.3406  0.4591  0.5536
  170MPD1    C2 2643   4.550   1.474  13.135  0.0370 -0.2717  0.4944
  170MPD1    C3 2644   4.563   1.619  13.133 -0.0574  0.7225 -0.1965
  170MPD1    C4 2645   4.541   1.683  13.011 -0.2584  0.2819  0.1591
  170MPD1    C5 2646   4.515   1.608  12.903 -0.4923  0.2702  0.7054
  170MPD1     H 2647   4.571   1.428  13.232 -1.2566  1.5593  1.6401
  170MPD1    H1 2648   4.561   1.789  13.001 -1.0282  0.4081 -0.0794
  170MPD1    H2 2649   4.449   1.433  12.818  0.6913 -1.7549  1.0522
  170MPD1    H3 2650   4.492   1.668  12.815 -0.6190 -2.3856 -1.0663
  170MPD1     N 2651   4.605   1.693  13.249 -0.4516 -0.3536 -0.6489
  170MPD1    H5 2652   4.619   1.634  13.330 -0.5878 -0.4272 -0.6797
  170MPD1    N1 2653   4.460   1.272  13.037 -0.0184 -0.1437 -0.0436
  170MPD1    H6 2654   4.495   1.227  13.122 -2.1208 -0.3013  0.7383
  170MPD1    H7 2655   4.445   1.212  12.956 -1.4934 -1.6391  1.3366
  171MPD1     C 2656   3.111   3.597  15.905  0.4340 -0.2735 -0.4152
  171MPD1    C1 2657   3.047   3.474  15.911  0.2313  0.6398 -0.4898
  171MPD1    C2 2658   3.130   3.369  15.877  0.0095 -0.3231  0.3613
  171MPD1    C3 2659   3.269   3.376  15.871  0.5301  0.0043 -0.7211
  171MPD1    C4 2660   3.324   3.504  15.863  0.2765  1.0016  0.5901
  171MPD1    C5 2661   3.245   3.612  15.873  0.4834 -0.1139  0.4945
  171MPD1     H 2662   3.083   3.272  15.867  1.7562 -1.3139  1.7729
  171MPD1    H1 2663   3.431   3.519  15.853  0.0057  1.5449 -1.3598
  171MPD1    H2 2664   3.058   3.690  15.915  0.0903 -0.7047  1.6803
  171MPD1    H3 2665   3.283   3.711  15.850  2.3007 -1.0036 -0.4045
  171MPD1     N 2666   3.358   3.272  15.835 -0.1156 -0.0368 -0.7669
  171MPD1    H5 2667   3.453   3.297  15.812  0.2075 -0.8605 -0.3154
  171MPD1    N1 2668   2.905   3.465  15.923  0.7248  0.2749  0.0479
  171MPD1    H6 2669   2.857   3.545  15.965  0.2448  0.6831 -1.2814
  171MPD1    H7 2670   2.873   3.383  15.973  0.4133 -0.1132 -0.7997
  172MPD1     C 2671   2.028   2.359   0.549  0.2719 -0.4357  0.3896
  172MPD1    C1 2672   1.987   2.492   0.555 -0.3957  0.2150  0.3882
  172MPD1    C2 2673   2.062   2.594   0.503 -0.8571 -0.5136 -0.1798
  172MPD1    C3 2674   2.190   2.566   0.446  0.0228 -0.8183 -0.0569
  172MPD1    C4 2675   2.223   2.436   0.434 -0.4024 -0.4141 -0.4112
  172MPD1    C5 2676   2.150   2.331   0.493 -0.2650 -0.5489 -0.2228
  172MPD1     H 2677   2.030   2.697   0.514 -0.4681 -0.2626 -1.3759
  172MPD1    H1 2678   2.316   2.405   0.387  0.0891 -0.3860  0.5377
  172MPD1    H2 2679   1.961   2.289   0.597  0.2305 -0.7411 -0.1096
  172MPD1    H3 2680   2.174   2.226   0.479  0.9586  0.4222 -5.5556
  172MPD1     N 2681   2.279   2.659   0.396 -0.0418  1.1623  0.5212
  172MPD1    H5 2682   2.361   2.625   0.347 -1.7150  1.7553 -2.7143
  172MPD1    N1 2683   1.854   2.518   0.595  0.4160  0.3031  0.2366
  172MPD1    H6 2684   1.829   2.607   0.637  2.5698  1.0071  0.0496
  172MPD1    H7 2685   1.811   2.447   0.653 -0.0938  0.0450 -0.4487
  173MPD1     C 2686   0.082   2.923  14.112  0.1172 -0.1916  0.1151
  173MPD1    C1 2687   0.121   2.815  14.194  0.6175  0.1312  0.0268
  173MPD1    C2 2688   0.027   2.748  14.267  0.4340 -0.6193 -1.0818
  173MPD1    C3 2689   4.629   2.777  14.247 -0.6024  0.6046  0.2110
  173MPD1    C4 2690   4.593   2.885  14.170 -0.5575  0.5139  0.0925
  173MPD1    C5 2691   4.686   2.962  14.101  1.0383  0.3111 -0.1074
  173MPD1     H 2692   0.060   2.658  14.317  0.9796 -0.6394 -1.4822
  173MPD1    H1 2693   4.486   2.903  14.164 -0.5831  0.5716  0.7603
  173MPD1    H2 2694   0.167   2.960  14.055  0.4097 -1.8660 -0.5450
  173MPD1    H3 2695   4.652   3.041  14.034 -1.1215  0.8516  1.6459
  173MPD1     N 2696   4.539   2.693  14.321 -0.3361  0.3928  0.0998
  173MPD1    H5 2697   4.585   2.624  14.380 -0.4819 -0.0267 -0.2769
  173MPD1    N1 2698   0.250   2.758  14.178  1.0684 -0.4499  0.1402
  173MPD1    H6 2699   0.320   2.823  14.141  0.3629 -0.1511 -0.6706
  173MPD1    H7 2700   0.280   2.715  14.265  1.1626 -0.4366  0.1148
  174MPD1     C 2701   0.078   1.935  14.355 -0.9124  0.2514  0.6034
  174MPD1    C1 2702   0.005   1.937  14.470 -0.2712 -0.2461 -0.8471
  174MPD1    C2 2703   4.629   2.017  14.480 -0.4087 -0.1366 -0.7034
  174MPD1    C3 2704   4.599   2.101  14.372 -0.4249 -0.1802 -0.6457
  174MPD1    C4 2705   4.679   2.103  14.257  0.8804  0.2100  0.1986
  174MPD1    C5 2706   0.052   2.020  14.249 -0.2032  0.2810  0.7068
  174MPD1     H 2707   4.561   2.013  14.564  0.1483  0.6176 -0.2136
  174MPD1    H1 2708   4.668   2.181  14.182 -0.2764 -1.7872 -1.7012
  174MPD1    H2 2709   0.166   1.872  14.347 -1.5370 -0.7905  1.9833
  174MPD1    H3 2710   0.126   2.034  14.171  0.3023 -1.2200  0.9150
  174MPD1     N 2711   4.493   2.195  14.367  0.2453 -0.4175 -0.1416
  174MPD1    H5 2712   4.483   2.255  14.286 -1.4398 -0.2660  0.1704
  174MPD1    N1 2713   0.034   1.845  14.577 -0.4673  0.0450 -0.2564
  174MPD1    H6 2714   0.129   1.811  14.590 -0.2738  0.7255  0.0786
  174MPD1    H7 2715   4.725   1.875  14.664  0.2331  1.6665 -0.4553
  175MPD1     C 2716   2.046   3.202  15.715 -0.2260  0.2773  0.0848
  175MPD1    C1 2717   2.180   3.219  15.735  0.3215 -0.4559 -0.2519
  175MPD1    C2 2718   2.221   3.232  15.870  0.3732  0.4231 -0.1187
  175MPD1    C3 2719   2.134   3.213  15.976  0.3204  1.4717  0.0841
  175MPD1    C4 2720   1.997   3.200  15.948  0.5823  0.0552  0.1885
  175MPD1    C5 2721   1.955   3.199  15.817  0.6327 -1.1891 -0.0530
  175MPD1     H 2722   2.323   3.254  15.898  0.0687  0.2390  1.1095
  175MPD1    H1 2723   1.922   3.183  16.025 -0.8230 -0.2098 -1.2385
  175MPD1    H2 2724   1.998   3.184  15.619  0.0971 -1.0910  0.1917
  175MPD1    H3 2725   1.852   3.172  15.794 -0.8301  3.3889  1.0628
  175MPD1     N 2726   2.176   3.203  16.109 -0.2810  0.0568  0.5432
  175MPD1    H5 2727   2.100   3.184  16.174  0.4446 -1.2634  1.0077
  175MPD1    N1 2728   2.261   3.242  15.619  0.0355  0.2011 -0.0829
  175MPD1    H6 2729   2.227   3.195  15.535  0.8903  0.5538 -0.6363
  175MPD1    H7 2730   2.362   3.247  15.630  0.0807  0.6023 -0.6498
  176MPD1     C 2731   4.277   0.051  17.198 -0.0018  0.1983  0.6449
  176MPD1    C1 2732   4.264   0.125  17.084 -0.2242 -0.1066 -0.5773
  176MPD1    C2 2733   4.263   0.265  17.103  0.1940 -0.3562 -0.9305
  176MPD1    C3 2734   4.257   0.328  17.227  0.5334  0.7020  0.0532
  176MPD1    C4 2735   4.247   0.245  17.341  0.2386 -0.4150  0.5831
  176MPD1    C5 2736   4.269   0.109  17.320  0.0517 -0.7432 -0.3052
  176MPD1     H 2737   4.269   0.319  17.009  1.5382 -1.9630 -1.7646
  176MPD1    H1 2738   4.217   0.275  17.441 -1.3277  1.6230 -0.5131
  176MPD1    H2 2739   4.293   4.680  17.198 -0.6310  0.1143 -1.0637
  176MPD1    H3 2740   4.280   0.048  17.409 -0.4835  0.5263  0.6203
  176MPD1     N 2741   4.278   0.470  17.231  0.2926 -0.1710 -0.0624
  176MPD1    H5 2742   4.294   0.513  17.141  0.3360  2.3677  1.1686
  176MPD1    N1 2743   4.289   0.063  16.963  0.3709 -0.3818 -0.3389
  176MPD1    H6 2744   4.239   0.109  16.887  0.5892  0.8649  0.2681
  176MPD1    H7 2745   4.247   4.707  16.968 -1.3697  0.5824  2.4055
  177MPD1     C 2746   1.917   0.320   9.949 -0.7489 -0.3600 -0.0444
  177MPD1    C1 2747   1.923   0.439   9.883  0.7940 -0.0170 -1.0195
  177MPD1    C2 2748   1.839   0.456   9.771 -0.4694 -0.1440  0.6895
  177MPD1    C3 2749   1.745   0.362   9.740  0.0782 -0.0336  0.4583
  177MPD1    C4 2750   1.724   0.258   9.826 -0.3808 -0.2896 -0.3450
  177MPD1    C5 2751   1.815   0.236   9.923 -0.1406  0.2683 -0.4623
  177MPD1     H 2752   1.850   0.548   9.714 -2.1584  0.7532  1.7947
  177MPD1    H1 2753   1.642   0.187   9.821 -0.5323  0.0794 -3.5109
  177MPD1    H2 2754   1.985   0.284  10.026 -0.6045 -1.2300 -0.5817
  177MPD1    H3 2755   1.803   0.145   9.981  3.7864  0.3711  0.5046
  177MPD1     N 2756   1.669   0.387   9.627  0.1210 -0.8183 -0.4358
  177MPD1    H5 2757   1.694   0.461   9.562 -0.5780  1.1342  1.4898
  177MPD1    N1 2758   2.031   0.528   9.910 -0.4351  0.4665 -0.1470
  177MPD1    H6 2759   2.060   0.527  10.007 -2.0063  0.0982  0.3185
  177MPD1    H7 2760   2.026   0.626   9.883  1.5244  0.1857 -1.5525
  178MPD1     C 2761   0.162   1.784   0.170 -0.1582 -0.4677 -0.3974
  178MPD1    C1 2762   0.046   1.724   0.123  0.0408  0.0521 -0.2257
  178MPD1    C2 2763   0.064   1.623   0.027  0.2836 -0.0974  0.2439
  178MPD1    C3 2764   0.188   1.591  17.718 -0.3210  0.2637 -0.0434
  178MPD1    C4 2765   0.298   1.653   0.030 -0.0809  0.3842  0.0436
  178MPD1    C5 2766   0.288   1.756   0.122  0.0542 -0.1895  0.3490
  178MPD1     H 2767   4.714   1.570  17.729  1.3569  1.5445 -4.2656
  178MPD1    H1 2768   0.398   1.620   0.005  0.1338 -0.3369  1.8456
  178MPD1    H2 2769   0.152   1.861   0.246 -1.1431  0.0779 -1.0911
  178MPD1    H3 2770   0.374   1.808   0.162 -0.7284  0.9289  0.5968
  178MPD1     N 2771   0.218   1.490  17.624 -0.2586 -0.2829  0.3660
  178MPD1    H5 2772   0.315   1.485  17.594 -0.5501 -4.3260  0.0355
  178MPD1    N1 2773   4.657   1.746   0.182  0.1714  0.5681  0.7450
  178MPD1    H6 2774   4.570   1.729   0.131  0.3038  1.1475  0.3213
  178MPD1    H7 2775   4.659   1.832   0.236  2.2384  0.1457  1.3469
  179MPD1     C 2776   4.403   4.552  15.667  0.1061  0.0192  0.2750
  179MPD1    C1 2777   4.306   4.481  15.595 -0.7058  0.4414  0.0490
  179MPD1    C2 2778   4.272   4.351  15.638 -0.6260  0.6680 -0.0043
  179MPD1    C3 2779   4.354   4.296  15.738  0.0878  0.2965  0.5058
  179MPD1    C4 2780   4.450   4.371  15.804 -0.0228  0.2147 -0.2087
  179MPD1    C5 2781   4.478   4.494  15.764  0.2316 -0.1270  0.4279
  179MPD1     H 2782   4.187   4.298  15.596 -0.2452  0.7658 -0.8787
  179MPD1    H1 2783   4.511   4.324  15.881  0.0902  1.1424  0.2621
  179MPD1    H2 2784   4.420   4.657  15.646  0.6932 -0.0272  0.5304
  179MPD1    H3 2785   4.550   4.547  15.826  0.6637  2.4374 -2.2502
  179MPD1     N 2786   4.363   4.160  15.765  0.9924 -0.1553  0.2502
  179MPD1    H5 2787   4.426   4.130  15.839  0.1671 -1.0380  0.5866
  179MPD1    N1 2788   4.211   4.554  15.517  0.1669 -0.2259  0.5136
  179MPD1    H6 2789   4.260   4.622  15.459 -0.3555 -1.5535 -1.4912
  179MPD1    H7 2790   4.144   4.502  15.461 -0.0314  0.7417 -0.1546
  180MPD1     C 2791   3.933   0.420  15.820 -0.1963 -0.3417  0.1344
  180MPD1    C1 2792   4.026   0.448  15.728 -0.4713 -0.1637  0.5685
  180MPD1    C2 2793   3.994   0.446  15.594 -0.7172  0.6731 -0.4884
  180MPD1    C3 2794   3.873   0.397  15.550 -0.4047  0.1175 -0.1248
  180MPD1    C4 2795   3.783   0.367  15.648  0.0141  0.1296 -0.3612
  180MPD1    C5 2796   3.813   0.358  15.782 -0.2126  0.1358 -0.4390
  180MPD1     H 2797   4.067   0.483  15.522  0.6802  0.3649  0.7777
  180MPD1    H1 2798   3.682   0.340  15.621  0.0788  1.6448 -2.1378
  180MPD1    H2 2799   3.939   0.437  15.927  0.9779 -3.5849  0.5758
  180MPD1    H3 2800   3.729   0.336  15.848  1.7950  0.4099  2.1908
  180MPD1     N 2801   3.837   0.423  15.417  0.4631 -0.0797 -0.1943
  180MPD1    H5 2802   3.916   0.460  15.365 -0.0231  0.4289 -0.5678
  180MPD1    N1 2803   4.140   0.518  15.777 -0.3804 -0.4638  0.0355
  180MPD1    H6 2804   4.222   0.504  15.718  0.1051 -1.9848  1.0537
  180MPD1    H7 2805   4.168   0.474  15.865 -1.1237 -0.7999  0.1060
  181MPD1     C 2806   0.791   3.522   9.322 -0.2937  0.4955 -0.3074
  181MPD1    C1 2807   0.918   3.568   9.317  0.5155 -0.1075 -0.2052
  181MPD1    C2 2808   1.022   3.502   9.385 -0.1212 -0.3826  0.5668
  181MPD1    C3 2809   0.995   3.394   9.465  0.0188  0.2363 -0.2410
  181MPD1    C4 2810   0.870   3.347   9.468 -0.3308  0.3611  0.2428
  181MPD1    C5 2811   0.767   3.407   9.396 -0.1482  0.2146  0.2454
  181MPD1     H 2812   1.123   3.541   9.376  0.2210 -1.5155 -0.4661
  181MPD1    H1 2813   0.851   3.252   9.518  2.2151  0.1531  0.8555
  181MPD1    H2 2814   0.718   3.567   9.256 -0.9474  0.2861  0.2790
  181MPD1    H3 2815   0.666   3.367   9.396 -0.1988  0.3500  2.7288
  181MPD1     N 2816   1.092   3.324   9.532  0.1872  0.3301 -0.2656
  181MPD1    H5 2817   1.066   3.231   9.564  1.4936 -0.3697 -1.2679
  181MPD1    N1 2818   0.951   3.665   9.218 -0.5910  0.0982  0.1238
  181MPD1    H6 2819   1.017   3.733   9.256  0.6046  0.1498 -2.0375
  181MPD1    H7 2820   0.868   3.717   9.190 -1.1368 -0.3756  0.8455
  182MPD1     C 2821   2.186   1.983   1.285 -0.7485 -0.5960 -0.0734
  182MPD1    C1 2822   2.162   1.870   1.209 -0.1440 -0.0031 -0.0111
  182MPD1    C2 2823   2.062   1.875   1.114  0.1147  0.7861  0.0644
  182MPD1    C3 2824   1.985   1.989   1.102  0.5127  0.3342  0.0152
  182MPD1    C4 2825   2.008   2.106   1.172  0.0696 -0.0706  0.9832
  182MPD1    C5 2826   2.117   2.100   1.256  0.0876  0.0590 -0.4643
  182MPD1     H 2827   2.032   1.781   1.067  1.1915  1.1268 -1.2824
  182MPD1    H1 2828   1.957   2.199   1.151 -1.0761 -1.0659 -0.6486
  182MPD1    H2 2829   2.267   1.990   1.357 -2.5541  1.7709  1.7303
  182MPD1    H3 2830   2.153   2.189   1.307 -1.7228 -0.1726  1.2343
  182MPD1     N 2831   1.889   1.993   0.995 -0.1137 -0.1109  0.5672
  182MPD1    H5 2832   1.821   2.068   0.999 -0.7108 -0.4482 -3.8950
  182MPD1    N1 2833   2.218   1.750   1.248  0.0725 -0.2419  0.5756
  182MPD1    H6 2834   2.202   1.677   1.179  0.5656  0.7849 -0.6318
  182MPD1    H7 2835   2.168   1.728   1.333 -2.1057  0.1073 -0.6166
  183MPD1     C 2836   1.119   2.090   8.974  0.1261  0.0558  0.0991
  183MPD1    C1 2837   1.083   2.221   9.020 -0.2311  0.8406 -0.4812
  183MPD1    C2 2838   1.186   2.300   9.076  0.2689  0.1186  0.0986
  183MPD1    C3 2839   1.304   2.254   9.124  0.2007  0.4403  0.0314
  183MPD1    C4 2840   1.327   2.123   9.102 -0.5350  0.0034  0.1185
  183MPD1    C5 2841   1.243   2.043   9.026  0.3641 -0.3327 -1.1400
  183MPD1     H 2842   1.157   2.404   9.084 -0.2135  0.1122 -1.5608
  183MPD1    H1 2843   1.419   2.073   9.133  0.3968  0.5175 -1.8301
  183MPD1    H2 2844   1.055   2.029   8.912 -0.0997  0.4618 -0.0700
  183MPD1    H3 2845   1.270   1.939   9.012 -1.3449 -1.0548  0.8891
  183MPD1     N 2846   1.392   2.341   9.188 -0.4858  0.1603  0.0274
  183MPD1    H5 2847   1.358   2.435   9.210  1.1114  0.2188  2.2797
  183MPD1    N1 2848   0.972   2.289   8.966 -0.0137  0.7670 -0.2496
  183MPD1    H6 2849   0.893   2.225   8.969  0.9669 -0.3097  2.9170
  183MPD1    H7 2850   0.943   2.362   9.030  0.0701  0.5324  0.0549
  184MPD1     C 2851   0.598   4.392  10.021 -0.1516  0.0312  0.6488
  184MPD1    C1 2852   0.727   4.445  10.020  0.0420  0.2866  0.1311
  184MPD1    C2 2853   0.773   4.502   9.902  0.1775 -0.0887  0.8404
  184MPD1    C3 2854   0.682   4.531   9.796 -0.7178 -0.0088 -0.4704
  184MPD1    C4 2855   0.549   4.488   9.805 -0.3950 -0.2647  0.1440
  184MPD1    C5 2856   0.513   4.420   9.916  0.2206 -0.3543  0.5053
  184MPD1     H 2857   0.872   4.545   9.898 -0.0937  0.2926 -1.7196
  184MPD1    H1 2858   0.469   4.513   9.737  0.9796  2.6204 -0.4280
  184MPD1    H2 2859   0.564   4.332  10.105  0.1986 -2.1728 -0.7773
  184MPD1    H3 2860   0.414   4.377   9.926  0.5335 -0.8659  1.4137
  184MPD1     N 2861   0.710   4.630   9.698 -0.1993 -0.4176  0.0860
  184MPD1    H5 2862   0.624   4.658   9.651  1.0487  1.4438 -1.0693
  184MPD1    N1 2863   0.817   4.419  10.127 -0.0480  0.8546 -0.5990
  184MPD1    H6 2864   0.766   4.430  10.215  1.4827  0.1297  0.3625
  184MPD1    H7 2865   0.900   4.478  10.125 -0.5101  1.4561 -2.0907
  185MPD1     C 2866   0.400   0.383   8.877  0.1206  0.4946 -0.2838
  185MPD1    C1 2867   0.382   0.255   8.936  0.5599 -0.1439  0.7152
  185MPD1    C2 2868   0.460   0.227   9.050  0.8369 -0.1412  0.4070
  185MPD1    C3 2869   0.569   0.307   9.088  0.2106 -0.2018  0.2046
  185MPD1    C4 2870   0.591   0.427   9.016  0.8231 -0.2572  0.0580
  185MPD1    C5 2871   0.505   0.461   8.917  0.5430 -0.4548 -0.4211
  185MPD1     H 2872   0.435   0.138   9.108 -0.9935 -0.1691 -0.4175
  185MPD1    H1 2873   0.673   0.497   9.031  2.4539 -2.3218  0.6641
  185MPD1    H2 2874   0.326   0.417   8.805 -1.0044 -0.4712  0.4209
  185MPD1    H3 2875   0.532   0.550   8.861  0.0840 -0.1837 -0.2109
  185MPD1     N 2876   0.659   0.276   9.192  0.0378  0.0772  0.0261
  185MPD1    H5 2877   0.728   0.350   9.205  1.2102 -0.7441 -1.5597
  185MPD1    N1 2878   0.270   0.179   8.907  0.1220 -0.0577  0.5774
  185MPD1    H6 2879   0.286   0.080   8.927 -1.4203 -0.6112 -0.9710
  185MPD1    H7 2880   0.254   0.188   8.807  0.5518 -0.2101  0.4966
  186MPD1     C 2881   0.269   3.757  15.949  0.0012 -1.0835 -0.4276
  186MPD1    C1 2882   0.333   3.860  15.883  0.4274 -0.9372  0.3306
  186MPD1    C2 2883   0.289   3.983  15.924 -0.4044 -0.1775  0.4755
  186MPD1    C3 2884   0.199   4.017  16.025 -0.4734 -0.1871 -0.4012
  186MPD1    C4 2885   0.140   3.905  16.093 -1.1319 -0.0101 -0.2675
  186MPD1    C5 2886   0.176   3.782  16.053 -1.3883 -0.1324  0.1375
  186MPD1     H 2887   0.321   4.068  15.865  3.5498 -1.8157  0.2641
  186MPD1    H1 2888   0.082   3.916  16.184  0.9140 -2.6548  1.3428
  186MPD1    H2 2889   0.281   3.652  15.923  1.7412 -0.1440 -3.4147
  186MPD1    H3 2890   0.124   3.702  16.104  0.4404 -2.1680 -1.1757
  186MPD1     N 2891   0.164   4.150  16.072  0.7642  0.4704  0.1386
  186MPD1    H5 2892   0.098   4.159  16.149 -0.9777  1.2870 -1.4597
  186MPD1    N1 2893   0.397   3.843  15.763 -1.1063 -0.0394 -0.1939
  186MPD1    H6 2894   0.462   3.765  15.777 -1.8326 -0.7564 -0.8165
  186MPD1    H7 2895   0.458   3.916  15.727  1.0359 -1.4004  0.6205
  187MPD1     C 2896   0.535   1.680  17.160  0.0651  1.0641  0.3167
  187MPD1    C1 2897   0.469   1.667  17.039  0.1022 -0.1413 -0.4817
  187MPD1    C2 2898   0.331   1.679  17.031 -0.0693 -0.0435  0.1833
  187MPD1    C3 2899   0.254   1.709  17.148  0.1152  0.2687 -0.1755
  187MPD1    C4 2900   0.324   1.729  17.267  0.6272  0.8701  0.0720
  187MPD1    C5 2901   0.460   1.722  17.271  0.5741 -0.3444  0.1039
  187MPD1     H 2902   0.280   1.678  16.935 -0.5281 -0.4350  0.4330
  187MPD1    H1 2903   0.269   1.758  17.356 -0.1634 -1.3359  0.3050
  187MPD1    H2 2904   0.643   1.678  17.172  0.1038 -1.9717 -0.5963
  187MPD1    H3 2905   0.505   1.744  17.367 -1.0146  1.6387  0.3960
  187MPD1     N 2906   0.121   1.742  17.154  0.3875 -0.2981 -0.1124
  187MPD1    H5 2907   0.102   1.790  17.241 -0.6878 -2.9692  1.1217
  187MPD1    N1 2908   0.539   1.636  16.917 -0.2630 -0.5118 -0.3931
  187MPD1    H6 2909   0.473   1.651  16.841  0.8144 -2.7269 -1.7625
  187MPD1    H7 2910   0.623   1.694  16.911 -0.9260  0.3936 -1.0094
  188MPD1     C 2911   4.180   1.625  10.206 -0.1548 -0.0289 -0.2351
  188MPD1    C1 2912   4.259   1.514  10.182 -0.5452  0.9368  0.3082
  188MPD1    C2 2913   4.198   1.392  10.193  0.6348  0.6529  0.0779
  188MPD1    C3 2914   4.065   1.382  10.223 -1.0591  0.0414 -1.1060
  188MPD1    C4 2915   3.984   1.492  10.230  0.3144  0.0573 -0.0499
  188MPD1    C5 2916   4.048   1.613  10.223 -0.2213  0.1739  0.0754
  188MPD1     H 2917   4.253   1.305  10.160 -0.7589 -0.4505  0.6549
  188MPD1    H1 2918   3.877   1.495  10.251  0.3310 -0.1445  0.0600
  188MPD1    H2 2919   4.205   1.719  10.159  1.4936 -0.2116  0.2836
  188MPD1    H3 2920   3.994   1.707  10.234  1.1608  0.8224  1.3744
  188MPD1     N 2921   4.002   1.254  10.234  0.0856  0.1028  0.3621
  188MPD1    H5 2922   3.917   1.260  10.288  0.1498 -0.8304  0.5721
  188MPD1    N1 2923   4.383   1.535  10.115  0.0366  0.0139  0.4056
  188MPD1    H6 2924   4.448   1.459  10.132 -0.8808 -1.1755 -1.4856
  188MPD1    H7 2925   4.438   1.619  10.134  1.2179 -0.7737  0.4800
  189MPD1     C 2926   0.819   2.657   0.618  1.3885  0.3293  0.1017
  189MPD1    C1 2927   0.696   2.616   0.578 -0.2393  0.1009 -0.5803
  189MPD1    C2 2928   0.625   2.710   0.512  0.9250 -0.2122  0.1314
  189MPD1    C3 2929   0.675   2.833   0.470 -0.1735  0.0400 -1.6979
  189MPD1    C4 2930   0.794   2.876   0.525  0.0176 -0.5437 -0.2388
  189MPD1    C5 2931   0.860   2.787   0.599  0.4922 -0.2086  1.0470
  189MPD1     H 2932   0.520   2.686   0.500  0.9798 -0.6614  0.5558
  189MPD1    H1 2933   0.846   2.971   0.522 -0.9105 -0.0456 -0.6307
  189MPD1    H2 2934   0.887   2.593   0.673  2.8258  2.7145  1.1225
  189MPD1    H3 2935   0.952   2.820   0.646  1.9217  0.1825 -2.0097
  189MPD1     N 2936   0.594   2.914   0.394  0.0787 -0.1106  0.2238
  189MPD1    H5 2937   0.498   2.883   0.390 -0.0510  0.4569 -1.0654
  189MPD1    N1 2938   0.651   2.489   0.626  0.2549 -0.5787  0.0135
  189MPD1    H6 2939   0.725   2.420   0.616  0.0260 -0.7228 -0.6806
  189MPD1    H7 2940   0.569   2.463   0.571  0.3445  0.9577 -0.8596
  190MPD1     C 2941   4.227   0.745  15.099 -0.0850  0.4204 -0.1896
  190MPD1    C1 2942   4.244   0.712  15.232  0.7825  0.4461 -0.0305
  190MPD1    C2 2943   4.346   0.620  15.257  0.5286 -0.1006  0.4730
  190MPD1    C3 2944   4.450   0.595  15.167  0.1040  0.6810  0.1247
  190MPD1    C4 2945   4.448   0.659  15.041  0.3175 -0.3828 -0.2225
  190MPD1    C5 2946   4.329   0.722  15.008 -0.0435 -0.4551 -0.6886
  190MPD1     H 2947   4.363   0.583  15.357  1.1339 -1.1033 -0.0068
  190MPD1    H1 2948   4.519   0.643  14.961 -0.5638 -0.3085 -1.0202
  190MPD1    H2 2949   4.144   0.810  15.072  1.2487  1.9928 -0.5160
  190MPD1    H3 2950   4.327   0.757  14.905  2.8639  1.9159  0.0492
  190MPD1     N 2951   4.568   0.544  15.224 -0.3154 -0.0476 -0.0793
  190MPD1    H5 2952   4.580   0.541  15.325 -0.4528 -0.5615 -0.0800
  190MPD1    N1 2953   4.141   0.736  15.328 -0.1309  0.5767 -0.1742
  190MPD1    H6 2954   4.087   0.821  15.315 -0.5873  0.1770 -0.8936
  190MPD1    H7 2955   4.181   0.732  15.422 -0.9144  0.2045  0.1399
  191MPD1     C 2956   3.010   2.813  13.735  0.3460  0.3323 -0.2471
  191MPD1    C1 2957   2.892   2.818  13.662  0.0274 -0.0717  0.3733
  191MPD1    C2 2958   2.900   2.793  13.529 -0.0802  0.0702  0.1093
  191MPD1    C3 2959   3.021   2.790  13.464  0.0742  0.0874 -0.3412
  191MPD1    C4 2960   3.140   2.802  13.537  0.2672  0.2390  0.5561
  191MPD1    C5 2961   3.134   2.808  13.670 -0.3695 -0.1528 -0.1322
  191MPD1     H 2962   2.805   2.768  13.481 -0.2566 -0.6237  0.8243
  191MPD1    H1 2963   3.243   2.794  13.504  0.3201 -0.2710  0.8518
  191MPD1    H2 2964   2.999   2.814  13.843 -1.3287  1.1101 -0.4292
  191MPD1    H3 2965   3.224   2.812  13.730 -0.1415 -1.8786 -0.3558
  191MPD1     N 2966   3.011   2.773  13.322  0.5545  0.3282 -0.7105
  191MPD1    H5 2967   2.919   2.761  13.281 -1.1151  2.0161  2.6131
  191MPD1    N1 2968   2.767   2.798  13.719 -0.3621  0.5942 -0.6267
  191MPD1    H6 2969   2.689   2.821  13.658  0.3849 -0.8048 -2.1388
  191MPD1    H7 2970   2.758   2.836  13.813  2.2530 -0.3017 -0.0057
  192MPD1     C 2971   2.644   2.409  12.461  0.5717 -0.8492 -0.4943
  192MPD1    C1 2972   2.642   2.370  12.594  0.1215 -0.6549  0.0232
  192MPD1    C2 2973   2.690   2.460  12.683 -0.5076  0.1201  0.1332
  192MPD1    C3 2974   2.728   2.592  12.653 -0.5009  0.4383 -0.3886
  192MPD1    C4 2975   2.710   2.637  12.524 -0.8548 -0.9316  0.5475
  192MPD1    C5 2976   2.675   2.538  12.433  0.1133  0.4232  0.2903
  192MPD1     H 2977   2.674   2.440  12.788  0.8715  0.9032  0.5027
  192MPD1    H1 2978   2.737   2.735  12.487 -0.0561 -0.9341  1.1302
  192MPD1    H2 2979   2.628   2.339  12.380 -0.4609 -2.0540  0.7624
  192MPD1    H3 2980   2.667   2.574  12.331 -1.6473 -0.3923  0.1345
  192MPD1     N 2981   2.775   2.680  12.752 -0.3777 -0.2710 -0.7038
  192MPD1    H5 2982   2.788   2.776  12.720  2.5403 -0.6844 -0.7695
  192MPD1    N1 2983   2.609   2.237  12.640  0.4148 -0.7060 -0.2598
  192MPD1    H6 2984   2.568   2.232  12.733 -0.8605  1.4529 -0.7072
  192MPD1    H7 2985   2.544   2.194  12.575 -2.4566  1.3023  1.2981
  193MPD1     C 2986   3.322   2.863  16.089 -0.2388  0.0190 -0.7925
  193MPD1    C1 2987   3.264   2.957  16.173  0.4459  0.2599 -0.1214
  193MPD1    C2 2988   3.345   2.996  16.278 -0.6052 -0.1586 -0.1499
  193MPD1    C3 2989   3.470   2.943  16.299 -0.3463 -0.0030 -0.1760
  193MPD1    C4 2990   3.505   2.830  16.229 -0.3326 -0.4640  0.3544
  193MPD1    C5 2991   3.434   2.794  16.118 -0.0423  0.3353 -0.1027
  193MPD1     H 2992   3.305   3.076  16.339  0.9759  1.2199 -0.9452
  193MPD1    H1 2993   3.592   2.770  16.254  2.2392  3.1860  0.2585
  193MPD1    H2 2994   3.275   2.842  15.994 -0.9782  0.6160 -0.5657
  193MPD1    H3 2995   3.461   2.707  16.058  1.1089  0.1215  0.7443
  193MPD1     N 2996   3.549   2.977  16.418  0.6370 -0.0294  0.4008
  193MPD1    H5 2997   3.637   2.926  16.413  0.3624 -0.5681  1.1104
  193MPD1    N1 2998   3.148   3.024  16.133  0.0878  0.3047 -0.4055
  193MPD1    H6 2999   3.101   3.062  16.214 -3.0070  0.5300 -2.3309
  193MPD1    H7 3000   3.158   3.090  16.056  0.9023 -0.3511 -0.8607
  194MPD1     C 3001   1.229   0.343  15.974  0.1495 -0.2860 -0.4599
  194MPD1    C1 3002   1.222   0.434  16.080  0.9514  0.2021 -0.9409
  194MPD1    C2 3003   1.236   0.388  16.202  0.6620  0.5383 -0.1240
  194MPD1    C3 3004   1.279   0.266  16.242  0.5191  0.1425 -0.1204
  194MPD1    C4 3005   1.292   0.174  16.138 -0.3290 -0.3106 -0.4421
  194MPD1    C5 3006   1.260   0.220  16.010 -0.0800  0.1360 -0.0609
  194MPD1     H 3007   1.220   0.455  16.285 -0.3597 -0.1479  0.2362
  194MPD1    H1 3008   1.333   0.074  16.144 -2.5806 -1.1355  1.3917
  194MPD1    H2 3009   1.219   0.376  15.871 -2.4955  2.5998  0.7309
  194MPD1    H3 3010   1.287   0.169  15.917  1.1532  0.8694 -0.1158
  194MPD1     N 3011   1.309   0.230  16.374  0.3930  0.2287  0.1524
  194MPD1    H5 3012   1.358   0.140  16.377 -2.8579 -1.5387 -0.2600
  194MPD1    N1 3013   1.159   0.559  16.051  0.3911 -0.0267  0.2447
  194MPD1    H6 3014   1.190   0.600  15.964  1.7465 -1.4543  0.0343
  194MPD1    H7 3015   1.175   0.628  16.125  1.4454  0.2706 -0.2600
  195MPD1     C 3016   4.346   2.514   0.255 -0.0740 -0.0327 -0.0640
  195MPD1    C1 3017   4.269   2.507   0.137  0.1692  0.3347 -0.0666
  195MPD1    C2 3018   4.243   2.372   0.085 -0.1118 -0.5168 -0.5464
  195MPD1    C3 3019   4.272   2.255   0.161  0.1363  0.4004 -0.7006
  195MPD1    C4 3020   4.349   2.273   0.271  0.4706  0.4734 -0.1442
  195MPD1    C5 3021   4.386   2.396   0.310  0.3565 -0.0168 -0.2947
  195MPD1     H 3022   4.194   2.363  17.730 -0.0108 -1.6266 -0.5017
  195MPD1    H1 3023   4.377   2.186   0.329  1.4813  1.7856  1.3486
  195MPD1    H2 3024   4.382   2.604   0.302 -0.3973  0.3864 -0.6288
  195MPD1    H3 3025   4.451   2.406   0.396  0.0218  0.9648 -0.1561
  195MPD1     N 3026   4.250   2.125   0.110 -0.1172 -0.1996  0.7639
  195MPD1    H5 3027   4.285   2.048   0.166 -4.3701 -3.2567 -0.7330
  195MPD1    N1 3028   4.237   2.622   0.061 -0.1109 -0.2528  0.6761
  195MPD1    H6 3029   4.237   2.708   0.115 -0.6871 -0.0434  0.3388
  195MPD1    H7 3030   4.150   2.613   0.008  0.7197  0.4960 -0.8475
  196MPD1     C 3031   2.924   2.177  17.527  0.1235 -0.7675 -0.1275
  196MPD1    C1 3032   3.013   2.145  17.617 -0.2749  0.1272  0.2324
  196MPD1    C2 3033   2.966   2.103  17.735  0.5378  0.1476 -0.1964
  196MPD1    C3 3034   2.835   2.076   0.015  0.0517 -0.0645 -0.3909
  196MPD1    C4 3035   2.738   2.097  17.658 -0.6820 -0.0781 -0.3883
  196MPD1    C5 3036   2.792   2.153  17.536 -0.8866  0.1696  0.5564
  196MPD1     H 3037   3.043   2.096   0.070  1.4458 -2.8507 -1.3750
  196MPD1    H1 3038   2.635   2.064  17.663  0.1157 -2.5318 -0.4913
  196MPD1    H2 3039   2.956   2.224  17.435  0.2821  0.1420  0.3878
  196MPD1    H3 3040   2.731   2.166  17.447  1.0341 -0.4192 -0.8432
  196MPD1     N 3041   2.789   2.021   0.139 -0.8755  0.7742 -0.4000
  196MPD1    H5 3042   2.691   2.040   0.159 -0.5367  1.8284  0.2667
  196MPD1    N1 3043   3.148   2.176  17.601 -0.3316  0.0040  0.3645
  196MPD1    H6 3044   3.215   2.121  17.655  0.5380  0.7312  0.0290
  196MPD1    H7 3045   3.189   2.176  17.508 -0.1724 -2.3628  0.4322
  197MPD1     C 3046   1.767   3.376  17.112 -0.7181 -0.6443 -0.0671
  197MPD1    C1 3047   1.838   3.494  17.140 -0.3650  0.2253  0.1677
  197MPD1    C2 3048   1.955   3.520  17.070  0.0171  0.7386  0.2624
  197MPD1    C3 3049   2.001   3.435  16.966  0.4153 -0.7631 -0.0382
  197MPD1    C4 3050   1.926   3.326  16.936 -1.2411 -0.5239  0.1098
  197MPD1    C5 3051   1.815   3.294  17.011  0.2713  0.6380  0.2669
  197MPD1     H 3052   2.002   3.615  17.090  3.0278 -0.5968 -0.5809
  197MPD1    H1 3053   1.952   3.258  16.856 -0.2084  0.8161 -0.6957
  197MPD1    H2 3054   1.681   3.344  17.169  0.2377 -1.5982  0.8529
  197MPD1    H3 3055   1.761   3.205  16.981 -0.6541  1.5553 -0.7916
  197MPD1     N 3056   2.114   3.455  16.894 -0.5920 -0.0489 -0.4983
  197MPD1    H5 3057   2.140   3.386  16.825 -2.0815 -2.1486  1.0672
  197MPD1    N1 3058   1.778   3.595  17.220  0.0663  0.3908 -0.4072
  197MPD1    H6 3059   1.757   3.557  17.313  0.7148  3.9611  1.2017
  197MPD1    H7 3060   1.844   3.671  17.232 -1.6256  2.0045 -1.3031
  198MPD1     C 3061   0.628   1.398  15.021 -0.1522 -0.3943 -0.4479
  198MPD1    C1 3062   0.667   1.445  15.140 -0.0338  0.0512  0.4314
  198MPD1    C2 3063   0.575   1.453  15.247  0.8589 -0.1453 -0.2700
  198MPD1    C3 3064   0.445   1.414  15.222  0.0662  0.5818 -0.5323
  198MPD1    C4 3065   0.402   1.377  15.089  0.2074  0.3111 -0.2108
  198MPD1    C5 3066   0.499   1.365  14.993  0.5216  0.0851  0.7712
  198MPD1     H 3067   0.595   1.494  15.345  4.3237  0.2046 -1.1212
  198MPD1    H1 3068   0.299   1.369  15.057  0.0919  1.8192 -0.2158
  198MPD1    H2 3069   0.700   1.397  14.939  2.7878  1.5533  2.1431
  198MPD1    H3 3070   0.474   1.333  14.892  2.3453 -2.2594  1.0497
  198MPD1     N 3071   0.344   1.418  15.330  0.1694 -0.3536 -0.5467
  198MPD1    H5 3072   0.379   1.457  15.417  0.7728  0.0363 -0.9695
  198MPD1    N1 3073   0.806   1.473  15.170  0.6025 -0.9757  0.0973
  198MPD1    H6 3074   0.843   1.529  15.093  1.2859 -1.6477 -0.0622
  198MPD1    H7 3075   0.812   1.537  15.249  1.4897 -0.8575 -0.0633
  199MPD1     C 3076   1.581   3.553  10.041 -0.1959 -0.0498  0.8639
  199MPD1    C1 3077   1.469   3.504  10.095  0.0751 -0.1696  1.0826
  199MPD1    C2 3078   1.349   3.531  10.028  0.5506 -0.1596  0.1772
  199MPD1    C3 3079   1.346   3.584   9.898 -0.3450 -0.3529 -0.3055
  199MPD1    C4 3080   1.463   3.632   9.848  0.4088 -0.5876 -0.4808
  199MPD1    C5 3081   1.581   3.619   9.923 -0.2478  0.3004  0.2993
  199MPD1     H 3082   1.255   3.501  10.072 -0.8845  2.6603 -1.0135
  199MPD1    H1 3083   1.467   3.678   9.750  1.9204 -2.7954 -1.4521
  199MPD1    H2 3084   1.676   3.555  10.093 -0.8272 -1.0305  2.0466
  199MPD1    H3 3085   1.672   3.660   9.880  0.5142  1.4757  3.0660
  199MPD1     N 3086   1.223   3.593   9.823  0.3526 -0.2207  0.1112
  199MPD1    H5 3087   1.225   3.628   9.728 -0.7912 -0.5032 -0.0192
  199MPD1    N1 3088   1.460   3.447  10.226  0.0736 -0.0054  0.0448
  199MPD1    H6 3089   1.365   3.413  10.238 -1.2425  2.7890 -2.3453
  199MPD1    H7 3090   1.525   3.369  10.237 -2.7066 -2.2939  0.2013
  200MPD1     C 3091   0.933   3.137  15.393  0.0820 -0.3818 -0.3759
  200MPD1    C1 3092   0.829   3.139  15.309 -0.3045  0.8748  0.4761
  200MPD1    C2 3093   0.846   3.235  15.209  0.4693  0.1546  0.4760
  200MPD1    C3 3094   0.931   3.342  15.216 -0.2172  0.6869 -0.7605
  200MPD1    C4 3095   1.024   3.346  15.322 -0.1387 -0.7824 -0.6644
  200MPD1    C5 3096   1.033   3.236  15.395  0.9819 -0.9447 -0.1055
  200MPD1     H 3097   0.762   3.249  15.142 -0.1208  0.3524  1.2574
  200MPD1    H1 3098   1.094   3.426  15.339 -1.3346 -0.2404  1.7044
  200MPD1    H2 3099   0.942   3.050  15.458 -0.9283 -0.9182 -0.9606
  200MPD1    H3 3100   1.119   3.217  15.459  0.2081 -1.2988  0.8296
  200MPD1     N 3101   0.935   3.437  15.116  0.6386  0.6565 -0.2838
  200MPD1    H5 3102   0.878   3.415  15.034  1.0956  0.7589 -0.6295
  200MPD1    N1 3103   0.744   3.026  15.306 -0.0566  0.1368 -0.0386
  200MPD1    H6 3104   0.656   3.041  15.258  0.6383  0.4175 -1.2146
  200MPD1    H7 3105   0.726   2.988  15.399 -1.7568 -0.0640 -0.4584
  201MPD1     C 3106   2.588   1.554  13.974  0.1294 -0.1137 -0.2899
  201MPD1    C1 3107   2.718   1.601  13.941  0.4057  0.1606  0.3648
  201MPD1    C2 3108   2.780   1.544  13.825 -0.6756  0.4078 -0.3623
  201MPD1    C3 3109   2.721   1.452  13.749  0.5607 -1.1325  0.0306
  201MPD1    C4 3110   2.602   1.400  13.786  0.1345  0.7129  0.0915
  201MPD1    C5 3111   2.534   1.454  13.894  0.2846  0.2332 -0.1711
  201MPD1     H 3112   2.877   1.581  13.794 -0.9458  0.7211 -0.8150
  201MPD1    H1 3113   2.544   1.324  13.735  0.2053 -0.7243  2.1461
  201MPD1    H2 3114   2.526   1.600  14.050  1.1960  1.0359 -0.1038
  201MPD1    H3 3115   2.441   1.406  13.919 -0.9413  2.0684 -1.2099
  201MPD1     N 3116   2.781   1.406  13.634  0.7526  0.5720 -0.2172
  201MPD1    H5 3117   2.872   1.444  13.610  0.8556  0.8710  0.6528
  201MPD1    N1 3118   2.780   1.696  14.029  0.1973 -0.1384 -0.1697
  201MPD1    H6 3119   2.713   1.772  14.041 -2.5069 -2.3508 -1.3053
  201MPD1    H7 3120   2.867   1.736  13.995 -0.9567  3.4510  1.0588
  202MPD1     C 3121   1.620   1.019   9.611 -0.5853  0.1169 -0.0927
  202MPD1    C1 3122   1.569   1.145   9.614 -0.8088  0.2698 -0.4646
  202MPD1    C2 3123   1.656   1.232   9.676 -0.1249 -0.3588  0.3794
  202MPD1    C3 3124   1.797   1.217   9.678 -0.0414 -0.3959  0.8519
  202MPD1    C4 3125   1.840   1.085   9.660 -1.0261 -0.0537 -0.2137
  202MPD1    C5 3126   1.748   0.988   9.638  0.8511  0.3112 -0.8799
  202MPD1     H 3127   1.619   1.330   9.706  2.1861  0.9336 -0.9614
  202MPD1    H1 3128   1.946   1.064   9.670 -1.0292  1.0958  2.1700
  202MPD1    H2 3129   1.550   0.937   9.603  1.0305 -1.0508 -2.2594
  202MPD1    H3 3130   1.762   0.880   9.641  0.2184  0.4057  4.2213
  202MPD1     N 3131   1.889   1.318   9.715 -0.1094  0.0680  0.7433
  202MPD1    H5 3132   1.985   1.291   9.729  1.2978  3.7423 -1.6934
  202MPD1    N1 3133   1.434   1.168   9.637 -0.1424  0.0523  0.4126
  202MPD1    H6 3134   1.423   1.266   9.609 -1.3596  0.0094  0.7466
  202MPD1    H7 3135   1.369   1.114   9.580 -0.7244  0.2095  0.9282
  203MPD1     C 3136   1.383   2.623  12.318 -0.7447  0.6721 -0.1152
  203MPD1    C1 3137   1.434   2.534  12.224  0.3013  0.3713  0.2883
  203MPD1    C2 3138   1.480   2.412  12.283  0.3895 -0.0116 -0.2392
  203MPD1    C3 3139   1.439   2.369  12.413  0.3208 -0.5338  0.5182
  203MPD1    C4 3140   1.364   2.452  12.488  0.4048 -0.3472  0.1813
  203MPD1    C5 3141   1.347   2.579  12.444  0.5433  0.3581 -0.6348
  203MPD1     H 3142   1.531   2.344  12.216  1.9477  2.7802 -1.8872
  203MPD1    H1 3143   1.331   2.428  12.588  0.6442  0.6206  0.4910
  203MPD1    H2 3144   1.363   2.727  12.296 -0.6461  0.5765 -0.6455
  203MPD1    H3 3145   1.313   2.663  12.503 -1.1018 -1.5188  1.0860
  203MPD1     N 3146   1.463   2.232  12.457  0.4387 -0.3920  0.4556
  203MPD1    H5 3147   1.529   2.182  12.398  1.0467 -0.0980  0.8891
  203MPD1    N1 3148   1.492   2.590  12.109  1.1242 -0.3436 -0.8176
  203MPD1    H6 3149   1.511   2.520  12.038 -0.0821 -0.7533 -0.7319
  203MPD1    H7 3150   1.436   2.656  12.054  0.0547 -1.6059 -1.2285
  204MPD1     C 3151   1.238   4.094   0.034  0.1456  0.0593  0.3021
  204MPD1    C1 3152   1.317   4.086  17.661 -0.7428  0.4686 -0.6194
  204MPD1    C2 3153   1.371   3.957  17.638  0.4824 -0.0727  0.0601
  204MPD1    C3 3154   1.312   3.846  17.701  0.3278 -0.3519 -0.1191
  204MPD1    C4 3155   1.231   3.859   0.068 -0.2836 -0.1829  0.2051
  204MPD1    C5 3156   1.192   3.982   0.101 -0.1704 -0.0126  1.0704
  204MPD1     H 3157   1.453   3.941  17.568  0.5879 -1.8963  0.5823
  204MPD1    H1 3158   1.197   3.777   0.130 -0.3964  0.6722  1.2749
  204MPD1    H2 3159   1.205   4.187   0.078 -0.2080  0.4067 -0.6860
  204MPD1    H3 3160   1.124   3.990   0.185  0.1541  2.2564  1.1025
  204MPD1     N 3161   1.360   3.716  17.661  0.3285 -0.1417  0.0724
  204MPD1    H5 3162   1.434   3.709  17.591  0.9951 -1.0981  0.8718
  204MPD1    N1 3163   1.374   4.204  17.605 -0.8308 -0.3970 -0.2750
  204MPD1    H6 3164   1.319   4.289  17.619 -1.1529 -0.5800 -0.4072
  204MPD1    H7 3165   1.399   4.179  17.509  1.2076 -0.2890  0.2297
  205MPD1     C 3166   2.028   2.058   0.344  1.1100 -0.3802 -0.3087
  205MPD1    C1 3167   1.912   2.014   0.402  0.3081 -0.3538  0.1901
  205MPD1    C2 3168   1.793   2.064   0.355  0.2559  0.1829 -0.1354
  205MPD1    C3 3169   1.789   2.151   0.246 -0.2477 -0.0112 -0.0731
  205MPD1    C4 3170   1.909   2.196   0.184 -0.1508 -0.4652 -0.0014
  205MPD1    C5 3171   2.024   2.147   0.243 -0.3013 -0.6876  0.5408
  205MPD1     H 3172   1.704   2.034   0.410 -0.3098  0.8526 -0.6970
  205MPD1    H1 3173   1.905   2.279   0.115  0.0736 -1.4063 -1.1321
  205MPD1    H2 3174   2.119   2.003   0.369  1.1671 -0.0651  0.1737
  205MPD1    H3 3175   2.117   2.182   0.200 -1.0604  1.5580  0.6831
  205MPD1     N 3176   1.666   2.193   0.182  0.1321 -0.0049 -0.1263
  205MPD1    H5 3177   1.680   2.262   0.109  0.7433 -0.1277 -0.1251
  205MPD1    N1 3178   1.918   1.919   0.505  0.8549  0.3672 -0.2352
  205MPD1    H6 3179   1.838   1.924   0.567  0.9283  0.3479 -0.1386
  205MPD1    H7 3180   2.011   1.916   0.547  1.1265 -0.2182 -0.8684
  206MPD1     C 3181   1.756   0.193  16.834 -0.0695  0.3868 -0.5628
  206MPD1    C1 3182   1.756   0.319  16.787  0.3478  0.3263  0.0628
  206MPD1    C2 3183   1.737   0.332  16.651 -0.3129  0.3588 -0.2515
  206MPD1    C3 3184   1.701   0.231  16.566 -0.1879  0.7396 -0.0442
  206MPD1    C4 3185   1.689   0.112  16.621 -0.8551 -0.4781  0.1794
  206MPD1    C5 3186   1.722   0.091  16.753  0.9950  0.0978 -0.4604
  206MPD1     H 3187   1.751   0.437  16.625  1.9796  0.0768 -0.1466
  206MPD1    H1 3188   1.650   0.028  16.565  0.7044  0.9619 -3.0337
  206MPD1    H2 3189   1.781   0.180  16.938  2.5365  2.9108 -0.8599
  206MPD1    H3 3190   1.714   4.724  16.785  1.0497  0.4228  0.5950
  206MPD1     N 3191   1.674   0.252  16.432 -0.6318 -0.0993  0.0729
  206MPD1    H5 3192   1.653   0.174  16.372 -1.2739  0.7985 -0.8523
  206MPD1    N1 3193   1.801   0.422  16.875  0.0026 -0.6987  0.1954
  206MPD1    H6 3194   1.781   0.407  16.974  0.3019  0.7233  0.4626
  206MPD1    H7 3195   1.765   0.513  16.849  1.7405  0.4611  1.8633
  207MPD1     C 3196   3.348   2.321  10.325 -0.0337 -0.0331 -0.1874
  207MPD1    C1 3197   3.368   2.451  10.288  0.4707  0.6314 -0.3218
  207MPD1    C2 3198   3.474   2.520  10.345 -0.2615  0.1654 -0.3231
  207MPD1    C3 3199   3.548   2.464  10.452 -0.0596 -0.6091  0.0196
  207MPD1    C4 3200   3.521   2.329  10.484 -1.0438  0.0975 -0.1360
  207MPD1    C5 3201   3.424   2.260  10.424  0.4760 -0.0443 -0.4499
  207MPD1     H 3202   3.479   2.624  10.318  0.3869  0.3147  0.3939
  207MPD1    H1 3203   3.583   2.282  10.560 -2.3313 -1.2153  0.0977
  207MPD1    H2 3204   3.280   2.255  10.272  0.7622 -1.1596  0.2130
  207MPD1    H3 3205   3.407   2.164  10.473  2.7260 -1.4860 -2.5320
  207MPD1     N 3206   3.650   2.529  10.520  0.5468 -0.0181  0.0816
  207MPD1    H5 3207   3.709   2.476  10.582  0.4577 -0.5406 -0.2796
  207MPD1    N1 3208   3.296   2.502  10.177  0.4922  0.0289 -0.6053
  207MPD1    H6 3209   3.205   2.461  10.154  0.6948  0.0909 -1.5183
  207MPD1    H7 3210   3.265   2.595  10.204  0.7881  0.0492 -0.3467
  208MPD1     C 3211   0.521   0.777   0.773  0.0647 -0.1600 -0.3277
  208MPD1    C1 3212   0.503   0.877   0.873 -1.0510  0.8253 -0.1940
  208MPD1    C2 3213   0.536   1.003   0.844  0.5780  0.3163 -0.1769
  208MPD1    C3 3214   0.564   1.038   0.712 -0.2212  0.0246  0.1568
  208MPD1    C4 3215   0.586   0.939   0.621  0.3526  0.1486 -0.4395
  208MPD1    C5 3216   0.584   0.808   0.655 -1.0227  0.1281  0.1060
  208MPD1     H 3217   0.530   1.088   0.912 -2.6733 -1.0658  1.2603
  208MPD1    H1 3218   0.619   0.958   0.519  0.5773  0.4478 -0.3145
  208MPD1    H2 3219   0.510   0.671   0.790 -1.8514 -0.1964 -1.7027
  208MPD1    H3 3220   0.606   0.732   0.581 -1.3083  0.1317  0.0165
  208MPD1     N 3221   0.599   1.176   0.689 -0.2461 -0.1040 -0.8223
  208MPD1    H5 3222   0.592   1.240   0.768 -3.2399 -2.4023  0.7573
  208MPD1    N1 3223   0.477   0.846   1.002  0.0189 -0.1992  0.0794
  208MPD1    H6 3224   0.432   0.919   1.057 -0.9882 -1.1419  0.4982
  208MPD1    H7 3225   0.425   0.759   1.008 -0.4704  0.1173  0.4751
  209MPD1     C 3226   0.551   2.687   9.711 -0.1463  0.5618 -0.1511
  209MPD1    C1 3227   0.522   2.558   9.694  0.1418 -0.0881  0.0777
  209MPD1    C2 3228   0.462   2.497   9.796 -0.0296 -0.5847  0.6331
  209MPD1    C3 3229   0.407   2.566   9.904  0.0286  0.1252 -1.2102
  209MPD1    C4 3230   0.442   2.697   9.925 -0.5756  0.7340 -0.2598
  209MPD1    C5 3231   0.526   2.749   9.829 -0.0185 -0.1204  0.0356
  209MPD1     H 3232   0.443   2.392   9.783  1.9835 -0.6407 -1.8229
  209MPD1    H1 3233   0.420   2.749  10.018 -2.4942  0.2810 -0.4449
  209MPD1    H2 3234   0.594   2.750   9.635  1.2451 -2.3748 -1.7719
  209MPD1    H3 3235   0.565   2.848   9.845  0.8000 -0.0989 -2.1463
  209MPD1     N 3236   0.335   2.490  10.000  0.3850  0.1494 -0.0294
  209MPD1    H5 3237   0.323   2.389   9.988 -1.0354  0.1290  1.6196
  209MPD1    N1 3238   0.526   2.503   9.566 -0.1105 -0.1705 -0.6157
  209MPD1    H6 3239   0.542   2.403   9.574  1.7947  0.3277  1.7451
  209MPD1    H7 3240   0.605   2.549   9.521  0.4013  0.8091  1.2684
  210MPD1     C 3241   0.198   1.583  10.356  0.5726  0.1610 -0.9155
  210MPD1    C1 3242   0.264   1.646  10.252 -0.5710  0.0606  0.0319
  210MPD1    C2 3243   0.243   1.786  10.237 -0.6645  0.2783 -0.2976
  210MPD1    C3 3244   0.150   1.857  10.315  0.1950 -0.5728 -0.2379
  210MPD1    C4 3245   0.082   1.790  10.414  0.1424 -0.0596 -0.3943
  210MPD1    C5 3246   0.101   1.652  10.434 -0.4339  0.1314  0.0149
  210MPD1     H 3247   0.303   1.838  10.162  1.2729  0.1332  1.1498
  210MPD1    H1 3248   0.005   1.835  10.475 -0.4707 -2.2603  0.4634
  210MPD1    H2 3249   0.211   1.479  10.382 -0.9243  0.0322 -0.6574
  210MPD1    H3 3250   0.040   1.601  10.507  1.3083  0.0059  1.3996
  210MPD1     N 3251   0.141   1.997  10.301 -0.6400 -0.1635 -0.2003
  210MPD1    H5 3252   0.095   2.049  10.376 -1.1330 -0.6666 -0.1528
  210MPD1    N1 3253   0.379   1.586  10.194  0.0794  0.5848  0.5922
  210MPD1    H6 3254   0.362   1.486  10.188  0.7180  0.5482 -0.5656
  210MPD1    H7 3255   0.372   1.617  10.097 -0.4852 -1.6906 -0.0880
  211MPD1     C 3256   2.324   1.978  16.020  0.1580  0.3248 -0.1712
  211MPD1    C1 3257   2.297   2.110  16.061 -0.4555 -0.5055  0.2315
  211MPD1    C2 3258   2.179   2.140  16.115 -0.1035 -0.6385  0.4722
  211MPD1    C3 3259   2.067   2.059  16.105  0.1244 -0.2419  0.1181
  211MPD1    C4 3260   2.092   1.937  16.058 -0.0722 -0.2246  0.8934
  211MPD1    C5 3261   2.215   1.896  16.017 -0.0103 -0.2474  0.4822
  211MPD1     H 3262   2.164   2.245  16.138  1.1579 -0.8288  2.1366
  211MPD1    H1 3263   2.016   1.862  16.038  0.2188 -0.3563  0.2958
  211MPD1    H2 3264   2.420   1.940  15.988 -0.8079 -1.0468 -1.4247
  211MPD1    H3 3265   2.233   1.796  15.981  0.9757 -0.0296  0.3814
  211MPD1     N 3266   1.941   2.102  16.159 -0.3598 -0.6901 -0.1624
  211MPD1    H5 3267   1.937   2.199  16.186  1.1028 -0.4120 -0.9456
  211MPD1    N1 3268   2.395   2.207  16.059  0.2440 -0.1538  0.6317
  211MPD1    H6 3269   2.356   2.298  16.037  0.2241 -0.7928 -2.0768
  211MPD1    H7 3270   2.463   2.193  15.984 -0.1062  0.3816  0.2142
  212MPD1     C 3271   0.513   0.709  16.507 -0.2192 -0.1872  0.5663
  212MPD1    C1 3272   0.634   0.655  16.531 -0.3958 -0.0554  0.1037
  212MPD1    C2 3273   0.650   0.545  16.616 -0.2453  0.6175  0.0260
  212MPD1    C3 3274   0.542   0.494  16.687  0.4585 -0.4426 -0.0831
  212MPD1    C4 3275   0.421   0.559  16.678  0.3430  0.6739  0.0570
  212MPD1    C5 3276   0.411   0.660  16.586  0.0786  1.3673 -0.2743
  212MPD1     H 3277   0.747   0.499  16.624 -0.2563  0.6921  0.6083
  212MPD1    H1 3278   0.333   0.530  16.734  1.0221  2.2434  1.9456
  212MPD1    H2 3279   0.498   0.791  16.438 -0.3886 -0.2245  0.5578
  212MPD1    H3 3280   0.313   0.707  16.578 -0.7757 -0.1184  1.3998
  212MPD1     N 3281   0.551   0.381  16.779  0.7177 -0.1133 -0.7071
  212MPD1    H5 3282   0.479   0.367  16.849  0.9879  1.3831 -0.1301
  212MPD1    N1 3283   0.747   0.712  16.466 -0.1307  0.1023 -0.4018
  212MPD1    H6 3284   0.721   0.732  16.369 -0.8766 -0.0314 -0.2330
  212MPD1    H7 3285   0.836   0.663  16.462 -1.1917 -1.8708  0.3572
  213MPD1     C 3286   3.709   0.696  15.552 -0.1006 -0.1475 -0.3096
  213MPD1    C1 3287   3.575   0.669  15.522  0.1205  0.3984  0.1420
  213MPD1    C2 3288   3.492   0.775  15.477  0.4237 -0.0083  0.2635
  213MPD1    C3 3289   3.542   0.898  15.438  0.3158 -0.1732  0.3682
  213MPD1    C4 3290   3.680   0.916  15.453  0.2651 -0.3798 -0.0130
  213MPD1    C5 3291   3.758   0.817  15.509 -0.6146 -0.1710  0.3203
  213MPD1     H 3292   3.386   0.753  15.470 -0.3292  2.5177  3.7861
  213MPD1    H1 3293   3.722   1.010  15.419 -0.8553  0.1673  0.0932
  213MPD1    H2 3294   3.772   0.624  15.603 -0.1289  0.4071  0.4982
  213MPD1    H3 3295   3.864   0.836  15.519 -0.4163 -1.8960  1.4909
  213MPD1     N 3296   3.455   1.003  15.389 -0.7672 -0.1511  0.0610
  213MPD1    H5 3297   3.365   0.966  15.359 -0.4418 -0.8891  0.0074
  213MPD1    N1 3298   3.517   0.569  15.602 -0.2847 -0.4533  0.9540
  213MPD1    H6 3299   3.434   0.536  15.553  1.1736 -1.2865 -0.9505
  213MPD1    H7 3300   3.577   0.488  15.616 -1.0771 -1.1547  0.3081
  214MPD1     C 3301   2.910   0.974  14.597 -0.4368  0.5692 -0.0459
  214MPD1    C1 3302   2.890   0.922  14.721  0.0893  0.3916  0.0260
  214MPD1    C2 3303   2.963   0.974  14.829  0.7213  0.2211 -0.5178
  214MPD1    C3 3304   3.060   1.064  14.813  0.1606 -0.6163 -0.2962
  214MPD1    C4 3305   3.084   1.109  14.684 -0.4459  1.3233 -0.3997
  214MPD1    C5 3306   3.003   1.070  14.578 -0.0562  0.0622  0.4367
  214MPD1     H 3307   2.936   0.934  14.926  2.3385 -1.1214 -0.6014
  214MPD1    H1 3308   3.167   1.176  14.666  0.1450  0.8415  0.5012
  214MPD1    H2 3309   2.858   0.941  14.507  0.3979  0.8010 -0.6072
  214MPD1    H3 3310   3.030   1.117  14.484 -1.6225 -1.1368 -0.6297
  214MPD1     N 3311   3.133   1.130  14.921 -0.3638  0.1702 -0.4722
  214MPD1    H5 3312   3.192   1.207  14.891  1.0170 -0.8021 -0.2584
  214MPD1    N1 3313   2.779   0.828  14.736  0.1838  0.1845  0.1878
  214MPD1    H6 3314   2.754   0.758  14.667 -1.7832  0.1346  0.9350
  214MPD1    H7 3315   2.771   0.788  14.829  0.9943  2.3246  1.1883
  215MPD1     C 3316   3.990   1.731  11.060  0.3149  0.2045 -0.0635
  215MPD1    C1 3317   3.858   1.710  11.104 -0.4439  0.5847  0.2340
  215MPD1    C2 3318   3.787   1.817  11.157  0.1217  0.8354  0.3173
  215MPD1    C3 3319   3.837   1.944  11.152  0.3840 -0.0793 -0.4198
  215MPD1    C4 3320   3.965   1.963  11.094  0.0216  0.1479 -0.0112
  215MPD1    C5 3321   4.036   1.855  11.045  0.4217  0.0374  0.9544
  215MPD1     H 3322   3.686   1.798  11.192 -0.1693  1.1846 -0.3440
  215MPD1    H1 3323   4.008   2.062  11.092 -0.7310  0.5072  1.2460
  215MPD1    H2 3324   4.048   1.648  11.022  0.0026  0.1687 -0.4776
  215MPD1    H3 3325   4.132   1.882  11.001 -0.0901 -0.3775 -0.4355
  215MPD1     N 3326   3.755   2.054  11.207  0.4113  0.0570  0.1849
  215MPD1    H5 3327   3.689   2.030  11.280 -0.1085  2.0070  0.3381
  215MPD1    N1 3328   3.806   1.578  11.112  0.1613  0.2244 -0.4236
  215MPD1    H6 3329   3.706   1.574  11.096 -0.0044 -0.0186  0.6400
  215MPD1    H7 3330   3.831   1.522  11.193 -0.3423 -0.0794 -0.4778
  216MPD1     C 3331   1.060   0.382  16.868 -0.1999  0.4155 -0.2962
  216MPD1    C1 3332   1.103   0.347  16.993  0.3817 -0.4559  0.7931
  216MPD1    C2 3333   1.098   0.213  17.031 -0.7304  0.3579  0.1262
  216MPD1    C3 3334   1.069   0.111  16.940 -0.1997  0.3412 -0.2308
  216MPD1    C4 3335   1.034   0.145  16.814 -0.2162  0.3571 -0.7784
  216MPD1    C5 3336   1.026   0.281  16.782 -0.2778 -0.2058  0.1862
  216MPD1     H 3337   1.125   0.184  17.132  1.2245  1.3164 -0.1355
  216MPD1    H1 3338   1.015   0.074  16.734  1.9283 -0.2173 -0.7974
  216MPD1    H2 3339   1.077   0.485  16.838  0.0728  0.8327  1.2890
  216MPD1    H3 3340   0.997   0.299  16.679  2.1646 -2.8282 -0.9685
  216MPD1     N 3341   1.065   4.713  16.979 -0.0533  0.7202 -0.0118
  216MPD1    H5 3342   1.115   4.682  17.062 -1.1934 -1.6100 -0.1910
  216MPD1    N1 3343   1.128   0.446  17.088  0.2088 -0.4125  0.4462
  216MPD1    H6 3344   1.196   0.420  17.159  3.0865 -1.4999 -2.7214
  216MPD1    H7 3345   1.169   0.526  17.039 -2.3186 -0.3455 -1.5653
  217MPD1     C 3346   4.445   2.032   9.534 -0.6917  0.3051  0.6476
  217MPD1    C1 3347   4.438   1.907   9.481  0.0013  0.2410  0.0290
  217MPD1    C2 3348   4.559   1.832   9.453  0.5384  0.6746 -0.0866
  217MPD1    C3 3349   4.687   1.890   9.486 -0.4313 -0.8221  0.0764
  217MPD1    C4 3350   4.684   2.014   9.549 -0.3928  0.4365 -0.3677
  217MPD1    C5 3351   4.566   2.077   9.580  0.0157 -0.0463  0.0936
  217MPD1     H 3352   4.567   1.733   9.409 -2.0742  0.6348 -0.4487
  217MPD1    H1 3353   0.041   2.061   9.578 -0.6353  1.0857 -0.6604
  217MPD1    H2 3354   4.353   2.086   9.556 -0.5542  0.8619 -0.1633
  217MPD1    H3 3355   4.570   2.174   9.629 -0.6915  0.2460 -0.4282
  217MPD1     N 3356   0.080   1.827   9.467  0.2382 -0.1067 -0.9767
  217MPD1    H5 3357   0.161   1.873   9.505 -0.6186  0.9798 -0.4791
  217MPD1    N1 3358   4.318   1.853   9.427  0.1154  0.2220  0.2143
  217MPD1    H6 3359   4.310   1.754   9.449  0.0656  0.2922  0.5100
  217MPD1    H7 3360   4.244   1.903   9.476 -2.5422 -0.2911 -3.2396
  218MPD1     C 3361   4.212   1.912  11.840  0.0189  0.0832  0.4082
  218MPD1    C1 3362   4.174   1.803  11.920  0.0522  0.1778  0.2762
  218MPD1    C2 3363   4.054   1.815  11.996 -0.0491  0.1369 -0.4316
  218MPD1    C3 3364   3.984   1.932  12.003  1.0165 -0.4674  0.3740
  218MPD1    C4 3365   4.032   2.038  11.931 -0.6005  0.1031  0.1037
  218MPD1    C5 3366   4.149   2.035  11.862  1.0380  0.0411 -0.5333
  218MPD1     H 3367   4.017   1.737  12.061  0.0909  0.5131  0.1003
  218MPD1    H1 3368   3.979   2.132  11.935  1.7387  1.4130  0.2590
  218MPD1    H2 3369   4.303   1.894  11.785 -0.1980 -1.7189  0.6509
  218MPD1    H3 3370   4.188   2.124  11.815  1.1291  2.2201  3.6246
  218MPD1     N 3371   3.888   1.944  12.107 -0.4655 -0.0249  0.2349
  218MPD1    H5 3372   3.864   1.859  12.157  0.8377 -0.9381 -0.6970
  218MPD1    N1 3373   4.241   1.679  11.919  0.0709 -0.5934 -0.1945
  218MPD1    H6 3374   4.338   1.684  11.888  0.1486  0.8889  0.3117
  218MPD1    H7 3375   4.230   1.624  12.005 -1.4703  2.0076  1.2731
  219MPD1     C 3376   3.140   2.472  12.731  1.0327  0.8419  0.5139
  219MPD1    C1 3377   3.128   2.448  12.601  0.3334  0.1841  0.1430
  219MPD1    C2 3378   3.232   2.393  12.534 -0.4139  0.6898  0.4354
  219MPD1    C3 3379   3.358   2.388  12.597 -0.1871  0.1313 -0.4971
  219MPD1    C4 3380   3.369   2.439  12.723  0.1557 -0.3756  0.7137
  219MPD1    C5 3381   3.256   2.459  12.803  0.0152 -0.5394 -0.9238
  219MPD1     H 3382   3.220   2.368  12.429  1.5303 -0.7307  0.5428
  219MPD1    H1 3383   3.464   2.432  12.775  0.6344 -3.3052 -0.5600
  219MPD1    H2 3384   3.047   2.502  12.778  1.8316  0.2438  2.4650
  219MPD1    H3 3385   3.253   2.497  12.904  1.6736  0.3023 -1.1868
  219MPD1     N 3386   3.478   2.331  12.542 -0.0847  0.0432 -0.8554
  219MPD1    H5 3387   3.550   2.317  12.612 -2.0489  1.2939  1.4351
  219MPD1    N1 3388   3.002   2.447  12.548 -0.2539  0.1318 -0.0459
  219MPD1    H6 3389   3.006   2.475  12.450  0.5695 -0.2106 -0.1082
  219MPD1    H7 3390   2.932   2.501  12.599  0.4735  2.1743 -1.2207
  220MPD1     C 3391   2.675   1.606  10.617 -0.0578  0.2130  0.4169
  220MPD1    C1 3392   2.722   1.680  10.721  0.0682 -0.5593 -0.2632
  220MPD1    C2 3393   2.728   1.820  10.709 -0.0061  0.0378  0.2378
  220MPD1    C3 3394   2.676   1.887  10.598 -0.0457 -0.0736  0.0006
  220MPD1    C4 3395   2.619   1.813  10.499  0.3135  0.6534 -0.7145
  220MPD1    C5 3396   2.625   1.678  10.513  0.0383  0.1833 -0.6816
  220MPD1     H 3397   2.766   1.878  10.793 -1.3645 -0.2945  1.0814
  220MPD1    H1 3398   2.578   1.858  10.409 -0.7078 -3.2093 -2.2132
  220MPD1    H2 3399   2.684   1.499  10.609 -1.8188  0.1854 -1.4580
  220MPD1    H3 3400   2.588   1.622  10.429  2.8379 -3.9699  0.7991
  220MPD1     N 3401   2.684   2.028  10.575  0.5937 -0.6867 -0.1577
  220MPD1    H5 3402   2.660   2.059  10.482 -1.2305 -0.6191  0.3344
  220MPD1    N1 3403   2.793   1.618  10.824 -1.1126  0.4598  0.7698
  220MPD1    H6 3404   2.808   1.685  10.900 -0.7416  0.1669  0.9585
  220MPD1    H7 3405   2.749   1.533  10.859 -1.5610  0.8380  1.1202
  221MPD1     C 3406   1.590   1.958  16.799  0.7025  0.2254  0.5721
  221MPD1    C1 3407   1.529   1.840  16.768  0.3033 -0.1303  0.0243
  221MPD1    C2 3408   1.572   1.777  16.654  0.5473 -0.0263  0.5199
  221MPD1    C3 3409   1.672   1.821  16.575  0.2740 -0.2306 -0.2056
  221MPD1    C4 3410   1.747   1.926  16.618 -0.1944 -0.1354 -0.5657
  221MPD1    C5 3411   1.696   2.001  16.724 -0.3048  0.6824  0.0972
  221MPD1     H 3412   1.513   1.692  16.622 -0.7440  1.0159  0.1272
  221MPD1    H1 3413   1.837   1.959  16.567 -0.1228 -0.8911 -0.9316
  221MPD1    H2 3414   1.563   2.012  16.889  2.7814  1.7203  0.3102
  221MPD1    H3 3415   1.748   2.092  16.751 -0.7597  0.5762  1.3109
  221MPD1     N 3416   1.710   1.758  16.456  0.2569  0.3961  0.0694
  221MPD1    H5 3417   1.798   1.794  16.419  0.5360 -3.0669 -2.6657
  221MPD1    N1 3418   1.440   1.784  16.862  0.6033  0.0819 -0.4118
  221MPD1    H6 3419   1.479   1.793  16.955  0.0725  1.5242 -0.3349
  221MPD1    H7 3420   1.416   1.690  16.830  3.1021 -1.6735  2.8950
  222MPD1     C 3421   0.496   0.342   0.305 -0.4696 -0.1615 -0.4669
  222MPD1    C1 3422   0.468   0.321   0.444 -0.9608  0.0300 -0.2427
  222MPD1    C2 3423   0.385   0.413   0.515  0.0058  0.0571 -0.5589
  222MPD1    C3 3424   0.348   0.535   0.462  0.6125  0.5197 -0.6644
  222MPD1    C4 3425   0.383   0.551   0.325  0.3106 -0.6258  0.6176
  222MPD1    C5 3426   0.453   0.459   0.256 -0.4235 -0.3268  0.1095
  222MPD1     H 3427   0.362   0.392   0.619  1.3951  0.0868 -0.2405
  222MPD1    H1 3428   0.346   0.642   0.279  0.2117 -0.7462  0.4574
  222MPD1    H2 3429   0.554   0.268   0.251  1.9421  0.8564  0.7377
  222MPD1    H3 3430   0.474   0.486   0.153  0.0491  2.5474  0.9515
  222MPD1     N 3431   0.274   0.628   0.530  0.8568  0.2099 -0.0632
  222MPD1    H5 3432   0.259   0.717   0.483 -2.0962 -0.4612 -0.3780
  222MPD1    N1 3433   0.486   0.193   0.497  0.3513  0.4435  0.2220
  222MPD1    H6 3434   0.563   0.141   0.456 -0.2216 -0.0552 -0.2254
  222MPD1    H7 3435   0.475   0.191   0.598 -0.4095  0.1356  0.1317
  223MPD1     C 3436   4.435   0.969   1.404 -0.9274  0.2217  0.1719
  223MPD1    C1 3437   4.363   1.001   1.289  0.0901  0.2422  0.5646
  223MPD1    C2 3438   4.419   0.977   1.161 -0.8486  0.1256  0.0604
  223MPD1    C3 3439   4.541   0.914   1.152  0.0084  0.8349  1.9391
  223MPD1    C4 3440   4.598   0.865   1.269 -0.6264  1.0609  0.8101
  223MPD1    C5 3441   4.545   0.891   1.391  0.0962  0.2610 -0.0738
  223MPD1     H 3442   4.374   1.014   1.069  0.6573  2.6830  0.3393
  223MPD1    H1 3443   4.699   0.823   1.270 -1.0763 -0.0064  1.7395
  223MPD1    H2 3444   4.400   0.998   1.503 -0.7314  0.1366  0.2684
  223MPD1    H3 3445   4.595   0.859   1.482  1.1813 -0.7873 -1.0359
  223MPD1     N 3446   4.601   0.894   1.027 -0.1060 -0.1091 -0.6212
  223MPD1    H5 3447   4.557   0.953   0.958 -2.4385 -1.3829 -0.2503
  223MPD1    N1 3448   4.254   1.081   1.301 -0.1863  0.1600  0.1012
  223MPD1    H6 3449   4.205   1.083   1.212  0.5637  0.0188 -0.3178
  223MPD1    H7 3450   4.201   1.076   1.388 -2.2669 -2.8726 -1.3521
  224MPD1     C 3451   0.175   2.104   9.296 -0.1523  0.8237  0.2273
  224MPD1    C1 3452   0.233   2.202   9.374  0.1391 -0.1165  0.5792
  224MPD1    C2 3453   0.366   2.193   9.410 -0.7745 -0.7109 -0.6714
  224MPD1    C3 3454   0.448   2.091   9.353 -0.0565 -0.0600 -0.2439
  224MPD1    C4 3455   0.382   1.989   9.287 -0.3972 -0.3002 -0.4919
  224MPD1    C5 3456   0.249   1.997   9.257  0.5449 -0.3515 -0.9078
  224MPD1     H 3457   0.421   2.270   9.463 -0.5034 -0.6598 -1.0372
  224MPD1    H1 3458   0.431   1.901   9.246 -0.0793  0.3171 -1.4180
  224MPD1    H2 3459   0.068   2.099   9.283 -0.1252  1.6913 -0.3028
  224MPD1    H3 3460   0.200   1.913   9.209  1.9702  0.2397 -3.4300
  224MPD1     N 3461   0.585   2.074   9.390 -0.2569  0.3743  0.0766
  224MPD1    H5 3462   0.634   1.998   9.345 -0.5118  0.1540  0.1667
  224MPD1    N1 3463   0.157   2.310   9.422 -0.2603  0.1586  0.3684
  224MPD1    H6 3464   0.221   2.387   9.441 -1.2413  1.4335 -1.4744
  224MPD1    H7 3465   0.089   2.355   9.360 -0.0098 -0.8452 -0.6547
  225MPD1     C 3466   2.661   2.866  11.625 -0.4270  0.2701 -0.0460
  225MPD1    C1 3467   2.669   2.893  11.759 -0.0606  0.2162 -0.0519
  225MPD1    C2 3468   2.627   2.805  11.848 -0.5263 -0.0844  0.0765
  225MPD1    C3 3469   2.572   2.684  11.807  0.2660  0.7783 -0.2686
  225MPD1    C4 3470   2.576   2.648  11.669 -0.2686 -0.6132  0.4784
  225MPD1    C5 3471   2.625   2.742  11.578 -0.6845  0.0402 -1.0655
  225MPD1     H 3472   2.618   2.834  11.952  1.0796 -0.6125  0.3495
  225MPD1    H1 3473   2.533   2.554  11.635  1.1637 -0.9609 -0.3663
  225MPD1    H2 3474   2.688   2.941  11.552 -0.4833  1.2152  0.9131
  225MPD1    H3 3475   2.622   2.726  11.471 -0.4767 -0.2763 -1.0250
  225MPD1     N 3476   2.519   2.584  11.899  0.7580  0.7739  0.2707
  225MPD1    H5 3477   2.478   2.504  11.853  1.3321  0.4868  0.2602
  225MPD1    N1 3478   2.705   3.022  11.802  0.1134  0.3050  0.2230
  225MPD1    H6 3479   2.764   3.066  11.732  1.4405 -2.5858 -0.4479
  225MPD1    H7 3480   2.760   3.014  11.887 -0.1165 -1.1554  0.2360
  226MPD1     C 3481   1.376   4.300   8.863 -0.3712 -0.3143 -0.2283
  226MPD1    C1 3482   1.490   4.275   8.935 -0.1130  0.0990  0.4668
  226MPD1    C2 3483   1.500   4.155   8.998  0.4948  0.0104  0.3696
  226MPD1    C3 3484   1.389   4.072   9.012  0.3456 -0.5326  0.0824
  226MPD1    C4 3485   1.271   4.105   8.950 -0.5527  0.3289  0.8681
  226MPD1    C5 3486   1.270   4.216   8.873  0.9305 -0.8589  0.2485
  226MPD1     H 3487   1.598   4.118   9.027  0.4004 -0.4185  0.1380
  226MPD1    H1 3488   1.192   4.031   8.942 -0.3515  0.1232  0.7865
  226MPD1    H2 3489   1.371   4.378   8.787  2.3401 -0.2701 -0.3592
  226MPD1    H3 3490   1.183   4.223   8.808  0.8923 -0.8695  0.2982
  226MPD1     N 3491   1.405   3.948   9.071 -0.1720 -0.9465 -0.7016
  226MPD1    H5 3492   1.499   3.934   9.106 -1.2636  1.1069  3.0211
  226MPD1    N1 3493   1.606   4.354   8.904 -0.1374 -0.2075  0.5614
  226MPD1    H6 3494   1.669   4.352   8.984  0.3885  1.1854  0.1841
  226MPD1    H7 3495   1.573   4.451   8.901  2.4798  0.5952 -2.0845
  227MPD1     C 3496   1.980   3.934   9.642 -0.5427  0.4157 -0.0162
  227MPD1    C1 3497   1.980   3.802   9.608 -0.2248  0.2325  0.0121
  227MPD1    C2 3498   1.870   3.749   9.547  0.4649  0.1114  1.0933
  227MPD1    C3 3499   1.748   3.817   9.542 -0.4532 -0.1303 -0.4597
  227MPD1    C4 3500   1.747   3.949   9.591  0.2647  0.1199  0.0835
  227MPD1    C5 3501   1.863   4.007   9.640  0.4704  0.2209 -0.0739
  227MPD1     H 3502   1.867   3.655   9.494  0.9395  1.3157 -1.0665
  227MPD1    H1 3503   1.654   4.004   9.597  0.2770  0.0642  0.7446
  227MPD1    H2 3504   2.066   3.983   9.686 -0.3182 -0.2408  0.2722
  227MPD1    H3 3505   1.850   4.106   9.683  0.1874  1.1837 -2.3505
  227MPD1     N 3506   1.628   3.768   9.478 -0.1770 -0.2516 -0.2636
  227MPD1    H5 3507   1.559   3.840   9.458  0.8938  0.2852 -2.0402
  227MPD1    N1 3508   2.109   3.731   9.596 -0.1035  0.1545 -0.6784
  227MPD1    H6 3509   2.167   3.759   9.675 -0.5434  0.5624 -0.5011
  227MPD1    H7 3510   2.095   3.631   9.606 -0.7006  0.0228 -2.8769
  228MPD1     C 3511   4.677   0.970  13.534 -0.7035  0.1079  0.0621
  228MPD1    C1 3512   4.609   0.880  13.613  0.4777 -0.0005 -0.2387
  228MPD1    C2 3513   4.514   0.801  13.547  0.8966 -0.0705 -0.0975
  228MPD1    C3 3514   4.478   0.823  13.412 -1.0486 -0.4724 -0.5147
  228MPD1    C4 3515   4.544   0.931  13.352  0.1344 -0.4115  0.0923
  228MPD1    C5 3516   4.658   0.996  13.404 -0.4931  0.0569 -0.5369
  228MPD1     H 3517   4.461   0.722  13.599  0.0027  0.2634 -0.4893
  228MPD1    H1 3518   4.515   0.966  13.253 -0.9833  0.6984  0.8071
  228MPD1    H2 3519   0.021   1.032  13.575  0.5704 -1.6450  0.2292
  228MPD1    H3 3520   4.717   1.072  13.355  0.6486 -0.2187  0.4229
  228MPD1     N 3521   4.385   0.738  13.347  0.3966 -0.3753  0.1563
  228MPD1    H5 3522   4.340   0.666  13.403  0.7995 -0.8499 -0.1364
  228MPD1    N1 3523   4.647   0.862  13.750  0.7852  0.0066 -0.0565
  228MPD1    H6 3524   4.652   0.952  13.796  1.3014 -0.0708  0.0460
  228MPD1    H7 3525   4.587   0.804  13.809  0.3261  0.1966 -0.3392
  229MPD1     C 3526   3.977   4.381  14.239 -0.1427  0.3255  0.0075
  229MPD1    C1 3527   4.013   4.464  14.347 -0.1716  0.6205  0.0448
  229MPD1    C2 3528   4.108   4.413  14.434  0.0547 -0.0226  0.5163
  229MPD1    C3 3529   4.138   4.284  14.452 -0.3262 -0.2428  0.2015
  229MPD1    C4 3530   4.076   4.197  14.363 -0.4480 -0.3256 -0.5852
  229MPD1    C5 3531   4.002   4.244  14.261  0.0426  0.8402  0.3931
  229MPD1     H 3532   4.149   4.493  14.495  1.4969  0.2934 -0.8608
  229MPD1    H1 3533   4.081   4.091  14.383  0.4109 -0.0355  0.7467
  229MPD1    H2 3534   3.923   4.417  14.152 -1.5325  0.2310  0.8358
  229MPD1    H3 3535   3.959   4.170  14.194  0.3994  1.1956 -0.2248
  229MPD1     N 3536   4.226   4.236  14.556 -0.0002  0.1446  0.9070
  229MPD1    H5 3537   4.252   4.139  14.567 -2.2082 -0.1729  3.3717
  229MPD1    N1 3538   3.989   4.603  14.337  0.5049  0.7067 -0.2293
  229MPD1    H6 3539   3.909   4.616  14.275 -1.0464  1.2918  1.8993
  229MPD1    H7 3540   3.982   4.630  14.435 -0.0244 -1.7337  0.4105
  230MPD1     C 3541   0.033   4.372  15.519  0.7521 -0.3465 -0.7655
  230MPD1    C1 3542   0.082   4.262  15.447  0.2590  0.2053 -0.1457
  230MPD1    C2 3543   0.021   4.238  15.329  0.1359  0.0094  0.3962
  230MPD1    C3 3544   4.664   4.317  15.266 -0.5687 -0.1605  0.5956
  230MPD1    C4 3545   4.619   4.428  15.336 -0.8722  0.1549  0.0774
  230MPD1    C5 3546   4.668   4.451  15.461  0.5057 -0.3044  0.3227
  230MPD1     H 3547   0.050   4.148  15.277 -0.8092 -1.0343  1.6558
  230MPD1    H1 3548   4.546   4.502  15.305 -1.1676  0.8591  2.4084
  230MPD1    H2 3549   0.071   4.385  15.619  2.2586 -1.9652 -1.1219
  230MPD1    H3 3550   4.622   4.533  15.515  0.2031 -1.0778  1.2621
  230MPD1     N 3551   4.619   4.281  15.138  0.0727 -0.1512  0.1942
  230MPD1    H5 3552   4.668   4.197  15.107 -1.9234 -0.4095 -2.2183
  230MPD1    N1 3553   0.172   4.169  15.503 -0.0533  0.4526 -0.3427
  230MPD1    H6 3554   0.225   4.215  15.577 -1.0469 -1.7841  1.7544
  230MPD1    H7 3555   0.235   4.131  15.433 -0.6165  0.8913 -1.0832
  231MPD1     C 3556   3.012   1.623  15.541 -0.0655  0.8097  0.6370
  231MPD1    C1 3557   2.970   1.577  15.411  0.1774 -0.1609  0.3406
  231MPD1    C2 3558   3.025   1.637  15.304 -0.1030 -0.0465 -0.4127
  231MPD1    C3 3559   3.137   1.722  15.318  0.8816  0.0693 -0.3092
  231MPD1    C4 3560   3.166   1.765  15.446 -0.1741 -0.0633 -0.3995
  231MPD1    C5 3561   3.102   1.720  15.556 -0.2724 -0.3398 -0.0003
  231MPD1     H 3562   2.975   1.603  15.214 -0.2953  0.8246 -0.6370
  231MPD1    H1 3563   3.233   1.847  15.469  0.8262 -0.7501 -0.8894
  231MPD1    H2 3564   2.984   1.579  15.636 -0.6920 -0.2108 -0.0185
  231MPD1    H3 3565   3.133   1.754  15.654 -0.2675  0.1787 -0.1822
  231MPD1     N 3566   3.208   1.776  15.208  0.4360  0.3016 -0.0628
  231MPD1    H5 3567   3.169   1.766  15.115 -0.9253 -1.8045  0.7308
  231MPD1    N1 3568   2.863   1.483  15.394 -0.1001 -0.0750 -0.1274
  231MPD1    H6 3569   2.872   1.434  15.305 -1.1280 -0.9040  0.2195
  231MPD1    H7 3570   2.872   1.406  15.460 -1.6299  0.2726  0.4921
  232MPD1     C 3571   4.606   4.542   0.813  0.6424  0.1296  0.0655
  232MPD1    C1 3572   4.592   4.607   0.691  0.5817  0.0993  0.3546
  232MPD1    C2 3573   4.556   4.530   0.583 -0.4066 -0.6031 -0.2999
  232MPD1    C3 3574   4.539   4.388   0.591 -0.0246 -0.2479  0.3620
  232MPD1    C4 3575   4.554   4.331   0.717 -0.0614 -0.0136  0.3110
  232MPD1    C5 3576   4.581   4.407   0.827  0.4381 -0.1063  0.0275
  232MPD1     H 3577   4.544   4.570   0.483  0.7988 -2.0395 -1.0156
  232MPD1    H1 3578   4.524   4.230   0.743 -0.6474 -0.0957 -0.6674
  232MPD1    H2 3579   4.631   4.598   0.903 -1.4343  2.4435 -0.8053
  232MPD1    H3 3580   4.583   4.363   0.926  1.9389 -0.6773 -0.2499
  232MPD1     N 3581   4.499   4.325   0.471 -0.3659 -0.2002 -0.6136
  232MPD1    H5 3582   4.461   4.388   0.401  0.4457 -0.1515 -1.0176
  232MPD1    N1 3583   4.608   0.011   0.680 -0.3577  0.2875  0.6201
  232MPD1    H6 3584   4.694   0.034   0.731 -0.6670  2.7638  0.0438
  232MPD1    H7 3585   4.620   0.046   0.585 -0.1821 -1.2412  0.0834
  233MPD1     C 3586   0.840   2.701   1.384  0.6504 -0.4763 -0.2682
  233MPD1    C1 3587   0.907   2.816   1.423  0.5245 -0.3135  0.4655
  233MPD1    C2 3588   1.016   2.854   1.343 -0.0370  0.3159 -0.0187
  233MPD1    C3 3589   1.074   2.766   1.250  0.0188  0.9391 -0.4299
  233MPD1    C4 3590   1.010   2.643   1.223 -0.0239  0.3421 -0.2226
  233MPD1    C5 3591   0.894   2.614   1.286 -0.2554 -0.4295 -0.4726
  233MPD1     H 3592   1.061   2.951   1.361 -2.4739  1.3129  0.8376
  233MPD1    H1 3593   1.043   2.572   1.148 -0.4816  1.6766 -1.6914
  233MPD1    H2 3594   0.749   2.670   1.434  0.6357 -1.0850 -0.6717
  233MPD1    H3 3595   0.848   2.521   1.254 -0.7661 -1.3450  2.8274
  233MPD1     N 3596   1.193   2.786   1.168  0.1613 -0.4292 -0.2545
  233MPD1    H5 3597   1.221   2.717   1.099  0.3783 -0.8473  0.2584
  233MPD1    N1 3598   0.856   2.894   1.529 -0.2405  0.2315 -0.1370
  233MPD1    H6 3599   0.925   2.966   1.550  2.2083 -2.2754  0.4090
  233MPD1    H7 3600   0.837   2.844   1.615  1.0831  0.4001  0.2640
  234MPD1     C 3601   1.395   0.504   8.964 -0.2386 -0.1336 -0.4958
  234MPD1    C1 3602   1.471   0.610   9.011  0.1998 -0.3354  0.2998
  234MPD1    C2 3603   1.421   0.737   8.980 -0.7792  0.3134  0.0553
  234MPD1    C3 3604   1.304   0.760   8.923 -1.0596  0.6399  0.2415
  234MPD1    C4 3605   1.221   0.655   8.896 -0.7414 -0.5257  0.3887
  234MPD1    C5 3606   1.270   0.526   8.901 -0.4617 -0.0346 -0.0493
  234MPD1     H 3607   1.481   0.826   8.999  0.5422 -0.6695  0.5143
  234MPD1    H1 3608   1.124   0.664   8.849 -0.1330 -0.3438 -0.8385
  234MPD1    H2 3609   1.439   0.405   8.970  1.6850  0.8983  3.0628
  234MPD1    H3 3610   1.214   0.444   8.859 -1.0375 -0.5137  1.6478
  234MPD1     N 3611   1.270   0.898   8.901  0.0291 -0.4632  0.4276
  234MPD1    H5 3612   1.335   0.975   8.915 -1.4998  0.4980  2.1557
  234MPD1    N1 3613   1.597   0.587   9.065 -0.3095  0.2634 -0.0196
  234MPD1    H6 3614   1.601   0.496   9.112  1.2244  0.0752 -0.5189
  234MPD1    H7 3615   1.632   0.657   9.131  1.0389  0.8996 -1.4024
  235MPD1     C 3616   3.431   3.021  10.539  0.7436  0.1062 -0.3327
  235MPD1    C1 3617   3.393   3.102  10.435 -0.0409 -0.3498 -0.2392
  235MPD1    C2 3618   3.419   3.238  10.441  0.0494  0.7202 -0.7662
  235MPD1    C3 3619   3.476   3.298  10.555 -0.5576 -0.3479  0.0984
  235MPD1    C4 3620   3.492   3.212  10.664  0.1107  0.4101  0.2327
  235MPD1    C5 3621   3.484   3.077  10.649 -0.4953  0.1391 -0.1493
  235MPD1     H 3622   3.399   3.289  10.347  0.7677  2.6656  0.1265
  235MPD1    H1 3623   3.543   3.250  10.752  0.4152 -4.9456  2.3484
  235MPD1    H2 3624   3.416   2.914  10.544 -0.0327  0.2393  0.1430
  235MPD1    H3 3625   3.508   3.016  10.736  1.2455  1.8598  0.5811
  235MPD1     N 3626   3.515   3.435  10.549  0.8797 -0.3304 -0.1297
  235MPD1    H5 3627   3.504   3.482  10.459 -1.7762  0.0146  0.3792
  235MPD1    N1 3628   3.330   3.050  10.325  0.7149 -0.4062  0.2990
  235MPD1    H6 3629   3.254   3.106  10.286  0.0654 -2.2760 -1.1065
  235MPD1    H7 3630   3.289   2.960  10.348 -0.6131 -0.1403 -1.0009
  236MPD1     C 3631   2.433   0.398  10.047 -0.3160  0.6410  0.1866
  236MPD1    C1 3632   2.426   0.265  10.027  0.7391  1.0030  0.2721
  236MPD1    C2 3633   2.531   0.181  10.079  0.0769  0.3908 -0.7965
  236MPD1    C3 3634   2.655   0.229  10.120 -0.2149  0.6746  0.4894
  236MPD1    C4 3635   2.653   0.365  10.140 -0.6187 -0.2676  0.2044
  236MPD1    C5 3636   2.549   0.445  10.106  0.0229 -0.0124  0.3486
  236MPD1     H 3637   2.509   0.076  10.064  0.9034  0.0965  0.0347
  236MPD1    H1 3638   2.746   0.407  10.179 -0.4161  0.9125 -1.5783
  236MPD1    H2 3639   2.357   0.471  10.021  0.8741  1.1155 -1.9887
  236MPD1    H3 3640   2.558   0.551  10.131 -1.4152  0.6691 -2.0440
  236MPD1     N 3641   2.773   0.153  10.157  0.0085 -0.0828 -0.3312
  236MPD1    H5 3642   2.840   0.209  10.209  0.7908 -1.0660 -0.2787
  236MPD1    N1 3643   2.302   0.206   9.999  0.0715  0.1268  0.1020
  236MPD1    H6 3644   2.252   0.261   9.929 -2.5751 -0.3433  1.6186
  236MPD1    H7 3645   2.301   0.108   9.972 -1.9067  0.0546  0.4011
  237MPD1     C 3646   3.494   2.681  15.331 -0.5259  0.8299  0.2326
  237MPD1    C1 3647   3.430   2.777  15.403 -0.0868  0.3624 -0.2146
  237MPD1    C2 3648   3.292   2.757  15.428 -0.0580  0.3281  0.4920
  237MPD1    C3 3649   3.226   2.641  15.394 -0.8258 -0.3687  0.1015
  237MPD1    C4 3650   3.296   2.546  15.327  0.0536 -0.9110  0.0664
  237MPD1    C5 3651   3.431   2.564  15.296  0.2344  0.1076 -0.1319
  237MPD1     H 3652   3.236   2.838  15.472 -1.4101 -1.4476  1.9806
  237MPD1    H1 3653   3.251   2.464  15.274 -2.3660  0.2644  0.3052
  237MPD1    H2 3654   3.593   2.694  15.289 -0.8054 -0.8105 -0.9075
  237MPD1    H3 3655   3.475   2.487  15.233 -0.0516 -0.5529  0.4756
  237MPD1     N 3656   3.085   2.623  15.413 -0.4104  0.6118 -0.4717
  237MPD1    H5 3657   3.050   2.546  15.357 -2.4851  1.5085 -0.3951
  237MPD1    N1 3658   3.486   2.905  15.420  0.3347 -0.2058  0.0097
  237MPD1    H6 3659   3.447   2.959  15.497  0.4183  0.0217 -0.1085
  237MPD1    H7 3660   3.587   2.914  15.419  0.4246 -1.0795  0.7545
  238MPD1     C 3661   0.309   0.778  15.338  0.5279 -1.1478 -0.3412
  238MPD1    C1 3662   0.211   0.793  15.436 -0.1424  0.3755 -0.6525
  238MPD1    C2 3663   0.081   0.813  15.394 -0.0852 -0.5586  0.6290
  238MPD1    C3 3664   0.052   0.833  15.259 -0.6135  0.4207 -0.3063
  238MPD1    C4 3665   0.156   0.835  15.166 -0.3458 -0.7151 -0.1273
  238MPD1    C5 3666   0.282   0.804  15.207 -0.3002 -0.4404  0.2562
  238MPD1     H 3667   0.011   0.851  15.468  0.0055  1.0535 -0.1261
  238MPD1    H1 3668   0.132   0.867  15.066 -4.9655 -1.6827  0.7021
  238MPD1    H2 3669   0.413   0.762  15.367  1.1224 -0.4403 -2.0867
  238MPD1    H3 3670   0.366   0.818  15.139 -0.5747  0.3400  0.0821
  238MPD1     N 3671   4.663   0.866  15.208 -0.4757  0.7772  0.5322
  238MPD1    H5 3672   4.658   0.886  15.109 -2.4253 -1.5893  0.1390
  238MPD1    N1 3673   0.236   0.818  15.570  0.6000  0.2752 -0.3057
  238MPD1    H6 3674   0.145   0.823  15.616 -0.3167  2.1297 -2.3330
  238MPD1    H7 3675   0.288   0.905  15.583  0.0136  0.4491  0.9261
  239MPD1     C 3676   0.351   1.753  15.056  0.0949 -0.3475  0.4635
  239MPD1    C1 3677   0.450   1.821  14.992  0.7027 -0.0515  0.2385
  239MPD1    C2 3678   0.422   1.911  14.890  0.1630 -0.4155 -0.0198
  239MPD1    C3 3679   0.293   1.945  14.865  0.3123 -0.8460 -0.3686
  239MPD1    C4 3680   0.193   1.896  14.944  0.4947  0.1982 -0.0615
  239MPD1    C5 3681   0.221   1.799  15.041  0.2456 -0.0787  0.5650
  239MPD1     H 3682   0.496   1.957  14.825 -2.0011 -0.6938 -2.6934
  239MPD1    H1 3683   0.087   1.914  14.930  0.0714 -2.4256 -0.2882
  239MPD1    H2 3684   0.366   1.678  15.133  2.5593  0.0940  0.4063
  239MPD1    H3 3685   0.138   1.757  15.098 -0.7530  0.3493 -0.5564
  239MPD1     N 3686   0.261   2.034  14.758 -0.2430  0.4810  0.0660
  239MPD1    H5 3687   0.162   2.050  14.744 -0.4589 -1.8277 -1.2046
  239MPD1    N1 3688   0.577   1.777  15.003 -0.0574  0.0931 -0.0937
  239MPD1    H6 3689   0.590   1.745  15.099 -1.1817 -1.9924 -0.6387
  239MPD1    H7 3690   0.645   1.850  14.983 -0.8571  0.9111  0.1504
  240MPD1     C 3691   4.378   2.056  13.777 -0.8318  0.8258 -0.7097
  240MPD1    C1 3692   4.258   2.073  13.836  0.3363  0.2109  0.4160
  240MPD1    C2 3693   4.233   2.020  13.956  0.5583 -0.0185  0.2099
  240MPD1    C3 3694   4.331   1.948  14.021 -0.0204  0.4760 -0.4926
  240MPD1    C4 3695   4.456   1.936  13.964 -0.2485 -0.0860  0.0367
  240MPD1    C5 3696   4.476   1.979  13.837  0.1536  0.1818  0.6657
  240MPD1     H 3697   4.138   2.031  14.006 -0.8012  1.5141 -2.7597
  240MPD1    H1 3698   4.539   1.894  14.019 -0.1053  0.2306  0.0593
  240MPD1    H2 3699   4.397   2.111  13.686  0.6402  2.8155  0.8082
  240MPD1    H3 3700   4.577   1.972  13.798  0.4350  0.0963  1.4233
  240MPD1     N 3701   4.304   1.900  14.146 -0.0887 -0.2468  0.4192
  240MPD1    H5 3702   4.215   1.924  14.187 -1.1110 -1.7282 -0.9467
  240MPD1    N1 3703   4.177   2.169  13.783 -0.1010 -0.4653  0.1988
  240MPD1    H6 3704   4.083   2.176  13.821 -0.5748  0.3479 -1.1059
  240MPD1    H7 3705   4.178   2.158  13.682  2.4445 -2.2080  0.4182
  241MPD1     C 3706   0.038   1.500  14.969  0.4909 -0.0997 -0.3571
  241MPD1    C1 3707   4.642   1.491  14.983 -0.4248 -0.8065  0.5099
  241MPD1    C2 3708   4.548   1.522  14.879  0.8187  0.5529  0.2266
  241MPD1    C3 3709   4.603   1.557  14.756  0.1981 -0.5063 -0.0551
  241MPD1    C4 3710   0.005   1.570  14.746 -0.5627  0.2733  0.9014
  241MPD1    C5 3711   0.090   1.539  14.849 -0.1997 -0.3524 -0.2231
  241MPD1     H 3712   4.443   1.526  14.905  0.8263 -2.0106  0.6536
  241MPD1    H1 3713   0.046   1.590  14.648 -0.9621 -1.9877  0.2737
  241MPD1    H2 3714   0.112   1.486  15.047 -0.7711  1.0569  1.0301
  241MPD1    H3 3715   0.197   1.554  14.840 -0.2663  0.4841  0.3053
  241MPD1     N 3716   4.522   1.590  14.642  0.5199 -0.2010  0.0098
  241MPD1    H5 3717   4.568   1.602  14.553 -1.3273  1.1713 -0.7655
  241MPD1    N1 3718   4.592   1.460  15.105 -0.7159  0.6457 -0.0983
  241MPD1    H6 3719   4.634   1.375  15.143  0.0899  0.7037 -0.8527
  241MPD1    H7 3720   4.491   1.453  15.107 -0.6044 -1.6783 -2.9395
  242MPD1     C 3721   3.347   0.209  15.893  0.2751  0.6270  0.1127
  242MPD1    C1 3722   3.468   0.145  15.914  0.2493 -0.1381  0.3079
  242MPD1    C2 3723   3.547   0.105  15.805 -0.1143 -0.5196 -0.2032
  242MPD1    C3 3724   3.511   0.129  15.675 -0.8607 -0.8389 -0.3162
  242MPD1    C4 3725   3.404   0.212  15.656  0.1574  0.0703 -0.5588
  242MPD1    C5 3726   3.320   0.252  15.761 -0.1660  0.3539  0.5427
  242MPD1     H 3727   3.636   0.051  15.836  0.6019 -1.7356 -4.2591
  242MPD1    H1 3728   3.371   0.244  15.558 -0.3133 -0.0970 -0.4534
  242MPD1    H2 3729   3.281   0.223  15.978 -1.0135 -0.0743 -0.7750
  242MPD1    H3 3730   3.227   0.307  15.749  0.5446  0.9482 -2.2829
  242MPD1     N 3731   3.579   0.083  15.569 -0.0980  0.6262 -0.6963
  242MPD1    H5 3732   3.552   0.132  15.484  1.2434  0.9185 -0.9455
  242MPD1    N1 3733   3.483   0.084  16.039  0.5223  0.1919  1.1502
  242MPD1    H6 3734   3.451   0.146  16.113  0.4795  2.2540 -0.6016
  242MPD1    H7 3735   3.576   0.044  16.054  1.0273  1.5383  1.5806
  243MPD1     C 3736   0.997   4.343  17.562 -0.3846  0.1250 -0.4883
  243MPD1    C1 3737   1.040   4.244  17.479 -0.4683  0.2868  0.6266
  243MPD1    C2 3738   0.990   4.117  17.499  0.1955  0.1308 -0.7807
  243MPD1    C3 3739   0.919   4.085  17.613  0.0221  0.0823 -0.0291
  243MPD1    C4 3740   0.877   4.187  17.691 -0.4053  0.5491  0.2285
  243MPD1    C5 3741   0.909   4.311  17.663 -0.9158  0.5797  0.2413
  243MPD1     H 3742   1.016   4.036  17.432  1.3580 -0.8130  0.7983
  243MPD1    H1 3743   0.827   4.173   0.045  0.9014 -1.5120  0.6089
  243MPD1    H2 3744   1.030   4.446  17.552  1.1953 -0.3777 -0.5152
  243MPD1    H3 3745   0.877   4.394  17.726 -1.2997  0.5697  0.0628
  243MPD1     N 3746   0.897   3.948  17.635  0.2263 -0.1653  0.3076
  243MPD1    H5 3747   0.949   3.882  17.579 -0.1026  0.8939 -1.2320
  243MPD1    N1 3748   1.119   4.279  17.366 -0.2424  0.0720 -0.5724
  243MPD1    H6 3749   1.176   4.359  17.392 -1.8210  0.6087  1.2259
  243MPD1    H7 3750   1.177   4.198  17.345 -0.2405 -0.4601  1.5459
  244MPD1     C 3751   1.198   3.462   0.665 -0.0437  0.2461  0.0086
  244MPD1    C1 3752   1.235   3.573   0.587 -0.2537 -0.1389  0.4346
  244MPD1    C2 3753   1.152   3.595   0.476 -0.1061  0.0287  0.1515
  244MPD1    C3 3754   1.032   3.529   0.446 -0.1079 -0.4540 -0.1320
  244MPD1    C4 3755   1.000   3.420   0.525  0.2339  0.4762 -0.2173
  244MPD1    C5 3756   1.085   3.385   0.631  0.1281 -0.1009  0.9283
  244MPD1     H 3757   1.188   3.662   0.399 -1.2255  2.0203  1.3564
  244MPD1    H1 3758   0.918   3.358   0.491  0.8716 -0.8112  0.5992
  244MPD1    H2 3759   1.257   3.425   0.748 -0.7109 -0.2360  0.2660
  244MPD1    H3 3760   1.055   3.299   0.689 -3.5773 -1.1146 -2.5035
  244MPD1     N 3761   0.965   3.570   0.330 -0.1274 -0.0918 -0.4759
  244MPD1    H5 3762   0.987   3.658   0.285 -0.6100 -0.6585 -1.8486
  244MPD1    N1 3763   1.364   3.619   0.592 -0.2806 -0.3254 -0.1558
  244MPD1    H6 3764   1.393   3.622   0.690  1.5683 -0.2270 -0.7062
  244MPD1    H7 3765   1.356   3.716   0.561  0.1018  0.6916  2.9312
  245MPD1     C 3766   2.385   3.702  12.898  0.2357  0.2979 -0.3014
  245MPD1    C1 3767   2.433   3.797  12.809 -0.7107 -0.3477  0.0635
  245MPD1    C2 3768   2.494   3.905  12.871 -0.1008 -0.0608 -0.7081
  245MPD1    C3 3769   2.502   3.913  13.006 -0.4906 -0.0294 -0.4844
  245MPD1    C4 3770   2.437   3.828  13.096 -0.0145  0.2828  0.6086
  245MPD1    C5 3771   2.373   3.724  13.031  0.5451 -0.2708  0.0963
  245MPD1     H 3772   2.551   3.982  12.819  2.2142 -2.0522 -1.1457
  245MPD1    H1 3773   2.437   3.832  13.204  0.4230 -0.9195  0.6568
  245MPD1    H2 3774   2.347   3.611  12.853  1.0145 -0.0462 -0.2553
  245MPD1    H3 3775   2.322   3.657  13.100 -0.8630 -0.0269 -0.6923
  245MPD1     N 3776   2.563   4.029  13.059  0.0419 -0.1583 -0.9072
  245MPD1    H5 3777   2.588   4.100  12.991 -1.3452  0.1395 -1.1143
  245MPD1    N1 3778   2.444   3.768  12.671 -0.7786  0.4573  0.1111
  245MPD1    H6 3779   2.438   3.851  12.611 -1.0404 -1.2421 -2.2108
  245MPD1    H7 3780   2.364   3.709  12.648 -0.1599  0.2705 -1.5678
  246MPD1     C 3781   4.035   1.986   9.517  0.7168 -0.3818  0.3860
  246MPD1    C1 3782   4.065   1.940   9.642  0.2914 -0.5326  0.4618
  246MPD1    C2 3783   4.033   1.809   9.669 -0.1365 -0.3240 -0.6831
  246MPD1    C3 3784   3.982   1.722   9.574  0.5700 -0.7830  0.3078
  246MPD1    C4 3785   3.961   1.767   9.448 -0.2590 -0.3310 -0.5762
  246MPD1    C5 3786   4.000   1.898   9.424  0.2819 -0.5282  0.1904
  246MPD1     H 3787   4.064   1.783   9.769 -1.0539 -0.5843 -0.4703
  246MPD1    H1 3788   3.930   1.700   9.369 -2.1399  0.5457 -0.6058
  246MPD1    H2 3789   4.037   2.088   9.483  0.0214 -0.9289 -1.3096
  246MPD1    H3 3790   3.973   1.935   9.325 -0.3646 -0.5567  0.3510
  246MPD1     N 3791   3.951   1.585   9.599 -0.2215  0.5206 -0.0864
  246MPD1    H5 3792   3.918   1.531   9.520  0.7242  0.2594 -0.3056
  246MPD1    N1 3793   4.099   2.028   9.746 -0.0778  0.3032 -0.2572
  246MPD1    H6 3794   4.121   1.978   9.832 -3.1893  1.3410  1.1634
  246MPD1    H7 3795   4.170   2.099   9.730  0.5777 -0.0820  0.9955
  247MPD1     C 3796   2.195   4.137  16.924  0.1484 -0.0165 -0.8672
  247MPD1    C1 3797   2.187   4.001  16.920 -0.3395 -0.1141 -0.4978
  247MPD1    C2 3798   2.154   3.948  16.797  0.3927 -0.0447 -0.2519
  247MPD1    C3 3799   2.104   4.022  16.689 -0.4533  0.8497 -0.3965
  247MPD1    C4 3800   2.122   4.158  16.696  0.7073  0.1854 -0.2271
  247MPD1    C5 3801   2.165   4.210  16.814 -0.5017  0.9206  0.3243
  247MPD1     H 3802   2.162   3.840  16.786  0.6373  0.0370 -0.8879
  247MPD1    H1 3803   2.114   4.218  16.606 -2.4865 -0.1163 -0.1209
  247MPD1    H2 3804   2.232   4.190  17.011 -0.1418  2.5849 -2.3022
  247MPD1    H3 3805   2.166   4.319  16.816  0.4926  0.9477 -2.6704
  247MPD1     N 3806   2.059   3.966  16.568 -0.1695  0.6608 -0.3836
  247MPD1    H5 3807   2.064   4.026  16.486 -0.6521 -1.3316 -1.8695
  247MPD1    N1 3808   2.241   3.920  17.023  0.7838  0.0720  0.3578
  247MPD1    H6 3809   2.208   3.823  17.019 -1.6724  0.8563  1.3449
  247MPD1    H7 3810   2.227   3.969  17.111  0.9373  1.6869 -0.5329
  248MPD1     C 3811   3.360   0.496  17.698 -0.1526  0.7911 -0.2389
  248MPD1    C1 3812   3.227   0.491  17.733  0.4472  0.3607  0.7080
  248MPD1    C2 3813   3.164   0.370  17.700 -0.2643 -0.6764  0.4041
  248MPD1    C3 3814   3.215   0.274  17.608  0.7526 -0.3790  0.5061
  248MPD1    C4 3815   3.343   0.298  17.561  0.1792  0.3367  0.9934
  248MPD1    C5 3816   3.421   0.405  17.614 -0.4701  0.2308  0.1892
  248MPD1     H 3817   3.078   0.354   0.022  1.1785  0.1622  2.5844
  248MPD1    H1 3818   3.391   0.215  17.510 -3.0528 -0.6002 -0.5604
  248MPD1    H2 3819   3.434   0.562   0.001  0.6055 -0.4865  0.3978
  248MPD1    H3 3820   3.529   0.409  17.600 -0.2718 -2.3188  1.0729
  248MPD1     N 3821   3.142   0.155  17.576 -0.5286  0.2142 -0.0814
  248MPD1    H5 3822   3.051   0.146  17.619  0.2907  0.1662  1.6505
  248MPD1    N1 3823   3.179   0.573   0.094 -0.3055 -0.0848  0.1541
  248MPD1    H6 3824   3.224   0.664   0.083 -0.2190  0.0863  1.9941
  248MPD1    H7 3825   3.079   0.570   0.113 -0.1507 -0.7758  0.8819
  249MPD1     C 3826   0.681   0.040  10.269 -0.4572 -0.2611  0.3272
  249MPD1    C1 3827   0.600   0.010  10.154 -0.2241 -0.0093 -0.6548
  249MPD1    C2 3828   0.488   4.666  10.176 -0.5238 -0.0272  0.0558
  249MPD1    C3 3829   0.445   4.622  10.299  0.7241 -0.1862  0.2975
  249MPD1    C4 3830   0.527   4.659  10.407 -0.0174  1.0706 -0.1184
  249MPD1    C5 3831   0.645   4.731  10.390  0.3594 -0.1904  0.1106
  249MPD1     H 3832   0.415   4.650  10.097  1.1062  1.5897 -1.7653
  249MPD1    H1 3833   0.497   4.633  10.508  0.6976 -0.6438 -0.3621
  249MPD1    H2 3834   0.775   0.094  10.271 -0.8491  0.4296 -0.1150
  249MPD1    H3 3835   0.718   0.009  10.469  0.0956 -1.1618  0.5129
  249MPD1     N 3836   0.327   4.543  10.307 -0.3990 -0.2741  0.4475
  249MPD1    H5 3837   0.289   4.516  10.216 -1.9716  0.1971  0.9634
  249MPD1    N1 3838   0.630   0.077  10.032 -0.1502  0.2853  0.3128
  249MPD1    H6 3839   0.595   0.032   9.948  2.4640  0.3981 -0.8442
  249MPD1    H7 3840   0.729   0.097  10.022 -0.1428 -1.3795 -2.8805
  250MPD2     C 3841   1.383   2.600  13.107  0.1216 -0.2676  0.0634
  250MPD2    C1 3842   1.276   2.658  13.033 -0.5325  0.3573 -0.2937
  250MPD2    C2 3843   1.211   2.579  12.939  0.2286  0.1351  0.3015
  250MPD2    C3 3844   1.241   2.446  12.937 -0.5295 -0.2198 -0.6154
  250MPD2    C4 3845   1.341   2.391  13.013  0.4147 -0.6461 -0.3586
  250MPD2    C5 3846   1.414   2.467  13.095 -0.2339 -0.2048 -0.1114
  250MPD2     H 3847   1.139   2.638  12.883 -0.5216 -0.8470  0.2328
  250MPD2    H1 3848   1.378   2.290  12.998  2.9440  0.2288  0.1047
  250MPD2    H2 3849   1.458   2.652  13.165 -0.7257  1.6957 -0.5967
  250MPD2    H3 3850   1.503   2.428  13.142 -0.7057 -2.1318 -0.8113
  250MPD2     N 3851   1.180   2.357  12.848  0.7252  0.1298  0.0133
  250MPD2    H5 3852   1.211   2.260  12.843 -2.1311 -0.7425 -0.3410
  250MPD2    N1 3853   1.250   2.800  13.059  0.1874 -0.0361  0.1227
  250MPD2    H7 3854   1.312   2.847  13.124 -2.7633  2.0033  1.4497
  251TMC3    C1 3855   1.180   3.016  13.022  0.2000 -0.4454  0.1609
  251TMC3    C2 3856   1.062   3.079  13.041 -0.1741 -0.3005  0.3916
  251TMC3    C3 3857   1.071   3.197  13.102 -0.2868 -0.0008  0.3890
  251TMC3    C4 3858   1.303   3.074  13.040 -0.5470 -0.5166  0.1700
  251TMC3    C5 3859   1.300   3.203  13.092 -0.0422 -0.2416 -0.0350
  251TMC3    C6 3860   1.184   3.263  13.129 -0.1400  0.0445  0.1422
  251TMC3     C 3861   1.159   2.878  12.991  0.4627 -0.6809 -0.1438
  251TMC3     O 3862   1.074   2.850  12.908  0.2283  0.3077 -0.2375
  251TMC3     H 3863   0.965   3.032  13.033 -0.5547  0.2306  1.7703
  251TMC3    H1 3864   1.388   3.016  13.005 -1.3529 -0.9818 -1.0236
  251TMC3    H2 3865   1.173   3.359  13.178 -0.1358  1.0361 -1.7873
  251TMC3    C7 3866   1.422   3.281  13.071 -0.3744 -0.3505  0.3368
  251TMC3    C8 3867   0.945   3.260  13.146 -0.5347 -0.0184  0.2791
  251TMC3    O1 3868   1.529   3.219  13.062 -0.5771  0.0682  0.2823
  251TMC3    O2 3869   0.843   3.234  13.081  0.0423 -0.1834  0.1659
  252TMC3    C1 3870   1.365   4.669   9.085 -0.4455  0.7362 -0.4279
  252TMC3    C2 3871   1.431   4.674   9.201 -0.2420  0.6037 -0.3272
  252TMC3    C3 3872   1.396   4.578   9.290  0.2640  0.1677 -0.0689
  252TMC3    C4 3873   1.276   4.569   9.054  0.2223  0.0559 -0.1207
  252TMC3    C5 3874   1.254   4.480   9.143  0.1335  0.6337 -0.3343
  252TMC3    C6 3875   1.305   4.483   9.266 -0.2373 -0.6195 -0.7721
  252TMC3     C 3876   1.422   0.019   8.988  0.1453 -0.5930 -0.0694
  252TMC3     O 3877   1.530   0.073   9.008  0.5280  0.0721 -0.1927
  252TMC3     H 3878   1.504   0.015   9.225 -1.1327  0.9458  1.2666
  252TMC3    H1 3879   1.230   4.553   8.957  0.8766 -0.4891 -0.3337
  252TMC3    H2 3880   1.277   4.422   9.351 -0.9203  1.0629  0.2166
  252TMC3    C7 3881   1.129   4.399   9.117  0.6644  0.0364 -0.5148
  252TMC3    C8 3882   1.478   4.585   9.415  0.4635  0.4900 -0.3426
  252TMC3    O1 3883   1.057   4.428   9.024 -0.2103 -0.3476 -0.0484
  252TMC3    O2 3884   1.535   4.691   9.436  0.0318 -0.3890  0.1019
  253MPD2     C 3885   2.561   3.000  15.348 -0.3125  0.0143  0.3938
  253MPD2    C1 3886   2.450   2.925  15.328 -0.5256  0.3680  0.1164
  253MPD2    C2 3887   2.365   2.892  15.432  0.0928  0.1099 -0.9816
  253MPD2    C3 3888   2.393   2.923  15.564  0.1122  0.2619  0.4163
  253MPD2    C4 3889   2.513   2.982  15.586  0.9136 -0.1254  0.4802
  253MPD2    C5 3890   2.592   3.016  15.481 -0.1532  0.1844  0.2107
  253MPD2     H 3891   2.279   2.834  15.399 -0.2707  1.9818 -3.3284
  253MPD2    H1 3892   2.553   3.007  15.684  0.9567  1.3388  0.0897
  253MPD2    H2 3893   2.625   3.037  15.269 -3.4781  1.8049 -1.3177
  253MPD2    H3 3894   2.691   3.053  15.509  0.4220  0.3096 -1.9964
  253MPD2     N 3895   2.316   2.902  15.685  0.2274 -0.5911  0.0722
  253MPD2    H5 3896   2.356   2.916  15.777 -2.9053 -3.2463  1.8665
  253MPD2    N1 3897   2.410   2.894  15.196 -0.0949  0.2058  0.4969
  253MPD2    H7 3898   2.326   2.840  15.179 -0.6865  0.4218  2.7648
  254TMC3    C1 3899   2.133   2.824  15.814 -0.0553  0.1428  0.0144
  254TMC3    C2 3900   2.003   2.800  15.838 -0.2192 -0.5927  0.3751
  254TMC3    C3 3901   1.951   2.798  15.963 -0.5996 -0.3796  0.6602
  254TMC3    C4 3902   2.214   2.845  15.926  0.1721 -0.1530 -0.6070
  254TMC3    C5 3903   2.162   2.836  16.056 -0.5983  0.3674  0.6949
  254TMC3    C6 3904   2.029   2.805  16.078 -0.0480  0.4055 -0.3818
  254TMC3     C 3905   2.182   2.856  15.683  0.1360  0.3111  0.8830
  254TMC3     O 3906   2.101   2.853  15.591  1.1107 -0.8476 -0.0399
  254TMC3     H 3907   1.934   2.785  15.756 -1.0494 -0.8774  1.1303
  254TMC3    H1 3908   2.322   2.837  15.925  0.1175 -1.3640  1.3057
  254TMC3    H2 3909   1.982   2.789  16.174 -1.6121  1.2470 -1.0224
  254TMC3    C7 3910   2.246   2.770  16.158 -0.6705 -0.1379 -0.0692
  254TMC3    C8 3911   1.810   2.772  15.981 -0.2081 -0.2598 -0.7981
  254TMC3    O1 3912   2.187   2.691  16.229  0.0455  0.2082  0.6952
  254TMC3    O2 3913   1.780   2.714  16.088  0.3927  0.3773 -0.8491
  255MPD2     C 3914   0.878   1.122  10.625  0.1331  0.2364 -0.4465
  255MPD2    C1 3915   0.822   1.192  10.522  0.1083 -0.0939 -0.8093
  255MPD2    C2 3916   0.819   1.146  10.391  0.1475 -0.4456  0.3554
  255MPD2    C3 3917   0.875   1.025  10.367  1.0128 -0.1534 -0.1415
  255MPD2    C4 3918   0.934   0.949  10.464 -0.4452 -1.0485 -0.0547
  255MPD2    C5 3919   0.930   0.999  10.598  0.3265  0.0231  0.0509
  255MPD2     H 3920   0.773   1.219  10.326  2.9703  0.1991 -0.9090
  255MPD2    H1 3921   0.972   0.849  10.448 -0.2403 -0.5635 -2.6284
  255MPD2    H2 3922   0.875   1.161  10.726 -2.8061 -0.8668 -0.1196
  255MPD2    H3 3923   0.985   0.947  10.676 -0.9372 -0.3141  0.7252
  255MPD2     N 3924   0.861   0.972  10.235  0.0941 -0.5499 -0.1465
  255MPD2    H5 3925   0.836   1.040  10.164 -2.0987 -0.4868  0.6840
  255MPD2    N1 3926   0.757   1.314  10.569  0.3663 -0.5151 -0.0273
  255MPD2    H7 3927   0.766   1.335  10.668 -1.8491  0.7031 -0.0888
  256TMC3    C1 3928   0.592   1.486  10.561 -0.0386 -0.4740 -0.5650
  256TMC3    C2 3929   0.558   1.607  10.516 -0.4978 -0.0073 -0.7721
  256TMC3    C3 3930   0.439   1.670  10.562  1.0603  0.8217 -0.4555
  256TMC3    C4 3931   0.523   1.427  10.660 -0.3207 -0.2741  0.0314
  256TMC3    C5 3932   0.403   1.488  10.702 -0.3767 -0.1843 -0.1038
  256TMC3    C6 3933   0.367   1.605  10.652  0.0627  0.2788 -0.0500
  256TMC3     C 3934   0.698   1.415  10.497 -0.4523  0.1611 -0.1632
  256TMC3     O 3935   0.717   1.439  10.380  0.3274 -0.1833  0.6748
  256TMC3     H 3936   0.602   1.642  10.423  1.7648  0.7170  0.5780
  256TMC3    H1 3937   0.546   1.324  10.687 -4.1059 -1.0941  0.1934
  256TMC3    H2 3938   0.272   1.647  10.684  0.9104  2.0108  0.1738
  256TMC3    C7 3939   0.291   1.403  10.730  0.4038 -0.7355  0.3352
  256TMC3    C8 3940   0.413   1.815  10.557  0.3404  1.1331  0.4266
  256TMC3    O1 3941   0.215   1.434  10.815 -0.2086  0.5423 -0.2759
  256TMC3    O2 3942   0.327   1.856  10.634  0.0080  1.1167  0.1049
  257MPD2     C 3943   4.496   2.702  13.476  0.1939 -0.0135  0.0512
  257MPD2    C1 3944   4.453   2.625  13.372 -0.3783 -0.3004 -0.0242
  257MPD2    C2 3945   4.473   2.496  13.372 -0.0967  0.1120 -0.1735
  257MPD2    C3 3946   4.532   2.430  13.478  0.5532 -0.2305  0.6518
  257MPD2    C4 3947   4.577   2.506  13.582 -0.1678  0.0768 -0.2383
  257MPD2    C5 3948   4.566   2.641  13.572  0.0773 -0.9504  0.2673
  257MPD2     H 3949   4.448   2.443  13.281  0.4224  1.9131 -1.3579
  257MPD2    H1 3950   4.629   2.460  13.664 -2.2231 -1.7015  0.0739
  257MPD2    H2 3951   4.480   2.808  13.490  2.3251  0.0870  1.5990
  257MPD2    H3 3952   4.600   2.695  13.660  1.2055  0.7608 -1.2427
  257MPD2     N 3953   4.555   2.297  13.464 -0.7275 -0.2978  0.3074
  257MPD2    H5 3954   4.534   2.248  13.378 -0.3158 -2.3352  1.3660
  257MPD2    N1 3955   4.384   2.695  13.269  0.4614  0.0688 -0.2289
  257MPD2    H7 3956   4.372   2.796  13.276  0.5407  0.1505 -1.3278
  258TMC3    C1 3957   4.657   2.088  13.525  0.6960  0.7977 -0.0411
  258TMC3    C2 3958   4.599   2.028  13.411 -0.2910  0.4211  0.1199
  258TMC3    C3 3959   4.643   1.893  13.390  0.1751 -0.1341  0.1469
  258TMC3    C4 3960   0.020   2.027  13.604  0.3247  0.2413  0.9347
  258TMC3    C5 3961   0.042   1.892  13.577 -0.2737  0.0733 -0.0427
  258TMC3    C6 3962   4.729   1.820  13.472 -0.0745 -0.3912  0.3522
  258TMC3     C 3963   4.616   2.222  13.562  0.4110 -0.4811 -0.1479
  258TMC3     O 3964   4.642   2.240  13.679  0.3662 -0.2337  0.4947
  258TMC3     H 3965   4.513   2.073  13.362 -0.7606 -0.3548  0.2341
  258TMC3    H1 3966   0.055   2.069  13.698  1.2199 -0.5303  0.9447
  258TMC3    H2 3967   0.012   1.713  13.465 -1.2544 -0.7094  2.1066
  258TMC3    C7 3968   0.083   1.807  13.689  0.0108  0.9316  0.1614
  258TMC3    C8 3969   4.591   1.832  13.266  0.5381  0.8879  1.0288
  258TMC3    O1 3970   0.020   1.705  13.700 -0.1455 -0.1851 -0.4080
  258TMC3    O2 3971   4.527   1.902  13.184 -0.5566  0.2895  0.2897
  259MPD2     C 3972   3.502   4.556   0.602 -0.0285  0.4268 -0.7654
  259MPD2    C1 3973   3.531   4.471   0.495  0.3599  0.2013  0.4175
  259MPD2    C2 3974   3.530   4.526   0.367 -0.1637 -0.1254  0.5972
  259MPD2    C3 3975   3.509   4.663   0.346 -0.0926  0.6828  0.2721
  259MPD2    C4 3976   3.484   0.014   0.450  0.7035  0.4546 -0.4365
  259MPD2    C5 3977   3.476   4.694   0.577 -0.2570  0.0549 -0.5909
  259MPD2     H 3978   3.525   4.462   0.280  1.6630  0.3164  0.1695
  259MPD2    H1 3979   3.472   0.119   0.429 -1.5200  0.4614  0.8393
  259MPD2    H2 3980   3.512   4.518   0.703 -0.3130  0.9300 -0.5462
  259MPD2    H3 3981   3.451   0.023   0.661 -1.4612  0.8032 -1.5165
  259MPD2     N 3982   3.500   4.706   0.209  0.4299  0.3305  0.0574
  259MPD2    H5 3983   3.533   4.631   0.149  0.8942  0.0913  0.6179
  259MPD2    N1 3984   3.571   4.339   0.528  0.2737  0.3641 -0.4573
  259MPD2    H7 3985   3.572   4.307   0.624 -2.8303 -0.0632 -0.5736
  260TMC3    C1 3986   3.509   0.079   0.010  0.3876 -0.1412 -0.4767
  260TMC3    C2 3987   3.635   0.121  17.714 -0.4524  0.3392  0.4303
  260TMC3    C3 3988   3.705   0.036  17.633  0.3249 -0.3544  0.7145
  260TMC3    C4 3989   3.460   4.693  17.704  0.2673 -0.1498  0.5314
  260TMC3    C5 3990   3.537   4.613  17.628  0.9230 -0.3076  0.0910
  260TMC3    C6 3991   3.663   4.652  17.588 -1.0100 -0.3116  0.6661
  260TMC3     C 3992   3.494   0.092   0.156 -0.0638  0.3735  0.3736
  260TMC3     O 3993   3.490   0.205   0.204  0.3907 -0.4529 -0.0844
  260TMC3     H 3994   3.686   0.201   0.027  1.9385 -1.5706  0.9777
  260TMC3    H1 3995   3.353   4.678  17.710  0.0712  1.7529  1.8896
  260TMC3    H2 3996   3.730   4.580  17.543 -0.2464 -0.5740  2.2117
  260TMC3    C7 3997   3.525   4.470  17.643  1.2201 -0.0005  0.4857
  260TMC3    C8 3998   3.852   0.059  17.635  0.3201  0.3853  0.2385
  260TMC3    O1 3999   3.590   4.393  17.570 -0.3139 -0.3172  0.2172
  260TMC3    O2 4000   3.886   0.175  17.635 -0.3282 -0.0376 -0.2862
  261MPD2     C 4001   0.432   2.262  12.534 -0.1991  0.0539  0.3684
  261MPD2    C1 4002   0.548   2.308  12.472  0.5007 -0.1983  0.4001
  261MPD2    C2 4003   0.539   2.423  12.407 -0.0457  0.1121 -0.1444
  261MPD2    C3 4004   0.424   2.499  12.387 -0.0828  0.8242 -0.3189
  261MPD2    C4 4005   0.311   2.451  12.452 -0.7473 -0.0830 -0.2524
  261MPD2    C5 4006   0.312   2.332  12.525 -0.0624  0.2312 -0.2610
  261MPD2     H 4007   0.631   2.460  12.363 -0.7810  0.9439 -0.9890
  261MPD2    H1 4008   0.220   2.509  12.455  0.2072  1.4142  0.0313
  261MPD2    H2 4009   0.421   2.164  12.578  1.8629 -0.1583  0.3963
  261MPD2    H3 4010   0.220   2.294  12.568 -0.2179  2.1440  1.0746
  261MPD2     N 4011   0.430   2.617  12.303 -0.2135 -0.1842  0.1841
  261MPD2    H5 4012   0.507   2.620  12.237 -0.3070 -1.6219  0.0159
  261MPD2    N1 4013   0.677   2.254  12.496  0.7682  0.1274  0.4444
  261MPD2    H7 4014   0.754   2.303  12.452  1.9892  0.0139  2.4460
  262TMC3    C1 4015   0.336   2.812  12.205 -0.2710  0.4292 -0.4545
  262TMC3    C2 4016   0.234   2.894  12.190  0.0487 -0.3280  0.3050
  262TMC3    C3 4017   0.209   2.953  12.068 -0.0467 -0.1184  0.3523
  262TMC3    C4 4018   0.431   2.795  12.106 -0.6677 -0.5077 -0.5905
  262TMC3    C5 4019   0.409   2.863  11.990 -0.6468  0.6909  0.0639
  262TMC3    C6 4020   0.290   2.932  11.964 -0.2707 -0.4252 -0.7935
  262TMC3     C 4021   0.334   2.711  12.305  0.0838  0.3683 -0.2406
  262TMC3     O 4022   0.240   2.720  12.384 -0.8117 -0.3309 -0.6028
  262TMC3     H 4023   0.164   2.905  12.272  0.2084  1.1433  0.2453
  262TMC3    H1 4024   0.522   2.736  12.113 -0.6433 -0.5294 -1.0803
  262TMC3    H2 4025   0.262   2.979  11.870  0.0724  3.0833  0.8725
  262TMC3    C7 4026   0.510   2.866  11.888  0.1200  0.1250 -0.2175
  262TMC3    C8 4027   0.140   3.085  12.067 -0.1458 -0.2890 -0.2881
  262TMC3    O1 4028   0.598   2.783  11.900 -0.0376 -0.3135 -0.4649
  262TMC3    O2 4029   0.208   3.173  12.010 -0.3489 -0.1345  0.2380
  263MPD2     C 4030   1.160   1.643  11.186 -0.0342  0.1777 -0.4366
  263MPD2    C1 4031   1.239   1.746  11.235  0.0665 -0.2067  0.3584
  263MPD2    C2 4032   1.220   1.876  11.200 -0.1744 -0.0380 -0.2621
  263MPD2    C3 4033   1.148   1.901  11.086 -0.8552  0.6515 -0.5120
  263MPD2    C4 4034   1.068   1.800  11.040 -0.2292 -0.3887 -0.1094
  263MPD2    C5 4035   1.070   1.671  11.086  0.4448 -0.3941  0.2815
  263MPD2     H 4036   1.287   1.953  11.236  0.4581 -1.0631  0.7440
  263MPD2    H1 4037   1.000   1.824  10.959  0.3239  0.2392 -0.3848
  263MPD2    H2 4038   1.159   1.545  11.232  2.9880  0.6877  0.6926
  263MPD2    H3 4039   1.015   1.585  11.049  0.6745 -0.5242  0.2441
  263MPD2     N 4040   1.154   2.024  11.024  0.6374  0.2520 -0.4820
  263MPD2    H5 4041   1.206   2.093  11.076  0.9777  0.8832 -1.6702
  263MPD2    N1 4042   1.335   1.699  11.331  0.2317  0.2578 -0.0695
  263MPD2    H7 4043   1.343   1.598  11.333 -0.9294  0.1483 -0.9688
  264TMC3    C1 4044   1.122   2.191  10.868 -0.2128 -0.8332 -0.0394
  264TMC3    C2 4045   1.137   2.286  10.966  0.3111 -0.1625 -0.0458
  264TMC3    C3 4046   1.197   2.403  10.937  0.0404  0.4868 -0.1116
  264TMC3    C4 4047   1.160   2.216  10.736 -0.1114  0.2855 -0.7775
  264TMC3    C5 4048   1.231   2.332  10.717  0.4836 -0.6013  0.8472
  264TMC3    C6 4049   1.243   2.433  10.812 -0.2825 -0.4763  0.2627
  264TMC3     C 4050   1.095   2.053  10.903 -0.7233 -0.3281  0.9110
  264TMC3     O 4051   1.055   1.989  10.808 -0.0359 -0.4513 -0.6762
  264TMC3     H 4052   1.108   2.263  11.068  0.1989 -0.1191 -0.0678
  264TMC3    H1 4053   1.159   2.144  10.655 -1.6317 -0.4240 -0.1296
  264TMC3    H2 4054   1.286   2.531  10.796 -0.1830 -0.6822 -0.7640
  264TMC3    C7 4055   1.303   2.338  10.594  0.3148  0.1923  0.0087
  264TMC3    C8 4056   1.231   2.494  11.041 -0.3723 -0.5352  0.3058
  264TMC3    O1 4057   1.335   2.237  10.536 -0.0315  0.7686  0.0523
  264TMC3    O2 4058   1.338   2.554  11.022  0.0390  0.3761  0.2003
  265MPD2     C 4059   3.544   2.427  15.688 -0.5217  0.2174 -0.1066
  265MPD2    C1 4060   3.611   2.529  15.625  0.3056 -0.9759  0.3472
  265MPD2    C2 4061   3.701   2.500  15.527 -0.0402 -0.2382  0.0082
  265MPD2    C3 4062   3.709   2.365  15.487 -0.3882  0.1270  0.2179
  265MPD2    C4 4063   3.624   2.267  15.529  0.0634 -0.8200 -0.2714
  265MPD2    C5 4064   3.541   2.301  15.634  0.2085  0.6218  0.3185
  265MPD2     H 4065   3.758   2.577  15.477 -1.4382 -0.9321 -2.6615
  265MPD2    H1 4066   3.633   2.162  15.500 -1.2389 -1.1464  0.5088
  265MPD2    H2 4067   3.479   2.452  15.770 -2.2681  1.8875 -1.9982
  265MPD2    H3 4068   3.484   2.219  15.675  1.2558 -0.1208  0.2942
  265MPD2     N 4069   3.793   2.326  15.387  0.1929 -0.0381  0.0189
  265MPD2    H5 4070   3.784   2.226  15.371 -0.3941  0.0276 -0.0713
  265MPD2    N1 4071   3.602   2.664  15.662  0.1800  0.0746  0.6608
  265MPD2    H7 4072   3.659   2.729  15.608 -2.3783  1.4700 -0.3302
  266TMC3    C1 4073   3.537   2.853  15.777  0.1739  0.3687  0.0866
  266TMC3    C2 4074   3.647   2.879  15.851 -0.8494 -0.1985  1.1953
  266TMC3    C3 4075   3.646   2.998  15.923  0.2737 -0.1669  0.1950
  266TMC3    C4 4076   3.422   2.934  15.773 -0.6190 -0.5201  0.0884
  266TMC3    C5 4077   3.435   3.056  15.827  0.8107 -0.6181  0.2496
  266TMC3    C6 4078   3.539   3.082  15.914 -0.0324 -0.4504  0.6142
  266TMC3     C 4079   3.518   2.715  15.762  0.6073  0.3186 -0.2888
  266TMC3     O 4080   3.416   2.671  15.813 -0.5863 -0.4497  0.0567
  266TMC3     H 4081   3.719   2.800  15.866  0.8943  0.8438 -1.7610
  266TMC3    H1 4082   3.337   2.896  15.718 -0.6417  0.7958 -0.7814
  266TMC3    H2 4083   3.518   3.156  15.991 -0.5843  1.5988 -1.5140
  266TMC3    C7 4084   3.321   3.145  15.818 -0.3984  0.3642  0.7450
  266TMC3    C8 4085   3.726   2.996  16.040 -0.1555  0.3393  0.1318
  266TMC3    O1 4086   3.208   3.097  15.812  0.1977 -0.1735  0.6913
  266TMC3    O2 4087   3.792   2.893  16.055 -0.1823  0.4442  0.4369
  267MPD2     C 4088   1.709   4.134  17.450  0.7042 -0.1336  0.3603
  267MPD2    C1 4089   1.694   4.265  17.415 -0.1901 -0.0483  0.2420
  267MPD2    C2 4090   1.580   4.295  17.330 -0.3398  0.8563 -0.1684
  267MPD2    C3 4091   1.508   4.196  17.263  0.3111 -0.2136  0.2573
  267MPD2    C4 4092   1.544   4.059  17.281  0.6547  0.3241 -0.0847
  267MPD2    C5 4093   1.639   4.034  17.378  0.4790 -0.3358  0.1202
  267MPD2     H 4094   1.544   4.396  17.340  0.4167  1.0860  0.2340
  267MPD2    H1 4095   1.487   3.983  17.230  2.2689  0.6027 -2.2828
  267MPD2    H2 4096   1.780   4.099  17.524  1.0021 -0.0140  0.1336
  267MPD2    H3 4097   1.657   3.932  17.409 -1.4003 -0.7007 -0.0200
  267MPD2     N 4098   1.411   4.225  17.167 -0.8572  0.0306 -0.2207
  267MPD2    H5 4099   1.344   4.153  17.143  1.6102 -2.6926  1.0536
  267MPD2    N1 4100   1.772   4.359  17.490 -0.4681  0.0869 -0.3932
  267MPD2    H7 4101   1.839   4.329  17.560  0.5625  0.9646 -1.0137
  268TMC3    C1 4102   1.869   4.568  17.546  0.4703  0.4174 -0.6728
  268TMC3    C2 4103   1.873   4.701  17.500  0.2246  0.5343  0.0412
  268TMC3    C3 4104   1.878   0.059  17.594 -0.5206 -0.0561 -0.2155
  268TMC3    C4 4105   1.862   4.541  17.684  0.3453 -0.3523 -0.9167
  268TMC3    C5 4106   1.858   4.637   0.035  0.2080 -0.2264 -0.2797
  268TMC3    C6 4107   1.880   0.030  17.730  0.9414  0.3934 -0.3882
  268TMC3     C 4108   1.773   4.494  17.469  0.0107  0.2875 -0.2798
  268TMC3     O 4109   1.703   4.570  17.401  0.3682 -0.0399  0.3533
  268TMC3     H 4110   1.889   4.710  17.393 -0.0566 -0.9107 -0.1142
  268TMC3    H1 4111   1.836   4.440  17.713 -1.2931  0.3254 -0.0332
  268TMC3    H2 4112   1.887   0.114   0.058 -2.7932  0.6438 -0.3089
  268TMC3    C7 4113   1.942   4.600   0.152 -0.0072 -0.0877  0.0373
  268TMC3    C8 4114   1.808   0.186  17.555  0.1347  0.0916  0.0862
  268TMC3    O1 4115   1.928   4.651   0.263  0.2915 -0.2893  0.1241
  268TMC3    O2 4116   1.801   0.275  17.639 -0.1974  0.1715  0.0082
  269MPD2     C 4117   1.435   3.040  15.507  0.0485 -0.8329  0.2467
  269MPD2    C1 4118   1.353   3.105  15.599  0.5693 -0.3802 -0.6947
  269MPD2    C2 4119   1.372   3.237  15.619  0.2799  0.0014  0.4619
  269MPD2    C3 4120   1.482   3.298  15.565  0.2276  0.2115 -0.5593
  269MPD2    C4 4121   1.567   3.224  15.486  0.0102  0.5841  0.3940
  269MPD2    C5 4122   1.535   3.098  15.439  0.0249 -0.2999  0.1194
  269MPD2     H 4123   1.313   3.295  15.690  3.7029  1.2923  2.2354
  269MPD2    H1 4124   1.650   3.273  15.436 -0.3046  2.0399  1.3113
  269MPD2    H2 4125   1.403   2.941  15.476 -1.4943 -0.1466 -0.3404
  269MPD2    H3 4126   1.585   3.046  15.358  1.7157  0.5321  0.6430
  269MPD2     N 4127   1.495   3.434  15.587  0.1175 -0.7992  0.7827
  269MPD2    H5 4128   1.441   3.484  15.657  0.2868  0.7906 -0.2294
  269MPD2    N1 4129   1.247   3.027  15.659  0.4948 -0.0091 -0.5589
  269MPD2    H7 4130   1.244   2.928  15.634 -0.9642  0.1683 -1.1159
  270TMC3    C1 4131   1.060   2.960  15.786  0.3814  0.6753  0.4812
  270TMC3    C2 4132   0.942   2.944  15.722  0.5951 -0.8494  0.2215
  270TMC3    C3 4133   0.876   2.823  15.731 -0.5862  0.0706 -0.3773
  270TMC3    C4 4134   1.121   2.850  15.852 -0.0486 -0.1413  0.2282
  270TMC3    C5 4135   1.057   2.728  15.849  0.1978 -0.5673  0.0640
  270TMC3    C6 4136   0.932   2.715  15.785 -0.2715  0.6063  0.1022
  270TMC3     C 4137   1.156   3.069  15.749  0.0425 -0.6173 -0.5113
  270TMC3     O 4138   1.164   3.170  15.815  0.0801 -0.6695  0.2537
  270TMC3     H 4139   0.902   3.022  15.658  2.2896 -1.0087 -1.0529
  270TMC3    H1 4140   1.218   2.863  15.897 -0.2007  1.0256  0.1994
  270TMC3    H2 4141   0.872   2.625  15.784  1.7655 -0.7462 -0.1689
  270TMC3    C7 4142   1.135   2.609  15.885 -0.5160 -0.6199 -0.0607
  270TMC3    C8 4143   0.803   2.791  15.618  0.2552 -0.2776  0.1443
  270TMC3    O1 4144   1.257   2.627  15.894 -0.2521  0.1004 -0.1392
  270TMC3    O2 4145   0.740   2.885  15.576  0.1239  0.5552  0.7736
  271MPD2     C 4146   0.570   2.478  13.872  0.2220  0.4009 -0.7519
  271MPD2    C1 4147   0.553   2.555  13.983 -0.8802  0.1125 -0.4363
  271MPD2    C2 4148   0.510   2.686  13.963 -0.3020 -0.1537 -0.2854
  271MPD2    C3 4149   0.507   2.745  13.840  0.7655  0.2386 -0.4924
  271MPD2    C4 4150   0.540   2.665  13.735 -0.2087 -0.4342  0.1636
  271MPD2    C5 4151   0.569   2.536  13.754 -0.0056 -0.5085  0.0420
  271MPD2     H 4152   0.487   2.750  14.048  0.0958  0.1554 -0.4095
  271MPD2    H1 4153   0.550   2.694  13.631 -0.6671  1.3301  0.6133
  271MPD2    H2 4154   0.590   2.371  13.871 -0.7365  0.2167 -0.2625
  271MPD2    H3 4155   0.602   2.477  13.670  1.5564 -2.0776  1.7463
  271MPD2     N 4156   0.465   2.873  13.809 -0.0384 -0.7554 -0.1383
  271MPD2    H5 4157   0.451   2.905  13.714  0.7446 -1.9906 -0.6648
  271MPD2    N1 4158   0.578   2.501  14.109 -0.2590  0.6404  0.0409
  271MPD2    H7 4159   0.553   2.560  14.187 -2.8135 -2.3978  1.4958
  272TMC3    C1 4160   0.697   2.386  14.277 -0.1314  0.3780 -0.4495
  272TMC3    C2 4161   0.810   2.314  14.308 -0.3818  0.0952 -0.9435
  272TMC3    C3 4162   0.858   2.318  14.434 -0.6695  0.3937  0.1051
  272TMC3    C4 4163   0.626   2.455  14.369  0.2232 -0.4789  0.1723
  272TMC3    C5 4164   0.668   2.456  14.499 -0.2550  0.7048  0.2832
  272TMC3    C6 4165   0.785   2.389  14.533  0.3271 -0.5907  0.1499
  272TMC3     C 4166   0.648   2.386  14.139  0.2022  0.3104 -0.6406
  272TMC3     O 4167   0.705   2.309  14.068  0.4231 -0.4321 -0.1816
  272TMC3     H 4168   0.858   2.267  14.223  0.9323 -1.6318  0.7713
  272TMC3    H1 4169   0.548   2.527  14.346  2.1267  0.7789 -2.2093
  272TMC3    H2 4170   0.818   2.399  14.635  0.0596  1.5581  0.0264
  272TMC3    C7 4171   0.600   2.546  14.594  0.2255 -0.0173 -0.4919
  272TMC3    C8 4172   1.001   2.305  14.444  0.3179  0.3565 -0.1706
  272TMC3    O1 4173   0.484   2.569  14.576 -0.1352 -0.0498 -0.2264
  272TMC3    O2 4174   1.060   2.275  14.344 -0.0581  0.4470  0.1810
  273MPD2     C 4175   1.747   0.494  11.496  0.6424 -0.0323 -0.0529
  273MPD2    C1 4176   1.863   0.562  11.479 -0.9863  0.2627  0.3058
  273MPD2    C2 4177   1.870   0.636  11.362 -0.1223  0.6668  0.0520
  273MPD2    C3 4178   1.780   0.621  11.257  0.0835 -0.6110 -1.2055
  273MPD2    C4 4179   1.675   0.545  11.276  0.9349 -0.3515  1.2186
  273MPD2    C5 4180   1.655   0.482  11.400  0.3032  0.0833  0.1113
  273MPD2     H 4181   1.949   0.707  11.344 -2.3405  3.2227  0.4131
  273MPD2    H1 4182   1.608   0.540  11.191  0.2859  1.7403  1.6028
  273MPD2    H2 4183   1.740   0.440  11.590  1.1067  0.8930  0.5187
  273MPD2    H3 4184   1.566   0.427  11.427 -0.3534  1.4872  0.8179
  273MPD2     N 4185   1.795   0.693  11.133  0.0275  0.6021  0.4497
  273MPD2    H5 4186   1.716   0.722  11.077  0.2717 -1.4264 -0.9373
  273MPD2    N1 4187   1.957   0.573  11.587 -0.2090 -0.6275 -0.0124
  273MPD2    H7 4188   1.929   0.527  11.673  1.4403 -0.0124  0.8508
  274TMC3    C1 4189   1.926   0.843  10.996 -0.1360 -0.7621  0.2139
  274TMC3    C2 4190   1.817   0.881  10.920 -0.4984  1.1520  0.1819
  274TMC3    C3 4191   1.836   1.001  10.855 -0.2487 -0.4895  0.7683
  274TMC3    C4 4192   2.042   0.920  11.011  0.1752 -0.3360  0.6054
  274TMC3    C5 4193   2.045   1.035  10.948 -1.0267  0.4582 -0.0390
  274TMC3    C6 4194   1.949   1.076  10.862 -0.1525 -0.9086 -0.9482
  274TMC3     C 4195   1.919   0.733  11.094 -0.3133  0.2353 -1.2921
  274TMC3     O 4196   2.030   0.685  11.120 -0.1161  0.0329 -0.1632
  274TMC3     H 4197   1.725   0.825  10.905  0.2239  0.1963 -0.6493
  274TMC3    H1 4198   2.111   0.897  11.092  0.3910  0.1806  0.5704
  274TMC3    H2 4199   1.953   1.176  10.820 -0.9421 -0.5803 -0.2405
  274TMC3    C7 4200   2.102   1.146  11.022 -0.0324  0.4613  0.0492
  274TMC3    C8 4201   1.728   1.060  10.774 -0.2255 -0.6166  0.6132
  274TMC3    O1 4202   2.142   1.243  10.961 -0.1015  0.5693 -0.3381
  274TMC3    O2 4203   1.736   1.176  10.732  0.5335  0.2162  0.5168
  275MPD2     C 4204   1.772   3.879  14.327 -0.0503 -0.2480  0.0718
  275MPD2    C1 4205   1.774   3.778  14.418  0.2318  0.0144  0.1175
  275MPD2    C2 4206   1.739   3.653  14.374  0.9133 -0.1839 -0.2756
  275MPD2    C3 4207   1.684   3.626  14.248 -0.3638 -0.8865  0.7611
  275MPD2    C4 4208   1.670   3.735  14.163 -0.7444  0.0301  0.0731
  275MPD2    C5 4209   1.719   3.858  14.204  0.2905 -0.4747  0.9450
  275MPD2     H 4210   1.738   3.569  14.443  0.8201 -1.6371 -2.0634
  275MPD2    H1 4211   1.628   3.735  14.063  2.0298  1.1168 -1.0993
  275MPD2    H2 4212   1.800   3.978  14.361  1.7089 -0.7998  0.2792
  275MPD2    H3 4213   1.719   3.940  14.132  1.0176 -1.7335 -0.4961
  275MPD2     N 4214   1.649   3.504  14.190 -0.3970 -0.0655 -0.8338
  275MPD2    H5 4215   1.596   3.512  14.103  0.1596  0.2022 -1.1461
  275MPD2    N1 4216   1.804   3.795  14.557  0.2258 -0.3197 -0.0084
  275MPD2    H7 4217   1.798   3.707  14.608  1.8653  0.2255  1.0936
  276TMC3    C1 4218   1.835   3.892  14.773 -0.3400  0.2356  0.2570
  276TMC3    C2 4219   1.817   3.770  14.835  0.3483 -0.2450 -0.0205
  276TMC3    C3 4220   1.791   3.771  14.967 -0.6009 -0.1921 -0.1719
  276TMC3    C4 4221   1.821   4.005  14.839 -0.2492 -0.6467 -0.0982
  276TMC3    C5 4222   1.785   4.005  14.971  0.1629 -0.0868 -0.1457
  276TMC3    C6 4223   1.772   3.884  15.030  0.6767 -0.1699 -0.4818
  276TMC3     C 4224   1.810   3.913  14.626  0.4628  0.3682 -0.0020
  276TMC3     O 4225   1.833   4.028  14.584 -0.4852  0.3442 -1.0812
  276TMC3     H 4226   1.816   3.680  14.775  1.5102 -1.1932  1.3941
  276TMC3    H1 4227   1.860   4.096  14.796  0.8027 -0.6285  0.9011
  276TMC3    H2 4228   1.750   3.871  15.135  1.6225  1.8586 -0.0399
  276TMC3    C7 4229   1.822   4.123  15.042  0.6240  0.1629 -0.4069
  276TMC3    C8 4230   1.757   3.653  15.038  0.0159 -0.2449 -0.1732
  276TMC3    O1 4231   1.866   4.106  15.158  0.0894  0.0795 -0.3193
  276TMC3    O2 4232   1.684   3.663  15.137  0.7471  0.3575  0.0303
  277MPD2     C 4233   3.745   2.755  13.376  0.1518  0.4123 -0.2176
  277MPD2    C1 4234   3.611   2.748  13.364  0.1840  0.2829  0.5735
  277MPD2    C2 4235   3.538   2.651  13.432  0.1573  0.4704 -0.4492
  277MPD2    C3 4236   3.598   2.565  13.515 -0.5651 -0.1781 -0.3626
  277MPD2    C4 4237   3.736   2.579  13.538 -0.5956 -0.5796 -0.9105
  277MPD2    C5 4238   3.807   2.672  13.464 -0.6229 -0.0895  0.7818
  277MPD2     H 4239   3.434   2.660  13.403 -0.4225  1.1468  1.8746
  277MPD2    H1 4240   3.794   2.513  13.602 -0.1449 -0.0021 -0.7291
  277MPD2    H2 4241   3.795   2.833  13.321 -2.0854  2.0344  0.0390
  277MPD2    H3 4242   3.912   2.674  13.490 -0.1249 -0.9232 -1.1595
  277MPD2     N 4243   3.523   2.460  13.564 -0.1855  0.0021 -0.4373
  277MPD2    H5 4244   3.426   2.449  13.536 -0.3482 -1.6425  0.7848
  277MPD2    N1 4245   3.544   2.838  13.279 -0.3523 -0.2492  0.1295
  277MPD2    H7 4246   3.443   2.847  13.287 -0.2238 -1.1018  2.7270
  278TMC3    C1 4247   3.475   2.261  13.675  0.1256 -1.2177  0.2704
  278TMC3    C2 4248   3.520   2.132  13.688 -0.3563 -0.0559  0.5086
  278TMC3    C3 4249   3.432   2.037  13.727  0.6162  0.2290  0.2842
  278TMC3    C4 4250   3.346   2.293  13.710 -0.5394  0.6325 -0.0633
  278TMC3    C5 4251   3.260   2.191  13.746 -0.5768  0.1679 -0.0449
  278TMC3    C6 4252   3.293   2.058  13.746 -0.6771 -0.5867  0.2123
  278TMC3     C 4253   3.578   2.358  13.640 -0.1003 -0.6188  0.2239
  278TMC3     O 4254   3.694   2.317  13.664  0.3552  1.1839  0.3494
  278TMC3     H 4255   3.625   2.109  13.676 -0.6102 -0.0025 -1.8283
  278TMC3    H1 4256   3.313   2.397  13.707  0.2159  0.8937  0.9633
  278TMC3    H2 4257   3.235   1.981  13.795  1.5283 -2.0282  0.5854
  278TMC3    C7 4258   3.116   2.222  13.758 -0.6623  1.0331 -0.5407
  278TMC3    C8 4259   3.474   1.898  13.720  0.4688  0.2094 -0.1271
  278TMC3    O1 4260   3.081   2.336  13.776  0.1555 -0.2959 -0.4550
  278TMC3    O2 4261   3.593   1.872  13.737 -0.7291  0.3078  0.9414
  279MPD2     C 4262   2.796   2.507   0.156  0.1396 -0.4831 -0.1923
  279MPD2    C1 4263   2.789   2.630   0.099  0.0923 -0.9143 -0.3046
  279MPD2    C2 4264   2.892   2.674   0.014  0.1739 -0.1251  0.2276
  279MPD2    C3 4265   2.999   2.594  17.732 -0.3982 -0.4727 -0.0258
  279MPD2    C4 4266   3.006   2.473   0.061 -0.0411  0.0361 -0.4653
  279MPD2    C5 4267   2.905   2.429   0.139  0.5793 -0.1903 -0.0691
  279MPD2     H 4268   2.884   2.766  17.699 -0.8332  0.2729  1.0272
  279MPD2    H1 4269   3.093   2.409   0.058  0.0179  0.0082  1.3107
  279MPD2    H2 4270   2.713   2.468   0.214 -1.1576  2.3165 -0.1177
  279MPD2    H3 4271   2.910   2.333   0.188  0.6339  0.2695  0.8290
  279MPD2     N 4272   3.101   2.631  17.642 -0.1169  0.1128 -0.4812
  279MPD2    H5 4273   3.173   2.560  17.637  1.9425  2.1036  0.2843
  279MPD2    N1 4274   2.670   2.707   0.128  0.2188  0.2382  0.0279
  279MPD2    H7 4275   2.619   2.663   0.204  0.5353  1.1515  0.7617
  280TMC3    C1 4276   2.526   2.886   0.136 -0.7238 -0.2472  0.3522
  280TMC3    C2 4277   2.440   2.803   0.211  0.2653  0.0189  0.0635
  280TMC3    C3 4278   2.344   2.870   0.284  0.2728 -0.5689  0.4868
  280TMC3    C4 4279   2.521   3.022   0.129 -0.6533 -0.1829 -0.0295
  280TMC3    C5 4280   2.424   3.083   0.204  0.1049 -0.7686 -0.1042
  280TMC3    C6 4281   2.333   3.008   0.284 -0.9390 -0.3190 -0.0667
  280TMC3     C 4282   2.629   2.823   0.068 -0.5800 -0.8172 -0.0891
  280TMC3     O 4283   2.683   2.882  17.719 -0.1109  0.0806  0.2405
  280TMC3     H 4284   2.443   2.695   0.203 -0.7217  0.0930 -1.2394
  280TMC3    H1 4285   2.564   3.072   0.042  0.5311  0.1113  0.7139
  280TMC3    H2 4286   2.251   3.046   0.343  1.6727  1.4428  2.4663
  280TMC3    C7 4287   2.421   3.232   0.204  0.0097  0.0711  0.2971
  280TMC3    C8 4288   2.263   2.796   0.388  0.5089 -1.0937  0.5155
  280TMC3    O1 4289   2.322   3.277   0.251 -0.1339 -0.4260  0.2915
  280TMC3    O2 4290   2.173   2.860   0.445  0.4764  0.5467 -0.3217
  281TMC3    C1 4291   1.769   3.383  13.377 -0.5082  0.5481 -0.1823
  281TMC3    C2 4292   1.792   3.457  13.261 -0.2543  0.1013 -0.3304
  281TMC3    C3 4293   1.877   3.408  13.161  0.6045  0.0223  0.6904
  281TMC3    C4 4294   1.847   3.273  13.413 -0.3470  0.4811 -0.1981
  281TMC3    C5 4295   1.935   3.234  13.313 -0.8194  0.8423 -0.5028
  281TMC3    C6 4296   1.956   3.305  13.201 -0.1506  0.4881  0.2340
  281TMC3     C 4297   1.646   3.397  13.459 -0.2459 -0.2471  0.0961
  281TMC3     O 4298   1.631   3.320  13.557  0.3989  0.0018 -0.0651
  281TMC3     H 4299   1.736   3.546  13.234 -0.0793  0.7384  1.4268
  281TMC3    H1 4300   1.828   3.224  13.507  0.1336 -0.2632 -0.4950
  281TMC3    H2 4301   2.031   3.272  13.129 -0.5142  0.8829 -0.3312
  281TMC3    C7 4302   2.024   3.123  13.331 -0.4430  0.5953  0.4955
  281TMC3    C8 4303   1.926   3.482  13.039  0.1680 -0.0498  0.0341
  281TMC3    O1 4304   2.125   3.117  13.267 -0.1730 -0.3639 -0.3926
  281TMC3    O2 4305   2.039   3.457  13.004 -0.3796 -0.4136  0.8419
  282MPD2     C 4306   3.496   4.207  14.949  0.6165  0.5843 -0.8556
  282MPD2    C1 4307   3.371   4.268  14.937 -0.1588 -0.5195  0.5076
  282MPD2    C2 4308   3.303   4.222  14.827 -0.4651 -0.1193 -0.3939
  282MPD2    C3 4309   3.347   4.126  14.737 -1.0711 -0.0892  0.2804
  282MPD2    C4 4310   3.473   4.067  14.751 -0.3846 -0.4162 -0.1884
  282MPD2    C5 4311   3.547   4.111  14.859 -0.7879  0.7711 -0.3640
  282MPD2     H 4312   3.222   4.285  14.791  0.7645  0.4565 -2.1262
  282MPD2    H1 4313   3.504   3.984  14.689 -0.1571  0.2879 -1.0237
  282MPD2    H2 4314   3.568   4.237  15.024  0.4751 -0.2944 -0.3697
  282MPD2    H3 4315   3.648   4.072  14.869 -1.6726 -1.6316 -0.8507
  282MPD2     N 4316   3.269   4.108  14.619  0.3555 -0.1274 -0.2777
  282MPD2    H5 4317   3.184   4.160  14.604  0.8436  1.0174  0.8942
  282MPD2    N1 4318   3.314   4.371  15.014 -0.4463 -0.1008 -0.2656
  282MPD2    H7 4319   3.225   4.404  14.978 -0.7578 -0.5424  0.0892
  283TMC3    C1 4320   3.252   4.479  15.209 -0.0163 -0.2186  0.6438
  283TMC3    C2 4321   3.285   4.581  15.288 -0.3264  0.1603  0.0267
  283TMC3    C3 4322   3.188   4.664  15.342  0.0366 -0.1691 -0.7046
  283TMC3    C4 4323   3.120   4.450  15.172 -0.2020 -0.6230  0.2460
  283TMC3    C5 4324   3.025   4.540  15.225  0.1673 -0.3369 -0.0040
  283TMC3    C6 4325   3.057   4.644  15.303  0.0843  0.2887  0.2773
  283TMC3     C 4326   3.355   4.410  15.142 -0.1585  0.3966 -0.6643
  283TMC3     O 4327   3.465   4.393  15.186  0.0743  0.0084  0.1070
  283TMC3     H 4328   3.391   4.595  15.299 -0.2775  0.5742 -0.9930
  283TMC3    H1 4329   3.093   4.355  15.127 -1.6892  0.3643 -0.9396
  283TMC3    H2 4330   2.982   4.717  15.330 -0.6884 -0.1980 -0.5754
  283TMC3    C7 4331   2.884   4.512  15.216  0.1033  0.4693 -0.2218
  283TMC3    C8 4332   3.229   0.061  15.356 -0.3831  0.6318 -0.7940
  283TMC3    O1 4333   2.807   4.582  15.282 -0.0844  0.2827 -0.1015
  283TMC3    O2 4334   3.342   0.092  15.322  0.0350  0.0651 -0.2222
  284MPD2     C 4335   1.941   3.317  12.253  0.0839 -0.2782 -0.4399
  284MPD2    C1 4336   1.885   3.309  12.125  0.4362 -0.5495  0.7998
  284MPD2    C2 4337   1.876   3.190  12.058  0.4531  0.0418 -0.0979
  284MPD2    C3 4338   1.937   3.081  12.102  0.2434 -0.3753  0.0318
  284MPD2    C4 4339   1.998   3.087  12.225  0.2465 -0.3031 -0.0159
  284MPD2    C5 4340   2.003   3.206  12.298 -0.4639 -0.4981 -0.0374
  284MPD2     H 4341   1.828   3.189  11.961 -1.7781 -0.8120  1.0014
  284MPD2    H1 4342   2.047   3.000  12.267 -2.2389 -1.2435  0.9567
  284MPD2    H2 4343   1.943   3.410  12.308  0.8720 -1.9594  2.3886
  284MPD2    H3 4344   2.051   3.206  12.396  2.3714  0.7640 -1.4147
  284MPD2     N 4345   1.923   2.955  12.050  0.9958  0.1354  0.7257
  284MPD2    H5 4346   1.961   2.876  12.102  0.2815 -0.5624  0.2003
  284MPD2    N1 4347   1.822   3.425  12.067  0.0947  0.3382  0.1122
  284MPD2    H7 4348   1.771   3.417  11.980 -0.1404  2.7211  0.0450
  285TMC3    C1 4349   1.734   3.640  12.042  0.1994  0.2004  0.1117
  285TMC3    C2 4350   1.625   3.590  11.974  1.0356 -0.7095  0.8680
  285TMC3    C3 4351   1.573   3.673  11.878  0.4324 -0.1762 -0.5971
  285TMC3    C4 4352   1.775   3.772  12.022  0.0717  0.8158  0.5224
  285TMC3    C5 4353   1.696   3.858  11.950 -0.1983 -0.0535  0.8898
  285TMC3    C6 4354   1.593   3.805  11.869 -0.1074  0.2239  0.2975
  285TMC3     C 4355   1.822   3.554  12.121 -0.2070 -0.8107 -0.2047
  285TMC3     O 4356   1.881   3.609  12.207 -0.4170 -0.3246 -0.0231
  285TMC3     H 4357   1.584   3.490  11.988  0.2592 -0.8757 -2.5084
  285TMC3    H1 4358   1.858   3.808  12.083  1.1598 -0.0412 -0.4440
  285TMC3    H2 4359   1.517   3.865  11.820  1.0522  0.8643 -0.7097
  285TMC3    C7 4360   1.750   3.979  11.891  0.2443 -0.2393  0.0451
  285TMC3    C8 4361   1.570   3.607  11.750  0.1232  0.4252  0.1497
  285TMC3    O1 4362   1.694   4.015  11.789  0.6881  0.1166  0.0147
  285TMC3    O2 4363   1.601   3.487  11.750  0.2180  0.6111 -0.0797
  286MPD2     C 4364   2.433   2.833   1.887  0.3594 -0.9122  0.0600
  286MPD2    C1 4365   2.344   2.769   1.804 -0.3209  0.4133 -0.2035
  286MPD2    C2 4366   2.386   2.657   1.731  0.2697 -0.6144  0.1072
  286MPD2    C3 4367   2.512   2.605   1.743  0.4949  0.1499 -0.4014
  286MPD2    C4 4368   2.597   2.671   1.828  0.1447 -0.1023 -0.3815
  286MPD2    C5 4369   2.558   2.783   1.897  0.0504  0.6882 -0.1261
  286MPD2     H 4370   2.303   2.620   1.672  1.2916  1.0602 -2.3856
  286MPD2    H1 4371   2.698   2.634   1.842 -0.5233 -1.6424  0.3722
  286MPD2    H2 4372   2.406   2.926   1.936  3.4103  0.1734 -0.3134
  286MPD2    H3 4373   2.638   2.824   1.957  2.8991 -0.4099 -3.1624
  286MPD2     N 4374   2.562   2.491   1.675 -0.1408 -0.7150 -0.1730
  286MPD2    H5 4375   2.661   2.474   1.692  0.5036  1.8605 -1.2403
  286MPD2    N1 4376   2.213   2.808   1.775  0.2430  0.1139  0.1596
  286MPD2    H7 4377   2.162   2.747   1.712 -0.1482  1.3295 -0.6981
  287TMC3    C1 4378   2.561   2.319   1.518 -0.3696 -0.6213  0.7011
  287TMC3    C2 4379   2.503   2.269   1.405  0.2821 -0.3387  0.0055
  287TMC3    C3 4380   2.582   2.203   1.316 -0.7156 -0.1849  0.3868
  287TMC3    C4 4381   2.696   2.285   1.547 -0.5953 -0.5573 -0.3763
  287TMC3    C5 4382   2.774   2.222   1.454  0.1029 -0.9757  0.6254
  287TMC3    C6 4383   2.715   2.175   1.336 -0.0009  0.7049  0.3460
  287TMC3     C 4384   2.484   2.414   1.599 -0.5217  0.2681  0.2396
  287TMC3     O 4385   2.363   2.419   1.576 -0.3084  0.0340  0.3449
  287TMC3     H 4386   2.396   2.274   1.388  0.7877 -0.7075 -3.1686
  287TMC3    H1 4387   2.748   2.335   1.627  0.8472 -0.3165 -1.4816
  287TMC3    H2 4388   2.768   2.122   1.258 -1.5349 -0.2714 -0.0380
  287TMC3    C7 4389   2.919   2.208   1.477  0.0764  0.7458 -0.6466
  287TMC3    C8 4390   2.518   2.156   1.196  0.3787  0.0493 -0.2981
  287TMC3    O1 4391   2.968   2.263   1.575 -0.5604 -0.0279 -0.9498
  287TMC3    O2 4392   2.566   2.057   1.145  0.0027  0.3148 -0.5335
  288TMC3    C1 4393   4.336   2.351  14.447  1.3971  0.7570  0.6850
  288TMC3    C2 4394   4.223   2.381  14.522 -0.0768 -0.7134  0.7264
  288TMC3    C3 4395   4.171   2.504  14.512 -0.5932  0.2441 -0.4293
  288TMC3    C4 4396   4.398   2.453  14.378  0.4686 -0.2439 -0.6150
  288TMC3    C5 4397   4.349   2.580  14.384  0.1434  0.1393 -0.1457
  288TMC3    C6 4398   4.237   2.608  14.456  0.1598  0.0865 -0.2050
  288TMC3     C 4399   4.403   2.217  14.466 -0.2746 -0.3708 -1.1077
  288TMC3     O 4400   4.390   2.170  14.578 -0.0777  0.3326 -0.3314
  288TMC3     H 4401   4.184   2.302  14.584  0.1789 -0.3490  1.3541
  288TMC3    H1 4402   4.488   2.432  14.321  0.4527  0.2022 -0.7987
  288TMC3    H2 4403   4.200   2.708  14.474 -1.7933 -0.4641 -1.1461
  288TMC3    C7 4404   4.408   2.700  14.318  0.5143  0.5714 -0.0846
  288TMC3    C8 4405   4.087   2.548  14.623 -0.4373 -0.5571 -0.2529
  288TMC3    O1 4406   4.328   2.785  14.278 -0.0148 -0.4070 -0.8201
  288TMC3    O2 4407   4.084   2.668  14.651 -0.1751  0.5397  0.1309
  289MPD2     C 4408   3.879   1.221  14.449  0.2075 -0.0683  0.3097
  289MPD2    C1 4409   3.878   1.348  14.394  0.1251  0.3524  0.6127
  289MPD2    C2 4410   3.782   1.383  14.301  0.4280  0.1024  0.0570
  289MPD2    C3 4411   3.680   1.300  14.278 -0.5390 -0.6852  1.6844
  289MPD2    C4 4412   3.680   1.170  14.336 -0.7749  0.3892  0.0508
  289MPD2    C5 4413   3.778   1.130  14.421  0.0009 -0.0674  0.3063
  289MPD2     H 4414   3.780   1.477  14.247  0.4610 -1.2143 -2.2080
  289MPD2    H1 4415   3.604   1.098  14.305 -1.0981  1.2133 -1.0662
  289MPD2    H2 4416   3.953   1.182  14.519 -0.0222  0.1077  0.6480
  289MPD2    H3 4417   3.793   1.030  14.461 -1.7425 -0.0196  1.0797
  289MPD2     N 4418   3.570   1.334  14.192 -0.2206 -0.2338  0.1901
  289MPD2    H5 4419   3.492   1.270  14.204 -1.5808  0.7240 -3.4062
  289MPD2    N1 4420   3.996   1.431  14.417  0.0863 -0.1074  0.1205
  289MPD2    H7 4421   4.047   1.402  14.499  3.2745  2.7590 -0.8902
  290TMC3    C1 4422   3.446   1.445  14.026 -0.1888  0.0451 -0.1468
  290TMC3    C2 4423   3.387   1.572  14.020  0.1477 -0.0041  0.5176
  290TMC3    C3 4424   3.260   1.580  13.973  0.5111 -0.4122 -0.1905
  290TMC3    C4 4425   3.370   1.333  14.000 -0.5539  0.5177 -0.1127
  290TMC3    C5 4426   3.246   1.349  13.947 -0.2298  0.3759  0.0617
  290TMC3    C6 4427   3.186   1.471  13.925  0.1203  0.2018  0.5012
  290TMC3     C 4428   3.563   1.446  14.106  0.3271  0.5394 -0.1297
  290TMC3     O 4429   3.641   1.538  14.090  0.3814  0.1271 -0.2177
  290TMC3     H 4430   3.434   1.652  14.075  1.1472  0.5013 -1.0982
  290TMC3    H1 4431   3.417   1.236  14.017 -0.4678  0.6089  0.1700
  290TMC3    H2 4432   3.086   1.475  13.882  0.2585  0.5298  0.2139
  290TMC3    C7 4433   3.182   1.247  13.879 -0.4884  0.7280  1.0355
  290TMC3    C8 4434   3.187   1.703  13.975  0.1034 -0.0201 -0.4506
  290TMC3    O1 4435   3.112   1.282  13.784  0.0296  0.0095  0.0249
  290TMC3    O2 4436   3.082   1.713  13.914  0.2411  0.3699 -0.4210
  291MPD2     C 4437   3.380   1.802  17.463 -0.1668 -0.6385 -0.1257
  291MPD2    C1 4438   3.454   1.686  17.491  0.6604 -0.5726  0.0159
  291MPD2    C2 4439   3.599   1.695  17.504  0.5668  0.3507 -0.4398
  291MPD2    C3 4440   3.662   1.818  17.499  0.5314 -0.4711  0.3357
  291MPD2    C4 4441   3.589   1.929  17.461  0.4038  0.4129 -0.3358
  291MPD2    C5 4442   3.450   1.927  17.445  0.1687 -0.0124  0.1810
  291MPD2     H 4443   3.635   1.597  17.535 -0.0677  0.3477  0.2909
  291MPD2    H1 4444   3.636   2.023  17.436 -1.3588  1.9746  2.2553
  291MPD2    H2 4445   3.272   1.798  17.454 -0.2722 -2.5433  1.9563
  291MPD2    H3 4446   3.398   2.015  17.411  0.4073 -0.5539 -1.5812
  291MPD2     N 4447   3.799   1.832  17.521  0.4203  0.0544 -0.4747
  291MPD2    H5 4448   3.831   1.929  17.520 -0.2077  0.2578 -0.7038
  291MPD2    N1 4449   3.392   1.558  17.522  0.3033  0.2346  0.3684
  291MPD2    H7 4450   3.446   1.473  17.537 -1.7004 -0.9055  1.1891
  292TMC3    C1 4451   3.236   1.439  17.636 -0.0066  0.3966  0.0589
  292TMC3    C2 4452   3.184   1.460   0.020 -0.1713 -0.4965  0.0021
  292TMC3    C3 4453   3.148   1.345   0.093  0.5322  0.1902  0.4669
  292TMC3    C4 4454   3.264   1.312  17.599 -0.5120 -0.3516 -0.4188
  292TMC3    C5 4455   3.234   1.203  17.683  0.1291  0.0811 -0.5878
  292TMC3    C6 4456   3.178   1.216   0.061  0.0843 -0.0704 -0.7596
  292TMC3     C 4457   3.261   1.552  17.559 -0.1905 -0.5422  0.1407
  292TMC3     O 4458   3.181   1.641  17.588 -0.6502  0.5001  0.4567
  292TMC3     H 4459   3.172   1.556   0.071 -0.3762  0.3901 -1.7096
  292TMC3    H1 4460   3.296   1.303  17.496 -1.3136 -3.6548 -0.4044
  292TMC3    H2 4461   3.156   1.131   0.123  0.7665  0.2611 -0.0645
  292TMC3    C7 4462   3.218   1.081  17.615 -0.9714  0.2039  0.2328
  292TMC3    C8 4463   3.098   1.371   0.223 -0.3917  0.5743 -0.4143
  292TMC3    O1 4464   3.311   1.033  17.556 -0.0617  0.3877 -0.2510
  292TMC3    O2 4465   3.027   1.471   0.227  0.5584 -0.1254 -0.3478
  293MPD2     C 4466   4.462   2.696  12.763  0.2805 -0.1795 -0.9656
  293MPD2    C1 4467   4.441   2.595  12.845  0.1604  0.4817 -0.4784
  293MPD2    C2 4468   4.521   2.590  12.960 -0.0228 -0.0871 -0.2317
  293MPD2    C3 4469   4.632   2.682  12.978  0.1422  0.2256 -0.1295
  293MPD2    C4 4470   4.651   2.782  12.890  0.2606 -0.1390  0.7189
  293MPD2    C5 4471   4.564   2.784  12.784  0.3291  0.3481 -0.0663
  293MPD2     H 4472   4.524   2.502  13.024  0.2166 -1.0588 -1.5889
  293MPD2    H1 4473   4.721   2.865  12.894 -0.3186  0.4352 -1.0303
  293MPD2    H2 4474   4.406   2.702  12.670 -1.4354  0.9078  0.1467
  293MPD2    H3 4475   4.589   2.862  12.712 -0.9877  1.4351  0.6518
  293MPD2     N 4476   4.714   2.657  13.095  0.1104  0.6010 -0.1124
  293MPD2    H5 4477   4.693   2.575  13.151 -0.3274  0.1420 -0.9506
  293MPD2    N1 4478   4.340   2.504  12.819  0.7583  0.5277 -0.0735
  293MPD2    H7 4479   4.290   2.533  12.736  1.5887  2.4552  0.0802
  294TMC3    C1 4480   4.221   2.279  12.812 -0.5437  0.7463  0.6139
  294TMC3    C2 4481   4.246   2.142  12.821  0.6677  0.0667  1.2536
  294TMC3    C3 4482   4.185   2.055  12.737  0.2252  0.1200 -0.3067
  294TMC3    C4 4483   4.152   2.329  12.703 -0.4232 -0.1213 -0.4200
  294TMC3    C5 4484   4.096   2.228  12.618  0.1835 -0.0876 -0.1660
  294TMC3    C6 4485   4.105   2.095  12.633  0.4260 -0.9750 -0.4462
  294TMC3     C 4486   4.323   2.373  12.872  0.0910 -0.3271 -0.3133
  294TMC3     O 4487   4.386   2.311  12.953  0.1884 -0.3021 -0.0165
  294TMC3     H 4488   4.300   2.097  12.903  1.7980  1.1786  1.1056
  294TMC3    H1 4489   4.132   2.432  12.677  0.3142  0.0550 -0.2835
  294TMC3    H2 4490   4.061   2.017  12.571  1.8836 -2.4868  0.4285
  294TMC3    C7 4491   4.017   2.274  12.510 -0.0149 -0.0133 -0.2043
  294TMC3    C8 4492   4.231   1.912  12.754 -0.9162 -0.5510 -0.5029
  294TMC3    O1 4493   4.012   2.208  12.406 -0.2758 -0.4330 -0.0144
  294TMC3    O2 4494   4.301   1.884  12.851 -0.9033  0.4189 -0.1499
  295MPD2     C 4495   0.621   1.925   1.199 -0.3066 -0.1721  0.4673
  295MPD2    C1 4496   0.515   1.845   1.163  0.7094  0.1742 -0.3324
  295MPD2    C2 4497   0.482   1.741   1.243  0.3426 -0.3975 -0.6487
  295MPD2    C3 4498   0.558   1.697   1.353  0.4030  1.1177  0.3832
  295MPD2    C4 4499   0.662   1.779   1.395 -0.0094  0.3962  0.1759
  295MPD2    C5 4500   0.684   1.894   1.320  0.3361 -0.0069  0.2297
  295MPD2     H 4501   0.410   1.673   1.199 -0.0872  0.0432 -0.6275
  295MPD2    H1 4502   0.715   1.750   1.485 -0.8455  0.6139  0.7341
  295MPD2    H2 4503   0.656   2.004   1.134 -1.3304 -1.2736 -1.4280
  295MPD2    H3 4504   0.770   1.952   1.353  1.1172 -1.1549  0.1852
  295MPD2     N 4505   0.550   1.576   1.430  0.3693 -1.0098  0.2036
  295MPD2    H5 4506   0.592   1.571   1.522  0.2606 -1.5691  0.2257
  295MPD2    N1 4507   0.443   1.864   1.040 -0.6036 -0.3670  0.6713
  295MPD2    H7 4508   0.358   1.811   1.026 -0.8504 -0.4276  2.3411
  296TMC3    C1 4509   0.450   1.365   1.487 -0.3415  0.0342  0.0486
  296TMC3    C2 4510   0.568   1.312   1.539 -0.1620  0.4668  0.1002
  296TMC3    C3 4511   0.555   1.216   1.634 -0.0385 -0.4101  0.5006
  296TMC3    C4 4512   0.326   1.314   1.525 -0.1882  0.3227  0.8482
  296TMC3    C5 4513   0.323   1.203   1.610  0.5453  0.1176 -0.2844
  296TMC3    C6 4514   0.434   1.153   1.665  0.5998  0.5022 -0.5713
  296TMC3     C 4515   0.459   1.475   1.396 -0.4381 -0.2242 -0.0938
  296TMC3     O 4516   0.376   1.470   1.307  0.0606 -0.1399 -0.5500
  296TMC3     H 4517   0.666   1.343   1.504  0.0298 -0.2051  0.0598
  296TMC3    H1 4518   0.235   1.360   1.489 -0.5767 -0.6264  0.6246
  296TMC3    H2 4519   0.431   1.071   1.735 -1.2421 -1.7576 -3.2871
  296TMC3    C7 4520   0.191   1.154   1.656  0.9989 -0.3972 -0.9614
  296TMC3    C8 4521   0.681   1.146   1.684 -0.4665  0.7432 -0.4864
  296TMC3    O1 4522   0.092   1.227   1.647 -0.8024  0.0141  0.1210
  296TMC3    O2 4523   0.661   1.056   1.766  0.1783 -0.3157 -0.2625
  297MPD2     C 4524   2.807   3.044  16.677 -0.2323  1.1086 -0.7050
  297MPD2    C1 4525   2.782   3.108  16.564 -0.0823 -0.3355  0.5366
  297MPD2    C2 4526   2.891   3.175  16.498  0.2492 -0.3883 -0.1885
  297MPD2    C3 4527   3.019   3.171  16.552 -0.1620 -0.3240 -0.1739
  297MPD2    C4 4528   3.041   3.098  16.668 -0.4131  0.8008  0.4447
  297MPD2    C5 4529   2.936   3.031  16.721  0.6696  0.1504 -0.4886
  297MPD2     H 4530   2.872   3.223  16.403 -3.2821 -0.3906  0.5270
  297MPD2    H1 4531   3.142   3.083  16.704  0.2723 -0.6772 -2.0574
  297MPD2    H2 4532   2.741   2.983  16.737 -0.5998  2.2081  0.0033
  297MPD2    H3 4533   2.951   2.962  16.804 -2.2720 -0.4455 -0.4324
  297MPD2     N 4534   3.129   3.237  16.496  0.1298 -0.1951  0.3849
  297MPD2    H5 4535   3.212   3.247  16.553  0.3308 -0.5919  0.1623
  297MPD2    N1 4536   2.648   3.125  16.513 -0.0113  0.7434 -0.4431
  297MPD2    H7 4537   2.641   3.187  16.433 -0.1641  1.7654  0.3549
  298TMC3    C1 4538   2.418   3.101  16.497  0.2377  0.2408  0.8379
  298TMC3    C2 4539   2.426   3.125  16.363 -0.1225 -0.0565  0.3233
  298TMC3    C3 4540   2.305   3.150  16.305  0.5170 -0.4813  0.4262
  298TMC3    C4 4541   2.306   3.104  16.578  0.4165  0.6412 -0.6495
  298TMC3    C5 4542   2.191   3.123  16.510  0.6225 -0.0806 -0.5499
  298TMC3    C6 4543   2.187   3.156  16.376  0.7607  0.0565  0.3159
  298TMC3     C 4544   2.537   3.070  16.573  0.0650 -0.3944 -0.0048
  298TMC3     O 4545   2.510   3.007  16.674 -0.2346  0.1940 -0.5046
  298TMC3     H 4546   2.514   3.114  16.300 -0.4269  1.4866 -0.3814
  298TMC3    H1 4547   2.299   3.095  16.686 -0.4401  2.1006 -0.5750
  298TMC3    H2 4548   2.099   3.207  16.339 -1.1681 -0.3092  4.3868
  298TMC3    C7 4549   2.093   3.205  16.585 -1.0339 -0.0099 -0.2249
  298TMC3    C8 4550   2.300   3.184  16.158 -0.7918  0.1261  0.1045
  298TMC3    O1 4551   2.131   3.262  16.685 -0.5476 -0.1420 -0.0805
  298TMC3    O2 4552   2.408   3.185  16.098 -0.0443  0.1559  0.5680
  299MPD2     C 4553   2.682   2.712  10.709 -0.1500 -0.3883  0.4712
  299MPD2    C1 4554   2.712   2.824  10.636  0.2556  0.0378 -0.4442
  299MPD2    C2 4555   2.611   2.882  10.557 -0.1417 -0.5275 -0.7576
  299MPD2    C3 4556   2.488   2.819  10.548 -0.4437  0.1299 -0.2972
  299MPD2    C4 4557   2.471   2.697  10.610 -0.0720 -0.7632 -0.0044
  299MPD2    C5 4558   2.565   2.648  10.696  0.3837  0.6851 -0.3074
  299MPD2     H 4559   2.647   2.958  10.488 -4.2583  1.5694 -0.5619
  299MPD2    H1 4560   2.374   2.649  10.602 -0.2203 -0.2446 -1.3697
  299MPD2    H2 4561   2.759   2.670  10.773  0.5385  0.3492  0.1201
  299MPD2    H3 4562   2.543   2.560  10.755  0.4096  1.9091  1.5019
  299MPD2     N 4563   2.381   2.864  10.472  0.0869 -0.4077  0.0927
  299MPD2    H5 4564   2.292   2.816  10.473 -0.1465  0.0178 -3.0656
  299MPD2    N1 4565   2.840   2.880  10.659  0.3504  0.7609 -0.3322
  299MPD2    H7 4566   2.898   2.835  10.729 -1.7646 -2.3500 -0.5567
  300TMC3    C1 4567   2.254   3.000  10.335 -0.1060  0.1641 -0.0239
  300TMC3    C2 4568   2.258   3.084  10.232  0.8091 -0.4591 -0.1281
  300TMC3    C3 4569   2.143   3.128  10.174 -0.2054 -0.4636  0.3731
  300TMC3    C4 4570   2.137   2.954  10.387 -0.1061  0.0931 -0.6704
  300TMC3    C5 4571   2.026   2.983  10.317  0.3335  0.3691  0.0788
  300TMC3    C6 4572   2.024   3.073  10.215 -0.1524 -0.6424  0.3619
  300TMC3     C 4573   2.377   2.979  10.401  0.0218 -0.6265 -0.1571
  300TMC3     O 4574   2.473   3.047  10.357  0.0048  0.1272 -0.1135
  300TMC3     H 4575   2.347   3.137  10.204 -1.2179  2.9353 -0.1211
  300TMC3    H1 4576   2.136   2.890  10.475 -0.8621 -0.8314 -1.3548
  300TMC3    H2 4577   1.929   3.105  10.175 -0.0434 -0.8529 -0.0636
  300TMC3    C7 4578   1.897   2.944  10.359  0.0553 -0.0980 -0.1255
  300TMC3    C8 4579   2.136   3.274  10.166  0.2014  0.1091 -0.2339
  300TMC3    O1 4580   1.820   2.905  10.272 -0.6151  0.1422 -0.2161
  300TMC3    O2 4581   2.209   3.334  10.238 -0.4948 -0.1273  0.2687
  301MPD2     C 4582   0.630   4.157   1.719  0.2758 -0.5005  0.5563
  301MPD2    C1 4583   0.537   4.126   1.628  0.0963  0.3648  0.6886
  301MPD2    C2 4584   0.556   4.017   1.548  0.4589  0.0762  0.1278
  301MPD2    C3 4585   0.670   3.946   1.547 -0.0161 -0.3830  0.2985
  301MPD2    C4 4586   0.768   3.974   1.640  0.1422  0.3524  0.4492
  301MPD2    C5 4587   0.743   4.080   1.723  0.7556  0.4212 -0.2369
  301MPD2     H 4588   0.481   3.999   1.472  1.0215  1.1417 -0.6761
  301MPD2    H1 4589   0.862   3.920   1.651  0.1391  0.1180 -0.6454
  301MPD2    H2 4590   0.623   4.249   1.776  2.3189 -0.7305  1.1758
  301MPD2    H3 4591   0.815   4.109   1.799  0.7185  1.6095 -0.6487
  301MPD2     N 4592   0.690   3.844   1.458  0.0801 -0.2038 -0.6175
  301MPD2    H5 4593   0.780   3.800   1.471 -0.6730 -1.2836  0.9150
  301MPD2    N1 4594   0.422   4.204   1.604  0.1027  0.5391 -0.4165
  301MPD2    H7 4595   0.371   4.166   1.526  0.1903  1.9738 -1.1781
  302TMC3    C1 4596   0.641   3.695   1.281 -0.2184  0.5762  0.4350
  302TMC3    C2 4597   0.711   3.597   1.351  0.2920  0.1132  0.0417
  302TMC3    C3 4598   0.726   3.476   1.278 -0.7271 -0.2846 -0.0292
  302TMC3    C4 4599   0.569   3.668   1.167  0.1545  0.1354 -0.1042
  302TMC3    C5 4600   0.579   3.545   1.111 -0.5540 -0.0938 -0.0661
  302TMC3    C6 4601   0.657   3.446   1.163  0.0231 -0.8204  1.3691
  302TMC3     C 4602   0.614   3.822   1.344 -0.6052 -0.0624 -0.0404
  302TMC3     O 4603   0.533   3.905   1.298  0.0465  0.4060  0.3651
  302TMC3     H 4604   0.759   3.610   1.447  0.6888  0.3611 -0.1892
  302TMC3    H1 4605   0.524   3.756   1.122 -0.1870 -0.0763 -0.1742
  302TMC3    H2 4606   0.676   3.347   1.123  4.8539  0.8114 -0.3214
  302TMC3    C7 4607   0.521   3.541   0.980  0.1132  0.0736  0.0143
  302TMC3    C8 4608   0.832   3.390   1.325 -0.0671 -0.0986 -0.5562
  302TMC3    O1 4609   0.567   3.454   0.908  0.4646  0.4516 -0.6511
  302TMC3    O2 4610   0.826   3.273   1.282 -0.1315  0.4831 -0.3901
  303MPD2     C 4611   4.527   3.613  11.096 -0.2260  0.1598 -0.1745
  303MPD2    C1 4612   4.567   3.485  11.115 -0.1825  0.5411  0.0476
  303MPD2    C2 4613   4.657   3.431  11.026  0.0292 -0.0386  0.2703
  303MPD2    C3 4614   4.708   3.514  10.925 -0.1880 -0.5545  0.1664
  303MPD2    C4 4615   4.673   3.646  10.918 -0.0971 -0.1108  0.7197
  303MPD2    C5 4616   4.576   3.700  11.002  0.0925  0.5866 -0.4926
  303MPD2     H 4617   4.686   3.327  11.038 -1.5220 -0.6195 -1.1448
  303MPD2    H1 4618   4.708   3.699  10.830 -0.4813 -1.3152 -0.1609
  303MPD2    H2 4619   4.450   3.645  11.165  1.0576  0.5622  1.0725
  303MPD2    H3 4620   4.533   3.797  10.978  0.5440  1.4159  2.1181
  303MPD2     N 4621   0.069   3.474  10.825 -0.0017  0.0013  0.7978
  303MPD2    H5 4622   0.070   3.538  10.746 -2.1918  0.3461  1.0462
  303MPD2    N1 4623   4.522   3.416  11.234  0.5335 -0.0214  0.4278
  303MPD2    H7 4624   4.447   3.459  11.286 -0.1339 -1.0346  0.3177
  304TMC3    C1 4625   4.490   3.229  11.362 -0.3057  0.5946  0.0535
  304TMC3    C2 4626   4.362   3.224  11.322  0.0208 -0.2096  0.1491
  304TMC3    C3 4627   4.273   3.125  11.359 -0.5393 -0.2081 -0.0035
  304TMC3    C4 4628   4.536   3.123  11.434 -0.1963  0.4722  0.1739
  304TMC3    C5 4629   4.458   3.021  11.469 -0.7540  0.4288  0.1046
  304TMC3    C6 4630   4.325   3.024  11.438  1.3356 -0.5905 -0.0883
  304TMC3     C 4631   4.574   3.292  11.268  0.0627 -0.4045 -0.1054
  304TMC3     O 4632   4.680   3.238  11.244  0.1681  0.2221 -0.1419
  304TMC3     H 4633   4.321   3.289  11.246  2.6297  1.7900  0.4219
  304TMC3    H1 4634   4.641   3.115  11.458 -0.3176 -1.0452  0.2386
  304TMC3    H2 4635   4.270   2.932  11.449 -2.0802  1.1763 -2.1584
  304TMC3    C7 4636   4.517   2.891  11.427  0.4620 -0.6221 -0.1849
  304TMC3    C8 4637   4.224   3.056  11.241  0.6540  0.3480 -0.0312
  304TMC3    O1 4638   4.606   2.894  11.344  0.0436 -0.4523 -0.0802
  304TMC3    O2 4639   4.299   3.055  11.146 -0.1820 -0.2923  0.1137
  305MPD2     C 4640   3.286   4.521  13.902  0.1992  0.0048 -0.0535
  305MPD2    C1 4641   3.326   4.398  13.953 -0.1357 -0.9015  0.9233
  305MPD2    C2 4642   3.319   4.289  13.866 -0.4162  0.3840  0.2953
  305MPD2    C3 4643   3.282   4.311  13.732 -0.0707 -0.4152 -0.0731
  305MPD2    C4 4644   3.243   4.437  13.686  0.1188 -0.5916  0.3478
  305MPD2    C5 4645   3.247   4.536  13.773 -0.0258  0.1210  0.2000
  305MPD2     H 4646   3.361   4.194  13.896 -0.3022  0.3280 -0.0400
  305MPD2    H1 4647   3.205   4.458  13.587  0.7208 -1.8792 -0.1598
  305MPD2    H2 4648   3.297   4.607  13.967 -1.5521 -1.3924  2.0785
  305MPD2    H3 4649   3.225   4.638  13.743  2.3797  0.9729  1.3246
  305MPD2     N 4650   3.279   4.200  13.635  0.3603 -0.7744 -0.2562
  305MPD2    H5 4651   3.250   4.224  13.541 -0.9348  1.3933  0.6962
  305MPD2    N1 4652   3.376   4.398  14.085  0.3257 -0.1246 -0.3566
  305MPD2    H7 4653   3.357   4.478  14.144  5.0538  1.5743 -1.0873
  306TMC3    C1 4654   3.485   4.302  14.283 -0.0446  0.1037 -0.4678
  306TMC3    C2 4655   3.595   4.236  14.321  0.3292 -1.0058  0.5132
  306TMC3    C3 4656   3.640   4.266  14.450  0.1486 -0.4294  0.2481
  306TMC3    C4 4657   3.416   4.385  14.363  0.4308 -0.4214  0.4776
  306TMC3    C5 4658   3.462   4.409  14.487  0.2813 -0.3292  0.4170
  306TMC3    C6 4659   3.573   4.349  14.534 -0.8358  0.3182  0.0383
  306TMC3     C 4660   3.440   4.286  14.141  0.1648 -0.0008 -0.6567
  306TMC3     O 4661   3.500   4.199  14.081 -0.1894  0.5978 -0.4957
  306TMC3     H 4662   3.655   4.173  14.257  0.8352 -1.1517  1.1340
  306TMC3    H1 4663   3.328   4.437  14.326  1.5146  0.7278 -0.4962
  306TMC3    H2 4664   3.599   4.342  14.639  3.2191  0.0597 -0.9969
  306TMC3    C7 4665   3.382   4.491  14.583 -0.3263  0.3871 -0.4082
  306TMC3    C8 4666   3.748   4.185  14.512 -0.9217 -0.0018 -0.1577
  306TMC3    O1 4667   3.261   4.491  14.566 -0.3401 -0.1859  0.2083
  306TMC3    O2 4668   3.780   4.080  14.461 -0.0350  0.4017 -0.1808
  307MPD2     C 4669   1.596   3.195   0.324  0.7631 -0.2008 -0.0729
  307MPD2    C1 4670   1.524   3.307   0.375 -0.2561 -0.5104  0.1723
  307MPD2    C2 4671   1.456   3.282   0.489 -0.1400 -0.3195  0.2612
  307MPD2    C3 4672   1.443   3.153   0.540 -0.6456 -0.0658  0.3502
  307MPD2    C4 4673   1.494   3.044   0.480  0.0259  0.0350 -0.7650
  307MPD2    C5 4674   1.579   3.068   0.374  0.4352  0.0073 -0.6038
  307MPD2     H 4675   1.410   3.363   0.545  0.4993 -0.6847  1.3134
  307MPD2    H1 4676   1.467   2.942   0.505  0.5803 -0.5784 -2.6460
  307MPD2    H2 4677   1.672   3.217   0.249  0.3483 -0.2305 -0.5013
  307MPD2    H3 4678   1.620   2.980   0.327  1.2624  0.1482 -0.1339
  307MPD2     N 4679   1.356   3.149   0.648 -0.4067  0.5057  0.0787
  307MPD2    H5 4680   1.324   3.240   0.680  0.1361  1.4996 -2.2054
  307MPD2    N1 4681   1.528   3.441   0.329 -0.0671 -0.8636 -0.8913
  307MPD2    H7 4682   1.487   3.508   0.393  0.6109 -1.4625  0.1530
  308TMC3    C1 4683   1.017   3.033   0.941  0.7339 -0.0829 -0.1199
  308TMC3    C2 4684   1.025   3.161   0.995 -0.2607 -0.1109 -0.3165
  308TMC3    C3 4685   1.133   3.237   0.977  0.8496  0.6083  0.0630
  308TMC3    C4 4686   1.116   2.989   0.869  0.4898  1.0148 -0.2729
  308TMC3    C5 4687   1.226   3.066   0.838  0.0354  0.5026 -0.2269
  308TMC3    C6 4688   1.230   3.192   0.890  0.2792 -0.0691  0.7039
  308TMC3     C 4689   0.894   2.959   0.931 -0.3593  0.8816 -0.3192
  308TMC3     O 4690   0.903   2.837   0.923 -0.3813  0.4539  0.2655
  308TMC3     H 4691   0.950   3.185   1.071  0.2771 -2.1825  0.8555
  308TMC3    H1 4692   1.109   2.894   0.818 -3.0145  1.2217 -0.1363
  308TMC3    H2 4693   1.323   3.246   0.876  0.6074 -0.9483 -0.4422
  308TMC3    C7 4694   1.307   3.038   0.716 -0.5346  0.6911  0.1873
  308TMC3    C8 4695   1.153   3.369   1.032  0.5100 -0.0837  0.3919
  308TMC3    O1 4696   1.309   2.919   0.687 -0.3588 -0.4193  0.3027
  308TMC3    O2 4697   1.265   3.417   1.024 -0.8659  0.1441 -0.3971
  309MPD2     C 4698   0.830   3.019  17.309  0.4495  0.3160  0.6546
  309MPD2    C1 4699   0.753   2.998  17.197 -0.4044  0.0308  0.3304
  309MPD2    C2 4700   0.617   3.011  17.209 -0.1065  0.3672  0.8472
  309MPD2    C3 4701   0.556   3.055  17.329 -0.1137  0.2691 -0.0882
  309MPD2    C4 4702   0.630   3.071  17.434 -0.9257 -0.2027  0.2751
  309MPD2    C5 4703   0.770   3.056  17.423  0.2458 -0.1354 -0.3475
  309MPD2     H 4704   0.557   2.986  17.123  0.2329  1.6442  0.2328
  309MPD2    H1 4705   0.577   3.102  17.524 -0.5471 -2.1433  1.1741
  309MPD2    H2 4706   0.935   2.995  17.304  0.6741  1.5663 -0.4867
  309MPD2    H3 4707   0.832   3.062  17.512 -0.0598 -2.7035  0.0531
  309MPD2     N 4708   0.421   3.099  17.336 -0.9495  0.1499 -0.3415
  309MPD2    H5 4709   0.396   3.145  17.423 -0.2348  1.0493 -0.6194
  309MPD2    N1 4710   0.802   2.958  17.069 -0.0709  0.2265 -0.0228
  309MPD2    H7 4711   0.730   2.938  17.000  0.1268  0.4831 -0.3054
  310TMC3    C1 4712   0.957   2.920  16.889 -0.1532 -0.0644 -0.1828
  310TMC3    C2 4713   0.851   2.955  16.806 -0.6646  0.3075 -0.9775
  310TMC3    C3 4714   0.871   2.913  16.672 -0.7172  0.3646 -0.5369
  310TMC3    C4 4715   1.071   2.851  16.851 -0.1226  0.4224  0.0988
  310TMC3    C5 4716   1.081   2.821  16.713 -0.1320 -0.4909 -0.6273
  310TMC3    C6 4717   0.977   2.843  16.629  0.1899  0.3501 -0.2414
  310TMC3     C 4718   0.931   2.947  17.032 -0.4263 -0.0376  0.6648
  310TMC3     O 4719   1.030   2.970  17.094 -0.1971  0.2658  0.5455
  310TMC3     H 4720   0.754   2.993  16.836  0.6921  0.2393  3.3968
  310TMC3    H1 4721   1.133   2.808  16.928 -1.1427 -2.1226 -0.4927
  310TMC3    H2 4722   0.978   2.820  16.523 -1.4230 -0.9803  0.0314
  310TMC3    C7 4723   1.172   2.720  16.683  0.0916  0.9600  0.0519
  310TMC3    C8 4724   0.773   2.948  16.572 -0.6445 -0.7734 -0.0243
  310TMC3    O1 4725   1.156   2.654  16.581 -0.1564  0.2216 -0.0435
  310TMC3    O2 4726   0.757   2.884  16.472  0.3884  0.2207 -0.2265
  311MPD2     C 4727   2.587   4.325  12.290 -0.5686  0.4542  0.3179
  311MPD2    C1 4728   2.599   4.369  12.413 -0.1512  0.7825 -0.2630
  311MPD2    C2 4729   2.491   4.420  12.478 -0.0651  0.0059  0.0648
  311MPD2    C3 4730   2.362   4.420  12.431  0.8750 -0.1505 -0.2903
  311MPD2    C4 4731   2.344   4.372  12.304  0.0360 -0.9122  0.7739
  311MPD2    C5 4732   2.457   4.331  12.239  0.1291  0.2058 -0.0307
  311MPD2     H 4733   2.520   4.445  12.580 -3.1224 -0.0715  0.9540
  311MPD2    H1 4734   2.245   4.361  12.262 -0.2376 -0.0094  1.1746
  311MPD2    H2 4735   2.662   4.291  12.219 -0.8781 -0.4735  0.4333
  311MPD2    H3 4736   2.440   4.296  12.138 -2.6981  2.4937 -0.3684
  311MPD2     N 4737   2.256   4.450  12.523 -0.9243  0.1068 -0.0540
  311MPD2    H5 4738   2.276   4.460  12.622  1.3684  0.8099 -0.5763
  311MPD2    N1 4739   2.721   4.360  12.481 -0.0458 -0.6795 -0.5640
  311MPD2    H7 4740   2.733   4.425  12.558 -0.0932 -1.5873  0.2077
  312TMC3    C1 4741   2.042   4.444  12.616 -0.3805  0.2717 -0.3518
  312TMC3    C2 4742   1.945   4.354  12.609 -0.0993  0.8385  0.3618
  312TMC3    C3 4743   1.931   4.271  12.713  0.0307 -0.3890 -0.8057
  312TMC3    C4 4744   2.116   4.463  12.735  0.1837  0.8308  0.8338
  312TMC3    C5 4745   2.098   4.366  12.833 -0.0455  0.1715 -0.1029
  312TMC3    C6 4746   2.005   4.265  12.827 -0.2452  0.5261 -0.3591
  312TMC3     C 4747   2.121   4.451  12.498  0.5769 -0.2471  0.1350
  312TMC3     O 4748   2.050   4.463  12.398 -0.3448  0.3245  0.1030
  312TMC3     H 4749   1.899   4.340  12.512 -0.5132 -0.1357  0.7025
  312TMC3    H1 4750   2.177   4.552  12.746 -1.8302  2.0556  2.1617
  312TMC3    H2 4751   1.979   4.194  12.905 -2.5309  0.6860 -0.9723
  312TMC3    C7 4752   2.175   4.395  12.952 -0.1735  0.4497 -0.0434
  312TMC3    C8 4753   1.833   4.171  12.699 -0.4145  0.6377  0.2076
  312TMC3    O1 4754   2.212   4.512  12.965  0.5554 -0.0267 -0.4648
  312TMC3    O2 4755   1.854   4.066  12.755 -0.2032 -0.1176 -0.2590
  313MPD2     C 4756   1.281   3.508  11.358 -0.3390 -0.0545 -0.1917
  313MPD2    C1 4757   1.289   3.548  11.226 -0.1133 -0.0284  0.3998
  313MPD2    C2 4758   1.332   3.461  11.129  0.9821  0.0590 -0.2974
  313MPD2    C3 4759   1.351   3.327  11.159  0.4101 -0.3167 -0.5623
  313MPD2    C4 4760   1.322   3.283  11.282 -0.2774 -0.5348 -0.2845
  313MPD2    C5 4761   1.288   3.373  11.380  0.8926  0.3982 -0.1438
  313MPD2     H 4762   1.348   3.490  11.026 -1.1437  2.9456  0.1762
  313MPD2    H1 4763   1.339   3.182  11.316 -0.8364 -0.3933  0.4370
  313MPD2    H2 4764   1.250   3.569  11.442 -1.2445  0.4635 -0.9072
  313MPD2    H3 4765   1.289   3.342  11.484  2.1752  0.3653 -0.1699
  313MPD2     N 4766   1.397   3.234  11.060  0.3502  0.3780 -0.7126
  313MPD2    H5 4767   1.423   3.272  10.970  0.8994 -2.6173 -1.8201
  313MPD2    N1 4768   1.281   3.683  11.191 -0.1820  0.3119 -0.2266
  313MPD2    H7 4769   1.299   3.710  11.095 -1.1476 -0.7547 -0.6997
  314TMC3    C1 4770   1.250   3.918  11.224 -0.0935  0.0773  0.0044
  314TMC3    C2 4771   1.364   3.991  11.234 -0.5452  0.1244 -0.0942
  314TMC3    C3 4772   1.402   4.080  11.137  0.0049 -0.2717 -0.0627
  314TMC3    C4 4773   1.171   3.932  11.114  0.4980  0.3188 -1.1290
  314TMC3    C5 4774   1.203   4.031  11.025  0.1187  0.6765  0.6577
  314TMC3    C6 4775   1.322   4.099  11.029 -0.0130 -0.4759 -0.1814
  314TMC3     C 4776   1.266   3.786  11.281  0.2578  0.4860 -0.1772
  314TMC3     O 4777   1.277   3.800  11.404 -0.1675 -0.0322 -0.1998
  314TMC3     H 4778   1.431   3.962  11.314 -1.1150 -1.4554 -0.1875
  314TMC3    H1 4779   1.079   3.876  11.104  0.6377 -0.2637  0.9190
  314TMC3    H2 4780   1.362   4.154  10.944 -1.9640 -0.1504 -0.8852
  314TMC3    C7 4781   1.119   4.040  10.908  0.1834  0.3869 -0.1205
  314TMC3    C8 4782   1.530   4.154  11.147 -0.7802  0.1582  0.1219
  314TMC3    O1 4783   0.996   4.043  10.930 -0.1021 -0.1572  0.1260
  314TMC3    O2 4784   1.561   4.218  11.050  0.1903  0.2752  0.2110
  315MPD2     C 4785   1.753   3.682   0.589 -0.5200 -0.1198 -0.1667
  315MPD2    C1 4786   1.862   3.624   0.531 -0.1743 -0.3526  0.0428
  315MPD2    C2 4787   1.970   3.709   0.495 -0.3333  0.5947  0.8530
  315MPD2    C3 4788   1.955   3.844   0.479  0.0320  0.5304  0.6707
  315MPD2    C4 4789   1.838   3.901   0.530 -0.2122 -0.3763 -0.0099
  315MPD2    C5 4790   1.741   3.817   0.572  0.7213 -0.9329  0.0753
  315MPD2     H 4791   2.067   3.669   0.472 -0.6802 -2.2408  4.2198
  315MPD2    H1 4792   1.820   4.007   0.535  0.5667 -0.2848  0.7334
  315MPD2    H2 4793   1.666   3.634   0.632 -0.7686  0.5242  0.0366
  315MPD2    H3 4794   1.648   3.854   0.614  1.0648 -0.7015  0.6186
  315MPD2     N 4795   2.050   3.911   0.407 -0.9449  0.0113  0.3288
  315MPD2    H5 4796   2.117   3.849   0.362 -0.2486  1.7475 -1.0202
  315MPD2    N1 4797   1.885   3.487   0.536 -0.0798 -0.6036  0.2111
  315MPD2    H7 4798   1.967   3.449   0.490  0.6278  0.0546  0.9258
  316TMC3    C1 4799   2.119   4.039   0.238  0.0338 -0.4855 -0.4800
  316TMC3    C2 4800   2.221   3.948   0.206 -0.1349 -1.1956  0.1643
  316TMC3    C3 4801   2.268   3.937   0.075 -0.3241 -0.5776 -0.4618
  316TMC3    C4 4802   2.076   4.118   0.143  0.3686 -0.0631  0.1341
  316TMC3    C5 4803   2.128   4.105   0.015  0.1766 -0.5640  0.2315
  316TMC3    C6 4804   2.232   4.024  17.727  0.0520 -0.2855 -0.3541
  316TMC3     C 4805   2.032   4.030   0.359 -0.1073 -0.0324  0.3841
  316TMC3     O 4806   1.959   4.125   0.386 -0.5054  0.1810  0.5236
  316TMC3     H 4807   2.265   3.886   0.283  3.0088 -0.7793 -1.2812
  316TMC3    H1 4808   1.990   4.183   0.157  1.2113  1.0318  0.2308
  316TMC3    H2 4809   2.275   4.016  17.627 -0.6877  3.3716 -0.9620
  316TMC3    C7 4810   2.066   4.175  17.649 -0.1905  0.8817  0.1776
  316TMC3    C8 4811   2.391   3.873   0.053  0.3009 -0.1462  0.8982
  316TMC3    O1 4812   1.993   4.274  17.671 -0.1845  0.2852 -0.0933
  316TMC3    O2 4813   2.483   3.935  17.736 -0.3332 -0.2178  0.0317
  317MPD2     C 4814   3.566   1.506  13.116 -1.2362 -0.0564  0.3949
  317MPD2    C1 4815   3.571   1.373  13.079  0.2002  0.4707 -0.0096
  317MPD2    C2 4816   3.640   1.286  13.158  0.1214  0.0452 -0.7559
  317MPD2    C3 4817   3.706   1.324  13.276 -0.3516  0.4965  0.5852
  317MPD2    C4 4818   3.701   1.461  13.310 -0.0558  0.5858  0.3801
  317MPD2    C5 4819   3.633   1.544  13.227  0.1765  0.7261 -0.0431
  317MPD2     H 4820   3.629   1.179  13.143 -1.2739  0.0801 -0.0061
  317MPD2    H1 4821   3.743   1.511  13.397 -0.1747  2.3722 -0.5945
  317MPD2    H2 4822   3.532   1.586  13.051  1.2999 -1.2134 -2.3792
  317MPD2    H3 4823   3.638   1.651  13.243  0.1215  0.5708  1.0053
  317MPD2     N 4824   3.768   1.225  13.348 -0.6577  0.4803 -0.1420
  317MPD2    H5 4825   3.771   1.133  13.305  0.2571  0.0006  0.9532
  317MPD2    N1 4826   3.535   1.322  12.951  0.1402  0.2215  0.6793
  317MPD2    H7 4827   3.573   1.231  12.929 -2.4296 -0.4411 -0.9266
  318TMC3    C1 4828   3.873   1.111  13.521  0.0555 -0.1924  0.2118
  318TMC3    C2 4829   3.809   0.996  13.488  0.0034  0.3198 -0.3002
  318TMC3    C3 4830   3.847   0.878  13.552 -0.6611 -0.3716 -0.2054
  318TMC3    C4 4831   3.978   1.117  13.605 -0.6355 -0.1619  0.3797
  318TMC3    C5 4832   4.012   0.998  13.672 -0.2845  0.4118 -0.4228
  318TMC3    C6 4833   3.947   0.878  13.643 -0.1602  0.4073  0.3034
  318TMC3     C 4834   3.823   1.237  13.478  0.9466  0.0824 -0.0084
  318TMC3     O 4835   3.852   1.333  13.545 -0.1784 -0.1754  0.7470
  318TMC3     H 4836   3.718   0.997  13.428  0.9307  0.6221 -1.7108
  318TMC3    H1 4837   4.009   1.211  13.650 -1.3948  0.7730 -1.0593
  318TMC3    H2 4838   3.955   0.796  13.714  0.1720 -0.2615 -0.5127
  318TMC3    C7 4839   4.133   0.998  13.754 -0.0150 -0.1548 -0.2527
  318TMC3    C8 4840   3.808   0.749  13.503 -0.0001  0.0599 -0.2285
  318TMC3    O1 4841   4.186   1.102  13.789  0.4778  0.2980 -0.0854
  318TMC3    O2 4842   3.822   0.649  13.572  0.1945 -0.0336  0.4275
  319MPD2     C 4843   0.186   2.063  16.803 -0.2277  0.1809  0.1605
  319MPD2    C1 4844   0.139   2.177  16.748  0.2912 -0.0595  1.0213
  319MPD2    C2 4845   0.036   2.177  16.660  0.1548  0.6459  0.0313
  319MPD2    C3 4846   4.704   2.060  16.629 -0.5277  0.5196  0.4387
  319MPD2    C4 4847   0.016   1.951  16.694  0.5073 -0.1432  0.5115
  319MPD2    C5 4848   0.122   1.950  16.778  0.1686  0.5765 -0.1828
  319MPD2     H 4849   0.012   2.270  16.611 -2.6133 -0.2644 -0.3668
  319MPD2    H1 4850   4.709   1.853  16.673  0.3161 -0.1302  0.8378
  319MPD2    H2 4851   0.268   2.062  16.874 -1.1462  0.3353  1.2268
  319MPD2    H3 4852   0.154   1.857  16.824 -1.4026 -0.3082 -0.8536
  319MPD2     N 4853   4.614   2.049  16.519 -0.1932 -0.0477 -0.3040
  319MPD2    H5 4854   4.555   1.966  16.527  0.7524 -0.6173  0.6125
  319MPD2    N1 4855   0.202   2.301  16.763  0.3860 -0.6877  0.4859
  319MPD2    H7 4856   0.148   2.372  16.714  2.6182  0.2126 -0.6753
  320TMC3    C1 4857   4.468   2.117  16.341  0.0952  0.5473 -0.2996
  320TMC3    C2 4858   4.388   2.213  16.288  0.1966 -0.0651  0.0194
  320TMC3    C3 4859   4.308   2.184  16.189  0.1998  0.7161  0.6946
  320TMC3    C4 4860   4.472   1.987  16.298 -0.1270  0.0008  0.0993
  320TMC3    C5 4861   4.392   1.959  16.194 -0.3570 -0.8782  0.9900
  320TMC3    C6 4862   4.311   2.058  16.131 -0.3969 -0.1248 -0.2539
  320TMC3     C 4863   4.567   2.152  16.441 -0.1719  0.4948  0.4605
  320TMC3     O 4864   4.593   2.270  16.442  0.7097 -0.1706 -0.2967
  320TMC3     H 4865   4.369   2.306  16.341  0.6083 -0.5356  0.9950
  320TMC3    H1 4866   4.536   1.911  16.343 -2.0833 -1.6291  0.1658
  320TMC3    H2 4867   4.246   2.030  16.050 -1.1250  0.6834  0.0529
  320TMC3    C7 4868   4.371   1.825  16.153  0.4327  0.0486 -0.5230
  320TMC3    C8 4869   4.221   2.284  16.140 -0.2907 -0.1893  0.5310
  320TMC3    O1 4870   4.316   1.808  16.044  0.0470 -0.4977 -0.0471
  320TMC3    O2 4871   4.213   2.393  16.192  0.0586 -0.2657  0.2251
  321TMC3    C1 4872   0.351   2.466  16.838  0.3792 -0.2538  0.1917
  321TMC3    C2 4873   0.241   2.542  16.873  0.4150 -0.5024 -0.4691
  321TMC3    C3 4874   0.260   2.670  16.907 -0.0761 -0.5665  0.0893
  321TMC3    C4 4875   0.475   2.515  16.826  0.2963 -0.6361 -0.0396
  321TMC3    C5 4876   0.491   2.646  16.857 -0.1213 -0.3418 -0.1573
  321TMC3    C6 4877   0.385   2.726  16.896  0.2275  0.3280  0.3850
  321TMC3     C 4878   0.330   2.324  16.819  1.0588  0.0497 -0.4348
  321TMC3     O 4879   0.418   2.244  16.856  0.4856  0.3842  0.1105
  321TMC3     H 4880   0.140   2.503  16.887 -0.2207  1.2407 -0.2110
  321TMC3    H1 4881   0.556   2.443  16.821 -0.8268 -1.8014 -1.5463
  321TMC3    H2 4882   0.399   2.828  16.929 -0.0256  0.2587  0.7047
  321TMC3    C7 4883   0.604   2.674  16.949  0.2580  0.1286 -0.2660
  321TMC3    C8 4884   0.200   2.695  17.030  0.2582 -0.0405 -0.2438
  321TMC3    O1 4885   0.568   2.744  17.044 -0.2878 -0.7334  0.6843
  321TMC3    O2 4886   0.083   2.665  17.052  0.1643 -0.4675 -0.4055
  322MPD2     C 4887   3.357   3.574  13.578  0.2241 -0.2916 -0.2933
  322MPD2    C1 4888   3.444   3.554  13.678 -0.1914 -0.2074 -0.5357
  322MPD2    C2 4889   3.545   3.466  13.668  0.1709 -0.3698 -0.0705
  322MPD2    C3 4890   3.558   3.378  13.564  0.1584 -0.1401 -0.0987
  322MPD2    C4 4891   3.458   3.391  13.462  0.2215 -0.6016  1.0240
  322MPD2    C5 4892   3.373   3.495  13.465  0.3154 -0.2374  0.3227
  322MPD2     H 4893   3.622   3.464  13.744  1.0845  0.3249 -0.9819
  322MPD2    H1 4894   3.455   3.314  13.387 -1.6150  1.3525 -0.9008
  322MPD2    H2 4895   3.280   3.650  13.576  0.9307  0.4153 -1.0471
  322MPD2    H3 4896   3.313   3.508  13.376  2.4005 -0.0251 -1.0466
  322MPD2     N 4897   3.656   3.282  13.568  0.3460 -0.7840 -0.2811
  322MPD2    H5 4898   3.704   3.282  13.657  2.5581 -0.1082 -1.4709
  322MPD2    N1 4899   3.440   3.629  13.799 -0.2372  0.3776 -0.0019
  322MPD2    H7 4900   3.379   3.710  13.788 -0.1432  0.8101  2.5988
  323TMC3    C1 4901   3.475   3.695  14.023  0.4585 -0.0221 -0.1349
  323TMC3    C2 4902   3.514   3.819  13.986  0.7578  0.4815  0.0285
  323TMC3    C3 4903   3.564   3.907  14.080 -0.4456  0.1044 -0.1115
  323TMC3    C4 4904   3.483   3.646  14.150  0.7623  0.5572 -0.2268
  323TMC3    C5 4905   3.534   3.733  14.244 -0.3425 -0.4598 -0.5007
  323TMC3    C6 4906   3.567   3.862  14.212  0.5506  0.2172 -0.2462
  323TMC3     C 4907   3.504   3.599  13.916 -0.5196 -0.0130 -0.2039
  323TMC3     O 4908   3.542   3.490  13.956 -0.1310  0.0789  0.4932
  323TMC3     H 4909   3.519   3.850  13.882  0.1892 -2.2373 -0.7872
  323TMC3    H1 4910   3.452   3.544  14.171  1.0901  0.4968 -0.0374
  323TMC3    H2 4911   3.624   3.922  14.282 -2.1236  0.4179  1.7365
  323TMC3    C7 4912   3.596   3.666  14.353  0.2923 -0.2113 -0.1734
  323TMC3    C8 4913   3.684   3.977  14.041  0.2944 -0.4864 -0.4627
  323TMC3    O1 4914   3.612   3.543  14.343  0.4352  0.2113  0.3165
  323TMC3    O2 4915   3.782   3.975  14.113 -0.1695 -0.1928  0.3364
  324MPD2     C 4916   0.157   0.075  14.421 -0.1964  0.6104  0.1372
  324MPD2    C1 4917   0.195   0.209  14.418 -0.2549  0.1679 -0.2961
  324MPD2    C2 4918   0.094   0.302  14.390 -0.5698  0.9818  0.2154
  324MPD2    C3 4919   4.697   0.268  14.370  0.7355  0.0469  0.3310
  324MPD2    C4 4920   4.665   0.140  14.397 -0.0797 -0.4779 -0.3852
  324MPD2    C5 4921   0.023   0.042  14.421  0.2959  0.8326 -0.6830
  324MPD2     H 4922   0.129   0.403  14.373 -0.2185  0.7058 -0.7221
  324MPD2    H1 4923   4.562   0.110  14.408 -0.1230 -0.1364  0.1547
  324MPD2    H2 4924   0.228   4.730  14.440 -0.6169  0.3059  0.4231
  324MPD2    H3 4925   0.004   4.672  14.440 -0.8528  1.3816  1.3083
  324MPD2     N 4926   4.591   0.352  14.320  0.4883  0.2762 -0.0183
  324MPD2    H5 4927   4.503   0.302  14.309  0.9023  0.2246 -3.1621
  324MPD2    N1 4928   0.335   0.252  14.417  0.2667 -0.1969  0.0993
  324MPD2    H7 4929   0.356   0.348  14.394 -2.5093 -0.1542 -2.3944
  325TMC3    C1 4930   4.472   0.540  14.255 -0.4009  0.0881 -0.0310
  325TMC3    C2 4931   4.373   0.450  14.209 -0.7342  0.2072 -0.4896
  325TMC3    C3 4932   4.240   0.492  14.218 -0.5896 -0.2303 -0.0474
  325TMC3    C4 4933   4.443   0.657  14.309  0.1582 -0.6359 -0.3907
  325TMC3    C5 4934   4.314   0.697  14.311  0.0238 -0.3193  0.2978
  325TMC3    C6 4935   4.213   0.617  14.268 -0.2879  0.4382  0.0836
  325TMC3     C 4936   4.600   0.485  14.299 -0.8043  0.4360 -0.0922
  325TMC3     O 4937   4.694   0.558  14.329  0.2038 -0.6780  0.4002
  325TMC3     H 4938   4.403   0.361  14.156 -0.2332 -1.2063  2.1471
  325TMC3    H1 4939   4.515   0.720  14.361  1.7294 -0.1754 -3.1420
  325TMC3    H2 4940   4.111   0.647  14.291 -0.4615  0.4356 -0.6758
  325TMC3    C7 4941   4.287   0.774  14.423  0.1604 -0.3673 -0.6039
  325TMC3    C8 4942   4.133   0.424  14.141  0.0560 -0.3132  0.2117
  325TMC3    O1 4943   4.361   0.874  14.433  0.1751 -0.5930  0.2286
  325TMC3    O2 4944   4.023   0.477  14.143  0.4381 -0.3827 -0.2921
  326MPD2     C 4945   1.519   1.381  11.004 -0.5153 -0.5665  1.0879
  326MPD2    C1 4946   1.555   1.481  10.912 -0.8555 -0.1397  0.2361
  326MPD2    C2 4947   1.694   1.503  10.901  0.6518 -0.1110 -0.0244
  326MPD2    C3 4948   1.795   1.429  10.963  0.3669 -0.4215 -0.2964
  326MPD2    C4 4949   1.755   1.324  11.041 -0.5870 -0.2077 -0.0163
  326MPD2    C5 4950   1.615   1.302  11.056 -0.4360 -0.7972  0.2759
  326MPD2     H 4951   1.718   1.588  10.840 -1.6650  0.2028 -0.5075
  326MPD2    H1 4952   1.821   1.252  11.088 -0.7771 -1.6293 -1.9423
  326MPD2    H2 4953   1.416   1.351  11.019 -0.8970  0.9988  1.5797
  326MPD2    H3 4954   1.583   1.217  11.115  2.2951 -1.8244  0.3018
  326MPD2     N 4955   1.933   1.444  10.930 -0.5330  0.0091 -0.1665
  326MPD2    H5 4956   2.007   1.380  10.957 -0.4796 -0.4222 -1.3410
  326MPD2    N1 4957   1.462   1.542  10.821 -0.2673 -0.3966 -0.2418
  326MPD2    H7 4958   1.488   1.604  10.745 -0.1789 -1.3863 -1.0224
  327TMC3    C1 4959   1.249   1.563  10.707 -0.5395  0.2965  0.1216
  327TMC3    C2 4960   1.113   1.582  10.722  0.3728  0.1629  0.2427
  327TMC3    C3 4961   1.039   1.578  10.604 -0.6415 -0.0815  0.2496
  327TMC3    C4 4962   1.307   1.530  10.583 -0.0514 -0.2975  0.1977
  327TMC3    C5 4963   1.221   1.496  10.476  0.0612 -0.0896 -0.3548
  327TMC3    C6 4964   1.089   1.540  10.479  0.0440 -0.4275 -0.1292
  327TMC3     C 4965   1.322   1.522  10.827 -0.8690  0.7874 -0.4020
  327TMC3     O 4966   1.256   1.483  10.919  0.5358 -0.1864 -0.2730
  327TMC3     H 4967   1.083   1.604  10.824 -0.8599  3.1851 -0.7725
  327TMC3    H1 4968   1.414   1.519  10.574  0.2183  0.3552  2.4809
  327TMC3    H2 4969   1.018   1.537  10.397  2.1011 -2.6065 -1.8132
  327TMC3    C7 4970   1.225   1.351  10.456 -0.0917 -0.4359  0.2130
  327TMC3    C8 4971   0.921   1.664  10.598 -0.0578  0.1483  0.3297
  327TMC3    O1 4972   1.132   1.302  10.393  0.0290  0.0844 -0.4022
  327TMC3    O2 4973   0.909   1.743  10.505 -0.0887 -0.3232 -0.3397
  328MPD2     C 4974   4.550   1.265  17.027  0.2418 -0.3157 -0.3453
  328MPD2    C1 4975   4.456   1.165  17.007  0.5253 -0.0082 -0.0945
  328MPD2    C2 4976   4.374   1.170  16.898  0.2920 -0.0787  0.7808
  328MPD2    C3 4977   4.397   1.277  16.804  0.4986  0.1647 -0.2159
  328MPD2    C4 4978   4.495   1.369  16.825 -0.2062  0.5097 -0.1695
  328MPD2    C5 4979   4.564   1.365  16.937 -0.2628  0.7836 -0.6399
  328MPD2     H 4980   4.293   1.101  16.875 -0.5383  1.5616 -1.2116
  328MPD2    H1 4981   4.523   1.442  16.750 -1.8880 -0.0037 -1.3105
  328MPD2    H2 4982   4.612   1.272  17.115  1.0319 -1.6879 -0.7935
  328MPD2    H3 4983   4.634   1.441  16.970  1.7588 -0.5961 -1.7086
  328MPD2     N 4984   4.331   1.295  16.682  0.1854  0.1796  0.5609
  328MPD2    H5 4985   4.366   1.365  16.617 -0.1921 -0.9220 -0.8300
  328MPD2    N1 4986   4.450   1.058  17.101 -0.8592  0.5086 -0.1239
  328MPD2    H7 4987   4.485   1.069  17.195 -1.4794 -0.7353  0.2600
  329TMC3    C1 4988   4.357   0.873  17.218  0.1132  0.0826  0.5271
  329TMC3    C2 4989   4.397   0.935  17.330 -0.6509  0.4737  0.3592
  329TMC3    C3 4990   4.363   0.875  17.449 -0.2726 -1.0064 -0.2842
  329TMC3    C4 4991   4.312   0.745  17.217  0.1428  0.9762 -0.2098
  329TMC3    C5 4992   4.306   0.685  17.339 -0.0357 -0.4267  0.1317
  329TMC3    C6 4993   4.321   0.746  17.463 -0.2401 -0.2024  0.4017
  329TMC3     C 4994   4.382   0.941  17.085 -0.3981  0.0364  0.1290
  329TMC3     O 4995   4.337   0.889  16.984  0.2046  0.3349  0.4416
  329TMC3     H 4996   4.455   1.026  17.332 -0.5150  0.3470  2.2052
  329TMC3    H1 4997   4.305   0.698  17.120 -0.0486  0.4752  0.0459
  329TMC3    H2 4998   4.312   0.697  17.559 -1.8605  0.6444  0.6802
  329TMC3    C7 4999   4.271   0.543  17.346  0.0624  0.2940 -0.3289
  329TMC3    C8 5000   4.399   0.951  17.566  0.8596 -0.6091  0.0319
  329TMC3    O1 5001   4.249   0.499  17.457  0.4262 -0.3570 -0.1167
  329TMC3    O2 5002   4.431   0.883  17.664  0.2097 -0.0012  0.3243
  330TMC3    C1 5003   1.394   0.563   9.368  0.0169 -0.4927  0.3498
  330TMC3    C2 5004   1.317   0.480   9.294  0.0023  0.2553  0.8822
  330TMC3    C3 5005   1.321   0.349   9.317 -0.3969  0.0922 -0.2176
  330TMC3    C4 5006   1.492   0.514   9.445  0.1700  0.9575  0.0750
  330TMC3    C5 5007   1.498   0.376   9.463 -0.0654  0.2963 -0.3779
  330TMC3    C6 5008   1.409   0.294   9.400  0.1745  0.4100 -0.0592
  330TMC3     C 5009   1.377   0.709   9.365 -0.0958 -0.6037 -0.0262
  330TMC3     O 5010   1.473   0.787   9.373  0.1109 -0.2536  0.4636
  330TMC3     H 5011   1.239   0.514   9.227 -0.0450  0.5840  1.1057
  330TMC3    H1 5012   1.554   0.584   9.501 -0.7250  1.0186  0.9865
  330TMC3    H2 5013   1.413   0.188   9.421 -2.1230  0.4059  0.3760
  330TMC3    C7 5014   1.559   0.318   9.586  0.4308  0.0816 -0.1997
  330TMC3    C8 5015   1.214   0.264   9.258 -0.3520  0.2832 -0.0186
  330TMC3    O1 5016   1.507   0.223   9.635 -0.0721  0.4345 -0.0752
  330TMC3    O2 5017   1.163   0.300   9.156 -0.5732 -0.1058 -0.2636
  331MPD2     C 5018   0.394   4.053  13.413 -0.5735  0.2370  0.3753
  331MPD2    C1 5019   0.324   4.075  13.295  0.0386  0.2386 -0.3521
  331MPD2    C2 5020   0.301   3.975  13.207 -0.1006 -0.2178 -0.5221
  331MPD2    C3 5021   0.344   3.843  13.231 -0.3605 -0.6528 -0.0892
  331MPD2    C4 5022   0.406   3.820  13.353 -0.1348 -0.0351 -0.4767
  331MPD2    C5 5023   0.429   3.921  13.447 -0.0203  0.7717  0.3649
  331MPD2     H 5024   0.244   3.986  13.115  1.2037  1.8846 -1.0854
  331MPD2    H1 5025   0.442   3.721  13.378 -3.5225 -1.3656 -0.8545
  331MPD2    H2 5026   0.406   4.139  13.477 -1.3205  0.6853 -0.0906
  331MPD2    H3 5027   0.482   3.899  13.538 -1.5070 -0.3610  0.9592
  331MPD2     N 5028   0.311   3.739  13.141  0.1604  0.3175 -0.2858
  331MPD2    H5 5029   0.257   3.761  13.058 -0.6495 -0.7792 -0.0609
  331MPD2    N1 5030   0.281   4.202  13.253  0.0947  0.5656  0.4569
  331MPD2    H7 5031   0.222   4.203  13.171 -0.8009 -1.0542  1.0853
  332TMC3    C1 5032   0.286   3.531  13.037  0.5024 -0.2335 -0.2117
  332TMC3    C2 5033   0.192   3.577  12.949 -0.7133 -0.2720 -0.6650
  332TMC3    C3 5034   0.154   3.500  12.841  0.1553  0.0068  1.1760
  332TMC3    C4 5035   0.342   3.410  13.014  0.1794 -0.0337 -0.3081
  332TMC3    C5 5036   0.302   3.336  12.907 -0.2426  0.4695 -1.1979
  332TMC3    C6 5037   0.210   3.379  12.815  0.8876 -0.2872 -0.4424
  332TMC3     C 5038   0.335   3.605  13.154 -0.4485 -0.3354  0.4191
  332TMC3     O 5039   0.386   3.540  13.240 -0.2512  0.0174  0.2881
  332TMC3     H 5040   0.136   3.667  12.969 -1.2068 -0.5058 -0.9793
  332TMC3    H1 5041   0.404   3.360  13.088  1.2602  1.9167  0.0908
  332TMC3    H2 5042   0.202   3.330  12.719  1.4624  0.9233 -1.1054
  332TMC3    C7 5043   0.388   3.231  12.866  0.1930  0.7388 -0.0599
  332TMC3    C8 5044   0.107   3.563  12.715 -0.1979 -0.5271 -0.0447
  332TMC3    O1 5045   0.350   3.113  12.867 -0.4275  0.2180  0.2660
  332TMC3    O2 5046   0.036   3.498  12.645  0.3480 -0.1192  0.3082
  333MPD2     C 5047   4.508   4.432  11.285  0.2751 -0.1231 -0.4701
  333MPD2    C1 5048   4.606   4.349  11.236  0.1268  0.8939 -0.6394
  333MPD2    C2 5049   4.632   4.232  11.306  0.0972 -0.2823 -0.2205
  333MPD2    C3 5050   4.558   4.198  11.419  0.1129  0.2406 -0.2251
  333MPD2    C4 5051   4.456   4.280  11.459 -0.1775 -0.3279 -0.6062
  333MPD2    C5 5052   4.429   4.390  11.389 -0.2355  0.4350  0.0836
  333MPD2     H 5053   4.706   4.158  11.275  0.2679 -0.6433  1.0767
  333MPD2    H1 5054   4.403   4.252  11.550  3.1033 -0.9167  1.1355
  333MPD2    H2 5055   4.481   4.521  11.230 -1.4093 -1.4949 -1.8690
  333MPD2    H3 5056   4.352   4.450  11.435 -1.0848 -2.5473  2.5039
  333MPD2     N 5057   4.601   4.080  11.497  0.3950 -0.3684  0.4588
  333MPD2    H5 5058   4.688   4.038  11.466 -0.6373 -2.1813  0.0094
  333MPD2    N1 5059   4.675   4.396  11.115 -0.4270 -0.1301  0.5527
  333MPD2    H7 5060   4.648   4.490  11.088  1.1596  0.4248  0.8943
  334TMC3    C1 5061   0.114   4.398  10.958  0.4562 -0.0996 -0.4237
  334TMC3    C2 5062   0.227   4.342  10.903 -0.7936 -0.2308 -0.4025
  334TMC3    C3 5063   0.319   4.423  10.853  0.2639  0.4806 -0.1391
  334TMC3    C4 5064   0.088   4.533  10.935 -0.3622  0.7197 -0.7525
  334TMC3    C5 5065   0.173   4.606  10.862 -0.7014  0.4295 -0.0318
  334TMC3    C6 5066   0.291   4.555  10.829 -0.2635 -0.2625  0.8089
  334TMC3     C 5067   0.039   4.320  11.059 -0.1517 -0.2471  0.1494
  334TMC3     O 5068   0.082   4.209  11.085 -0.1282  0.3293 -0.9840
  334TMC3     H 5069   0.243   4.236  10.919  1.3973  0.0271 -0.8910
  334TMC3    H1 5070   0.004   4.589  10.975  0.8916  3.0763 -1.4855
  334TMC3    H2 5071   0.365   4.618  10.783 -1.5315  1.2517  0.8447
  334TMC3    C7 5072   0.146   0.010  10.823 -0.3688 -0.2154  0.2428
  334TMC3    C8 5073   0.420   4.362  10.768 -0.0971  0.5799 -0.4362
  334TMC3    O1 5074   0.071   0.087  10.884 -0.0247 -0.2213 -0.9802
  334TMC3    O2 5075   0.390   4.246  10.752  0.2505  0.1541  0.5914
  335TMC3    C1 5076   0.186   1.317  17.470 -0.0479 -0.4826  0.0925
  335TMC3    C2 5077   0.105   1.215  17.421 -0.2675  0.1194 -0.0821
  335TMC3    C3 5078   0.141   1.166  17.299 -0.3760 -0.0137 -0.4815
  335TMC3    C4 5079   0.300   1.363  17.406 -0.1676 -0.0991  0.1931
  335TMC3    C5 5080   0.349   1.277  17.314  0.5334 -0.5563  0.5627
  335TMC3    C6 5081   0.272   1.179  17.260 -0.3812 -1.0107 -0.3211
  335TMC3     C 5082   0.132   1.396  17.578 -0.6322 -0.1204 -0.3532
  335TMC3     O 5083   0.018   1.373  17.611  0.1949  0.3293  0.0521
  335TMC3     H 5084   0.007   1.203  17.465 -0.7003 -0.8977 -1.3172
  335TMC3    H1 5085   0.356   1.450  17.440  0.8927 -1.2553  1.3997
  335TMC3    H2 5086   0.311   1.123  17.176 -0.9918 -1.4045 -0.3373
  335TMC3    C7 5087   0.485   1.293  17.257 -0.3788 -0.4422  0.1716
  335TMC3    C8 5088   0.060   1.062  17.239  0.7089 -0.7085 -0.0741
  335TMC3    O1 5089   0.502   1.239  17.144  0.6057  0.3158  0.2033
  335TMC3    O2 5090   4.706   1.008  17.303  0.0400  0.0370  0.2510
  336MPD2     C 5091   4.642   3.692  16.263 -0.5989  0.6925  0.5693
  336MPD2    C1 5092   4.601   3.604  16.166  0.3643 -0.7887 -0.2479
  336MPD2    C2 5093   4.643   3.478  16.166  0.2226 -0.2807  0.2611
  336MPD2    C3 5094   4.723   3.419  16.266  0.0196  0.1079 -0.5979
  336MPD2    C4 5095   0.025   3.509  16.367  0.5061  0.2254 -0.6225
  336MPD2    C5 5096   4.725   3.642  16.363  0.0314 -0.1936 -0.2281
  336MPD2     H 5097   4.608   3.405  16.094 -0.8692  1.6475 -1.1564
  336MPD2    H1 5098   0.079   3.466  16.450  0.6744  3.2269  0.8189
  336MPD2    H2 5099   4.629   3.799  16.251 -1.3763  0.3332 -1.6661
  336MPD2    H3 5100   0.034   3.714  16.432  1.9323 -0.7198 -0.9155
  336MPD2     N 5101   0.010   3.281  16.288  0.5390  0.2323 -0.2970
  336MPD2    H5 5102   0.060   3.259  16.374  0.8388 -0.5948 -0.6805
  336MPD2    N1 5103   4.512   3.643  16.061  0.1188  0.4784  0.8482
  336MPD2    H7 5104   4.488   3.569  15.996 -0.4012  0.6480  0.8449
  337TMC3    C1 5105   4.379   3.777  15.923  0.1655 -0.1145  0.3963
  337TMC3    C2 5106   4.323   3.667  15.861  0.4721  0.0771  0.2902
  337TMC3    C3 5107   4.264   3.691  15.736  0.2528  0.5984  0.3017
  337TMC3    C4 5108   4.365   3.912  15.879 -0.0346  0.0535  0.2709
  337TMC3    C5 5109   4.294   3.928  15.762 -0.5548  0.2324  0.2479
  337TMC3    C6 5110   4.257   3.821  15.683  0.0211  0.3544  0.5026
  337TMC3     C 5111   4.447   3.760  16.054 -0.2430  0.0686  0.1124
  337TMC3     O 5112   4.438   3.859  16.129 -0.2350 -0.4074 -0.1882
  337TMC3     H 5113   4.344   3.569  15.901  1.8562 -0.6231 -2.0902
  337TMC3    H1 5114   4.411   3.986  15.943 -0.0969 -0.7724  1.2700
  337TMC3    H2 5115   4.199   3.842  15.594 -1.3778 -1.2388  1.0353
  337TMC3    C7 5116   4.286   4.065  15.705 -0.2364  0.0928 -0.2457
  337TMC3    C8 5117   4.203   3.581  15.673  1.1019  0.2822  0.7696
  337TMC3    O1 5118   4.209   4.084  15.612 -0.2429  0.0443  0.0055
  337TMC3    O2 5119   4.218   3.475  15.732  0.2459 -0.3295 -0.0875
  338MPD2     C 5120   4.394   3.456   0.947 -0.0357  0.2511  0.1200
  338MPD2    C1 5121   4.407   3.424   0.812  0.2177 -0.3524 -0.0453
  338MPD2    C2 5122   4.288   3.402   0.749  0.7178  0.3859 -0.4790
  338MPD2    C3 5123   4.162   3.387   0.814 -0.4971  0.3757  0.4216
  338MPD2    C4 5124   4.153   3.412   0.946  0.4345 -0.2339  0.0613
  338MPD2    C5 5125   4.266   3.446   1.008 -0.6635  0.2317  0.4519
  338MPD2     H 5126   4.280   3.407   0.641 -0.5719 -0.6912 -0.4365
  338MPD2    H1 5127   4.056   3.416   0.995  0.5558 -0.9297  0.3736
  338MPD2    H2 5128   4.481   3.503   0.992 -0.6663 -0.8717  2.4733
  338MPD2    H3 5129   4.253   3.480   1.111 -0.0409 -0.9565  0.9247
  338MPD2     N 5130   4.045   3.357   0.732  0.1095 -0.0009 -0.1867
  338MPD2    H5 5131   4.065   3.352   0.633  0.2161 -0.8687 -0.1235
  338MPD2    N1 5132   4.531   3.422   0.746 -0.1027 -0.4281 -0.3262
  338MPD2    H7 5133   4.523   3.397   0.648 -1.4524  0.4287 -0.4308
  339TMC3    C1 5134   3.866   3.256   0.650  0.8266  0.2601 -0.1339
  339TMC3    C2 5135   3.872   3.119   0.636 -0.1434  0.5202  0.5729
  339TMC3    C3 5136   3.927   3.069   0.521  0.4095 -0.0793  0.6394
  339TMC3    C4 5137   3.909   3.339   0.555 -0.2172  0.2365  0.2799
  339TMC3    C5 5138   3.965   3.286   0.438 -0.8626 -0.3455 -0.1335
  339TMC3    C6 5139   3.970   3.149   0.417  0.1053 -0.0339 -0.3212
  339TMC3     C 5140   3.929   3.306   0.771 -0.6519 -0.1998 -0.7550
  339TMC3     O 5141   3.914   3.246   0.874  0.1457 -0.6644  0.0770
  339TMC3     H 5142   3.820   3.055   0.706 -0.8763  0.3019 -0.1734
  339TMC3    H1 5143   3.896   3.446   0.557  0.2149  0.2627  1.8344
  339TMC3    H2 5144   4.037   3.113   0.340 -0.9994  1.0231 -1.7835
  339TMC3    C7 5145   4.089   3.349   0.396  0.2962 -0.1668 -0.8511
  339TMC3    C8 5146   4.006   2.947   0.523 -0.2642  0.2533  0.3367
  339TMC3    O1 5147   4.114   3.450   0.461 -0.6145 -0.0390  0.7104
  339TMC3    O2 5148   4.038   2.892   0.418  0.3758 -0.8572  0.3473
  340MPD2     C 5149   4.694   1.042  10.563  0.3600  0.2300 -0.1293
  340MPD2    C1 5150   0.066   1.049  10.475 -0.0090 -0.1124 -0.1017
  340MPD2    C2 5151   0.169   1.132  10.502  0.0772 -0.4035  0.0268
  340MPD2    C3 5152   0.168   1.216  10.621 -0.2174  0.5821 -0.1359
  340MPD2    C4 5153   0.056   1.210  10.702 -0.1689 -0.0846  0.0212
  340MPD2    C5 5154   4.692   1.120  10.675  0.5875  0.0122 -0.5263
  340MPD2     H 5155   0.250   1.159  10.435 -1.7001 -1.5159 -2.5580
  340MPD2    H1 5156   0.054   1.270  10.792 -2.0165  0.1307 -0.1561
  340MPD2    H2 5157   4.604   0.983  10.546  1.5765 -0.9108 -2.6269
  340MPD2    H3 5158   4.599   1.120  10.731  0.1083 -1.1887 -1.3190
  340MPD2     N 5159   0.279   1.300  10.640 -0.2717 -0.0733 -0.3339
  340MPD2    H5 5160   0.347   1.299  10.565  1.5870  1.4955  1.3106
  340MPD2    N1 5161   0.058   0.977  10.351  0.0878  0.2693  0.3587
  340MPD2    H7 5162   4.706   0.930  10.332  0.0542  0.2548  0.5570
  341TMC3    C1 5163   0.105   0.891  10.147  0.2341  0.3695  0.1978
  341TMC3    C2 5164   0.062   0.767  10.191 -0.1648  0.4367 -0.3607
  341TMC3    C3 5165   0.082   0.667  10.104  0.3962 -0.1250  0.0504
  341TMC3    C4 5166   0.147   0.920  10.023  0.3183 -0.1354  0.3034
  341TMC3    C5 5167   0.177   0.815   9.946  0.0200 -0.1624 -0.3412
  341TMC3    C6 5168   0.142   0.688   9.982 -0.1551  0.1935  0.5166
  341TMC3     C 5169   0.140   0.986  10.242  0.4709 -0.8513  0.1504
  341TMC3     O 5170   0.231   1.060  10.223  0.2374 -0.1759 -0.1178
  341TMC3     H 5171   0.037   0.744  10.295  0.4233 -1.6430 -0.6818
  341TMC3    H1 5172   0.184   1.018   9.993  2.0803 -0.7647  0.3849
  341TMC3    H2 5173   0.173   0.609   9.913 -1.7221  0.5424 -0.5658
  341TMC3    C7 5174   0.221   0.833   9.804 -0.6133 -0.4348 -0.5467
  341TMC3    C8 5175   0.026   0.540  10.132 -0.0695 -0.8703 -0.4852
  341TMC3    O1 5176   0.291   0.750   9.747  0.0778  0.1889  0.0799
  341TMC3    O2 5177   4.670   0.529  10.216 -0.3528 -0.1864 -0.3162
  342MPD2     C 5178   2.798   4.403  17.301  1.5760 -0.2979  0.3461
  342MPD2    C1 5179   2.922   4.392  17.245 -0.7997  0.0803 -0.4894
  342MPD2    C2 5180   2.982   4.513  17.200 -0.4652  0.3307 -0.0524
  342MPD2    C3 5181   2.927   4.638  17.229 -0.3999  0.2574  0.6622
  342MPD2    C4 5182   2.808   4.644  17.299 -0.4260  0.3883 -0.5715
  342MPD2    C5 5183   2.740   4.527  17.329  0.5710 -0.3721  0.4653
  342MPD2     H 5184   3.074   4.503  17.144 -1.0047 -1.2141 -0.6594
  342MPD2    H1 5185   2.771   4.735  17.345  0.7521 -1.0794  3.2974
  342MPD2    H2 5186   2.731   4.322  17.330  0.6737  0.4557  0.3674
  342MPD2    H3 5187   2.640   4.527  17.371  0.4316 -0.3384  0.1344
  342MPD2     N 5188   2.985   0.030  17.187  0.0612 -0.2401 -0.4777
  342MPD2    H5 5189   2.926   0.112  17.201 -0.6514 -0.8858  0.3032
  342MPD2    N1 5190   2.987   4.273  17.205  0.3718  0.3424 -0.0664
  342MPD2    H7 5191   3.080   4.275  17.164  0.4514  0.8794  0.1471
  343TMC3    C1 5192   2.998   4.042  17.160  0.5198 -0.0324  0.8315
  343TMC3    C2 5193   3.094   4.051  17.062  0.2344 -0.1266 -0.1918
  343TMC3    C3 5194   3.135   3.945  16.991 -0.1650  0.2160  0.1009
  343TMC3    C4 5195   2.926   3.927  17.165  0.2141  0.0076 -0.0199
  343TMC3    C5 5196   2.962   3.825  17.077  0.0776  0.3909  0.4243
  343TMC3    C6 5197   3.068   3.830  16.989  0.5026 -0.6343 -0.0012
  343TMC3     C 5198   2.938   4.147  17.240 -1.0733  0.8126  0.3780
  343TMC3     O 5199   2.870   4.115  17.338  0.9344  0.2188 -0.0013
  343TMC3     H 5200   3.140   4.148  17.044  0.4025 -0.2351 -0.3398
  343TMC3    H1 5201   2.830   3.926  17.216 -0.7734 -1.0195 -1.9337
  343TMC3    H2 5202   3.096   3.739  16.936  1.6111 -0.9373  1.0787
  343TMC3    C7 5203   2.861   3.715  17.062  0.3846  0.5230 -0.3944
  343TMC3    C8 5204   3.277   3.949  16.959 -0.1210  0.5420 -1.1677
  343TMC3    O1 5205   2.784   3.705  17.156 -0.3828 -0.0050 -0.4029
  343TMC3    O2 5206   3.335   4.051  16.984 -0.1289 -0.2940 -0.1285
  344MPD2     C 5207   3.063   3.577  10.850 -0.1466  0.2056  0.0161
  344MPD2    C1 5208   3.124   3.531  10.731  0.4759 -0.6175  0.2449
  344MPD2    C2 5209   3.189   3.622  10.650 -0.6521  0.1753 -0.7043
  344MPD2    C3 5210   3.208   3.755  10.695 -0.9758  0.9226  0.0392
  344MPD2    C4 5211   3.143   3.794  10.810 -0.6735 -0.2389 -0.6969
  344MPD2    C5 5212   3.075   3.705  10.886 -0.6789  0.1325  0.3947
  344MPD2     H 5213   3.219   3.593  10.550  1.5108 -0.4032  0.1082
  344MPD2    H1 5214   3.160   3.895  10.846  0.2995 -1.0198  1.0466
  344MPD2    H2 5215   3.011   3.513  10.920  0.5117 -1.3400 -0.9047
  344MPD2    H3 5216   3.036   3.730  10.984  2.1020  0.9946  1.2792
  344MPD2     N 5217   3.282   3.854  10.620  0.2218  0.2119 -0.5731
  344MPD2    H5 5218   3.282   3.948  10.659 -1.4774 -0.5519  1.2773
  344MPD2    N1 5219   3.120   3.399  10.690  0.5884  0.6390  0.6131
  344MPD2    H7 5220   3.136   3.370  10.594  0.7492  0.7267  0.6128
  345TMC3    C1 5221   3.406   3.946  10.454 -0.9566  0.0388 -0.4998
  345TMC3    C2 5222   3.486   4.002  10.542 -0.2550  0.1096  0.5954
  345TMC3    C3 5223   3.558   4.107  10.489 -0.8610 -0.2003 -0.3835
  345TMC3    C4 5224   3.367   3.990  10.334  0.4419  0.4596  0.2636
  345TMC3    C5 5225   3.438   4.095  10.276  0.3711 -0.4863 -1.0021
  345TMC3    C6 5226   3.527   4.157  10.362 -0.0372  0.2160  0.2164
  345TMC3     C 5227   3.328   3.833  10.493  0.2281  0.3199  0.0416
  345TMC3     O 5228   3.313   3.743  10.411  0.1718  0.1364 -0.2529
  345TMC3     H 5229   3.514   3.947  10.631  2.0726 -1.3567 -1.0328
  345TMC3    H1 5230   3.281   3.949  10.283 -0.6599  0.0877  2.4021
  345TMC3    H2 5231   3.575   4.248  10.329  0.8581 -0.0832  0.6805
  345TMC3    C7 5232   3.402   4.167  10.156 -1.4473  1.0616  0.1648
  345TMC3    C8 5233   3.630   4.196  10.573  0.2398 -0.1936  0.2717
  345TMC3    O1 5234   3.489   4.243  10.115  0.0322  0.5603 -0.2911
  345TMC3    O2 5235   3.692   4.282  10.510  0.2967  0.3141 -0.2206
  346MPD2     C 5236   3.304   0.221  14.478  0.0437  0.6626  0.6709
  346MPD2    C1 5237   3.407   0.312  14.459 -0.3300 -0.5560 -0.1891
  346MPD2    C2 5238   3.469   0.356  14.570  0.6520 -0.3143 -0.7844
  346MPD2    C3 5239   3.433   0.322  14.699  0.6261 -0.2805  0.4956
  346MPD2    C4 5240   3.325   0.243  14.720 -0.4544 -0.3462 -0.4616
  346MPD2    C5 5241   3.266   0.189  14.605  0.5992  0.3018  0.0357
  346MPD2     H 5242   3.548   0.429  14.555 -0.2808  1.2087  1.6451
  346MPD2    H1 5243   3.291   0.204  14.815 -0.6476 -1.9116 -1.1689
  346MPD2    H2 5244   3.259   0.175  14.391  0.9055  0.2009  0.4734
  346MPD2    H3 5245   3.179   0.128  14.625  0.5058  1.1132  2.1629
  346MPD2     N 5246   3.514   0.383  14.802 -0.3881  0.7449 -0.5492
  346MPD2    H5 5247   3.612   0.397  14.781 -0.3107  0.1883 -0.5581
  346MPD2    N1 5248   3.456   0.356  14.328 -0.4884 -0.6462  0.6215
  346MPD2    H7 5249   3.525   0.430  14.321 -0.2000 -1.2068 -2.3380
  347TMC3    C1 5250   3.606   0.425  15.009  0.2660 -0.1139  0.1890
  347TMC3    C2 5251   3.684   0.527  14.968  0.1075  0.0038  0.1093
  347TMC3    C3 5252   3.762   0.603  15.054  0.5673  0.2987 -0.9541
  347TMC3    C4 5253   3.598   0.397  15.144 -0.1278 -0.2488 -0.4653
  347TMC3    C5 5254   3.688   0.469  15.229 -0.3491  0.5713  0.0254
  347TMC3    C6 5255   3.774   0.561  15.183  0.2947 -0.0421  0.3043
  347TMC3     C 5256   3.485   0.388  14.934  0.7359 -0.3239 -0.5181
  347TMC3     O 5257   3.379   0.364  14.985 -0.1069  0.0485 -0.7201
  347TMC3     H 5258   3.682   0.552  14.863 -0.0147 -0.5778 -0.0291
  347TMC3    H1 5259   3.530   0.324  15.187  0.0930 -0.8579 -1.1505
  347TMC3    H2 5260   3.834   0.612  15.257  0.8424 -1.5048  0.8599
  347TMC3    C7 5261   3.711   0.415  15.362  0.2377 -0.0802  0.3888
  347TMC3    C8 5262   3.836   0.711  15.003 -0.6600 -0.0588  0.3716
  347TMC3    O1 5263   3.621   0.340  15.400  0.3869  0.6236 -0.1775
  347TMC3    O2 5264   3.824   0.811  15.072 -0.4961 -0.5581 -0.5144
  348MPD2     C 5265   2.299   0.037  11.830  0.4897 -0.6949 -0.3903
  348MPD2    C1 5266   2.402   0.091  11.746  0.3285 -0.2258 -0.2939
  348MPD2    C2 5267   2.362   0.163  11.637 -0.1720 -0.1035 -0.7405
  348MPD2    C3 5268   2.227   0.180  11.605 -0.0844  0.8259  0.5235
  348MPD2    C4 5269   2.129   0.119  11.678  0.1889 -0.5681 -0.1754
  348MPD2    C5 5270   2.169   0.056  11.793 -0.1359 -0.2646 -0.5550
  348MPD2     H 5271   2.432   0.202  11.564  0.2598 -0.8119 -0.7070
  348MPD2    H1 5272   2.026   0.137  11.649  0.0258  0.0761  0.7889
  348MPD2    H2 5273   2.330   4.728  11.924  1.0783  1.1640  0.3119
  348MPD2    H3 5274   2.092   0.011  11.855 -0.6863 -0.2755 -1.2446
  348MPD2     N 5275   2.205   0.251  11.478 -0.1749  0.4509 -0.1317
  348MPD2    H5 5276   2.286   0.281  11.424 -1.8759  0.0526 -2.9146
  348MPD2    N1 5277   2.538   0.065  11.766  0.0678 -0.0809 -0.6388
  348MPD2    H7 5278   2.596   0.076  11.684  0.7742 -0.4894 -0.1916
  349TMC3    C1 5279   2.719   4.667  11.835  0.1536  0.3656 -0.2404
  349TMC3    C2 5280   2.723   4.545  11.896  0.6148  0.7471  0.2119
  349TMC3    C3 5281   2.758   4.431  11.830  0.5422  0.1220  0.1319
  349TMC3    C4 5282   2.738   4.674  11.700  0.6697 -0.0613 -0.3696
  349TMC3    C5 5283   2.760   4.559  11.631  0.6162 -0.3006  0.5875
  349TMC3    C6 5284   2.774   4.439  11.696  1.2222 -0.4943  0.1950
  349TMC3     C 5285   2.599   0.005  11.876  0.7649  0.2120 -0.2264
  349TMC3     O 5286   2.542   4.680  11.964  0.3798  0.5371  0.0784
  349TMC3     H 5287   2.701   4.533  12.001 -2.0719 -2.6177 -0.7286
  349TMC3    H1 5288   2.741   0.031  11.645 -0.1502 -0.6870 -1.4718
  349TMC3    H2 5289   2.789   4.347  11.641  1.7797 -0.8578  0.9589
  349TMC3    C7 5290   2.662   4.543  11.524 -0.5299  0.0866  0.4659
  349TMC3    C8 5291   2.785   4.310  11.911  0.1331 -0.1126  0.0627
  349TMC3    O1 5292   2.580   4.459  11.546  0.2670  0.3467  0.6733
  349TMC3    O2 5293   2.795   4.338  12.026  0.4282 -0.2485  0.0765
  350MPD2     C 5294   1.708   3.239  10.137 -1.0785 -0.2181  0.9006
  350MPD2    C1 5295   1.582   3.180  10.118  0.6045 -0.0324 -0.6123
  350MPD2    C2 5296   1.525   3.126  10.234 -0.1993 -0.2929  0.6576
  350MPD2    C3 5297   1.584   3.145  10.360  0.2567  0.1207  0.2743
  350MPD2    C4 5298   1.693   3.225  10.378  0.3680 -0.5325 -0.5790
  350MPD2    C5 5299   1.759   3.265  10.261 -0.0339 -1.0760 -0.3848
  350MPD2     H 5300   1.441   3.059  10.222  0.3141 -1.5683  4.2551
  350MPD2    H1 5301   1.736   3.264  10.470 -1.8109 -1.0035  0.6447
  350MPD2    H2 5302   1.753   3.278  10.046 -3.4380 -0.0672 -0.1803
  350MPD2    H3 5303   1.859   3.306  10.255 -0.8975  1.0979 -0.0634
  350MPD2     N 5304   1.512   3.102  10.467 -0.0032  0.1061  0.1191
  350MPD2    H5 5305   1.429   3.047  10.446 -0.0942  0.9542 -1.7689
  350MPD2    N1 5306   1.515   3.164   9.994  0.1544  0.2723  0.7277
  350MPD2    H7 5307   1.423   3.121   9.995  0.6550 -0.8168  0.0913
  351TMC3    C1 5308   1.444   3.171   9.775 -0.1084 -0.6661  0.6532
  351TMC3    C2 5309   1.392   3.041   9.780 -0.3468  0.2745  0.3428
  351TMC3    C3 5310   1.308   3.011   9.677 -0.0096  0.0687  0.4888
  351TMC3    C4 5311   1.382   3.275   9.711  0.5492 -0.4649 -1.0215
  351TMC3    C5 5312   1.285   3.241   9.624 -0.4133  0.0183  0.1018
  351TMC3    C6 5313   1.250   3.109   9.594  0.0709 -0.5805 -0.1676
  351TMC3     C 5314   1.550   3.210   9.870 -0.4059  0.2637 -0.3389
  351TMC3     O 5315   1.650   3.269   9.831  0.3357  0.5341  0.3707
  351TMC3     H 5316   1.436   2.967   9.846 -3.1384 -1.3567  0.3837
  351TMC3    H1 5317   1.422   3.376   9.718  0.5586 -0.5186 -0.3054
  351TMC3    H2 5318   1.186   3.070   9.516  1.6881 -0.6305 -1.4630
  351TMC3    C7 5319   1.224   3.354   9.553  0.3009 -0.1871 -0.0590
  351TMC3    C8 5320   1.270   2.872   9.642  0.3766 -1.0965  0.0734
  351TMC3    O1 5321   1.283   3.463   9.542  0.6057 -0.1661 -0.0680
  351TMC3    O2 5322   1.169   2.849   9.577  0.3450 -0.5327 -0.1593
  352MPD2     C 5323   0.218   0.451   1.574 -0.0208 -0.1376  0.2802
  352MPD2    C1 5324   0.125   0.387   1.495 -0.1564  0.3011 -0.1370
  352MPD2    C2 5325   0.114   0.246   1.497 -0.0558 -0.3244 -0.5081
  352MPD2    C3 5326   0.206   0.172   1.570 -0.1380 -0.6859  0.1384
  352MPD2    C4 5327   0.306   0.238   1.633  0.5873  0.0348  0.0688
  352MPD2    C5 5328   0.317   0.376   1.633  0.0398  0.1707 -0.1332
  352MPD2     H 5329   0.045   0.201   1.426 -0.0214  2.3398 -2.2622
  352MPD2    H1 5330   0.377   0.183   1.694  0.3616  0.8788  1.1078
  352MPD2    H2 5331   0.233   0.558   1.571 -0.4545 -0.1059 -0.8212
  352MPD2    H3 5332   0.403   0.423   1.679  0.5275 -1.0586  0.2046
  352MPD2     N 5333   0.207   0.031   1.575 -0.2737 -0.4079 -0.0537
  352MPD2    H5 5334   0.294   4.722   1.601  0.1275  0.7848  0.6782
  352MPD2    N1 5335   0.041   0.465   1.424  0.8689  0.0763  0.3326
  352MPD2    H7 5336   0.045   0.562   1.455 -0.8657 -0.0778  1.0434
  353TMC3    C1 5337   0.152   4.544   1.522 -0.4131 -0.6341  0.8174
  353TMC3    C2 5338   0.241   4.489   1.604  0.4521 -0.3192 -0.2624
  353TMC3    C3 5339   0.253   4.356   1.621 -0.3529  0.1212 -0.1902
  353TMC3    C4 5340   0.091   4.464   1.434 -0.4876 -0.0680  0.2431
  353TMC3    C5 5341   0.104   4.326   1.444 -0.1392  0.3284 -0.1256
  353TMC3    C6 5342   0.181   4.265   1.542  0.3021 -0.0815  0.6806
  353TMC3     C 5343   0.109   4.684   1.532  0.6930  0.5838  0.0089
  353TMC3     O 5344   0.002   4.706   1.477 -0.5940  0.1482 -0.7976
  353TMC3     H 5345   0.286   4.551   1.681  0.4214 -0.8645  0.1941
  353TMC3    H1 5346   0.028   4.505   1.356 -0.2820  1.3323  0.8098
  353TMC3    H2 5347   0.186   4.157   1.555  0.6384 -0.4268 -2.3707
  353TMC3    C7 5348   0.012   4.249   1.363  0.0921 -0.1895  0.1075
  353TMC3    C8 5349   0.377   4.312   1.680 -0.6472 -0.1459 -0.6662
  353TMC3    O1 5350   0.042   4.137   1.321  0.1433 -0.4601  0.4057
  353TMC3    O2 5351   0.432   4.382   1.763 -0.1576  0.5235 -0.3240
  354TMC3    C1 5352   1.447   1.151  13.515  0.3801  0.3477  0.0368
  354TMC3    C2 5353   1.454   1.274  13.457 -0.8575 -0.1941  0.5602
  354TMC3    C3 5354   1.447   1.280  13.317  0.2318  0.1814 -0.6999
  354TMC3    C4 5355   1.413   1.039  13.448 -0.2280 -0.4735 -1.1804
  354TMC3    C5 5356   1.401   1.047  13.308  0.6697 -0.3388  0.2091
  354TMC3    C6 5357   1.412   1.168  13.244 -0.6659  0.5614 -0.5820
  354TMC3     C 5358   1.465   1.145  13.655  0.0290 -0.3050 -0.0986
  354TMC3     O 5359   1.427   1.046  13.716 -0.2219 -0.4722 -0.1338
  354TMC3     H 5360   1.468   1.368  13.509  1.4226  0.2562 -0.8779
  354TMC3    H1 5361   1.429   0.945  13.500 -1.6427 -0.5812 -0.9305
  354TMC3    H2 5362   1.387   1.177  13.139 -1.2490 -1.0711 -0.5940
  354TMC3    C7 5363   1.464   0.943  13.237  0.4192  0.0512 -0.4446
  354TMC3    C8 5364   1.453   1.404  13.240 -0.5269  0.4741  1.0724
  354TMC3    O1 5365   1.439   0.827  13.277 -0.4546  0.5629  0.0176
  354TMC3    O2 5366   1.478   1.385  13.122 -0.3677  0.1414 -0.0852
  355MPD2     C 5367   1.452   1.938  10.714 -0.0140 -0.4986 -0.1225
  355MPD2    C1 5368   1.581   1.975  10.694  0.3422 -0.3154 -0.1046
  355MPD2    C2 5369   1.669   1.928  10.785  0.4499 -0.1086  0.4048
  355MPD2    C3 5370   1.635   1.867  10.907 -0.0640 -0.4338 -0.4329
  355MPD2    C4 5371   1.502   1.846  10.927  0.0418  0.0301 -0.5246
  355MPD2    C5 5372   1.411   1.877  10.834 -0.0046  1.0931 -0.6769
  355MPD2     H 5373   1.773   1.958  10.772  0.4225 -0.3447 -0.3730
  355MPD2    H1 5374   1.476   1.787  11.014  0.1156 -0.4725 -0.8398
  355MPD2    H2 5375   1.373   1.969  10.646 -0.1883 -0.5324  0.0616
  355MPD2    H3 5376   1.306   1.856  10.851  0.3610 -1.3757 -1.4700
  355MPD2     N 5377   1.739   1.815  10.992 -0.4469 -0.3499  0.0895
  355MPD2    H5 5378   1.831   1.810  10.949 -0.5771 -1.0905 -0.1068
  355MPD2    N1 5379   1.611   2.056  10.583 -0.3162  0.9112 -0.2176
  355MPD2    H7 5380   1.527   2.107  10.555  0.5306  1.8696 -1.0124
  356TMC3    C1 5381   1.854   1.793  11.198 -0.1785  0.8559  0.6146
  356TMC3    C2 5382   1.968   1.851  11.144  0.1096  0.1079 -0.2043
  356TMC3    C3 5383   2.053   1.913  11.227 -0.6085  0.1133  0.0526
  356TMC3    C4 5384   1.837   1.799  11.332 -0.2048  0.3326  0.1751
  356TMC3    C5 5385   1.932   1.856  11.414  0.2063 -0.2105  0.2491
  356TMC3    C6 5386   2.036   1.925  11.364 -0.3908 -0.5026 -0.3504
  356TMC3     C 5387   1.733   1.770  11.120 -0.4565  0.0918  0.9453
  356TMC3     O 5388   1.634   1.741  11.188  0.1688  0.4650 -0.2262
  356TMC3     H 5389   1.991   1.831  11.040  1.7304 -1.2867  0.4248
  356TMC3    H1 5390   1.747   1.754  11.374  1.0953 -3.4418 -1.0254
  356TMC3    H2 5391   2.119   1.949  11.430 -0.7433  1.4509 -0.5927
  356TMC3    C7 5392   1.937   1.814  11.553 -0.7694  0.1230  0.8766
  356TMC3    C8 5393   2.153   1.992  11.167 -0.4036 -0.8151  0.1658
  356TMC3    O1 5394   1.870   1.717  11.586 -0.0836 -0.2064 -0.1234
  356TMC3    O2 5395   2.197   1.950  11.060 -0.1978  0.0391 -0.3835
  357MPD2     C 5396   1.352   2.376   0.491 -0.3927  0.1341 -0.5154
  357MPD2    C1 5397   1.463   2.371   0.570  0.6582  0.2605 -0.2147
  357MPD2    C2 5398   1.487   2.478   0.654 -0.0062 -0.2802  0.2357
  357MPD2    C3 5399   1.424   2.599   0.639  0.0269 -0.9492  0.3988
  357MPD2    C4 5400   1.320   2.608   0.548  0.5840  0.3151  0.2285
  357MPD2    C5 5401   1.291   2.500   0.471  0.4057  0.4015  0.2128
  357MPD2     H 5402   1.554   2.460   0.738  1.6783 -0.6258 -1.1805
  357MPD2    H1 5403   1.263   2.700   0.545  1.1747  0.6397 -1.2260
  357MPD2    H2 5404   1.323   2.295   0.425 -1.4354  1.7253 -1.9888
  357MPD2    H3 5405   1.202   2.501   0.410  1.2212  2.6317 -0.9403
  357MPD2     N 5406   1.447   2.708   0.728  0.1486  0.2605  0.6128
  357MPD2    H5 5407   1.397   2.796   0.717  1.8330  1.2700  0.9805
  357MPD2    N1 5408   1.523   2.249   0.576  0.3346  0.0522 -0.2629
  357MPD2    H7 5409   1.485   2.179   0.514  0.9744 -1.7177  1.3214
  358TMC3    C1 5410   1.635   2.087   0.707  0.7328  0.5669 -0.1861
  358TMC3    C2 5411   1.566   1.986   0.646 -0.1470 -0.6221 -1.1903
  358TMC3    C3 5412   1.576   1.859   0.694  0.1641 -0.1476 -0.1813
  358TMC3    C4 5413   1.741   2.066   0.791  0.0101 -0.1259  0.2489
  358TMC3    C5 5414   1.758   1.936   0.821 -0.1165  0.4612 -0.0989
  358TMC3    C6 5415   1.670   1.830   0.784 -0.2889  0.0103 -0.1552
  358TMC3     C 5416   1.635   2.223   0.652 -0.3717  0.3049 -0.5235
  358TMC3     O 5417   1.717   2.305   0.690  0.1253  0.0303  0.0904
  358TMC3     H 5418   1.490   2.012   0.573 -1.5150 -1.6852 -0.1579
  358TMC3    H1 5419   1.799   2.149   0.831 -1.5086  0.1869  1.8095
  358TMC3    H2 5420   1.658   1.743   0.849 -0.6273 -0.8150 -1.3256
  358TMC3    C7 5421   1.869   1.900   0.901  0.1988 -0.2418 -0.4019
  358TMC3    C8 5422   1.456   1.778   0.700  0.1565 -0.6364 -0.2239
  358TMC3    O1 5423   1.902   1.780   0.878 -0.2856  0.3387  0.2525
  358TMC3    O2 5424   1.346   1.837   0.696  1.0488 -0.4005 -0.1437
  359MPD2     C 5425   2.002   0.548  12.308  0.3950  0.0327  0.1744
  359MPD2    C1 5426   1.958   0.526  12.177 -0.0920  0.1634 -0.1977
  359MPD2    C2 5427   1.864   0.430  12.159 -1.0015 -0.5130  0.4206
  359MPD2    C3 5428   1.805   0.351  12.259  0.3369 -0.5902 -0.2993
  359MPD2    C4 5429   1.840   0.379  12.386 -0.5733 -0.1211 -0.9831
  359MPD2    C5 5430   1.934   0.483  12.406 -0.1594  0.8188  0.0486
  359MPD2     H 5431   1.821   0.421  12.060  2.0780 -2.7011 -0.7057
  359MPD2    H1 5432   1.799   0.328  12.472 -0.0063  1.8428  0.4495
  359MPD2    H2 5433   2.085   0.615  12.330 -0.0270  1.2580 -1.9408
  359MPD2    H3 5434   1.966   0.512  12.506  4.0988 -0.8800 -0.7902
  359MPD2     N 5435   1.711   0.244  12.235 -0.3691  0.3029  0.2666
  359MPD2    H5 5436   1.667   0.206  12.318 -1.0165 -1.2943 -0.8059
  359MPD2    N1 5437   2.009   0.590  12.059 -0.1332 -0.1800  0.3823
  359MPD2    H7 5438   1.971   0.562  11.969 -0.1765  2.4748 -0.4388
  360TMC3    C1 5439   2.129   0.736  11.928 -0.2033  0.8510 -0.7733
  360TMC3    C2 5440   2.255   0.798  11.909 -0.3064 -0.4247  0.4040
  360TMC3    C3 5441   2.325   0.781  11.800  0.2208  0.6332 -0.8376
  360TMC3    C4 5442   2.072   0.677  11.820  0.4395  0.5989  0.2439
  360TMC3    C5 5443   2.142   0.672  11.701  0.6023  0.8267  0.0459
  360TMC3    C6 5444   2.268   0.724  11.693 -0.3393  0.3758  0.4332
  360TMC3     C 5445   2.100   0.693  12.060  0.3578 -0.4117  0.5462
  360TMC3     O 5446   2.157   0.741  12.154  0.1829 -0.3209 -0.2356
  360TMC3     H 5447   2.309   0.829  11.998 -1.0662 -0.8163  0.9956
  360TMC3    H1 5448   1.966   0.653  11.808  0.4168 -0.2283  2.2019
  360TMC3    H2 5449   2.320   0.733  11.599  1.6494  0.3505  1.5444
  360TMC3    C7 5450   2.079   0.642  11.576  0.2079 -0.4669 -0.6896
  360TMC3    C8 5451   2.442   0.868  11.781 -0.3161  0.4512 -0.1674
  360TMC3    O1 5452   2.133   0.705  11.485 -0.0808 -0.7072  0.5436
  360TMC3    O2 5453   2.451   0.963  11.860 -0.6209  0.0462  0.4450
  361MPD2     C 5454   3.643   4.410  16.908  1.1614  0.2464 -0.1233
  361MPD2    C1 5455   3.719   4.529  16.926  0.4772 -0.6634  0.7565
  361MPD2    C2 5456   3.853   4.511  16.955  1.0649 -0.4756 -0.4305
  361MPD2    C3 5457   3.904   4.381  16.965  0.0710  0.0489 -0.5165
  361MPD2    C4 5458   3.827   4.269  16.943 -0.3143 -0.0992  0.5432
  361MPD2    C5 5459   3.693   4.286  16.914 -0.2553 -0.9087 -0.3707
  361MPD2     H 5460   3.921   4.593  16.973  0.3372 -0.4618  2.1686
  361MPD2    H1 5461   3.867   4.169  16.958 -1.7150 -0.7732 -0.1802
  361MPD2    H2 5462   3.539   4.418  16.878  2.0453  1.9010 -2.7163
  361MPD2    H3 5463   3.631   4.199  16.894 -2.5467  0.5192  0.5114
  361MPD2     N 5464   4.040   4.357  16.987  0.5320  0.3932 -0.1124
  361MPD2    H5 5465   4.072   4.262  17.005 -1.3317 -0.0830  0.7639
  361MPD2    N1 5466   3.664   4.662  16.927  0.3320 -0.5062 -0.9833
  361MPD2    H7 5467   3.728   0.004  16.939  0.1101 -0.3785 -0.6313
  362TMC3    C1 5468   3.515   0.105  16.845 -0.6829  0.5597 -0.0747
  362TMC3    C2 5469   3.593   0.208  16.904  0.3708  0.1507  0.6222
  362TMC3    C3 5470   3.561   0.336  16.858 -0.0797  0.1391 -0.6240
  362TMC3    C4 5471   3.412   0.132  16.754  0.4276  0.5161 -0.6080
  362TMC3    C5 5472   3.377   0.258  16.719 -0.2803  0.0520 -0.3559
  362TMC3    C6 5473   3.456   0.358  16.777  0.0763 -0.6071 -0.5588
  362TMC3     C 5474   3.533   4.698  16.882 -0.7596 -0.1673  0.1642
  362TMC3     O 5475   3.428   4.639  16.864  0.0274  0.3258  0.5286
  362TMC3     H 5476   3.673   0.197  16.976  1.2114 -0.8111 -0.4467
  362TMC3    H1 5477   3.361   0.059  16.692  1.0281  0.3159 -0.8706
  362TMC3    H2 5478   3.427   0.457  16.744  2.3691  0.3000  0.1448
  362TMC3    C7 5479   3.346   0.294  16.580  0.3672 -0.2045  0.0119
  362TMC3    C8 5480   3.602   0.449  16.933  0.2104 -0.0015 -0.2564
  362TMC3    O1 5481   3.415   0.384  16.529  0.5131  0.5098  0.1626
  362TMC3    O2 5482   3.714   0.466  16.975  0.0011 -0.2310 -0.2914
  363TMC3    C1 5483   1.577   2.421   9.301  0.1831  0.9378 -0.2482
  363TMC3    C2 5484   1.673   2.388   9.390  0.6891 -0.1436 -0.0346
  363TMC3    C3 5485   1.714   2.488   9.474  0.4444  0.2807 -0.6775
  363TMC3    C4 5486   1.516   2.544   9.294 -0.1126  0.3374 -0.6957
  363TMC3    C5 5487   1.563   2.638   9.376 -1.2659  1.1173 -1.0564
  363TMC3    C6 5488   1.673   2.615   9.463 -0.9465  0.2006 -0.4708
  363TMC3     C 5489   1.524   2.314   9.222 -0.0701 -0.0098 -0.5599
  363TMC3     O 5490   1.582   2.206   9.201 -0.1985  0.4511 -0.4982
  363TMC3     H 5491   1.712   2.287   9.389  1.0707 -0.0073  1.2362
  363TMC3    H1 5492   1.452   2.571   9.211  2.0936 -0.9527 -2.7939
  363TMC3    H2 5493   1.704   2.688   9.537  1.5188 -0.5343 -0.7863
  363TMC3    C7 5494   1.514   2.773   9.367 -0.3942 -0.3109  0.2406
  363TMC3    C8 5495   1.845   2.461   9.531 -0.3116 -0.4208 -0.9871
  363TMC3    O1 5496   1.582   2.860   9.421  0.3555  0.0406  0.0216
  363TMC3    O2 5497   1.918   2.556   9.550 -0.2733 -0.2571  0.6092
  364MPD2     C 5498   0.583   1.968  10.821 -0.0594 -0.3782  0.0865
  364MPD2    C1 5499   0.677   1.995  10.731 -0.3419 -0.0901 -0.0249
  364MPD2    C2 5500   0.765   1.886  10.698  0.1969 -0.3875  0.0359
  364MPD2    C3 5501   0.750   1.760  10.749 -0.1110 -0.4974  0.5644
  364MPD2    C4 5502   0.645   1.737  10.833 -0.6134 -0.0928  0.8091
  364MPD2    C5 5503   0.570   1.842  10.872 -0.0753 -0.1008  0.8227
  364MPD2     H 5504   0.851   1.910  10.638 -2.1682  0.7461 -2.8917
  364MPD2    H1 5505   0.631   1.637  10.873  0.5510 -0.3977  0.4560
  364MPD2    H2 5506   0.527   2.051  10.863  0.0284  0.5521 -1.6496
  364MPD2    H3 5507   0.493   1.832  10.948  2.0082 -0.3585  2.9187
  364MPD2     N 5508   0.849   1.663  10.717  0.1869  0.1848  0.0638
  364MPD2    H5 5509   0.841   1.572  10.762  1.1537 -0.0689 -0.2785
  364MPD2    N1 5510   0.693   2.126  10.682 -0.1120 -0.0562  0.6154
  364MPD2    H7 5511   0.628   2.195  10.719 -2.6190 -1.2965 -1.5294
  365TMC3    C1 5512   0.795   2.306  10.569  0.2376 -0.6193 -0.0124
  365TMC3    C2 5513   0.904   2.336  10.494 -0.4008  0.2345 -0.1931
  365TMC3    C3 5514   0.919   2.460  10.446  0.8193  0.0115  0.0128
  365TMC3    C4 5515   0.691   2.396  10.595  0.1381  0.3353 -0.2738
  365TMC3    C5 5516   0.712   2.522  10.548 -0.0458  0.0399 -0.4548
  365TMC3    C6 5517   0.825   2.557  10.478  0.5473  0.5736  1.0040
  365TMC3     C 5518   0.782   2.163  10.591 -0.0288 -0.1004  0.0515
  365TMC3     O 5519   0.853   2.101  10.511 -0.6919 -0.3473  0.0682
  365TMC3     H 5520   0.991   2.272  10.492 -1.4596 -1.1751 -0.6227
  365TMC3    H1 5521   0.600   2.357  10.637  0.6613  0.7144  1.2151
  365TMC3    H2 5522   0.822   2.654  10.430 -1.6897  0.1673  0.3319
  365TMC3    C7 5523   0.616   2.623  10.595  0.2414  0.2326  0.1772
  365TMC3    C8 5524   0.992   2.481  10.314  0.5338 -0.4033 -0.1393
  365TMC3    O1 5525   0.651   2.730  10.549  0.2656 -0.1982  0.2750
  365TMC3    O2 5526   1.027   2.593  10.281  0.1685 -0.4138  0.2405
  366MPD2     C 5527   4.129   2.924  15.200 -0.2708  0.0973 -0.9400
  366MPD2    C1 5528   4.247   2.989  15.151 -0.6560 -0.6270 -0.3225
  366MPD2    C2 5529   4.360   2.909  15.136  0.9953  0.2891  0.4792
  366MPD2    C3 5530   4.350   2.778  15.176  0.3520 -0.0852 -0.2015
  366MPD2    C4 5531   4.238   2.717  15.216 -0.2108 -0.0121  0.2478
  366MPD2    C5 5532   4.125   2.791  15.225 -0.0204 -0.1648 -0.0095
  366MPD2     H 5533   4.456   2.943  15.099 -0.4290  2.8156 -0.8624
  366MPD2    H1 5534   4.243   2.620  15.264 -0.7939  1.3234  3.0232
  366MPD2    H2 5535   4.040   2.985  15.210  0.4541  0.7628  1.4371
  366MPD2    H3 5536   4.038   2.757  15.279 -0.6037 -1.7258 -1.9474
  366MPD2     N 5537   4.478   2.711  15.171 -0.4978 -0.0662 -0.1573
  366MPD2    H5 5538   4.556   2.767  15.138 -0.5101 -0.0620 -0.1797
  366MPD2    N1 5539   4.242   3.124  15.116 -0.3631  0.1507 -0.3044
  366MPD2    H7 5540   4.160   3.176  15.144 -1.3099 -0.0566 -2.6903
  367TMC3    C1 5541   4.348   3.329  15.086 -0.3758 -0.5013 -0.3334
  367TMC3    C2 5542   4.458   3.381  15.152 -0.5203 -0.5615 -0.4568
  367TMC3    C3 5543   4.443   3.479  15.246  0.0824  0.0726  0.8729
  367TMC3    C4 5544   4.229   3.387  15.123  0.3073 -0.7584  0.1478
  367TMC3    C5 5545   4.223   3.504  15.198  0.0389 -0.5171 -0.4977
  367TMC3    C6 5546   4.328   3.537  15.275 -0.2728  0.0803 -0.3511
  367TMC3     C 5547   4.353   3.183  15.058 -0.7193 -0.0397  0.1844
  367TMC3     O 5548   4.432   3.133  14.980 -0.2568 -0.3517  0.7359
  367TMC3     H 5549   4.554   3.331  15.159  0.6430  1.8491  0.6450
  367TMC3    H1 5550   4.145   3.362  15.059  2.1489 -4.2709 -0.8843
  367TMC3    H2 5551   4.320   3.611  15.353 -1.6337  1.1791 -1.5283
  367TMC3    C7 5552   4.099   3.581  15.198  0.3369 -0.0790  0.8645
  367TMC3    C8 5553   4.527   3.455  15.362 -0.1307  0.2349  0.1121
  367TMC3    O1 5554   3.993   3.524  15.175 -0.1395  0.2726 -0.2001
  367TMC3    O2 5555   4.576   3.343  15.373 -0.1138  0.4255 -0.3755
  368MPD2     C 5556   0.061   0.221  13.113 -0.0734  0.0342 -0.1788
  368MPD2    C1 5557   0.048   0.157  12.993 -0.1069  0.1036  0.5068
  368MPD2    C2 5558   0.161   0.153  12.913 -0.3597 -0.3409  0.2367
  368MPD2    C3 5559   0.288   0.213  12.946  0.3294  0.3967  0.2638
  368MPD2    C4 5560   0.291   0.282  13.066 -0.3370  0.3456  0.2400
  368MPD2    C5 5561   0.180   0.282  13.149  0.6535  0.2681  0.1940
  368MPD2     H 5562   0.167   0.102  12.818  1.4359  1.5625 -0.6762
  368MPD2    H1 5563   0.378   0.332  13.108 -0.4027  1.7959 -1.3658
  368MPD2    H2 5564   4.714   0.223  13.183  1.5734  0.9251  1.7486
  368MPD2    H3 5565   0.180   0.318  13.251  2.2352  0.8185 -0.0105
  368MPD2     N 5566   0.411   0.207  12.868  0.4316  0.2751  0.1777
  368MPD2    H5 5567   0.490   0.248  12.918  1.9722 -0.1062 -1.9199
  368MPD2    N1 5568   4.664   0.098  12.967 -0.1503  0.7902  0.3269
  368MPD2    H7 5569   4.589   0.119  13.031 -1.2086 -1.3728 -0.1988
  369TMC3    C1 5570   4.497   4.708  12.862 -0.2297 -1.4365  0.2258
  369TMC3    C2 5571   4.453   4.653  12.744  0.3790  0.5743  0.4335
  369TMC3    C3 5572   4.395   4.529  12.748  0.0472  0.2173 -0.5586
  369TMC3    C4 5573   4.489   4.630  12.978 -0.2221  0.0924  0.1780
  369TMC3    C5 5574   4.435   4.501  12.976  0.2556  0.3078 -0.7241
  369TMC3    C6 5575   4.382   4.453  12.860  0.3479 -0.6885  0.1897
  369TMC3     C 5576   4.632   0.028  12.858 -0.4606  0.4004  0.0712
  369TMC3     O 5577   4.694   4.729  12.760 -0.0399  0.3637 -0.1907
  369TMC3     H 5578   4.446   4.720  12.659  0.3931 -0.6415 -0.5233
  369TMC3    H1 5579   4.525   4.672  13.071 -0.9806 -1.7988  1.3209
  369TMC3    H2 5580   4.332   4.358  12.847  0.4753 -0.7419  0.0919
  369TMC3    C7 5581   4.413   4.438  13.103  0.3289  0.7901  0.6440
  369TMC3    C8 5582   4.333   4.467  12.628  0.4505 -0.6168  0.5038
  369TMC3    O1 5583   4.430   4.505  13.207 -0.2829  0.0805  0.0283
  369TMC3    O2 5584   4.285   4.355  12.629  0.6298 -0.3772  0.6078
  370TMC3    C1 5585   0.560   0.635  16.031  0.2472  0.2471 -0.5819
  370TMC3    C2 5586   0.441   0.617  16.096 -0.3730 -0.2858  0.5752
  370TMC3    C3 5587   0.362   0.506  16.061  0.0357 -0.4879 -0.0928
  370TMC3    C4 5588   0.590   0.559  15.918 -0.1551 -0.8792 -0.1336
  370TMC3    C5 5589   0.516   0.449  15.893 -0.2522  0.6558 -0.6523
  370TMC3    C6 5590   0.403   0.421  15.962  0.3188  1.0271 -0.6473
  370TMC3     C 5591   0.643   0.751  16.080  0.5675  0.9095  0.1870
  370TMC3     O 5592   0.644   0.771  16.199 -0.3996 -0.5153  0.4683
  370TMC3     H 5593   0.422   0.667  16.190 -1.7853 -1.2098  0.7788
  370TMC3    H1 5594   0.687   0.571  15.872 -0.4941  0.0456 -0.6321
  370TMC3    H2 5595   0.347   0.329  15.952  1.0902  0.4240  0.6129
  370TMC3    C7 5596   0.577   0.346  15.809 -0.1497 -0.3507  0.5528
  370TMC3    C8 5597   0.294   0.442  16.167 -0.3957  0.3041  0.5610
  370TMC3    O1 5598   0.687   0.379  15.759 -0.3480  0.4097  0.3187
  370TMC3    O2 5599   0.279   0.321  16.169 -0.4809 -0.1924  0.5291
  371TMC3    C1 5600   1.564   3.649  15.571  0.0210  0.0378 -0.4556
  371TMC3    C2 5601   1.496   3.660  15.692 -0.1191 -0.5551  0.8549
  371TMC3    C3 5602   1.389   3.743  15.692  1.0516 -0.1160 -0.2239
  371TMC3    C4 5603   1.522   3.732  15.460 -0.6537  0.0496 -0.0094
  371TMC3    C5 5604   1.413   3.806  15.466 -0.6747 -0.2083  0.5485
  371TMC3    C6 5605   1.345   3.821  15.582 -0.6569  0.9407  0.3288
  371TMC3     C 5606   1.581   3.518  15.521  0.3087  0.5440  0.1471
  371TMC3     O 5607   1.680   3.498  15.451 -0.2205 -0.2352 -0.3149
  371TMC3     H 5608   1.524   3.599  15.778  0.8052 -0.1240  0.8591
  371TMC3    H1 5609   1.566   3.706  15.364  0.8668 -1.1802  1.0181
  371TMC3    H2 5610   1.251   3.874  15.575 -0.6308  0.8528 -0.7066
  371TMC3    C7 5611   1.373   3.888  15.355  0.2015 -0.0634  0.6277
  371TMC3    C8 5612   1.285   3.689  15.775  0.0523 -0.2074 -0.0154
  371TMC3    O1 5613   1.293   3.981  15.373 -0.1325  0.4340 -0.2667
  371TMC3    O2 5614   1.308   3.575  15.816  0.7367  0.2194 -0.2840
  372MPD2     C 5615   0.811   0.453  12.868  0.0101 -0.4437  0.0461
  372MPD2    C1 5616   0.894   0.367  12.936  0.0571 -0.1150  1.0156
  372MPD2    C2 5617   0.849   0.312  13.052  0.6038 -0.7364  0.5749
  372MPD2    C3 5618   0.724   0.346  13.102  0.3225  0.4599 -0.4548
  372MPD2    C4 5619   0.645   0.438  13.036 -0.4065  0.6877 -0.3500
  372MPD2    C5 5620   0.691   0.494  12.918  0.2393 -0.0510 -0.7439
  372MPD2     H 5621   0.917   0.242  13.099 -0.1071 -1.8209 -0.0051
  372MPD2    H1 5622   0.556   0.480  13.082  0.7912  1.6738  1.0725
  372MPD2    H2 5623   0.839   0.497  12.773  0.5516 -1.2754 -0.1809
  372MPD2    H3 5624   0.631   0.572  12.873  1.8466  0.3370 -2.2242
  372MPD2     N 5625   0.680   0.267  13.212 -0.8393 -0.5109  1.3889
  372MPD2    H5 5626   0.738   0.188  13.240 -0.8671 -0.7243  0.8490
  372MPD2    N1 5627   1.024   0.333  12.892 -0.0256  0.1138  0.8260
  372MPD2    H7 5628   1.082   0.267  12.941  0.1775  0.3669  0.9258
  373TMC3    C1 5629   0.526   0.176  13.358 -0.3771  0.8685 -0.1399
  373TMC3    C2 5630   0.414   0.187  13.434  0.1966 -0.3794 -0.5417
  373TMC3    C3 5631   0.377   0.078  13.514 -0.0058  0.1510  0.5192
  373TMC3    C4 5632   0.583   0.056  13.331 -0.2381  0.7027  0.4925
  373TMC3    C5 5633   0.529   4.687  13.400  0.8720  0.4823  0.2079
  373TMC3    C6 5634   0.430   4.693  13.500  0.1445  0.5001  0.7146
  373TMC3     C 5635   0.568   0.290  13.288 -0.0197  0.5550 -0.2557
  373TMC3     O 5636   0.498   0.390  13.295  0.3508 -0.3752 -0.1423
  373TMC3     H 5637   0.363   0.283  13.431  0.2461 -0.3442 -0.2642
  373TMC3    H1 5638   0.668   0.045  13.266 -1.0152  1.0214 -0.5685
  373TMC3    H2 5639   0.392   4.602  13.545  0.0977  0.3806  0.4343
  373TMC3    C7 5640   0.612   4.564  13.407 -0.3381  0.1883 -0.1152
  373TMC3    C8 5641   0.249   0.078  13.591 -0.7902 -0.2409  0.4758
  373TMC3    O1 5642   0.665   4.526  13.301  0.0623  0.2680 -0.6864
  373TMC3    O2 5643   0.159   0.149  13.548 -0.1016 -0.0130 -0.2061
  374TMC3    C1 5644   0.802   0.083   9.599  0.3174 -0.2760 -0.0570
  374TMC3    C2 5645   0.896   0.180   9.605  0.5323  0.6932 -0.5435
  374TMC3    C3 5646   0.902   0.286   9.515 -0.2529 -0.9433 -0.0357
  374TMC3    C4 5647   0.719   0.072   9.489  0.3165  0.4526  0.4897
  374TMC3    C5 5648   0.724   0.190   9.406  0.1002 -0.7498 -0.4643
  374TMC3    C6 5649   0.806   0.296   9.415  0.0018 -0.0820  0.8698
  374TMC3     C 5650   0.825   4.702   9.678  0.2582  0.2987 -0.0772
  374TMC3     O 5651   0.937   4.673   9.717  0.2417 -0.1152 -0.4654
  374TMC3     H 5652   0.964   0.172   9.689 -0.3411  2.3933  0.3175
  374TMC3    H1 5653   0.652   4.725   9.469  0.0972  1.3101 -2.3744
  374TMC3    H2 5654   0.812   0.374   9.340  1.1399 -1.9519 -1.0072
  374TMC3    C7 5655   0.646   0.171   9.285  0.0167 -0.6427  0.2046
  374TMC3    C8 5656   0.973   0.411   9.546  0.8493  0.2469 -0.1387
  374TMC3    O1 5657   0.581   0.068   9.273  0.5053  0.1079 -0.5811
  374TMC3    O2 5658   0.930   0.513   9.497 -0.2223 -0.5895  0.1719
  375MPD2     C 5659   1.837   0.893  17.124 -0.3418  0.5499  0.8716
  375MPD2    C1 5660   1.741   0.851  17.027 -0.0474  0.8565 -0.6864
  375MPD2    C2 5661   1.778   0.795  16.913 -0.4878  0.6140 -0.4871
  375MPD2    C3 5662   1.912   0.760  16.896  0.1356 -0.7376  0.9494
  375MPD2    C4 5663   2.004   0.794  16.991  0.9736 -0.0046 -0.1709
  375MPD2    C5 5664   1.966   0.850  17.110  0.2469 -0.5653 -0.4968
  375MPD2     H 5665   1.701   0.766  16.842  0.5701 -0.7318 -1.0805
  375MPD2    H1 5666   2.108   0.777  16.968  1.6595  1.6639  1.7374
  375MPD2    H2 5667   1.796   0.932  17.217  0.2743 -0.2187  1.4708
  375MPD2    H3 5668   2.047   0.870  17.180 -0.2513  2.1187 -0.6879
  375MPD2     N 5669   1.964   0.703  16.780 -0.1875  0.3565 -0.1888
  375MPD2    H5 5670   2.064   0.687  16.784 -0.1324  0.7574 -0.0086
  375MPD2    N1 5671   1.603   0.879  17.036  0.0643  0.1456 -0.1031
  375MPD2    H7 5672   1.545   0.845  16.959 -0.3331 -0.8520  0.6295
  376TMC3    C1 5673   1.976   0.607  16.566  0.1039 -0.2987 -0.6905
  376TMC3    C2 5674   2.106   0.565  16.586  0.0355  0.6046 -0.1579
  376TMC3    C3 5675   2.183   0.538  16.472  0.0457 -0.2682 -0.0778
  376TMC3    C4 5676   1.925   0.611  16.443 -0.0174  0.4288  0.6820
  376TMC3    C5 5677   2.000   0.570  16.334 -0.6831 -0.2743 -0.3302
  376TMC3    C6 5678   2.134   0.531  16.344 -0.9600 -0.5461  1.0376
  376TMC3     C 5679   1.895   0.675  16.663 -0.5355  0.6351  0.9718
  376TMC3     O 5680   1.780   0.710  16.643 -0.2234 -0.5858  0.3285
  376TMC3     H 5681   2.152   0.574  16.683  0.7798 -2.3111 -0.2277
  376TMC3    H1 5682   1.827   0.650  16.415  0.0294  0.2801  0.3195
  376TMC3    H2 5683   2.197   0.500  16.262 -1.5185 -0.5286  0.6040
  376TMC3    C7 5684   1.950   0.615  16.211  0.3472  0.2237 -0.2493
  376TMC3    C8 5685   2.318   0.597  16.462  0.7537 -0.2476  0.0268
  376TMC3    O1 5686   1.897   0.725  16.206 -0.2789 -0.8560 -0.3080
  376TMC3    O2 5687   2.348   0.645  16.352  1.2439 -0.6591 -0.3688
  377MPD2     C 5688   3.918   4.505  12.377  0.2055  0.0722  0.0914
  377MPD2    C1 5689   3.997   4.614  12.415  0.7513 -0.6893  1.0522
  377MPD2    C2 5690   4.033   4.625  12.548  0.1146  0.1789 -0.3691
  377MPD2    C3 5691   4.008   4.520  12.634  0.3099  0.2469 -0.2588
  377MPD2    C4 5692   3.960   4.402  12.581 -0.0373 -0.0604  0.1567
  377MPD2    C5 5693   3.901   4.394  12.457 -0.2678 -0.2915  0.0752
  377MPD2     H 5694   4.075   4.721  12.577  3.3850 -0.9646 -1.3411
  377MPD2    H1 5695   3.944   4.317  12.647 -0.0264  0.8901  1.3699
  377MPD2    H2 5696   3.864   4.511  12.283  1.9461  0.6936 -0.8547
  377MPD2    H3 5697   3.842   4.309  12.426 -0.1435 -1.3230  2.6196
  377MPD2     N 5698   4.046   4.519  12.773 -0.6219  0.0255  0.0029
  377MPD2    H5 5699   4.044   4.426  12.812 -2.5170 -0.2022 -0.6223
  377MPD2    N1 5700   4.031   4.712  12.313  0.0254 -0.3884 -0.1283
  377MPD2    H7 5701   3.987   4.688  12.224  1.7605  1.0372 -1.3639
  378TMC3    C1 5702   4.093   0.187  11.965 -0.1168 -0.0886  0.0591
  378TMC3    C2 5703   4.068   0.126  12.086 -0.2328 -0.0889  0.4744
  378TMC3    C3 5704   4.152   0.145  12.193 -0.9572  0.4931  0.0854
  378TMC3    C4 5705   4.198   0.275  11.958  0.3497 -0.1650  0.3684
  378TMC3    C5 5706   4.273   0.304  12.072  0.1876 -0.1781  0.9560
  378TMC3    C6 5707   4.255   0.235  12.192 -0.5619  0.0095  0.2288
  378TMC3     C 5708   4.008   0.161  11.853  0.6072 -0.0717  0.2585
  378TMC3     O 5709   3.902   0.096  11.865  0.9859  0.1056  0.4738
  378TMC3     H 5710   3.975   0.070  12.090 -1.1176  1.3638  0.2969
  378TMC3    H1 5711   4.197   0.343  11.873 -0.4635  0.4307  0.8478
  378TMC3    H2 5712   4.312   0.258  12.282 -1.0733  0.0538  0.5464
  378TMC3    C7 5713   4.383   0.398  12.069 -0.6029  0.3731 -0.1971
  378TMC3    C8 5714   4.127   0.072  12.322  0.3797 -0.0631  0.1920
  378TMC3    O1 5715   4.431   0.419  12.181  0.0102 -0.2948  0.4706
  378TMC3    O2 5716   4.184   0.113  12.422  0.1895 -0.3743  0.2713
  379MPD2     C 5717   0.415   3.277  16.416 -0.4557  0.1248 -0.4518
  379MPD2    C1 5718   0.474   3.167  16.353  0.5538 -0.2725  0.6674
  379MPD2    C2 5719   0.553   3.084  16.422 -0.2577 -0.2806  0.3118
  379MPD2    C3 5720   0.608   3.131  16.541  0.4046  0.0653  0.1948
  379MPD2    C4 5721   0.569   3.249  16.594 -0.8024 -0.3996 -0.3691
  379MPD2    C5 5722   0.474   3.327  16.532 -0.2809  0.2770 -0.8290
  379MPD2     H 5723   0.596   2.997  16.373  1.1545  0.9169 -0.5884
  379MPD2    H1 5724   0.620   3.287  16.682 -0.8205 -0.2059 -0.4415
  379MPD2    H2 5725   0.337   3.336  16.368 -0.9598  1.7796  2.3716
  379MPD2    H3 5726   0.440   3.425  16.563  2.4202  0.7349  0.6626
  379MPD2     N 5727   0.714   3.065  16.612  0.0501 -0.4149 -0.6399
  379MPD2    H5 5728   0.745   3.107  16.699 -1.2265  1.5206 -1.1106
  379MPD2    N1 5729   0.427   3.155  16.222  0.3003 -0.1796 -0.4879
  379MPD2    H7 5730   0.358   3.223  16.190 -0.5742 -0.5441  0.6511
  380TMC3    C1 5731   0.412   3.097  15.994 -0.1077  0.1037 -0.5604
  380TMC3    C2 5732   0.484   3.062  15.884  0.7475 -1.1170 -0.3098
  380TMC3    C3 5733   0.426   3.092  15.764 -0.6258  0.2131 -0.1646
  380TMC3    C4 5734   0.293   3.157  15.990 -0.0490 -0.8428 -0.7807
  380TMC3    C5 5735   0.230   3.180  15.869  0.0913 -0.2172 -0.8905
  380TMC3    C6 5736   0.300   3.148  15.751  0.5587 -0.0896 -0.1980
  380TMC3     C 5737   0.466   3.072  16.124  1.2992  0.1278  0.3062
  380TMC3     O 5738   0.540   2.975  16.126 -0.3955  0.4863  0.2539
  380TMC3     H 5739   0.578   3.011  15.900  0.6246 -1.1173  0.4163
  380TMC3    H1 5740   0.233   3.172  16.079  0.8094 -2.3007  0.0364
  380TMC3    H2 5741   0.275   3.193  15.656  0.8542  1.4155  0.4363
  380TMC3    C7 5742   0.173   3.314  15.866  1.3165 -0.4321 -0.0419
  380TMC3    C8 5743   0.522   3.149  15.674  0.5065  0.7200  0.0213
  380TMC3    O1 5744   0.187   3.373  15.973  0.2041 -0.3865  0.6312
  380TMC3    O2 5745   0.487   3.166  15.558  0.4998 -0.2350 -0.4566
  381TMC3    C1 5746   0.186   4.388  16.095  0.4752 -0.4137 -0.7545
  381TMC3    C2 5747   0.297   4.470  16.095  0.5649 -0.8648 -0.2679
  381TMC3    C3 5748   0.301   4.567  16.188  0.1289  0.1170 -0.1173
  381TMC3    C4 5749   0.097   4.377  16.198  0.0623 -0.3819  0.0500
  381TMC3    C5 5750   0.113   4.471  16.295 -0.4930 -0.3728 -0.9051
  381TMC3    C6 5751   0.216   4.563  16.298 -0.5798 -0.2149 -0.2463
  381TMC3     C 5752   0.204   4.267  16.010 -0.2064 -0.4129 -0.4376
  381TMC3     O 5753   0.288   4.278  15.920  0.3978  0.1558  0.0354
  381TMC3     H 5754   0.355   4.469  16.003  1.4639 -1.3472  0.3023
  381TMC3    H1 5755   0.017   4.305  16.205  1.1261 -1.4271  1.2287
  381TMC3    H2 5756   0.206   4.649  16.364 -0.9135  0.1077 -0.7125
  381TMC3    C7 5757   0.035   4.442  16.414  0.3860 -0.8839  0.2497
  381TMC3    C8 5758   0.426   4.640  16.191 -0.1859 -0.2635  0.2310
  381TMC3    O1 5759   4.722   4.329  16.419  0.1501 -0.0445 -0.0943
  381TMC3    O2 5760   0.515   4.574  16.143  0.7564 -0.1312  0.4927
  382MPD2     C 5761   4.483   2.652  16.852 -0.3424 -0.1807 -0.5587
  382MPD2    C1 5762   4.503   2.604  16.983  0.8349 -1.0096 -1.0882
  382MPD2    C2 5763   4.534   2.467  17.000 -0.0870 -0.0356 -0.3291
  382MPD2    C3 5764   4.538   2.375  16.896 -0.0489  0.0974  0.2055
  382MPD2    C4 5765   4.524   2.425  16.773 -1.1139 -0.0693 -0.8589
  382MPD2    C5 5766   4.498   2.556  16.751 -0.5728  0.2284  0.6667
  382MPD2     H 5767   4.541   2.423  17.099 -1.8303  1.5499  0.4936
  382MPD2    H1 5768   4.524   2.362  16.685  0.5153 -2.0360  0.5471
  382MPD2    H2 5769   4.455   2.750  16.815  0.1985  0.1928  0.0140
  382MPD2    H3 5770   4.474   2.591  16.651 -0.6132 -0.5105  0.4176
  382MPD2     N 5771   4.540   2.232  16.913 -0.1803 -0.3406 -0.2445
  382MPD2    H5 5772   4.528   2.179  16.828 -0.8245 -0.0372 -0.3456
  382MPD2    N1 5773   4.471   2.684  17.098 -0.0248 -0.0966 -0.4293
  382MPD2    H7 5774   4.462   2.638  17.188  0.7499 -0.0812 -0.3362
  383TMC3    C1 5775   4.574   2.012  17.007 -0.1954 -0.4569 -0.0231
  383TMC3    C2 5776   4.486   1.959  16.914 -0.9692  0.1544 -0.0385
  383TMC3    C3 5777   4.478   1.822  16.904  0.4880 -0.1122 -0.4804
  383TMC3    C4 5778   4.658   1.924  17.076 -0.0270 -0.2339  1.0176
  383TMC3    C5 5779   4.648   1.792  17.064 -0.4969 -0.1810  0.5620
  383TMC3    C6 5780   4.551   1.737  16.979  0.0478 -0.1435 -1.6252
  383TMC3     C 5781   4.571   2.159  17.026 -0.0097 -0.2883  0.0573
  383TMC3     O 5782   4.636   2.194  17.123 -0.0914 -0.0561  0.3428
  383TMC3     H 5783   4.444   2.024  16.838 -1.2715  1.1959  1.0171
  383TMC3    H1 5784   0.010   1.972  17.117 -0.2473  0.9090  0.1295
  383TMC3    H2 5785   4.535   1.630  16.978 -1.0182 -0.0210  1.0723
  383TMC3    C7 5786   0.033   1.713  17.059  0.0473  0.4077  0.3731
  383TMC3    C8 5787   4.347   1.787  16.854 -0.0050 -1.0243 -0.3869
  383TMC3    O1 5788   0.043   1.651  16.956 -0.4142 -0.6053  0.4201
  383TMC3    O2 5789   4.275   1.855  16.776 -0.2441  0.1133  0.4437
  384MPD2     C 5790   0.513   3.413  12.044 -0.1530  0.3199 -0.7674
  384MPD2    C1 5791   0.527   3.305  12.134 -0.3586 -0.4993 -0.1282
  384MPD2    C2 5792   0.613   3.205  12.110  0.4854  0.7206  0.4901
  384MPD2    C3 5793   0.695   3.192  12.000  0.6809 -1.0217 -0.3790
  384MPD2    C4 5794   0.669   3.286  11.910 -0.2259 -0.1295 -0.1224
  384MPD2    C5 5795   0.580   3.393  11.930  0.5126  0.4368  0.0735
  384MPD2     H 5796   0.620   3.129  12.187  0.8146  0.8993  0.6384
  384MPD2    H1 5797   0.705   3.292  11.808  0.8701 -0.7553  0.2299
  384MPD2    H2 5798   0.440   3.489  12.066 -1.1264 -0.8292  0.0015
  384MPD2    H3 5799   0.558   3.461  11.849  0.6462 -0.2415 -0.5385
  384MPD2     N 5800   0.794   3.096  11.984  0.3605  0.5025 -0.0943
  384MPD2    H5 5801   0.845   3.095  11.896 -0.2402 -0.6174 -0.4376
  384MPD2    N1 5802   0.457   3.289  12.255 -0.0571 -0.2812  0.3089
  384MPD2    H7 5803   0.485   3.213  12.316  0.3105 -0.0126  0.4738
  385TMC3    C1 5804   0.944   2.925  12.060  0.2087  0.0284  0.6962
  385TMC3    C2 5805   0.911   2.841  11.960  0.1539 -0.0563 -0.8098
  385TMC3    C3 5806   0.970   2.715  11.972 -0.3108 -0.3665 -0.4033
  385TMC3    C4 5807   1.005   2.877  12.175 -0.4241 -0.6160  0.5824
  385TMC3    C5 5808   1.035   2.747  12.184 -0.1281  0.1047 -0.0815
  385TMC3    C6 5809   1.031   2.660  12.080 -0.1709 -0.3383 -0.1003
  385TMC3     C 5810   0.848   3.034  12.093 -0.2135 -0.1264  0.0005
  385TMC3     O 5811   0.835   3.043  12.214  0.3005  0.2119 -0.5839
  385TMC3     H 5812   0.856   2.874  11.873  3.0258 -0.7297 -2.8674
  385TMC3    H1 5813   1.022   2.937  12.263 -0.5998  2.6882 -1.6074
  385TMC3    H2 5814   1.055   2.557  12.099  2.9020 -0.0752 -2.5930
  385TMC3    C7 5815   0.976   2.685  12.303  0.4283 -0.1824  0.4822
  385TMC3    C8 5816   0.956   2.619  11.865 -0.6205 -0.2068  0.5900
  385TMC3    O1 5817   1.036   2.590  12.344  0.4025 -0.3448 -0.5947
  385TMC3    O2 5818   1.057   2.560  11.838  0.0336  0.3314 -0.2147
  386TMC3    C1 5819   0.902   0.647  11.582  0.5549 -0.4076  0.9607
  386TMC3    C2 5820   0.864   0.720  11.476  0.1711  0.0391  0.2404
  386TMC3    C3 5821   0.733   0.698  11.434 -0.4069 -0.6711 -0.4012
  386TMC3    C4 5822   0.822   0.559  11.647 -0.1182  0.6418  0.5478
  386TMC3    C5 5823   0.692   0.545  11.606 -0.3977  0.7548 -0.6952
  386TMC3    C6 5824   0.644   0.617  11.502 -0.3687  0.2622  0.1470
  386TMC3     C 5825   1.040   0.627  11.602 -0.6982  0.5428  0.0839
  386TMC3     O 5826   1.110   0.732  11.598  0.5330  0.8781  0.5005
  386TMC3     H 5827   0.939   0.760  11.409 -0.7808  1.4470  0.0202
  386TMC3    H1 5828   0.853   0.514  11.740  0.8238 -2.2961 -1.2098
  386TMC3    H2 5829   0.541   0.611  11.470 -0.2276 -0.2708 -0.2174
  386TMC3    C7 5830   0.590   0.475  11.679  0.0405 -0.2763 -0.2312
  386TMC3    C8 5831   0.671   0.764  11.321 -0.2706 -0.3967 -0.5109
  386TMC3    O1 5832   0.477   0.517  11.670  0.3088 -0.2477  0.4727
  386TMC3    O2 5833   0.578   0.707  11.267 -0.1483 -0.3537  0.1107
  387MPD2     C 5834   3.339   0.865  10.210  0.1265  0.2193  0.5991
  387MPD2    C1 5835   3.449   0.812  10.150 -0.2875  0.0573  0.4620
  387MPD2    C2 5836   3.426   0.709  10.060  0.2424 -0.6450 -0.3053
  387MPD2    C3 5837   3.308   0.643  10.047  0.3223 -0.2527 -0.4395
  387MPD2    C4 5838   3.200   0.693  10.116 -0.6607 -0.1358 -0.4001
  387MPD2    C5 5839   3.215   0.812  10.184 -0.2004  0.0255  0.3324
  387MPD2     H 5840   3.518   0.687  10.007  1.0086 -0.7894  1.0868
  387MPD2    H1 5841   3.102   0.649  10.109 -0.2916 -1.2469  1.2807
  387MPD2    H2 5842   3.345   0.945  10.283  0.8593 -0.2252  1.0224
  387MPD2    H3 5843   3.131   0.851  10.240  0.2525 -0.0921  1.0835
  387MPD2     N 5844   3.301   0.532   9.956  0.3691  0.4150 -0.9948
  387MPD2    H5 5845   3.387   0.507   9.909  0.5781  0.8247 -0.8236
  387MPD2    N1 5846   3.585   0.838  10.179 -0.2028 -0.3919  0.1579
  387MPD2    H7 5847   3.660   0.801  10.122 -0.4271 -0.4645 -0.0897
  388TMC3    C1 5848   3.768   0.912  10.297  0.3840  0.3990 -0.0010
  388TMC3    C2 5849   3.843   1.026  10.288 -0.5532 -1.3112  0.5362
  388TMC3    C3 5850   3.976   1.016  10.248  0.2248 -1.1487  0.7073
  388TMC3    C4 5851   3.822   0.786  10.276  0.5401  0.1219 -0.3727
  388TMC3    C5 5852   3.955   0.778  10.246 -0.3523  0.2868 -0.6784
  388TMC3    C6 5853   4.031   0.891  10.221 -0.3649  0.6239  0.2920
  388TMC3     C 5854   3.625   0.932  10.267  0.3205  0.3085 -0.3502
  388TMC3     O 5855   3.571   1.018  10.333  0.0243  0.3885 -0.2279
  388TMC3     H 5856   3.796   1.120  10.315 -0.2851 -0.6834 -1.2403
  388TMC3    H1 5857   3.765   0.704  10.317 -0.7110  0.9218 -0.5064
  388TMC3    H2 5858   4.136   0.874  10.200 -0.2461 -1.0998  2.2438
  388TMC3    C7 5859   4.001   0.648  10.199 -0.9293 -1.1976 -0.1670
  388TMC3    C8 5860   4.061   1.133  10.209  0.2601 -0.8938  0.2745
  388TMC3    O1 5861   4.119   0.617  10.209  0.0999  0.2318  0.0388
  388TMC3    O2 5862   4.175   1.101  10.170 -0.1478 -0.2046  0.1483
  389MPD2     C 5863   2.357   3.818  10.967 -0.5642 -0.4629 -0.6166
  389MPD2    C1 5864   2.282   3.771  10.861 -0.5322  0.2898  0.1720
  389MPD2    C2 5865   2.202   3.663  10.879 -0.0696 -0.5081 -0.4729
  389MPD2    C3 5866   2.211   3.588  10.994  0.1774  0.6691 -0.7674
  389MPD2    C4 5867   2.290   3.639  11.098 -0.3755  0.4268 -0.0928
  389MPD2    C5 5868   2.353   3.757  11.087 -0.8310  0.3620  0.1360
  389MPD2     H 5869   2.140   3.641  10.793  0.1355  0.3020 -0.8324
  389MPD2    H1 5870   2.304   3.585  11.191 -0.6801  0.7374  0.1339
  389MPD2    H2 5871   2.413   3.909  10.955  0.7254 -1.2433 -0.5298
  389MPD2    H3 5872   2.423   3.788  11.164 -2.2672  0.2609  1.4743
  389MPD2     N 5873   2.152   3.455  11.016  0.4245 -0.2264  0.2125
  389MPD2    H5 5874   2.169   3.411  11.106 -1.1766 -1.7493 -0.2235
  389MPD2    N1 5875   2.269   3.857  10.751  0.0781 -0.0714 -0.3449
  389MPD2    H7 5876   2.346   3.921  10.730  0.8059 -0.5183  0.9542
  390TMC3    C1 5877   2.140   3.242  10.924 -0.4347  0.3185  0.3541
  390TMC3    C2 5878   2.209   3.163  10.832  0.2748 -0.2895 -0.3409
  390TMC3    C3 5879   2.251   3.045  10.879  0.8634  0.6448  0.7074
  390TMC3    C4 5880   2.126   3.205  11.051 -0.1328  0.5653 -0.0151
  390TMC3    C5 5881   2.183   3.090  11.098  0.4338  0.4729  0.1506
  390TMC3    C6 5882   2.239   3.012  11.010 -0.1856 -0.1312  0.0080
  390TMC3     C 5883   2.118   3.381  10.903 -0.2032  0.3167  0.0328
  390TMC3     O 5884   2.115   3.408  10.787 -0.5700 -0.1890  0.4389
  390TMC3     H 5885   2.206   3.180  10.725  0.4192 -0.3197 -0.3507
  390TMC3    H1 5886   2.076   3.256  11.133  1.0021 -0.1991  1.1665
  390TMC3    H2 5887   2.282   2.920  11.049 -0.3540  0.0417  0.5929
  390TMC3    C7 5888   2.094   3.023  11.193 -0.5939 -0.4798 -0.3606
  390TMC3    C8 5889   2.223   2.935  10.783 -0.2697 -0.9722 -0.2064
  390TMC3    O1 5890   2.104   3.064  11.309  0.4859 -0.0484  0.2552
  390TMC3    O2 5891   2.141   2.947  10.693 -0.1819 -0.4782 -0.1352
  391MPD2     C 5892   1.745   0.097  10.878 -0.1834  0.1354  0.0648
  391MPD2    C1 5893   1.838   0.196  10.853 -0.4355  0.3830  0.4091
  391MPD2    C2 5894   1.827   0.263  10.732 -0.2477  0.1902  0.1020
  391MPD2    C3 5895   1.730   0.240  10.635 -0.2701  0.3806  0.7018
  391MPD2    C4 5896   1.639   0.139  10.662  0.5112 -0.1294 -1.0366
  391MPD2    C5 5897   1.645   0.074  10.787  0.5428  0.2118  0.2986
  391MPD2     H 5898   1.903   0.335  10.704 -0.4333  1.2161  2.2317
  391MPD2    H1 5899   1.565   0.103  10.591  0.3664  0.0908 -0.9968
  391MPD2    H2 5900   1.754   0.043  10.971 -3.3000  0.5271  0.5891
  391MPD2    H3 5901   1.592   4.716  10.795  0.1877  0.3338 -0.6008
  391MPD2     N 5902   1.724   0.312  10.518  0.1202  0.2333 -0.7269
  391MPD2    H5 5903   1.798   0.381  10.508  0.4446  0.1872  1.3085
  391MPD2    N1 5904   1.932   0.224  10.958  0.2935 -0.0932 -0.0609
  391MPD2    H7 5905   1.911   0.176  11.046  1.2674  1.3932  0.9877
  392TMC3    C1 5906   1.647   0.399  10.306  0.1265  0.3576 -0.5223
  392TMC3    C2 5907   1.544   0.398  10.218  0.3473  0.6204  0.3009
  392TMC3    C3 5908   1.553   0.475  10.108 -0.1151  0.1981 -0.3239
  392TMC3    C4 5909   1.751   0.487  10.295 -0.2848 -0.0853 -0.3013
  392TMC3    C5 5910   1.751   0.565  10.186 -0.8843  0.3271  0.3712
  392TMC3    C6 5911   1.662   0.554  10.086  0.0623 -0.5371  1.0183
  392TMC3     C 5912   1.626   0.312  10.425 -0.6389 -0.7284 -0.2435
  392TMC3     O 5913   1.516   0.251  10.433 -0.2190 -0.0610 -0.4510
  392TMC3     H 5914   1.466   0.323  10.228  0.7213  0.3211  1.0033
  392TMC3    H1 5915   1.825   0.492  10.374 -0.0824 -2.0807 -0.3655
  392TMC3    H2 5916   1.672   0.604   9.990 -2.8258  0.8479  1.4396
  392TMC3    C7 5917   1.855   0.669  10.181 -0.8438  0.2761  0.0076
  392TMC3    C8 5918   1.462   0.451  10.003 -0.1502  0.3416 -0.2952
  392TMC3    O1 5919   1.952   0.660  10.263  0.1365 -0.0593 -0.3804
  392TMC3    O2 5920   1.404   0.343  10.006  0.0450 -0.4358 -0.1727
  393TMC3    C1 5921   0.459   3.098  11.171  0.1495  1.1068  0.1373
  393TMC3    C2 5922   0.381   3.100  11.290  0.7366  0.5137  0.5362
  393TMC3    C3 5923   0.393   2.995  11.379  0.0790 -0.1435 -0.7246
  393TMC3    C4 5924   0.530   2.986  11.139 -0.4773 -0.2334 -0.2416
  393TMC3    C5 5925   0.536   2.881  11.221 -0.2095 -0.0373  0.0850
  393TMC3    C6 5926   0.477   2.883  11.342  0.0646 -0.1202  0.6271
  393TMC3     C 5927   0.467   3.217  11.087  0.4409  0.3483  0.1377
  393TMC3     O 5928   0.393   3.311  11.100  0.9520  0.3760 -0.6798
  393TMC3     H 5929   0.315   3.185  11.305 -1.1163 -0.6265 -1.0205
  393TMC3    H1 5930   0.567   2.976  11.037  1.0026  0.4310  0.2313
  393TMC3    H2 5931   0.481   2.798  11.410  0.5631  0.2483  1.0619
  393TMC3    C7 5932   0.611   2.762  11.177  0.2936  0.3548 -0.2405
  393TMC3    C8 5933   0.302   2.961  11.484 -0.4671 -0.7755 -0.4030
  393TMC3    O1 5934   0.591   2.647  11.216  0.4650 -0.1063 -0.2936
  393TMC3    O2 5935   0.298   2.845  11.525  0.4503  0.6407 -0.9429
  394TMC3    C1 5936   2.191   3.931  10.540  0.1816 -0.0654 -1.0449
  394TMC3    C2 5937   2.102   3.914  10.433  0.2657  0.1228  0.7548
  394TMC3    C3 5938   2.130   3.971  10.316 -0.1487  0.0247 -0.0836
  394TMC3    C4 5939   2.305   4.005  10.525  0.2798 -0.0278 -0.0156
  394TMC3    C5 5940   2.332   4.055  10.397  0.2393  0.5857  0.3670
  394TMC3    C6 5941   2.242   4.046  10.293  0.1690  0.5240  0.0183
  394TMC3     C 5942   2.166   3.855  10.661  0.8629  0.1582  0.3448
  394TMC3     O 5943   2.057   3.796  10.668  0.0887 -0.4113  0.2269
  394TMC3     H 5944   2.003   3.874  10.450 -0.2733  0.9487 -0.4930
  394TMC3    H1 5945   2.371   4.029  10.608  0.8412 -1.2256 -0.1172
  394TMC3    H2 5946   2.264   4.094  10.198 -1.7228  3.0043  0.8312
  394TMC3    C7 5947   2.467   4.096  10.358  0.0076 -0.5039 -0.5007
  394TMC3    C8 5948   2.082   3.912  10.197  0.4031  0.6228  0.8144
  394TMC3    O1 5949   2.480   4.187  10.274 -0.1782  0.0409 -0.0967
  394TMC3    O2 5950   2.085   3.970  10.090 -0.0392  0.4863 -0.3950
  395TMC3    C1 5951   2.683   1.161  14.833 -0.0112 -0.1097  0.7136
  395TMC3    C2 5952   2.617   1.133  14.712 -0.3126  0.4115 -0.2634
  395TMC3    C3 5953   2.640   1.216  14.605  0.2021  0.2184  0.7666
  395TMC3    C4 5954   2.776   1.259  14.847  0.3547 -0.1793  1.1197
  395TMC3    C5 5955   2.786   1.346  14.741 -0.2249 -0.0126  0.4914
  395TMC3    C6 5956   2.722   1.323  14.618 -0.8666  0.6058  1.1525
  395TMC3     C 5957   2.654   1.095  14.954 -0.2474  0.4417 -0.2287
  395TMC3     O 5958   2.639   1.162  15.051  0.7495  0.1623  0.2189
  395TMC3     H 5959   2.524   1.078  14.708  1.0897 -2.1628  2.0484
  395TMC3    H1 5960   2.841   1.281  14.931  0.8038 -3.5208  1.6341
  395TMC3    H2 5961   2.730   1.390  14.533 -0.5400 -1.6680 -0.5884
  395TMC3    C7 5962   2.917   1.413  14.736  0.0899  0.2210  1.1881
  395TMC3    C8 5963   2.587   1.191  14.470  0.0233 -0.1760  0.1961
  395TMC3    O1 5964   2.961   1.448  14.844  0.3624  0.4051 -0.1239
  395TMC3    O2 5965   2.592   1.284  14.395  0.0253  0.0759  0.0379
  396MPD2     C 5966   2.161   2.107  17.444  0.0169  0.5864  0.1413
  396MPD2    C1 5967   2.288   2.052  17.423  0.6828  0.1585  0.1602
  396MPD2    C2 5968   2.365   2.109  17.317  0.8361  1.0079 -0.1214
  396MPD2    C3 5969   2.309   2.208  17.238  0.0178  0.5273 -0.7108
  396MPD2    C4 5970   2.178   2.255  17.258  0.2643  0.3437 -0.2102
  396MPD2    C5 5971   2.112   2.205  17.365 -0.1102  0.1232  0.0092
  396MPD2     H 5972   2.469   2.084  17.299  0.4159 -1.7173  1.2053
  396MPD2    H1 5973   2.145   2.346  17.210  1.1613  0.4055 -0.7152
  396MPD2    H2 5974   2.096   2.059  17.516 -1.0489 -0.1712 -1.3326
  396MPD2    H3 5975   2.016   2.245  17.394  0.2080  1.2955 -0.5619
  396MPD2     N 5976   2.392   2.253  17.133 -0.4211  0.1775 -0.6303
  396MPD2    H5 5977   2.488   2.223  17.143  0.3060  3.1768  1.4437
  396MPD2    N1 5978   2.331   1.949  17.508 -0.3915 -0.5357 -0.8378
  396MPD2    H7 5979   2.289   1.929  17.599 -3.0035  1.2317 -1.6516
  397TMC3    C1 5980   2.477   1.775  17.589  0.1187 -0.7320 -0.8103
  397TMC3    C2 5981   2.611   1.734  17.577  0.2671 -0.6109 -0.1251
  397TMC3    C3 5982   2.634   1.622  17.512 -0.0231  0.1435  0.0965
  397TMC3    C4 5983   2.382   1.677  17.573 -0.0923 -0.4494  0.4431
  397TMC3    C5 5984   2.412   1.556  17.529  1.0186  0.0406  0.9934
  397TMC3    C6 5985   2.539   1.522  17.497  0.0820  0.0514  0.2574
  397TMC3     C 5986   2.453   1.884  17.491  0.3532 -0.2309 -0.4935
  397TMC3     O 5987   2.528   1.896  17.394  0.2564  0.3379  0.5743
  397TMC3     H 5988   2.678   1.819  17.565 -0.9410  0.4099  0.3735
  397TMC3    H1 5989   2.276   1.704  17.574 -0.6077 -2.5205  1.3955
  397TMC3    H2 5990   2.564   1.430  17.447  0.5788  0.5291 -0.3582
  397TMC3    C7 5991   2.351   1.448  17.609  0.2850 -0.7568  0.3942
  397TMC3    C8 5992   2.713   1.639  17.389  0.0868  0.4747  0.7383
  397TMC3    O1 5993   2.399   1.337  17.599  0.2447  0.3666 -0.4112
  397TMC3    O2 5994   2.673   1.586  17.283  1.0829 -0.7140 -0.2342
  398MPD2     C 5995   0.335   3.714   0.152  0.3441 -0.6288  0.5167
  398MPD2    C1 5996   0.423   3.649   0.238 -0.2448  0.2100 -1.3775
  398MPD2    C2 5997   0.492   3.726   0.326  0.6142 -0.2546 -0.0012
  398MPD2    C3 5998   0.463   3.856   0.357  0.4060 -0.9102  0.0681
  398MPD2    C4 5999   0.374   3.913   0.268 -0.0715 -0.3802  0.0571
  398MPD2    C5 6000   0.313   3.848   0.168 -0.4134  0.1829 -0.1491
  398MPD2     H 6001   0.559   3.675   0.395  1.2799  0.2776 -0.2489
  398MPD2    H1 6002   0.350   4.018   0.283 -0.5352 -0.1077 -2.6571
  398MPD2    H2 6003   0.286   3.664   0.069  0.4665 -3.5779  2.1939
  398MPD2    H3 6004   0.241   3.903   0.108  0.2175  1.4279  0.2624
  398MPD2     N 6005   0.518   3.920   0.474 -0.4036  0.2143 -0.0680
  398MPD2    H5 6006   0.586   3.863   0.523  3.1472  1.6442 -3.3027
  398MPD2    N1 6007   0.453   3.511   0.233  0.0042 -0.2272 -0.0510
  398MPD2    H7 6008   0.502   3.475   0.314  2.4535 -0.0282 -1.4347
  399TMC3    C1 6009   0.423   3.284   0.159  0.3146 -0.6062  0.5248
  399TMC3    C2 6010   0.527   3.232   0.223  0.2568  0.1294  0.1451
  399TMC3    C3 6011   0.528   3.095   0.254 -0.9024  0.1363  0.5422
  399TMC3    C4 6012   0.325   3.201   0.116 -0.1304  0.4771 -0.0128
  399TMC3    C5 6013   0.327   3.068   0.150  0.4498  0.1610  0.4932
  399TMC3    C6 6014   0.424   3.010   0.223 -0.7576  1.0076 -0.5495
  399TMC3     C 6015   0.411   3.425   0.132  0.1670 -0.0464 -0.0895
  399TMC3     O 6016   0.371   3.452   0.021 -0.2223 -0.2823  0.3918
  399TMC3     H 6017   0.605   3.302   0.250  1.6737 -1.5880  0.5670
  399TMC3    H1 6018   0.230   3.244   0.086  0.0160  0.3482 -0.6645
  399TMC3    H2 6019   0.431   2.903   0.213 -0.6177  0.9306  0.3818
  399TMC3    C7 6020   0.208   2.988   0.144  0.1197 -0.7359  0.9320
  399TMC3    C8 6021   0.635   3.029   0.324  0.3238 -0.2098  0.6513
  399TMC3    O1 6022   0.202   2.891   0.224 -0.0863  0.4924  1.0607
  399TMC3    O2 6023   0.744   3.091   0.332 -0.1168  0.4564  0.4305
  400TMC3    C1 6024   4.166   1.270  16.513 -0.6832  0.9901  0.1402
  400TMC3    C2 6025   4.076   1.190  16.449 -0.1488  0.4458  0.3671
  400TMC3    C3 6026   3.996   1.252  16.359  0.9547 -0.1156  0.5029
  400TMC3    C4 6027   4.182   1.407  16.488 -0.0443  0.8313  0.1682
  400TMC3    C5 6028   4.106   1.462  16.390  0.0810  1.0194  0.0036
  400TMC3    C6 6029   4.007   1.391  16.322 -0.1643 -0.1012  0.2520
  400TMC3     C 6030   4.235   1.215  16.630  0.4880  0.3558  0.0201
  400TMC3     O 6031   4.198   1.106  16.669  0.7119 -0.1556 -0.3487
  400TMC3     H 6032   4.070   1.088  16.486  0.1927 -0.4306 -2.0153
  400TMC3    H1 6033   4.236   1.474  16.554  1.4479  1.1901 -1.4294
  400TMC3    H2 6034   3.937   1.427  16.248 -0.5104 -0.7227  0.2799
  400TMC3    C7 6035   4.106   1.608  16.379  0.9460 -0.2157 -0.5593
  400TMC3    C8 6036   3.908   1.168  16.284 -0.0165  0.1658 -0.3863
  400TMC3    O1 6037   4.173   1.661  16.463 -0.0515  0.2698  0.4594
  400TMC3    O2 6038   3.815   1.223  16.228  0.3747  0.0019 -0.1381
  401MPD2     C 6039   2.825   0.459   1.136  0.6527  0.3674  0.1342
  401MPD2    C1 6040   2.926   0.396   1.065  0.1341  0.1677 -0.3179
  401MPD2    C2 6041   2.910   0.264   1.022 -0.5570 -0.4501 -0.2180
  401MPD2    C3 6042   2.812   0.175   1.062 -0.1465 -0.6767 -0.3652
  401MPD2    C4 6043   2.709   0.233   1.132  0.1390  0.2456 -0.2283
  401MPD2    C5 6044   2.714   0.374   1.164  0.3214  0.7383  0.3154
  401MPD2     H 6045   2.993   0.233   0.960  0.6897  1.5292  0.4715
  401MPD2    H1 6046   2.636   0.160   1.166 -2.1128  1.5842 -2.1469
  401MPD2    H2 6047   2.835   0.559   1.177  3.0144  0.2339 -0.0793
  401MPD2    H3 6048   2.638   0.421   1.225  0.5758 -0.8873  1.8794
  401MPD2     N 6049   2.804   0.042   1.022  0.2492 -0.0397 -0.9982
  401MPD2    H5 6050   2.714   4.734   1.038  0.0328  0.4715 -0.8334
  401MPD2    N1 6051   3.037   0.471   1.009 -0.0014  0.2336  0.2763
  401MPD2    H7 6052   3.112   0.413   0.974 -1.0808 -0.3379 -1.1030
  402TMC3    C1 6053   2.839   4.585   0.897 -0.1313 -0.0088  0.2615
  402TMC3    C2 6054   2.897   4.458   0.893 -0.0926  0.3679 -0.4545
  402TMC3    C3 6055   2.847   4.364   0.810 -0.0929 -0.4404  0.3754
  402TMC3    C4 6056   2.729   4.617   0.818 -0.6890  0.0783  0.6508
  402TMC3    C5 6057   2.692   4.529   0.721 -0.6856 -0.4179  0.5181
  402TMC3    C6 6058   2.750   4.404   0.711  0.8851 -0.0922  0.3247
  402TMC3     C 6059   2.900   4.701   0.960 -0.5642 -0.2815  0.3725
  402TMC3     O 6060   3.020   4.697   0.983 -0.6865 -0.0693  0.0401
  402TMC3     H 6061   2.975   4.443   0.967 -0.1420  1.8825 -0.0855
  402TMC3    H1 6062   2.695   4.719   0.804 -0.0537  0.6228  2.9939
  402TMC3    H2 6063   2.715   4.326   0.644 -0.4818 -0.2397  1.2126
  402TMC3    C7 6064   2.597   4.581   0.612 -0.1772 -0.5421  0.0365
  402TMC3    C8 6065   2.874   4.222   0.817 -0.6410 -0.4401 -0.7371
  402TMC3    O1 6066   2.550   4.688   0.630  0.3361  0.1691  0.0072
  402TMC3    O2 6067   2.808   4.150   0.746  0.0420  0.2755  0.1487
  403MPD2     C 6068   0.737   2.787  13.187  0.2541 -0.4249 -0.7117
  403MPD2    C1 6069   0.673   2.826  13.304 -0.4148 -1.1667  0.1839
  403MPD2    C2 6070   0.741   2.887  13.408 -0.0398  0.0643  0.2530
  403MPD2    C3 6071   0.878   2.890  13.386  0.3886  0.5398  0.7566
  403MPD2    C4 6072   0.946   2.852  13.274  0.2846 -0.2237  0.0655
  403MPD2    C5 6073   0.873   2.805  13.169 -0.1976 -0.7407 -0.3299
  403MPD2     H 6074   0.695   2.920  13.500  0.2114  0.4747  0.2300
  403MPD2    H1 6075   1.054   2.840  13.270  0.2306 -0.3125 -1.1595
  403MPD2    H2 6076   0.678   2.738  13.111 -1.0574 -0.7673  0.5215
  403MPD2    H3 6077   0.926   2.757  13.087 -0.0728  1.3208 -1.4646
  403MPD2     N 6078   0.943   2.943  13.496  0.1193 -0.1007 -0.0675
  403MPD2    H5 6079   0.882   2.977  13.570 -0.0759  1.2849 -0.8622
  403MPD2    N1 6080   0.535   2.799  13.314 -1.1542 -0.5183 -0.0415
  403MPD2    H7 6081   0.504   2.746  13.234  1.0496 -0.6155 -0.8415
  404TMC3    C1 6082   0.323   2.760  13.397 -0.1596 -0.3349  0.0583
  404TMC3    C2 6083   0.269   2.688  13.496  0.5615  0.2830 -0.2661
  404TMC3    C3 6084   0.157   2.609  13.466  0.4721  0.0448  0.2895
  404TMC3    C4 6085   0.270   2.763  13.270  0.1876  0.1587  0.6616
  404TMC3    C5 6086   0.158   2.698  13.245 -0.1894 -0.0468 -0.1769
  404TMC3    C6 6087   0.110   2.601  13.331  0.3989 -0.7399  0.5097
  404TMC3     C 6088   0.449   2.828  13.416  0.5888  0.2519 -0.0258
  404TMC3     O 6089   0.470   2.883  13.522 -0.7019  0.3629  0.4224
  404TMC3     H 6090   0.319   2.681  13.592 -1.6505  0.0983  0.8667
  404TMC3    H1 6091   0.306   2.850  13.217  0.4482  0.9508  2.1322
  404TMC3    H2 6092   0.027   2.532  13.320  1.2644 -1.4009 -1.8034
  404TMC3    C7 6093   0.092   2.737  13.121  0.3867 -0.4635  0.4625
  404TMC3    C8 6094   0.169   2.482  13.538 -0.2938  0.1410  0.4900
  404TMC3    O1 6095   0.143   2.832  13.061 -0.0950  0.1126 -0.1475
  404TMC3    O2 6096   0.159   2.397  13.450  0.0011 -0.3313  1.0547
  405MPD2     C 6097   0.791   4.191  15.020 -0.3442 -0.2904  0.2467
  405MPD2    C1 6098   0.825   4.086  14.935  0.7348 -0.0879  0.1653
  405MPD2    C2 6099   0.740   4.046  14.833  0.3707 -0.1115 -0.3105
  405MPD2    C3 6100   0.624   4.113  14.810  0.3504 -0.0715 -0.5025
  405MPD2    C4 6101   0.583   4.212  14.899  0.3140  0.5737  0.5624
  405MPD2    C5 6102   0.667   4.250  15.001  0.0287  0.0573  0.9862
  405MPD2     H 6103   0.748   3.942  14.806  0.5702  0.0693 -0.9584
  405MPD2    H1 6104   0.487   4.261  14.900  0.3643  0.6550  1.9434
  405MPD2    H2 6105   0.853   4.229  15.099 -0.2142 -1.5858  0.7675
  405MPD2    H3 6106   0.632   4.333  15.062 -1.7211 -1.2296  1.7233
  405MPD2     N 6107   0.545   4.054  14.714 -0.0658  0.1125  0.0340
  405MPD2    H5 6108   0.579   3.966  14.678 -2.4660 -1.5090  1.7442
  405MPD2    N1 6109   0.935   4.006  14.968 -0.7887 -0.1648  0.0645
  405MPD2    H7 6110   0.975   4.013  15.061  1.0431  0.6331 -0.7849
  406TMC3    C1 6111   0.169   3.979  14.436 -0.4298  0.1034  0.1149
  406TMC3    C2 6112   0.235   3.863  14.398  0.3534  1.1316  0.4004
  406TMC3    C3 6113   0.339   3.819  14.470 -0.5219 -0.8653  0.1871
  406TMC3    C4 6114   0.221   4.056  14.548  0.1200 -0.0255  0.1899
  406TMC3    C5 6115   0.329   4.000  14.615  0.6624  0.5568 -0.4257
  406TMC3    C6 6116   0.382   3.880  14.586 -0.1300  0.7845  0.5287
  406TMC3     C 6117   0.054   4.028  14.370  0.5065 -0.1141  0.9463
  406TMC3     O 6118   0.029   4.147  14.388  0.0690 -0.3358 -0.8654
  406TMC3     H 6119   0.198   3.802  14.316 -2.3337  2.1806  0.8217
  406TMC3    H1 6120   0.176   4.148  14.581  0.6392 -0.4187  1.9941
  406TMC3    H2 6121   0.443   3.827  14.658  0.4001  1.0273  0.2503
  406TMC3    C7 6122   0.412   4.090  14.699  0.8848 -0.2362  0.2166
  406TMC3    C8 6123   0.370   3.672  14.451  0.8049  0.2956  0.4311
  406TMC3    O1 6124   0.366   4.202  14.715  0.2234 -0.3162 -0.8993
  406TMC3    O2 6125   0.272   3.598  14.437  0.8685 -0.2830  0.3494
  407MPD2     C 6126   2.989   0.206   9.569  0.0106 -0.6567  0.4279
  407MPD2    C1 6127   3.077   0.315   9.589 -0.6352 -0.3036 -0.0490
  407MPD2    C2 6128   3.028   0.420   9.669 -0.6063  0.4535 -0.1187
  407MPD2    C3 6129   2.891   0.422   9.715 -0.4099 -0.0790 -0.1786
  407MPD2    C4 6130   2.809   0.320   9.684 -0.4026 -1.1399  0.0925
  407MPD2    C5 6131   2.858   0.218   9.612  0.0861  0.5293 -0.0746
  407MPD2     H 6132   3.091   0.505   9.693 -0.5017  0.1002  0.8178
  407MPD2    H1 6133   2.711   0.301   9.728 -0.9324  2.7010  0.5610
  407MPD2    H2 6134   3.022   0.122   9.509 -0.6190 -0.5932 -0.0090
  407MPD2    H3 6135   2.790   0.136   9.593  0.6765  0.0015  0.0843
  407MPD2     N 6136   2.854   0.540   9.793  0.6609  0.2497  0.1183
  407MPD2    H5 6137   2.927   0.604   9.821  0.1875  0.4377  0.9241
  407MPD2    N1 6138   3.213   0.318   9.548  0.3697 -0.5583  0.4555
  407MPD2    H7 6139   3.266   0.400   9.575  0.1256 -0.2377 -0.0224
  408TMC3    C1 6140   3.422   0.230   9.495 -1.1824 -0.0254 -0.3095
  408TMC3    C2 6141   3.509   0.127   9.512 -0.2510 -0.1295  0.1587
  408TMC3    C3 6142   3.645   0.153   9.503  0.7938  0.1419 -0.6100
  408TMC3    C4 6143   3.463   0.349   9.447  0.2265  0.1261 -0.1341
  408TMC3    C5 6144   3.593   0.366   9.431 -0.2360  0.1623  0.1405
  408TMC3    C6 6145   3.692   0.276   9.460  0.4316 -0.2794  0.6969
  408TMC3     C 6146   3.282   0.208   9.500  0.0057  0.2427 -0.5846
  408TMC3     O 6147   3.238   0.092   9.481 -0.0701  0.0696 -0.0900
  408TMC3     H 6148   3.475   0.028   9.539  1.7250 -0.4324  1.6024
  408TMC3    H1 6149   3.391   0.426   9.422  2.0760  1.5589 -1.1020
  408TMC3    H2 6150   3.798   0.300   9.457  0.6445 -1.3105 -0.0243
  408TMC3    C7 6151   3.636   0.504   9.426 -0.2910 -0.0477  0.8008
  408TMC3    C8 6152   3.746   0.063   9.556 -0.1045  0.1554 -0.0240
  408TMC3    O1 6153   3.563   0.588   9.472  0.2659  0.2363 -0.3927
  408TMC3    O2 6154   3.753   4.681   9.516  1.0196 -0.1436  0.3449
  409MPD2     C 6155   3.086   1.104  16.541  0.3685 -0.3672 -0.0742
  409MPD2    C1 6156   3.108   1.190  16.644  0.7219  0.5051  0.2497
  409MPD2    C2 6157   3.180   1.303  16.626 -0.2286  0.3090  0.5624
  409MPD2    C3 6158   3.244   1.325  16.503 -0.2477  0.2897  0.0280
  409MPD2    C4 6159   3.222   1.241  16.394  0.1808  0.1408 -0.1915
  409MPD2    C5 6160   3.137   1.135  16.420 -0.3289  0.0281  0.0349
  409MPD2     H 6161   3.185   1.378  16.705 -1.2903 -0.2597  1.1684
  409MPD2    H1 6162   3.262   1.253  16.294  0.6475 -0.3561 -0.0629
  409MPD2    H2 6163   3.023   1.017  16.548  0.5383 -0.3421  1.7669
  409MPD2    H3 6164   3.124   1.070  16.335  0.5109 -1.5168  1.0898
  409MPD2     N 6165   3.332   1.435  16.486  0.5799 -0.0474 -0.3376
  409MPD2    H5 6166   3.365   1.451  16.392  0.0074  0.6464 -0.4207
  409MPD2    N1 6167   3.059   1.174  16.773  0.0123 -0.6466  0.2153
  409MPD2    H7 6168   3.080   1.241  16.846  3.0007 -1.4103  0.0753
  410TMC3    C1 6169   3.498   1.595  16.556 -0.1912  0.5033  0.3735
  410TMC3    C2 6170   3.617   1.596  16.623  0.0435  0.0602  0.5121
  410TMC3    C3 6171   3.709   1.685  16.574 -0.2712  0.1734  0.2992
  410TMC3    C4 6172   3.480   1.661  16.439 -0.3971 -0.6397 -0.6223
  410TMC3    C5 6173   3.567   1.750  16.392 -0.4597 -1.1040 -0.2508
  410TMC3    C6 6174   3.690   1.757  16.457 -0.0402 -0.2741 -0.3672
  410TMC3     C 6175   3.400   1.498  16.590 -0.7344 -0.0009 -0.5841
  410TMC3     O 6176   3.387   1.480  16.712 -0.1274 -0.1170  0.2785
  410TMC3     H 6177   3.640   1.521  16.697 -2.1258 -0.9416  0.1530
  410TMC3    H1 6178   3.392   1.649  16.378  0.5933 -2.1367 -1.7543
  410TMC3    H2 6179   3.766   1.828  16.427  0.3178 -0.2961  0.5080
  410TMC3    C7 6180   3.542   1.820  16.267 -0.0516  0.9905 -0.7100
  410TMC3    C8 6181   3.842   1.690  16.634  0.9456 -0.3878 -0.5894
  410TMC3    O1 6182   3.467   1.762  16.188  0.0611  0.0297 -0.8054
  410TMC3    O2 6183   3.901   1.795  16.625  0.1997 -0.6358 -0.5574
  411MPD2     C 6184   3.123   1.987  14.503  0.3628  0.6231 -0.1479
  411MPD2    C1 6185   3.101   1.999  14.638 -0.8379  0.3525 -0.3682
  411MPD2    C2 6186   3.013   1.915  14.700 -0.2406  0.4686  0.2457
  411MPD2    C3 6187   2.938   1.825  14.630  0.0043  0.9807 -0.2420
  411MPD2    C4 6188   2.961   1.799  14.499  0.5846 -0.0685 -0.1476
  411MPD2    C5 6189   3.053   1.885  14.437  0.5405 -0.6593 -0.0448
  411MPD2     H 6190   3.001   1.918  14.808 -1.6956 -0.2368  0.1054
  411MPD2    H1 6191   2.891   1.737  14.443  0.2956 -0.5805  0.7884
  411MPD2    H2 6192   3.185   2.051  14.442 -3.0640  3.2052 -0.9398
  411MPD2    H3 6193   3.077   1.876  14.332  1.5666  0.4406  0.0976
  411MPD2     N 6194   2.817   1.772  14.682 -0.3931 -0.3369 -1.0170
  411MPD2    H5 6195   2.754   1.747  14.606  0.7759 -1.2646 -1.6735
  411MPD2    N1 6196   3.153   2.108  14.712  0.6199  0.1135  0.2031
  411MPD2    H7 6197   3.200   2.182  14.661 -1.8498  0.5529 -1.4732
  412TMC3    C1 6198   2.628   1.732  14.815  0.6233 -0.0203 -0.3893
  412TMC3    C2 6199   2.581   1.626  14.882 -0.5874 -0.2250 -0.4734
  412TMC3    C3 6200   2.440   1.614  14.879  0.7599  0.7545  0.3827
  412TMC3    C4 6201   2.556   1.823  14.754  0.0958 -0.8134 -0.3195
  412TMC3    C5 6202   2.424   1.809  14.749 -0.2779 -0.0176 -0.0724
  412TMC3    C6 6203   2.364   1.712  14.825  0.0115 -0.0566 -0.5552
  412TMC3     C 6204   2.768   1.763  14.814  0.2193 -0.2842  0.6999
  412TMC3     O 6205   2.829   1.776  14.918 -0.2539  0.1117  0.6902
  412TMC3     H 6206   2.654   1.555  14.919 -2.1576 -1.7533 -0.3066
  412TMC3    H1 6207   2.609   1.910  14.714  0.1741 -0.7937 -0.1738
  412TMC3    H2 6208   2.256   1.707  14.826  0.0590 -0.6096  2.0086
  412TMC3    C7 6209   2.362   1.822  14.623 -0.2564  0.7020  0.7484
  412TMC3    C8 6210   2.390   1.481  14.860 -0.1738 -0.0926  0.3518
  412TMC3    O1 6211   2.255   1.757  14.607  0.0985 -0.3005 -0.0461
  412TMC3    O2 6212   2.443   1.386  14.918  0.1893 -0.5428 -0.0190
  413MPD2     C 6213   4.303   0.229  15.579  0.2831  0.2618 -0.0942
  413MPD2    C1 6214   4.270   0.180  15.451 -0.7577 -0.0255  0.2618
  413MPD2    C2 6215   4.371   0.141  15.370  0.0888 -0.0303  0.2193
  413MPD2    C3 6216   4.499   0.127  15.418 -0.0186 -0.3885 -0.1816
  413MPD2    C4 6217   4.527   0.156  15.554  0.1310 -0.6015  0.6728
  413MPD2    C5 6218   4.432   0.210  15.633 -0.0283 -0.2945 -0.4014
  413MPD2     H 6219   4.351   0.097  15.273 -0.9176 -0.2897  0.5467
  413MPD2    H1 6220   4.614   0.120  15.608  1.2390 -2.0290 -2.1050
  413MPD2    H2 6221   4.227   0.260  15.649  0.8577  0.9704  0.2146
  413MPD2    H3 6222   4.451   0.226  15.738 -1.8350 -0.9681  0.0358
  413MPD2     N 6223   4.599   0.088  15.331  0.5172  0.4929  0.0025
  413MPD2    H5 6224   4.576   0.069  15.233  1.8523 -1.1747  0.0136
  413MPD2    N1 6225   4.131   0.179  15.417 -0.3529 -0.1794  0.9973
  413MPD2    H7 6226   4.063   0.187  15.492  0.1377  2.0770  1.2027
  414TMC3    C1 6227   0.078   0.010  15.266  0.4227 -0.0560 -0.0854
  414TMC3    C2 6228   0.144   4.636  15.308 -0.3451 -0.4705 -0.0725
  414TMC3    C3 6229   0.178   4.552  15.206  0.3158 -0.4418 -0.4028
  414TMC3    C4 6230   0.040   0.037  15.135 -0.1815 -0.0908 -0.2668
  414TMC3    C5 6231   0.058   4.679  15.044  0.0424 -0.4016  0.8114
  414TMC3    C6 6232   0.125   4.566  15.077 -0.0674  0.5263 -0.1020
  414TMC3     C 6233   4.724   0.055  15.371  0.1701  0.6789  0.0442
  414TMC3     O 6234   0.037   0.044  15.480  0.0090 -0.2263  0.0728
  414TMC3     H 6235   0.182   4.627  15.409  1.9036 -2.9428 -1.1577
  414TMC3    H1 6236   4.726   0.132  15.115 -1.4044 -0.2576  1.8929
  414TMC3    H2 6237   0.150   4.490  15.004  0.7543 -0.5016  1.2294
  414TMC3    C7 6238   4.671   4.672  14.971  1.1051  0.1490  0.5482
  414TMC3    C8 6239   0.282   4.458  15.224  0.5512  0.0022  0.4343
  414TMC3    O1 6240   4.566   4.702  15.026 -0.5318  0.0158  0.0340
  414TMC3    O2 6241   0.272   4.356  15.161 -0.1179 -0.6968  0.1020
  415TMC3    C1 6242   0.222   3.338  10.701  0.0492  0.0382  0.0472
  415TMC3    C2 6243   0.262   3.446  10.627  0.7459  0.0422 -0.2728
  415TMC3    C3 6244   0.326   3.419  10.509  0.4104 -0.3736  0.6292
  415TMC3    C4 6245   0.265   3.214  10.670  0.4363 -0.8392 -0.2023
  415TMC3    C5 6246   0.328   3.197  10.552 -0.8270 -0.0758 -0.1330
  415TMC3    C6 6247   0.348   3.295  10.464 -0.1078  0.3386  1.0109
  415TMC3     C 6248   0.132   3.352  10.819  0.1839 -0.4004 -0.8597
  415TMC3     O 6249   0.122   3.259  10.897  0.5129 -0.2185  0.8918
  415TMC3     H 6250   0.244   3.547  10.660 -0.0752 -0.7691  1.7417
  415TMC3    H1 6251   0.216   3.135  10.727  0.2962 -1.8765 -1.7744
  415TMC3    H2 6252   0.396   3.267  10.371  0.4671  0.3874  1.2916
  415TMC3    C7 6253   0.337   3.059  10.502 -0.5423 -0.3766  0.7206
  415TMC3    C8 6254   0.296   3.497  10.394  0.3087 -0.1551 -0.1309
  415TMC3    O1 6255   0.427   3.035  10.422  0.5560 -0.8511  0.3658
  415TMC3    O2 6256   0.204   3.576  10.411  0.1774 -0.2935  0.0692
  416MPD2     C 6257   2.043   1.507  11.366 -0.6659 -0.6168  0.6189
  416MPD2    C1 6258   1.934   1.426  11.370  0.7908  0.3529  0.4415
  416MPD2    C2 6259   1.947   1.301  11.307  0.7385  0.3163  0.1820
  416MPD2    C3 6260   2.045   1.268  11.222 -0.0496 -0.8619 -0.1027
  416MPD2    C4 6261   2.155   1.350  11.215  0.0788 -0.1938  0.0249
  416MPD2    C5 6262   2.154   1.468  11.292 -0.5968 -0.1367 -1.3210
  416MPD2     H 6263   1.872   1.224  11.317 -0.6884  1.4547 -1.8484
  416MPD2    H1 6264   2.247   1.328  11.161 -1.5421 -0.5573 -2.5811
  416MPD2    H2 6265   2.047   1.607  11.407  0.9575 -0.4026 -0.1038
  416MPD2    H3 6266   2.233   1.542  11.294 -0.4937 -0.2929  0.3954
  416MPD2     N 6267   2.049   1.145  11.151  0.0169  0.5008  0.3284
  416MPD2    H5 6268   1.978   1.074  11.167 -0.0731  0.4276 -0.3829
  416MPD2    N1 6269   1.814   1.471  11.443 -0.1915 -0.4300  0.3548
  416MPD2    H7 6270   1.811   1.559  11.494  1.5072  0.5742 -1.3062
  417TMC3    C1 6271   1.600   1.469  11.525  0.3739 -0.4223  0.2463
  417TMC3    C2 6272   1.611   1.484  11.658 -0.0321  0.5526  1.0161
  417TMC3    C3 6273   1.564   1.601  11.713 -0.7650  0.0175  0.3084
  417TMC3    C4 6274   1.537   1.569  11.454 -0.1762  0.6376  0.1654
  417TMC3    C5 6275   1.480   1.682  11.512 -0.2178  0.0465 -0.1995
  417TMC3    C6 6276   1.506   1.704  11.642  0.3405  0.2216  0.4032
  417TMC3     C 6277   1.699   1.394  11.452  0.6104 -0.2189 -0.4526
  417TMC3     O 6278   1.689   1.272  11.435 -0.0858  0.1517  0.3569
  417TMC3     H 6279   1.674   1.417  11.714  0.1900 -0.2767 -0.2165
  417TMC3    H1 6280   1.541   1.557  11.346  3.2479 -0.0964  0.3879
  417TMC3    H2 6281   1.471   1.785  11.706  1.7387  1.0530  0.1083
  417TMC3    C7 6282   1.404   1.771  11.429 -0.3488 -0.2756 -0.2470
  417TMC3    C8 6283   1.573   1.611  11.858 -0.2246  0.1611 -0.3764
  417TMC3    O1 6284   1.389   1.891  11.462  0.8193 -0.1935  0.5674
  417TMC3    O2 6285   1.552   1.716  11.915 -0.1209  0.5169  0.3442
  418TMC3    C1 6286   0.779   4.178   0.707  0.0389 -0.5786 -0.2403
  418TMC3    C2 6287   0.667   4.180   0.628  0.2270 -0.2171  0.0018
  418TMC3    C3 6288   0.587   4.075   0.628 -0.4640  0.1068  0.0424
  418TMC3    C4 6289   0.795   4.084   0.801 -0.0022  0.3445 -0.3949
  418TMC3    C5 6290   0.705   3.976   0.801 -0.7132  0.4285 -0.2913
  418TMC3    C6 6291   0.596   3.973   0.719 -0.1442  0.3075 -0.1730
  418TMC3     C 6292   0.892   4.253   0.658  0.1795  0.4498 -0.0770
  418TMC3     O 6293   0.874   4.366   0.617  0.3368 -0.1723  0.4556
  418TMC3     H 6294   0.653   4.246   0.543  0.3717 -0.0692  0.0944
  418TMC3    H1 6295   0.883   4.085   0.865 -0.2862 -0.2792  0.0056
  418TMC3    H2 6296   0.524   3.891   0.721 -1.7079  1.6879  0.3218
  418TMC3    C7 6297   0.728   3.857   0.876 -0.6998  0.0002  0.4162
  418TMC3    C8 6298   0.498   4.053   0.517  0.1395 -1.3202 -0.0335
  418TMC3    O1 6299   0.679   3.752   0.839  0.8853  0.3423  0.1626
  418TMC3    O2 6300   0.440   4.150   0.467  0.1596  0.2259  0.7607
  419MPD2     C 6301   4.077   0.880  12.486 -0.0697  0.4520 -0.7688
  419MPD2    C1 6302   4.029   1.010  12.461 -0.9566  0.5436 -0.3406
  419MPD2    C2 6303   3.994   1.093  12.567 -0.0132 -0.2509 -0.2813
  419MPD2    C3 6304   4.030   1.053  12.695 -0.6726  0.3307 -0.0292
  419MPD2    C4 6305   4.106   0.940  12.715  0.5161 -0.2158  0.2324
  419MPD2    C5 6306   4.122   0.849  12.611 -0.0974 -0.4226 -0.0797
  419MPD2     H 6307   3.955   1.189  12.535  1.5774  1.1913  2.0700
  419MPD2    H1 6308   4.140   0.910  12.814  1.3620 -0.5612 -0.1541
  419MPD2    H2 6309   4.097   0.810  12.405  0.5764 -2.0881  1.5786
  419MPD2    H3 6310   4.154   0.747  12.630  0.4469 -0.2196  0.0778
  419MPD2     N 6311   4.005   1.148  12.803  0.2040 -0.2052  0.4543
  419MPD2    H5 6312   3.959   1.231  12.767 -1.6519 -0.8666  1.3244
  419MPD2    N1 6313   4.012   1.070  12.336 -0.2581  0.0159  0.2969
  419MPD2    H7 6314   3.984   1.167  12.340  0.5420  0.2334  0.5678
  420TMC3    C1 6315   4.016   1.251  13.017  0.3342 -0.6221 -0.0142
  420TMC3    C2 6316   3.915   1.339  12.981 -0.1284  0.3023  0.1023
  420TMC3    C3 6317   3.909   1.461  13.047 -0.1887 -0.5458  0.8219
  420TMC3    C4 6318   4.098   1.269  13.125 -0.6329 -0.6387 -0.3970
  420TMC3    C5 6319   4.082   1.387  13.198 -0.1817 -0.5054 -0.2074
  420TMC3    C6 6320   3.989   1.478  13.166 -0.0506  0.3326 -0.1018
  420TMC3     C 6321   4.052   1.141  12.931 -0.2697  0.0008  0.2501
  420TMC3     O 6322   4.104   1.048  12.990  0.3606 -0.3408  0.2540
  420TMC3     H 6323   3.861   1.332  12.888  0.6946  1.8961 -0.4947
  420TMC3    H1 6324   4.180   1.202  13.151 -1.3504 -2.1242 -1.9963
  420TMC3    H2 6325   3.963   1.552  13.240 -1.6920 -1.6728  1.3314
  420TMC3    C7 6326   4.161   1.389  13.323  0.1753 -0.3628  0.0713
  420TMC3    C8 6327   3.864   1.578  12.976  0.0373  0.9336  0.0922
  420TMC3    O1 6328   4.190   1.278  13.377 -0.3668 -0.3695  0.1328
  420TMC3    O2 6329   3.807   1.559  12.864  0.4670 -0.1400  0.5611
  421TMC3    C1 6330   1.102   3.004  13.648  0.0090  0.2404  0.0295
  421TMC3    C2 6331   1.050   3.127  13.681 -0.6552 -0.7193  0.0748
  421TMC3    C3 6332   1.097   3.188  13.791  0.5366  0.5290  0.1621
  421TMC3    C4 6333   1.219   2.957  13.704  0.1598 -0.9242  0.2761
  421TMC3    C5 6334   1.262   3.025  13.810 -0.3113  0.2375  1.1929
  421TMC3    C6 6335   1.199   3.135  13.861  0.1124  0.0191  0.2122
  421TMC3     C 6336   1.075   2.948  13.518 -0.4517  0.3056 -0.2014
  421TMC3     O 6337   1.172   2.906  13.450  0.2424 -0.1968  0.1626
  421TMC3     H 6338   0.963   3.161  13.626 -0.5540 -1.9182 -0.8341
  421TMC3    H1 6339   1.275   2.871  13.669 -0.0947 -1.7654  1.9362
  421TMC3    H2 6340   1.242   3.200  13.937 -1.2540 -0.3198  1.2816
  421TMC3    C7 6341   1.388   2.991  13.871  0.6644 -0.5260  0.2077
  421TMC3    C8 6342   1.043   3.315  13.834 -0.0826 -0.2423 -0.2732
  421TMC3    O1 6343   1.464   3.084  13.902  0.0741  0.3781  0.6684
  421TMC3    O2 6344   1.003   3.390  13.747 -0.5794 -0.0883 -0.3647
  422TMC3    C1 6345   3.152   4.244  12.609  0.1526 -0.1939 -0.3905
  422TMC3    C2 6346   3.174   4.382  12.640 -0.2272  0.0804  0.4104
  422TMC3    C3 6347   3.085   4.477  12.594  0.2624 -0.1986 -0.2534
  422TMC3    C4 6348   3.038   4.205  12.545  0.3203  1.0851  0.1796
  422TMC3    C5 6349   2.954   4.306  12.508  0.1522  0.4492 -0.7942
  422TMC3    C6 6350   2.981   4.442  12.519 -0.2748  0.4606 -0.0444
  422TMC3     C 6351   3.238   4.144  12.680  0.3039  0.4389  0.9169
  422TMC3     O 6352   3.299   4.178  12.783  0.3113 -0.2003  0.2208
  422TMC3     H 6353   3.259   4.414  12.700  0.2029  1.6053 -1.0106
  422TMC3    H1 6354   3.014   4.104  12.513 -0.6863  1.3776  0.0049
  422TMC3    H2 6355   2.901   4.506  12.481 -0.0141 -0.5371 -2.2905
  422TMC3    C7 6356   2.825   4.274  12.444 -0.5300 -0.1321 -0.0355
  422TMC3    C8 6357   3.134   4.604  12.563  0.4035 -0.2108  0.0542
  422TMC3    O1 6358   2.821   4.171  12.374  0.0342 -0.4774 -0.1059
  422TMC3    O2 6359   3.214   4.649  12.641  0.0457 -0.0195 -0.3372
  423MPD2     C 6360   4.479   0.690   0.689 -0.9518 -0.2473 -0.6981
  423MPD2    C1 6361   4.520   0.559   0.728 -0.5338  0.3733  0.1200
  423MPD2    C2 6362   4.595   0.484   0.640  0.1044 -0.1743  0.0997
  423MPD2    C3 6363   4.631   0.534   0.521  0.0793  0.4519 -0.3934
  423MPD2    C4 6364   4.606   0.666   0.495 -0.2221  0.1476  0.1033
  423MPD2    C5 6365   4.528   0.739   0.574 -0.2492 -0.1429 -0.6726
  423MPD2     H 6366   4.625   0.388   0.679  0.5253  0.9579  2.5556
  423MPD2    H1 6367   4.633   0.704   0.397  1.8865  0.8159  0.9515
  423MPD2    H2 6368   4.430   0.767   0.749  0.7248  0.0852  0.2573
  423MPD2    H3 6369   4.509   0.843   0.548 -2.1181 -0.5796 -1.0760
  423MPD2     N 6370   4.698   0.457   0.425  0.0875 -0.2122  0.7181
  423MPD2    H5 6371   0.010   0.502   0.348  0.2248  1.7184  1.9290
  423MPD2    N1 6372   4.495   0.503   0.864 -0.3300 -0.6119  0.4794
  423MPD2    H7 6373   4.540   0.418   0.899  0.6007  0.3212  1.5585
  424TMC3    C1 6374   4.454   0.566   1.101 -0.2395  0.3797  1.8414
  424TMC3    C2 6375   4.576   0.511   1.127  0.0287 -0.0668 -0.3760
  424TMC3    C3 6376   4.609   0.521   1.260  0.2581 -0.4884 -0.5542
  424TMC3    C4 6377   4.360   0.607   1.195 -0.7161 -1.1744  0.1927
  424TMC3    C5 6378   4.401   0.603   1.324  0.7881 -0.1190 -0.3891
  424TMC3    C6 6379   4.524   0.560   1.356 -0.0080 -0.4338  0.0201
  424TMC3     C 6380   4.422   0.580   0.960 -0.4270  0.0514  0.0587
  424TMC3     O 6381   4.347   0.675   0.939 -0.0487  0.1328  0.3685
  424TMC3     H 6382   4.648   0.478   1.053  0.9168 -1.7011  1.2433
  424TMC3    H1 6383   4.265   0.646   1.161 -0.7483  0.0096  1.6397
  424TMC3    H2 6384   4.547   0.537   1.459  1.2142  3.2687  0.5448
  424TMC3    C7 6385   4.305   0.630   1.433 -1.1521 -0.4383 -0.0015
  424TMC3    C8 6386   4.707   0.433   1.308 -0.4787  0.3591 -0.6072
  424TMC3    O1 6387   4.316   0.565   1.537 -0.0530 -0.4000 -0.3845
  424TMC3    O2 6388   4.733   0.331   1.242 -0.1296 -0.6187  0.2827
  425MPD2     C 6389   3.881   4.696  17.311 -0.4712  0.2564  1.1896
  425MPD2    C1 6390   3.769   4.615  17.293 -0.0964 -0.2776 -0.0058
  425MPD2    C2 6391   3.653   4.686  17.283  0.0850 -0.0095 -0.2391
  425MPD2    C3 6392   3.639   0.088  17.282 -0.5091  0.4231  0.0174
  425MPD2    C4 6393   3.759   0.159  17.287 -0.3321 -0.3119 -1.2386
  425MPD2    C5 6394   3.876   0.095  17.309  0.7760  0.5463  0.4583
  425MPD2     H 6395   3.559   4.634  17.272  0.5703 -0.9771  0.1186
  425MPD2    H1 6396   3.765   0.267  17.281  2.5407 -0.4706 -1.2137
  425MPD2    H2 6397   3.980   4.657  17.333  0.3284  0.5817 -1.9512
  425MPD2    H3 6398   3.966   0.156  17.305  0.8126  0.5342  1.1694
  425MPD2     N 6399   3.513   0.154  17.266 -0.3675 -0.4335  0.4551
  425MPD2    H5 6400   3.426   0.102  17.274 -1.2237  0.6567 -1.6717
  425MPD2    N1 6401   3.772   4.470  17.290  0.3331 -0.1068 -0.2448
  425MPD2    H7 6402   3.863   4.431  17.311  0.0726 -0.5001  0.1484
  426TMC3    C1 6403   3.700   4.250  17.278 -0.6551  0.2813 -0.1088
  426TMC3    C2 6404   3.829   4.208  17.285 -0.1358  0.4919 -0.2775
  426TMC3    C3 6405   3.861   4.075  17.305  0.5507  0.9263 -0.6200
  426TMC3    C4 6406   3.599   4.160  17.303  0.5073 -0.1234 -0.4233
  426TMC3    C5 6407   3.634   4.030  17.329  0.2400 -0.0295 -0.7811
  426TMC3    C6 6408   3.759   3.980  17.323 -0.0986 -0.4169  0.1349
  426TMC3     C 6409   3.666   4.387  17.261  0.0955 -0.0113  0.1463
  426TMC3     O 6410   3.548   4.415  17.248  0.7050 -0.2353  0.2030
  426TMC3     H 6411   3.908   4.281  17.271 -0.1676  0.8538  1.4846
  426TMC3    H1 6412   3.495   4.191  17.306  0.5904  0.0610  0.4656
  426TMC3    H2 6413   3.767   3.873  17.341  0.5403 -0.3933 -0.0228
  426TMC3    C7 6414   3.527   3.933  17.352 -0.1761  0.5099  0.1284
  426TMC3    C8 6415   3.969   4.033  17.224 -0.1674 -0.0452 -0.3429
  426TMC3    O1 6416   3.554   3.816  17.346 -0.6600 -0.1019  0.4597
  426TMC3    O2 6417   4.009   4.105  17.133  0.4284  0.5248 -0.0161
  427MPD2     C 6418   2.271   2.026  14.924 -0.6617  0.2634 -0.9619
  427MPD2    C1 6419   2.241   2.005  15.055 -0.2578 -0.1970  0.1667
  427MPD2    C2 6420   2.112   2.018  15.098 -0.1110 -0.3114  0.8742
  427MPD2    C3 6421   2.006   2.052  15.010  0.3864 -0.7222  0.2717
  427MPD2    C4 6422   2.039   2.063  14.877 -0.5571  0.6844 -0.0607
  427MPD2    C5 6423   2.169   2.044  14.834 -0.7074  0.0344 -0.4130
  427MPD2     H 6424   2.097   1.999  15.203 -0.0519  0.9225  1.1087
  427MPD2    H1 6425   1.966   2.080  14.798  0.2077  1.7759 -0.5343
  427MPD2    H2 6426   2.374   2.011  14.892  0.4279  1.4167  1.9243
  427MPD2    H3 6427   2.190   2.070  14.731  0.6825  1.3312  0.1906
  427MPD2     N 6428   1.867   2.050  15.046  0.1133  0.0084 -0.6481
  427MPD2    H5 6429   1.810   2.071  14.965 -0.0153 -1.7910 -1.0200
  427MPD2    N1 6430   2.337   1.973  15.150 -0.0708  0.2825  0.0449
  427MPD2    H7 6431   2.320   1.945  15.247  0.5407  0.5664  0.2362
  428TMC3    C1 6432   2.537   1.902  15.251  0.3281  0.9284 -0.5620
  428TMC3    C2 6433   2.465   1.809  15.325  0.4147  0.0303  0.1265
  428TMC3    C3 6434   2.531   1.746  15.423 -0.6078  0.8057  0.1918
  428TMC3    C4 6435   2.667   1.942  15.284  0.0236  0.2143  0.4882
  428TMC3    C5 6436   2.722   1.872  15.389  0.1489  0.2191 -0.8934
  428TMC3    C6 6437   2.656   1.780  15.459 -0.2830  0.4164 -0.1259
  428TMC3     C 6438   2.471   1.952  15.126 -0.7041  0.7285 -0.1418
  428TMC3     O 6439   2.542   1.971  15.027 -0.2655  0.4351 -0.2784
  428TMC3     H 6440   2.366   1.776  15.296  0.4667  0.0353 -0.0567
  428TMC3    H1 6441   2.727   2.015  15.232  2.3434 -1.1850  1.1892
  428TMC3    H2 6442   2.704   1.723  15.538 -1.4015  1.6398  1.4221
  428TMC3    C7 6443   2.828   1.934  15.471  0.3071  0.3086 -0.2187
  428TMC3    C8 6444   2.477   1.635  15.496 -0.5637 -0.7920  0.0018
  428TMC3    O1 6445   2.820   1.926  15.593 -0.5896 -0.2262 -0.4960
  428TMC3    O2 6446   2.434   1.543  15.433 -0.6503 -0.8361 -0.3209
  429MPD2     C 6447   4.202   1.888  17.348  0.7942 -0.4686  0.3634
  429MPD2    C1 6448   4.127   1.848  17.238 -0.3364  0.3130 -0.0214
  429MPD2    C2 6449   4.121   1.924  17.121 -0.4223  0.3582  0.1937
  429MPD2    C3 6450   4.193   2.044  17.117  0.3174  0.3367  0.0835
  429MPD2    C4 6451   4.273   2.075  17.225 -0.1166 -0.4997 -0.2070
  429MPD2    C5 6452   4.270   2.005  17.337 -0.2481 -0.1832 -0.7051
  429MPD2     H 6453   4.073   1.888  17.031 -0.5037  2.8360 -0.7553
  429MPD2    H1 6454   4.333   2.165  17.233 -1.5123  0.4360 -0.3300
  429MPD2    H2 6455   4.189   1.834  17.441 -1.0778  0.7791  0.8241
  429MPD2    H3 6456   4.320   2.054  17.419 -2.5277  1.3407 -0.2060
  429MPD2     N 6457   4.199   2.116  16.997 -0.3710 -0.2770  0.1160
  429MPD2    H5 6458   4.173   2.065  16.913 -0.4526 -1.0040  0.5832
  429MPD2    N1 6459   4.051   1.727  17.231  0.3070  0.5434 -0.1388
  429MPD2    H7 6460   3.988   1.706  17.155 -1.3347  2.0464  0.8003
  430TMC3    C1 6461   4.176   2.295  16.852  0.9776 -0.4229  0.4165
  430TMC3    C2 6462   4.113   2.413  16.835 -0.3282 -0.2201 -0.5149
  430TMC3    C3 6463   4.062   2.435  16.710  0.0618 -0.7960 -0.1603
  430TMC3    C4 6464   4.218   2.226  16.735 -0.5643  0.1918 -0.0314
  430TMC3    C5 6465   4.162   2.245  16.611 -0.4243 -0.6101  0.1806
  430TMC3    C6 6466   4.077   2.350  16.601 -0.0732  0.1738 -0.3451
  430TMC3     C 6467   4.205   2.246  16.990  0.4603 -0.1216 -0.2661
  430TMC3     O 6468   4.216   2.332  17.077 -0.1645 -0.9905  0.2538
  430TMC3     H 6469   4.078   2.469  16.920 -0.1878 -0.7710 -0.0924
  430TMC3    H1 6470   4.278   2.139  16.761 -1.7168 -1.0156 -1.3811
  430TMC3    H2 6471   4.024   2.366  16.509 -0.9235 -2.9075 -0.3917
  430TMC3    C7 6472   4.162   2.138  16.518 -0.4614  0.2928  0.5572
  430TMC3    C8 6473   3.964   2.539  16.695  0.2379 -0.3012 -0.3468
  430TMC3    O1 6474   4.256   2.063  16.529 -0.4554 -0.3424  0.3787
  430TMC3    O2 6475   3.888   2.525  16.601 -0.0357 -0.1980  0.3007
  431MPD2     C 6476   4.213   1.621  12.760  0.3098  0.0203  0.2923
  431MPD2    C1 6477   4.208   1.691  12.640 -0.5273  0.0513 -0.0196
  431MPD2    C2 6478   4.203   1.629  12.517  0.4918  0.7181  0.1239
  431MPD2    C3 6479   4.191   1.492  12.504  0.1144  0.3983 -0.4754
  431MPD2    C4 6480   4.190   1.418  12.628 -0.3989 -0.1810 -0.1472
  431MPD2    C5 6481   4.203   1.483  12.742 -0.0003 -0.5056 -0.3410
  431MPD2     H 6482   4.193   1.688  12.427  0.5520  1.1825  0.4173
  431MPD2    H1 6483   4.175   1.311  12.619  0.8575 -0.5139  1.7193
  431MPD2    H2 6484   4.220   1.671  12.855  0.9859  1.5760 -0.5758
  431MPD2    H3 6485   4.205   1.412  12.824  2.7255  1.2729  1.1227
  431MPD2     N 6486   4.183   1.420  12.379  0.1070  0.6808 -0.0937
  431MPD2    H5 6487   4.196   1.319  12.383  0.0343  0.6990  0.7164
  431MPD2    N1 6488   4.198   1.830  12.646 -0.3407 -0.2090  0.1733
  431MPD2    H7 6489   4.180   1.884  12.562 -1.2915 -1.8257 -0.6580
  432TMC3    C1 6490   4.150   1.373  12.154 -0.0536 -0.2517 -0.1888
  432TMC3    C2 6491   4.241   1.368  12.049  0.2880  0.1380 -0.5277
  432TMC3    C3 6492   4.273   1.244  12.003  0.7759  0.1274 -0.4092
  432TMC3    C4 6493   4.081   1.264  12.196 -0.2187 -0.5514 -0.2413
  432TMC3    C5 6494   4.106   1.142  12.137 -0.0064  0.8673 -0.4043
  432TMC3    C6 6495   4.212   1.131  12.051 -0.3898 -0.0847  0.4861
  432TMC3     C 6496   4.169   1.476  12.253  0.5817 -0.2005 -0.4795
  432TMC3     O 6497   4.152   1.595  12.224  0.4543  0.4528  0.5427
  432TMC3     H 6498   4.295   1.459  12.024 -0.8045  0.4668 -1.6621
  432TMC3    H1 6499   3.984   1.284  12.241  0.4684  0.2046  0.8954
  432TMC3    H2 6500   4.243   1.031  12.023  0.9873  1.0807 -2.1602
  432TMC3    C7 6501   4.069   1.024  12.219  0.3302  0.6977  0.3755
  432TMC3    C8 6502   4.345   1.230  11.878  0.1240 -1.2779  0.7196
  432TMC3    O1 6503   4.116   0.910  12.200  0.7758  0.6288  0.3987
  432TMC3    O2 6504   4.350   1.122  11.821 -0.6911 -0.0637  0.1514
  433MPD2     C 6505   2.525   0.362  10.441 -0.7426  0.4451  1.0430
  433MPD2    C1 6506   2.627   0.298  10.506 -0.0624 -0.4140  0.0294
  433MPD2    C2 6507   2.701   0.368  10.597  0.4927 -0.2850  0.2927
  433MPD2    C3 6508   2.671   0.497  10.626  0.1198  0.6203  0.1229
  433MPD2    C4 6509   2.569   0.565  10.560  0.0221  0.8415  0.1666
  433MPD2    C5 6510   2.497   0.491  10.471  0.2012 -0.7734 -0.0049
  433MPD2     H 6511   2.788   0.334  10.653  0.2352 -0.8689  0.3355
  433MPD2    H1 6512   2.540   0.668  10.577  2.2923  1.7375 -1.3575
  433MPD2    H2 6513   2.465   0.317  10.362 -0.1137 -1.4896  1.6582
  433MPD2    H3 6514   2.412   0.535  10.420  1.1270  1.1405  0.0751
  433MPD2     N 6515   2.758   0.549  10.727 -0.6245  0.0191 -0.0360
  433MPD2    H5 6516   2.833   0.487  10.756 -0.0014  0.3430 -0.9699
  433MPD2    N1 6517   2.644   0.160  10.477 -0.2322  0.9639  0.5047
  433MPD2    H7 6518   2.577   0.111  10.419  2.3810  0.6311 -2.2393
  434TMC3    C1 6519   2.742   4.678  10.500  0.4323  0.0216  0.6356
  434TMC3    C2 6520   2.837   4.598  10.568 -0.1341  0.1152  0.0644
  434TMC3    C3 6521   2.795   4.476  10.607 -0.3848 -0.8848 -0.0364
  434TMC3    C4 6522   2.625   4.629  10.460 -0.1032  0.4690  0.1062
  434TMC3    C5 6523   2.586   4.500  10.495 -0.4803 -0.3878 -0.2926
  434TMC3    C6 6524   2.672   4.434  10.579 -0.4541  0.5903  0.1174
  434TMC3     C 6525   2.743   0.085  10.533  0.0201 -0.3487 -0.0500
  434TMC3     O 6526   2.835   0.116  10.610 -0.2281 -1.2267 -0.5869
  434TMC3     H 6527   2.938   4.637  10.580 -1.0461  1.5760  2.9691
  434TMC3    H1 6528   2.575   4.682  10.380 -1.5302  0.7384  1.1629
  434TMC3    H2 6529   2.653   4.327  10.583 -0.8484  0.6623  0.1655
  434TMC3    C7 6530   2.448   4.470  10.469 -0.1264 -0.3211 -0.2997
  434TMC3    C8 6531   2.893   4.402  10.683 -0.1800 -0.7697  0.2109
  434TMC3    O1 6532   2.387   4.528  10.379 -0.2549  0.2462  0.2439
  434TMC3    O2 6533   3.008   4.444  10.682 -0.1998 -0.3742 -0.1464
  435MPD2     C 6534   0.715   0.497  15.211 -0.0340  1.0455 -0.0507
  435MPD2    C1 6535   0.647   0.491  15.326 -0.4823 -0.4285  0.3243
  435MPD2    C2 6536   0.717   0.480  15.448  0.6657  0.6773 -0.1510
  435MPD2    C3 6537   0.854   0.459  15.456  0.7423  0.0257  0.0638
  435MPD2    C4 6538   0.920   0.469  15.332 -0.6973 -0.3380 -1.1321
  435MPD2    C5 6539   0.849   0.490  15.215  0.9287 -0.3631  0.0244
  435MPD2     H 6540   0.668   0.480  15.545  0.2585 -0.1464 -0.3526
  435MPD2    H1 6541   1.025   0.448  15.315 -0.4326 -0.7403  0.9765
  435MPD2    H2 6542   0.662   0.508  15.117  1.7307 -0.2941 -1.1901
  435MPD2    H3 6543   0.905   0.496  15.122 -0.9994 -1.6935 -1.2270
  435MPD2     N 6544   0.913   0.413  15.579 -0.3211 -0.2297 -0.3587
  435MPD2    H5 6545   0.842   0.396  15.649 -0.2686  1.8899  0.2125
  435MPD2    N1 6546   0.508   0.481  15.339 -0.3168 -0.3798  0.2766
  435MPD2    H7 6547   0.471   0.494  15.433 -3.0818 -1.3867 -0.6577
  436TMC3    C1 6548   0.130   0.411  15.454  0.1409 -0.4556 -0.7377
  436TMC3    C2 6549   0.262   0.418  15.409 -0.3908  0.0922 -0.5498
  436TMC3    C3 6550   0.288   0.437  15.278  0.6092 -0.0049 -0.0754
  436TMC3    C4 6551   0.025   0.432  15.373 -0.2575 -0.4520 -0.1567
  436TMC3    C5 6552   0.058   0.464  15.244  0.7662  0.0932  0.0587
  436TMC3    C6 6553   0.183   0.463  15.193 -0.2155 -0.4573  0.0287
  436TMC3     C 6554   0.099   0.375  15.591 -0.6222  0.0789 -0.1285
  436TMC3     O 6555   0.164   0.286  15.639 -0.0303 -0.1510  0.2184
  436TMC3     H 6556   0.331   0.378  15.482 -1.0104 -0.4010 -0.2263
  436TMC3    H1 6557   4.659   0.412  15.404 -1.0481  0.5542 -2.0951
  436TMC3    H2 6558   0.205   0.488  15.090  1.1375  1.9409  0.9037
  436TMC3    C7 6559   4.683   0.515  15.156  0.0055 -0.1387  0.2290
  436TMC3    C8 6560   0.423   0.455  15.238 -0.5475  0.0973  0.3629
  436TMC3    O1 6561   4.705   0.512  15.037  0.0945  0.9967 -0.3130
  436TMC3    O2 6562   0.440   0.453  15.118  0.2359  0.2998  0.3221
  437TMC3    C1 6563   3.072   2.769  13.096 -0.3510 -0.1686 -0.1626
  437TMC3    C2 6564   2.951   2.724  13.056  0.3472 -0.1115 -0.0209
  437TMC3    C3 6565   2.927   2.734  12.920  0.8802  0.3394  0.5757
  437TMC3    C4 6566   3.176   2.777  13.012  0.0466 -0.3607 -0.3718
  437TMC3    C5 6567   3.149   2.794  12.881  0.1604  0.3922  0.2732
  437TMC3    C6 6568   3.024   2.766  12.830  0.3288 -0.4735 -0.5417
  437TMC3     C 6569   3.120   2.774  13.235  0.4010 -0.1751 -0.4990
  437TMC3     O 6570   3.238   2.775  13.270  0.6890  0.1701 -0.1488
  437TMC3     H 6571   2.869   2.713  13.126  0.0959 -0.0894 -0.3078
  437TMC3    H1 6572   3.270   2.816  13.050  0.1030  0.3682 -1.2818
  437TMC3    H2 6573   3.007   2.759  12.723  0.4782  1.9787 -0.7230
  437TMC3    C7 6574   3.252   2.836  12.786 -0.1974 -0.0631 -0.0573
  437TMC3    C8 6575   2.813   2.645  12.881 -0.0140  0.2971  1.1781
  437TMC3    O1 6576   3.210   2.880  12.678  0.9828 -0.2747  0.3561
  437TMC3    O2 6577   2.794   2.549  12.950  0.2571 -0.0801  0.3926
  438MPD2     C 6578   1.241   3.419  16.856  0.1353  0.1076 -0.2272
  438MPD2    C1 6579   1.298   3.302  16.907  0.4076 -0.3142 -0.0766
  438MPD2    C2 6580   1.337   3.298  17.046 -0.2028 -0.0619  0.6489
  438MPD2    C3 6581   1.323   3.414  17.125 -0.2515 -0.2849  0.5847
  438MPD2    C4 6582   1.266   3.532  17.073 -0.0522 -0.4877  0.3140
  438MPD2    C5 6583   1.229   3.526  16.945 -0.7201 -0.6833  0.4613
  438MPD2     H 6584   1.389   3.208  17.078 -1.3483  0.0276  2.7297
  438MPD2    H1 6585   1.238   3.625  17.120 -0.2650 -2.0953  3.4387
  438MPD2    H2 6586   1.198   3.435  16.758 -1.1083 -1.2960  0.0885
  438MPD2    H3 6587   1.189   3.614  16.897  0.4959  1.0013  2.5385
  438MPD2     N 6588   1.379   3.417  17.257 -0.4004 -0.5321  0.2029
  438MPD2    H5 6589   1.365   3.508  17.300 -0.5124  0.2804 -1.5449
  438MPD2    N1 6590   1.329   3.185  16.839  0.7529 -0.0671 -0.3916
  438MPD2    H7 6591   1.372   3.114  16.897 -0.6456 -1.0874 -0.5843
  439TMC3    C1 6592   1.381   3.037  16.662  0.1993 -0.6610  0.3088
  439TMC3    C2 6593   1.357   2.992  16.535 -0.4949 -0.0805  0.3572
  439TMC3    C3 6594   1.449   2.909  16.475 -0.7216 -0.2257 -0.1408
  439TMC3    C4 6595   1.485   2.991  16.737 -0.1174 -0.3713 -0.7514
  439TMC3    C5 6596   1.581   2.914  16.676 -0.7096  0.2960  0.3795
  439TMC3    C6 6597   1.560   2.869  16.547  0.0015  0.2333  0.1598
  439TMC3     C 6598   1.309   3.162  16.703  0.3870 -0.4871 -0.6768
  439TMC3     O 6599   1.238   3.223  16.623  0.3219  0.2065 -0.3342
  439TMC3     H 6600   1.262   3.019  16.491 -0.5458 -0.2502  0.3626
  439TMC3    H1 6601   1.507   3.034  16.834 -0.2745 -3.0853  0.4842
  439TMC3    H2 6602   1.632   2.808  16.495 -0.8926  1.1555 -2.1656
  439TMC3    C7 6603   1.699   2.894  16.753 -0.3829  0.0703  0.1227
  439TMC3    C8 6604   1.441   2.840  16.347  0.2892 -0.9415  0.1139
  439TMC3    O1 6605   1.702   2.936  16.868 -0.1048  0.5784 -0.0967
  439TMC3    O2 6606   1.507   2.740  16.328 -0.3464 -0.2421  0.2303
  440MPD2     C 6607   0.053   3.739  14.711  0.4085 -0.0435 -0.4265
  440MPD2    C1 6608   0.071   3.836  14.803 -0.8663 -0.4056 -0.9067
  440MPD2    C2 6609   0.182   3.839  14.880 -0.2022 -0.4654  0.4096
  440MPD2    C3 6610   0.280   3.734  14.861  0.9676  0.0707  0.4829
  440MPD2    C4 6611   0.252   3.627  14.770 -0.2916  0.1673 -0.1697
  440MPD2    C5 6612   0.138   3.629  14.699 -0.2576 -0.8737 -0.4224
  440MPD2     H 6613   0.191   3.910  14.962 -1.9060 -1.0401  1.0899
  440MPD2    H1 6614   0.322   3.546  14.755 -0.6415 -0.5659  2.2506
  440MPD2    H2 6615   4.692   3.741  14.661  0.1052 -0.0844  0.1528
  440MPD2    H3 6616   0.104   3.555  14.627  0.4668 -1.7134  0.0979
  440MPD2     N 6617   0.396   3.727  14.953 -0.4243  0.1609 -0.1689
  440MPD2    H5 6618   0.461   3.653  14.927  1.4548  1.7300  0.0451
  440MPD2    N1 6619   4.713   3.939  14.827 -0.3296  0.4745  0.4375
  440MPD2    H7 6620   0.011   4.009  14.893  0.1216 -1.3523  2.1385
  441TMC3    C1 6621   0.557   3.788  15.116 -0.6546  0.0358  0.1573
  441TMC3    C2 6622   0.621   3.903  15.148 -0.1251 -0.5782 -0.7491
  441TMC3    C3 6623   0.711   3.897  15.261  0.0483 -0.0330 -0.5968
  441TMC3    C4 6624   0.575   3.671  15.183  0.3158  0.5621  0.0790
  441TMC3    C5 6625   0.669   3.671  15.289 -0.8473 -0.1324 -0.2280
  441TMC3    C6 6626   0.729   3.784  15.332  0.7406 -0.0006 -0.2286
  441TMC3     C 6627   0.432   3.817  15.051  0.4536  0.4423 -0.8971
  441TMC3     O 6628   0.394   3.929  15.069  0.2987 -0.2340 -0.2033
  441TMC3     H 6629   0.626   3.993  15.087 -2.1395  1.3139  1.8961
  441TMC3    H1 6630   0.506   3.595  15.149 -2.2029  2.1020  1.6927
  441TMC3    H2 6631   0.797   3.783  15.416  0.2915  0.9439  0.1369
  441TMC3    C7 6632   0.677   3.551  15.361  0.3180  0.6163  0.0353
  441TMC3    C8 6633   0.749   4.029  15.314 -0.1955  0.2363  0.5532
  441TMC3    O1 6634   0.581   3.476  15.350  0.4163  0.2163  0.9767
  441TMC3    O2 6635   0.842   4.040  15.394 -0.0157  0.5005  0.3840
  442MPD2     C 6636   3.500   4.154  16.634 -0.1867  0.0819  0.1778
  442MPD2    C1 6637   3.366   4.114  16.618  0.0432  0.3271 -1.0936
  442MPD2    C2 6638   3.342   3.985  16.590 -0.3438 -0.0834  0.3596
  442MPD2    C3 6639   3.443   3.890  16.567  0.0261  0.5398  0.2969
  442MPD2    C4 6640   3.576   3.932  16.585  0.5199  0.2280  0.1506
  442MPD2    C5 6641   3.597   4.062  16.624  0.2120 -0.5116 -0.5688
  442MPD2     H 6642   3.236   3.962  16.584 -0.2431 -0.0801 -1.5974
  442MPD2    H1 6643   3.655   3.860  16.576 -2.2842 -3.1712  2.5992
  442MPD2    H2 6644   3.524   4.253  16.669 -3.4523  0.9197  0.0489
  442MPD2    H3 6645   3.697   4.093  16.651 -0.7688  2.1346  0.0519
  442MPD2     N 6646   3.430   3.760  16.522 -0.0066 -0.0412  0.2481
  442MPD2    H5 6647   3.515   3.713  16.492  1.3879  1.2844  2.1407
  442MPD2    N1 6648   3.256   4.195  16.641 -0.2505  0.3690  0.0350
  442MPD2    H7 6649   3.164   4.152  16.639  0.8877 -2.0728 -0.1682
  443TMC3    C1 6650   3.136   4.387  16.606  0.1153 -0.6124  0.2619
  443TMC3    C2 6651   3.108   4.465  16.496  0.0446 -0.7439  0.5682
  443TMC3    C3 6652   2.983   4.513  16.500 -0.0319  0.3023  0.0581
  443TMC3    C4 6653   3.045   4.349  16.706 -0.4908  0.3698 -0.6394
  443TMC3    C5 6654   2.928   4.416  16.702 -0.1211  0.2919  0.0893
  443TMC3    C6 6655   2.900   4.514  16.609  0.3849  0.5905 -0.0190
  443TMC3     C 6656   3.265   4.329  16.614  0.0961  0.0618 -0.4779
  443TMC3     O 6657   3.357   4.402  16.565  0.1698  0.2594  0.2407
  443TMC3     H 6658   3.177   4.469  16.413 -0.4485 -0.5838  0.1721
  443TMC3    H1 6659   3.082   4.302  16.796  1.4072  2.3035 -0.4135
  443TMC3    H2 6660   2.797   4.546  16.603  0.0469 -0.6920 -0.9203
  443TMC3    C7 6661   2.826   4.381  16.798  0.5715  0.4854  0.1863
  443TMC3    C8 6662   2.911   4.532  16.375  0.8970 -0.3610  0.3516
  443TMC3    O1 6663   2.760   4.470  16.852  0.4030 -0.0711 -0.4576
  443TMC3    O2 6664   2.790   4.550  16.385  0.3084  0.6185  0.0089
  444MPD2     C 6665   3.563   3.862  16.941 -0.4974  0.5658 -0.3235
  444MPD2    C1 6666   3.457   3.785  16.899 -0.2401 -0.7392  0.1670
  444MPD2    C2 6667   3.483   3.658  16.857 -0.0054 -0.3028 -0.9222
  444MPD2    C3 6668   3.607   3.596  16.860 -0.0839 -0.0013 -0.1464
  444MPD2    C4 6669   3.710   3.678  16.912  0.3756 -0.1934 -0.8742
  444MPD2    C5 6670   3.688   3.809  16.943  0.1075  0.1025  0.6933
  444MPD2     H 6671   3.398   3.609  16.810 -0.1440  0.8421 -1.8818
  444MPD2    H1 6672   3.815   3.650  16.906  0.8637  1.3732  0.1201
  444MPD2    H2 6673   3.553   3.968  16.964 -0.3447  0.7049 -0.9169
  444MPD2    H3 6674   3.771   3.877  16.958 -0.6758  0.7256  2.2550
  444MPD2     N 6675   3.624   3.463  16.810 -0.0065  0.0953  0.0085
  444MPD2    H5 6676   3.550   3.406  16.770  1.3310  0.3536 -2.8256
  444MPD2    N1 6677   3.325   3.834  16.900  0.0799 -0.6853  0.4346
  444MPD2    H7 6678   3.253   3.768  16.872  0.3672 -0.5123 -0.6850
  445TMC3    C1 6679   3.744   3.267  16.732 -0.3363 -0.3864 -0.1903
  445TMC3    C2 6680   3.642   3.240  16.640 -0.0228  0.1374 -0.4622
  445TMC3    C3 6681   3.650   3.126  16.563 -0.3199 -0.0128 -0.6557
  445TMC3    C4 6682   3.856   3.181  16.731  0.4099 -0.4419  0.3770
  445TMC3    C5 6683   3.870   3.070  16.654  0.2615 -0.0394  0.3679
  445TMC3    C6 6684   3.768   3.047  16.570 -0.5579  0.7995 -0.1780
  445TMC3     C 6685   3.747   3.396  16.799 -1.0118  0.8901 -0.0259
  445TMC3     O 6686   3.859   3.439  16.827 -0.1944  0.0501  0.2848
  445TMC3     H 6687   3.580   3.322  16.604 -1.5979  0.3241  2.7022
  445TMC3    H1 6688   3.928   3.212  16.806 -0.9909 -2.0089  2.3650
  445TMC3    H2 6689   3.776   2.966  16.498 -1.6863 -1.2799  2.0436
  445TMC3    C7 6690   4.006   3.006  16.628 -0.2771  0.5803  0.2430
  445TMC3    C8 6691   3.533   3.090  16.489 -0.2139 -0.2487 -0.0308
  445TMC3    O1 6692   4.102   3.068  16.666  0.5890  0.0052  0.0212
  445TMC3    O2 6693   3.436   3.163  16.498  0.4561  0.2576 -0.3558
  446MPD2     C 6694   2.735   4.537  11.086 -0.2877 -0.0451  0.2172
  446MPD2    C1 6695   2.696   4.597  10.969  0.3921 -0.1375 -0.5535
  446MPD2    C2 6696   2.790   4.665  10.901  0.0516  0.6469 -0.8522
  446MPD2    C3 6697   2.923   4.681  10.944 -0.0155  0.3480 -0.0726
  446MPD2    C4 6698   2.960   4.623  11.060 -0.4243 -0.7533  0.9171
  446MPD2    C5 6699   2.870   4.543  11.131  0.0725 -0.4714 -0.2853
  446MPD2     H 6700   2.760   4.727  10.817  0.6188 -1.1916 -2.4072
  446MPD2    H1 6701   3.061   4.618  11.099  0.0222  0.3527 -0.0716
  446MPD2    H2 6702   2.666   4.484  11.151  1.2188 -1.9540  0.2991
  446MPD2    H3 6703   2.896   4.489  11.222 -2.2112 -1.5082 -0.2527
  446MPD2     N 6704   3.010   0.025  10.861  0.5353  0.1232 -0.0494
  446MPD2    H5 6705   2.971   0.067  10.777 -1.8249 -1.8446  0.0870
  446MPD2    N1 6706   2.564   4.583  10.913 -0.2410 -0.3258 -0.1086
  446MPD2    H7 6707   2.538   4.658  10.851  0.4355  0.4501  0.5554
  447TMC3    C1 6708   3.209   0.113  10.768  0.7395 -0.1251  0.7365
  447TMC3    C2 6709   3.141   0.225  10.731  0.1076  0.4797 -0.3472
  447TMC3    C3 6710   3.211   0.339  10.705  0.3733  0.8778  0.8488
  447TMC3    C4 6711   3.343   0.124  10.774  0.0057  0.3033 -0.9706
  447TMC3    C5 6712   3.411   0.235  10.741  0.4520 -0.2062  0.9067
  447TMC3    C6 6713   3.346   0.350  10.712  0.0328  0.3793 -0.0756
  447TMC3     C 6714   3.147   0.031  10.876 -0.1330 -0.2804 -0.0975
  447TMC3     O 6715   3.218   4.720  10.968  0.1457  0.3024 -0.8851
  447TMC3     H 6716   3.033   0.226  10.729  0.0050  1.1750  4.5524
  447TMC3    H1 6717   3.391   0.035  10.812 -1.8521  0.0725  0.8221
  447TMC3    H2 6718   3.398   0.440  10.680 -1.7839  1.0917 -1.0536
  447TMC3    C7 6719   3.542   0.237  10.800  0.1995  0.0339  0.2871
  447TMC3    C8 6720   3.134   0.443  10.646  0.2400  0.9720 -0.1956
  447TMC3    O1 6721   3.580   0.126  10.842 -0.2540  0.4742  0.2504
  447TMC3    O2 6722   3.024   0.412  10.606 -0.0816  0.4509 -0.8708
  448TMC3    C1 6723   1.348   0.253  16.616 -1.3841 -0.4869  0.3290
  448TMC3    C2 6724   1.340   0.117  16.628  0.3254  1.0915  0.3708
  448TMC3    C3 6725   1.366   0.065  16.744  0.4777 -1.2198  0.3814
  448TMC3    C4 6726   1.363   0.327  16.725 -0.0948  0.1367  0.3216
  448TMC3    C5 6727   1.390   0.272  16.846  0.0321  0.4506 -0.3145
  448TMC3    C6 6728   1.390   0.133  16.861  0.7225 -0.4976  0.4693
  448TMC3     C 6729   1.296   0.312  16.493  0.1455  0.1907 -0.6344
  448TMC3     O 6730   1.249   0.423  16.510  0.2414  0.0434  0.3490
  448TMC3     H 6731   1.325   0.048  16.547  1.4712  1.8854 -0.5083
  448TMC3    H1 6732   1.356   0.435  16.716 -0.7537  0.1806  1.2932
  448TMC3    H2 6733   1.411   0.073  16.949  2.4434 -1.2270 -0.4481
  448TMC3    C7 6734   1.445   0.352  16.947 -0.5979 -0.7223 -0.0782
  448TMC3    C8 6735   1.371   4.654  16.741 -0.4132  0.2785  0.1202
  448TMC3    O1 6736   1.427   0.473  16.937 -0.5443  0.2862  0.6799
  448TMC3    O2 6737   1.440   4.597  16.822 -0.9522 -0.0961 -0.0201
  449MPD2     C 6738   2.489   2.697  14.060  0.5744 -0.4563 -1.0458
  449MPD2    C1 6739   2.457   2.832  14.092 -0.0513  0.5723  0.0212
  449MPD2    C2 6740   2.333   2.854  14.145 -0.1970  0.0429 -0.2319
  449MPD2    C3 6741   2.249   2.749  14.185  0.0644 -0.2065 -0.9435
  449MPD2    C4 6742   2.281   2.623  14.162  0.8423  0.3844 -0.4436
  449MPD2    C5 6743   2.401   2.604  14.097  0.3460 -0.1193 -0.4428
  449MPD2     H 6744   2.300   2.956  14.160  0.5194  0.4209 -1.2412
  449MPD2    H1 6745   2.225   2.534  14.188 -0.6690  1.3161 -0.4689
  449MPD2    H2 6746   2.575   2.658  14.006  0.0647 -4.3171  0.9615
  449MPD2    H3 6747   2.428   2.504  14.064 -0.5346 -0.5783  0.2125
  449MPD2     N 6748   2.124   2.785  14.228 -0.7614  0.3532  0.0355
  449MPD2    H5 6749   2.104   2.884  14.231 -0.5621  0.3723  0.6193
  449MPD2    N1 6750   2.545   2.933  14.084  0.3891  0.5332  0.1055
  449MPD2    H7 6751   2.519   3.030  14.100 -0.6528  0.1915  0.4490
  450TMC3    C1 6752   2.717   3.065  14.047  0.3500  0.0249  0.8017
  450TMC3    C2 6753   2.727   3.104  13.913  0.1553 -0.3967 -0.1977
  450TMC3    C3 6754   2.653   3.206  13.863  0.3987 -0.3897 -0.4535
  450TMC3    C4 6755   2.647   3.146  14.128 -0.7091  0.3290 -0.4438
  450TMC3    C5 6756   2.581   3.256  14.074 -0.5956  0.1079 -0.3689
  450TMC3    C6 6757   2.583   3.285  13.942  0.5566 -0.7214 -0.1802
  450TMC3     C 6758   2.681   2.932  14.065  0.0175 -0.1863  0.9266
  450TMC3     O 6759   2.749   2.847  14.010  0.0348  0.0189  0.5216
  450TMC3     H 6760   2.777   3.033  13.848 -2.3715 -2.7092  0.3897
  450TMC3    H1 6761   2.647   3.130  14.235 -1.4305 -0.8330 -0.6201
  450TMC3    H2 6762   2.525   3.371  13.911 -0.8841 -1.1221  1.3833
  450TMC3    C7 6763   2.453   3.267  14.137  0.1865  0.0217  0.6801
  450TMC3    C8 6764   2.659   3.239  13.728 -0.2309  0.1561  0.1311
  450TMC3    O1 6765   2.417   3.169  14.199 -0.1150  0.1326 -0.2310
  450TMC3    O2 6766   2.571   3.316  13.685 -0.3576  0.3763 -0.2864
  451MPD2     C 6767   4.014   1.643   1.325  0.6092  0.1907 -0.2426
  451MPD2    C1 6768   4.089   1.735   1.256 -0.1783 -0.5154  0.5065
  451MPD2    C2 6769   4.200   1.705   1.177  0.1858 -0.0466  0.0524
  451MPD2    C3 6770   4.234   1.574   1.167 -0.4370  0.0248 -0.0175
  451MPD2    C4 6771   4.170   1.478   1.241 -0.6144  0.3996 -0.6491
  451MPD2    C5 6772   4.057   1.507   1.318 -0.0311  0.0577  0.1485
  451MPD2     H 6773   4.252   1.767   1.104 -0.0551 -0.3083 -0.3355
  451MPD2    H1 6774   4.190   1.374   1.218 -1.0663  0.5762 -1.8268
  451MPD2    H2 6775   3.929   1.666   1.389  2.6602 -1.4749  3.0866
  451MPD2    H3 6776   4.003   1.431   1.373 -1.2134  0.6607 -0.1927
  451MPD2     N 6777   4.338   1.540   1.078  0.2914 -0.0858 -0.2160
  451MPD2    H5 6778   4.332   1.440   1.059  0.9012 -0.2027  0.1992
  451MPD2    N1 6779   4.033   1.865   1.263  0.4432 -0.6323 -0.0805
  451MPD2    H7 6780   3.947   1.877   1.314  0.1521 -0.9145 -0.5031
  452TMC3    C1 6781   4.527   1.535   0.935  0.7735  1.0081 -0.5729
  452TMC3    C2 6782   4.465   1.449   0.841 -0.2714  0.1157 -0.2154
  452TMC3    C3 6783   4.535   1.409   0.732 -0.3422 -0.7497  0.4589
  452TMC3    C4 6784   4.648   1.591   0.904  0.4488  0.1219 -0.0796
  452TMC3    C5 6785   4.700   1.559   0.778  0.4764 -0.1675 -0.1618
  452TMC3    C6 6786   4.658   1.453   0.702 -0.3351  0.8094  0.6009
  452TMC3     C 6787   4.446   1.617   1.028 -0.1277 -0.3668  0.5911
  452TMC3     O 6788   4.487   1.725   1.063  0.4321  0.0351 -0.0075
  452TMC3     H 6789   4.359   1.429   0.840 -0.2897  0.2028  0.5121
  452TMC3    H1 6790   4.693   1.676   0.953  2.0482 -0.6154 -0.2409
  452TMC3    H2 6791   4.702   1.423   0.607 -1.5666  1.1794 -0.0817
  452TMC3    C7 6792   4.733   1.674   0.693  0.3541  0.1640 -0.4875
  452TMC3    C8 6793   4.471   1.321   0.634  0.5019 -0.4459 -0.1418
  452TMC3    O1 6794   4.718   1.660   0.570 -0.6224 -0.2323 -0.0122
  452TMC3    O2 6795   4.352   1.326   0.630  0.0541  0.0374 -0.1643
  453TMC3    C1 6796   0.325   3.806  12.120 -0.6570 -0.3878 -0.0329
  453TMC3    C2 6797   0.213   3.739  12.171 -0.3605 -0.0524 -0.6225
  453TMC3    C3 6798   0.090   3.783  12.130  0.1176 -0.0787  0.2647
  453TMC3    C4 6799   0.309   3.910  12.032 -0.1981  0.2856 -0.8272
  453TMC3    C5 6800   0.187   3.948  11.993  0.9432  0.3052 -0.5868
  453TMC3    C6 6801   0.078   3.880  12.036  0.1935  0.5651  0.2675
  453TMC3     C 6802   0.461   3.791  12.165 -0.3280  0.5564  0.3727
  453TMC3     O 6803   0.545   3.865  12.114  0.0678 -0.7071  0.1313
  453TMC3     H 6804   0.230   3.659  12.243 -2.8304 -0.6103 -0.6545
  453TMC3    H1 6805   0.393   3.974  12.008  0.2244  0.4872  1.1772
  453TMC3    H2 6806   4.716   3.919  12.007  0.0329  0.3530  0.5214
  453TMC3    C7 6807   0.178   4.064  11.903  0.1709  0.2912  0.7955
  453TMC3    C8 6808   4.712   3.683  12.139  0.1481 -0.9155 -0.0301
  453TMC3    O1 6809   0.281   4.112  11.858  0.2285 -0.5025  0.3558
  453TMC3    O2 6810   4.603   3.728  12.119  0.5812  0.3237  0.1261
  454MPD2     C 6811   4.384   3.227  16.296  1.1903  0.4104  0.9698
  454MPD2    C1 6812   4.303   3.291  16.203  0.4955  0.2495 -0.0446
  454MPD2    C2 6813   4.264   3.419  16.233 -1.3132 -0.0985 -0.1844
  454MPD2    C3 6814   4.302   3.488  16.346  0.1004  0.3578 -0.1604
  454MPD2    C4 6815   4.382   3.425  16.436  0.0790  0.0702 -0.1975
  454MPD2    C5 6816   4.417   3.291  16.412 -0.5237  0.1127 -0.2068
  454MPD2     H 6817   4.219   3.478  16.154 -0.5392  0.0136 -0.5458
  454MPD2    H1 6818   4.406   3.469  16.532  1.5854 -1.6971  0.2366
  454MPD2    H2 6819   4.400   3.120  16.287  2.9006  0.9485 -2.2852
  454MPD2    H3 6820   4.480   3.241  16.485  0.2525  0.3452 -0.7080
  454MPD2     N 6821   4.254   3.616  16.384  0.3128  0.0569 -0.1015
  454MPD2    H5 6822   4.259   3.634  16.484 -0.3047  1.0150 -0.2449
  454MPD2    N1 6823   4.256   3.222  16.088  0.1377 -0.0401  0.9950
  454MPD2    H7 6824   4.193   3.286  16.039 -1.1640 -2.0477  0.0349
  455TMC3    C1 6825   4.071   3.752  16.375 -0.3649  0.0655  0.3021
  455TMC3    C2 6826   4.103   3.776  16.508 -0.0991 -0.3048 -0.0746
  455TMC3    C3 6827   3.997   3.754  16.601  0.4770  0.2287  0.6127
  455TMC3    C4 6828   3.946   3.702  16.340 -0.0951  0.4050 -0.2231
  455TMC3    C5 6829   3.856   3.668  16.443  0.8411  1.0475  0.0837
  455TMC3    C6 6830   3.883   3.683  16.572 -0.0713  0.8386  0.0593
  455TMC3     C 6831   4.171   3.688  16.298  0.8848  0.0557  0.1527
  455TMC3     O 6832   4.168   3.692  16.174  0.3797 -0.5875 -0.0850
  455TMC3     H 6833   4.199   3.818  16.539 -0.6138  1.3960 -0.7626
  455TMC3    H1 6834   3.930   3.661  16.241  1.9496  0.4729 -0.5667
  455TMC3    H2 6835   3.805   3.650  16.639 -0.8409  1.8564 -0.3444
  455TMC3    C7 6836   3.806   3.536  16.417  0.0217  0.1381 -0.3975
  455TMC3    C8 6837   4.027   3.801  16.730 -0.4826  0.0177  1.1645
  455TMC3    O1 6838   3.686   3.511  16.399  0.0542  0.2932  0.2173
  455TMC3    O2 6839   3.997   3.918  16.753  0.3472 -0.3211 -0.6963
  456MPD2     C 6840   1.725   3.225  16.524 -0.8536 -0.0467 -0.1810
  456MPD2    C1 6841   1.849   3.276  16.572 -0.4137 -0.8514  0.3679
  456MPD2    C2 6842   1.855   3.400  16.626  0.4146 -0.2916 -0.2217
  456MPD2    C3 6843   1.743   3.480  16.642 -0.8231  0.3323 -0.1714
  456MPD2    C4 6844   1.619   3.424  16.616  0.3474  0.3591 -0.0522
  456MPD2    C5 6845   1.608   3.300  16.553 -0.5799 -0.8454  0.5179
  456MPD2     H 6846   1.954   3.436  16.648  1.0523 -2.0014 -0.3031
  456MPD2    H1 6847   1.525   3.478  16.625  0.2053  0.1154 -0.0936
  456MPD2    H2 6848   1.712   3.126  16.481  3.3835 -0.7331  0.1282
  456MPD2    H3 6849   1.512   3.258  16.525 -0.1441 -1.5479  0.0874
  456MPD2     N 6850   1.755   3.612  16.694  0.0956  0.1903  0.7403
  456MPD2    H5 6851   1.848   3.647  16.717  0.1539  0.6072 -0.1527
  456MPD2    N1 6852   1.963   3.202  16.539  1.0362  0.5511  0.1068
  456MPD2    H7 6853   1.944   3.134  16.466  2.2738  0.6301 -0.2850
  457TMC3    C1 6854   1.683   3.827  16.779  0.5306 -0.0626  0.3060
  457TMC3    C2 6855   1.587   3.924  16.757 -0.0630 -0.3159  0.2798
  457TMC3    C3 6856   1.581   4.023  16.853 -0.2510 -0.3107 -0.3809
  457TMC3    C4 6857   1.777   3.830  16.884  0.5572 -0.7102 -0.6037
  457TMC3    C5 6858   1.776   3.946  16.962  0.3904 -0.1282  0.0020
  457TMC3    C6 6859   1.682   4.040  16.938 -0.2977 -0.2058  0.8121
  457TMC3     C 6860   1.656   3.705  16.702  0.4355 -0.5774 -0.5991
  457TMC3     O 6861   1.540   3.701  16.664  0.2370 -0.5811  0.0707
  457TMC3     H 6862   1.517   3.925  16.674 -0.3615  0.2227  0.5396
  457TMC3    H1 6863   1.851   3.754  16.903  0.4147 -0.7300 -0.1296
  457TMC3    H2 6864   1.666   4.114  17.016 -1.0930 -1.9168  2.2627
  457TMC3    C7 6865   1.867   3.964  17.074  0.4068 -0.8575  0.0348
  457TMC3    C8 6866   1.517   4.144  16.812 -0.2460  0.8185  0.0481
  457TMC3    O1 6867   1.903   3.875  17.144  0.0093 -0.2248  0.0857
  457TMC3    O2 6868   1.572   4.244  16.857 -0.4140 -0.9931 -0.4339
  458MPD2     C 6869   3.741   2.947  12.664 -0.0279  0.2891  0.6808
  458MPD2    C1 6870   3.745   2.876  12.779  0.1621 -0.6039 -0.7597
  458MPD2    C2 6871   3.625   2.825  12.831 -0.7333  0.2450  0.0037
  458MPD2    C3 6872   3.506   2.845  12.768 -0.3112 -0.1956  0.0412
  458MPD2    C4 6873   3.508   2.920  12.651 -0.3709 -0.2087 -0.2613
  458MPD2    C5 6874   3.625   2.967  12.598  0.1731  0.5221  0.2726
  458MPD2     H 6875   3.624   2.769  12.925  0.6723 -0.7623 -0.5824
  458MPD2    H1 6876   3.414   2.965  12.620 -1.7750 -0.9434  2.9572
  458MPD2    H2 6877   3.837   2.980  12.625 -0.4743 -0.8893 -1.4188
  458MPD2    H3 6878   3.616   3.041  12.520  0.1144 -0.0401 -0.2561
  458MPD2     N 6879   3.382   2.809  12.828  0.2641  0.2993  0.3895
  458MPD2    H5 6880   3.402   2.756  12.912 -0.7292 -1.6034 -0.5703
  458MPD2    N1 6881   3.871   2.855  12.837 -0.7647  0.0784  0.1024
  458MPD2    H7 6882   3.944   2.904  12.787  1.1274 -0.8225  2.0174
  459TMC3    C1 6883   4.043   2.812  12.996  0.5240  0.2669 -0.5246
  459TMC3    C2 6884   4.115   2.920  12.942  0.3514 -0.2696 -0.2352
  459TMC3    C3 6885   4.247   2.939  12.975 -0.0479 -0.7927 -0.8648
  459TMC3    C4 6886   4.096   2.721  13.085  0.6098  0.3259 -0.5191
  459TMC3    C5 6887   4.231   2.733  13.094  0.5421 -0.2017  0.2851
  459TMC3    C6 6888   4.305   2.842  13.055 -0.1255  0.3540  0.3483
  459TMC3     C 6889   3.901   2.774  12.950 -0.4741  0.3473  0.0542
  459TMC3     O 6890   3.829   2.692  13.009 -0.0574 -0.0746  0.2457
  459TMC3     H 6891   4.076   2.979  12.860  0.8127  0.3208 -0.0273
  459TMC3    H1 6892   4.031   2.641  13.118 -1.0429  1.2725 -1.4829
  459TMC3    H2 6893   4.411   2.843  13.078 -0.0623 -0.3110  0.0920
  459TMC3    C7 6894   4.295   2.634  13.185 -0.4315 -0.3288  0.1962
  459TMC3    C8 6895   4.340   3.028  12.901  0.3038  0.2847  0.1462
  459TMC3    O1 6896   4.261   2.517  13.190  0.0363  0.0949  0.7424
  459TMC3    O2 6897   4.459   3.019  12.936  0.3483 -0.0509 -0.4177
  460MPD2     C 6898   3.166   0.803  10.646 -0.1289  0.6225  0.6695
  460MPD2    C1 6899   3.124   0.685  10.601 -0.0716 -0.3898 -0.0374
  460MPD2    C2 6900   3.023   0.681  10.511  0.6719  1.0017 -0.5530
  460MPD2    C3 6901   2.970   0.794  10.460 -0.5757  0.2900 -0.3967
  460MPD2    C4 6902   3.002   0.911  10.517  0.4053  0.0733  0.0953
  460MPD2    C5 6903   3.105   0.916  10.605 -0.0567  0.3765  0.8241
  460MPD2     H 6904   3.001   0.583  10.469  0.5574  0.3037  1.1362
  460MPD2    H1 6905   2.957   1.001  10.476 -0.3069 -0.8154 -1.0910
  460MPD2    H2 6906   3.239   0.819  10.724  2.4764 -0.2962 -1.5673
  460MPD2    H3 6907   3.137   1.014  10.639  0.7143  0.0587  1.0248
  460MPD2     N 6908   2.888   0.800  10.343 -0.5111 -0.7537 -0.2927
  460MPD2    H5 6909   2.866   0.895  10.314 -0.4352 -0.1838  1.5073
  460MPD2    N1 6910   3.186   0.568  10.657 -0.0171  0.0883  0.2520
  460MPD2    H7 6911   3.256   0.580  10.729  2.1848  0.9264 -2.0517
  461TMC3    C1 6912   2.788   0.738  10.139 -0.5511  0.4345  0.1181
  461TMC3    C2 6913   2.804   0.651  10.032  0.1249  0.3591  0.0954
  461TMC3    C3 6914   2.712   0.662   9.933  0.1728  0.1042  0.5499
  461TMC3    C4 6915   2.704   0.845  10.140 -0.8557 -0.4002 -0.1104
  461TMC3    C5 6916   2.620   0.858  10.035  0.0029  0.1301  0.3207
  461TMC3    C6 6917   2.622   0.759   9.935  0.1393  0.2004  0.6530
  461TMC3     C 6918   2.854   0.695  10.263  0.3510 -0.3554  0.8512
  461TMC3     O 6919   2.901   0.586  10.257  0.2789 -0.0361  0.1270
  461TMC3     H 6920   2.858   0.557  10.037  3.2731  2.1998  0.4473
  461TMC3    H1 6921   2.688   0.898  10.234  0.4699  0.1608 -0.2150
  461TMC3    H2 6922   2.560   0.750   9.847  0.4444 -2.0130  0.6566
  461TMC3    C7 6923   2.600   0.995   9.981  0.5953 -0.7443  0.0902
  461TMC3    C8 6924   2.727   0.570   9.824 -0.3064  0.7162  0.1169
  461TMC3    O1 6925   2.535   1.000   9.878  0.1391  0.1875 -0.3800
  461TMC3    O2 6926   2.630   0.537   9.755 -0.4221  0.5243 -0.0825
  462TMC3    C1 6927   4.141   1.961  17.737 -0.7341  0.3336 -0.3599
  462TMC3    C2 6928   4.245   1.876   0.023  0.1280 -0.1426 -0.2441
  462TMC3    C3 6929   4.235   1.753  17.712  0.5262 -0.1086 -0.1131
  462TMC3    C4 6930   4.034   1.918  17.659  0.3605  0.8003 -0.0365
  462TMC3    C5 6931   4.014   1.790  17.624 -0.2968 -0.3579 -0.0694
  462TMC3    C6 6932   4.118   1.703  17.657 -0.0606  0.3545 -0.4709
  462TMC3     C 6933   4.159   2.097   0.014  0.0398 -0.1400 -0.1901
  462TMC3     O 6934   4.082   2.165  17.689 -0.0236 -0.0609  0.1880
  462TMC3     H 6935   4.343   1.914   0.053 -1.1691  1.4850  1.9467
  462TMC3    H1 6936   3.959   1.997  17.654 -2.1833 -1.6458 -0.6004
  462TMC3    H2 6937   4.100   1.596  17.652  2.2482  0.1140 -3.7230
  462TMC3    C7 6938   3.883   1.743  17.577 -0.4540 -0.3931 -0.3748
  462TMC3    C8 6939   4.343   1.662  17.738 -0.3239  0.4119 -0.1678
  462TMC3    O1 6940   3.866   1.620  17.591  0.0170  0.5011 -0.1875
  462TMC3    O2 6941   4.415   1.683   0.092 -0.0158  0.1040  0.4947
  463MPD2     C 6942   4.702   4.221   1.805 -0.5353 -0.3860  0.4165
  463MPD2    C1 6943   4.635   4.314   1.733 -0.6215  0.7853  0.5110
  463MPD2    C2 6944   4.668   4.447   1.757  0.3464 -0.0895 -0.3098
  463MPD2    C3 6945   0.017   4.479   1.864 -0.0980 -0.3405 -0.3961
  463MPD2    C4 6946   0.081   4.374   1.934  0.0582  0.4167 -0.1786
  463MPD2    C5 6947   0.054   4.241   1.907  0.1986  0.5876  0.2398
  463MPD2     H 6948   4.623   4.525   1.695 -2.3011 -0.7916  0.7415
  463MPD2    H1 6949   0.154   4.402   2.009  0.0258  2.4126 -0.8876
  463MPD2    H2 6950   4.689   4.115   1.785 -1.7007 -0.2256  0.3099
  463MPD2    H3 6951   0.099   4.160   1.963  0.8445  0.2779 -0.7251
  463MPD2     N 6952   0.052   4.611   1.903  0.2789 -0.0736  0.0252
  463MPD2    H5 6953   0.128   4.625   1.969  1.4367  0.0442 -1.3325
  463MPD2    N1 6954   4.540   4.289   1.635 -0.9774  0.1874 -0.3064
  463MPD2    H7 6955   4.495   4.371   1.596  0.6522  1.0776 -0.3007
  464TMC3    C1 6956   4.361   4.188   1.519 -0.1718  0.0051  0.0693
  464TMC3    C2 6957   4.291   4.304   1.492 -1.0278 -0.8227  0.2739
  464TMC3    C3 6958   4.175   4.295   1.423 -0.2949 -1.0866 -0.0818
  464TMC3    C4 6959   4.326   4.067   1.464  0.1028  0.2513  0.4276
  464TMC3    C5 6960   4.227   4.068   1.372 -0.1803 -0.3146 -0.7030
  464TMC3    C6 6961   4.143   4.177   1.365 -0.7862  0.5246  0.0018
  464TMC3     C 6962   4.477   4.171   1.605  0.2988 -0.4018 -0.2699
  464TMC3     O 6963   4.508   4.059   1.642 -0.2371 -0.3117  0.3452
  464TMC3     H 6964   4.308   4.396   1.549  1.6279  0.4388 -2.5433
  464TMC3    H1 6965   4.376   3.972   1.483  0.2577 -0.2705 -2.6331
  464TMC3    H2 6966   4.053   4.179   1.305  0.0626 -0.1517 -1.2991
  464TMC3    C7 6967   4.188   3.949   1.306 -0.5419 -0.2025 -0.8590
  464TMC3    C8 6968   4.073   4.398   1.428  0.5760  0.7711  0.0784
  464TMC3    O1 6969   4.229   3.844   1.351  0.2946  0.2803  0.9074
  464TMC3    O2 6970   4.125   4.506   1.450  0.4431 -0.5643 -0.0415
  465MPD2     C 6971   0.700   3.374  17.298  0.3416 -0.2258  0.3320
  465MPD2    C1 6972   0.621   3.478  17.352  0.7286 -0.6492 -0.0847
  465MPD2    C2 6973   0.524   3.533  17.269 -0.4669  0.0468 -0.5528
  465MPD2    C3 6974   0.501   3.479  17.139 -0.5185 -0.7974  0.1236
  465MPD2    C4 6975   0.580   3.374  17.095 -0.4573  0.0041  0.0226
  465MPD2    C5 6976   0.677   3.322  17.171 -0.5428 -0.1030 -0.6342
  465MPD2     H 6977   0.481   3.627  17.303  1.0915  0.0051  1.5685
  465MPD2    H1 6978   0.560   3.333  16.997  0.5104  1.4595 -0.7876
  465MPD2    H2 6979   0.783   3.326  17.349  3.0896  0.4128 -3.5316
  465MPD2    H3 6980   0.733   3.237  17.134 -3.6196 -0.8522 -3.5093
  465MPD2     N 6981   0.397   3.539  17.064  0.1016 -0.1097  0.4479
  465MPD2    H5 6982   0.355   3.624  17.101  1.6663  0.6418  0.5340
  465MPD2    N1 6983   0.653   3.530  17.480  0.0887  0.0693  0.1845
  465MPD2    H7 6984   0.617   3.618  17.515 -3.3194 -0.2383 -2.5586
  466TMC3    C1 6985   0.106   3.764  16.941 -0.2056  0.4430  0.8322
  466TMC3    C2 6986   0.123   3.817  16.818 -1.0112  0.2464  0.2859
  466TMC3    C3 6987   0.189   3.738  16.730 -0.2206  0.5626  0.1679
  466TMC3    C4 6988   0.171   3.643  16.984  0.3667 -0.0798  0.0218
  466TMC3    C5 6989   0.245   3.581  16.892 -0.6266 -0.2439  0.3410
  466TMC3    C6 6990   0.253   3.623  16.761 -0.0572 -0.9322  0.2820
  466TMC3     C 6991   0.099   3.855  17.052 -0.1276 -0.0649  0.6064
  466TMC3     O 6992   0.165   3.815  17.147 -0.2498 -0.1600  0.3082
  466TMC3     H 6993   0.061   3.903  16.794 -2.5696 -0.7661  0.7065
  466TMC3    H1 6994   0.172   3.608  17.086 -0.5437 -0.5973 -0.1422
  466TMC3    H2 6995   0.328   3.576  16.699  0.5213 -1.9939  1.7948
  466TMC3    C7 6996   0.350   3.494  16.945 -0.5629  0.4055 -0.7214
  466TMC3    C8 6997   0.244   3.796  16.609  0.0224 -0.6883  0.6427
  466TMC3    O1 6998   0.384   3.402  16.871 -0.4431 -0.1527 -0.1760
  466TMC3    O2 6999   0.294   3.723  16.526  0.2177  0.4645 -0.7302
  467TMC3    C1 7000   1.757   2.229  13.707 -0.0471 -0.8250  0.5960
  467TMC3    C2 7001   1.823   2.341  13.663  0.0433  0.7786 -0.3601
  467TMC3    C3 7002   1.752   2.458  13.682 -0.1270  0.0683  0.6711
  467TMC3    C4 7003   1.617   2.232  13.742 -0.1094  0.1742  0.4668
  467TMC3    C5 7004   1.551   2.352  13.734  0.0246 -0.2241 -0.0044
  467TMC3    C6 7005   1.625   2.471  13.719  0.0961  0.4383  0.6592
  467TMC3     C 7006   1.840   2.109  13.718 -0.3729  0.1990 -0.0874
  467TMC3     O 7007   1.963   2.128  13.719  0.0509  0.3783 -0.3129
  467TMC3     H 7008   1.931   2.333  13.652  0.0296  0.5770 -0.3522
  467TMC3    H1 7009   1.561   2.145  13.775 -0.2597  1.2453  3.0634
  467TMC3    H2 7010   1.572   2.566  13.720 -0.9543 -0.1360 -0.9798
  467TMC3    C7 7011   1.405   2.363  13.732 -0.4260  0.2904 -0.4520
  467TMC3    C8 7012   1.797   2.584  13.634 -0.9042 -0.1316 -0.2845
  467TMC3    O1 7013   1.359   2.453  13.662 -0.6944 -0.6907 -0.9777
  467TMC3    O2 7014   1.721   2.678  13.619 -0.4690 -0.1976  0.0129
  468MPD2     C 7015   0.271   0.378  10.469  0.3748  0.2732 -0.3726
  468MPD2    C1 7016   0.210   0.383  10.590  0.7619  0.0962  0.6675
  468MPD2    C2 7017   0.188   0.270  10.669 -0.6554 -0.1217 -0.2817
  468MPD2    C3 7018   0.210   0.142  10.619  0.7177 -0.2412 -0.0201
  468MPD2    C4 7019   0.265   0.142  10.493 -0.5475  0.5740 -0.1620
  468MPD2    C5 7020   0.295   0.254  10.424 -0.0370 -0.1597  0.5814
  468MPD2     H 7021   0.144   0.281  10.767 -0.2126  0.6968 -0.1716
  468MPD2    H1 7022   0.304   0.049  10.452  1.7326  0.8358  1.4162
  468MPD2    H2 7023   0.305   0.467  10.416  0.7956  0.4735  0.2329
  468MPD2    H3 7024   0.356   0.243  10.334  0.1412  1.4513  0.4973
  468MPD2     N 7025   0.184   0.020  10.689  0.3301 -0.1286  0.2983
  468MPD2    H5 7026   0.226   4.675  10.644 -1.7004 -1.4891  0.8314
  468MPD2    N1 7027   0.184   0.509  10.649 -0.4172 -0.6746 -0.1635
  468MPD2    H7 7028   0.134   0.503  10.737  2.1779  2.2614  1.4680
  469TMC3    C1 7029   0.176   0.729  10.698 -0.1329  0.2633  0.2852
  469TMC3    C2 7030   0.256   0.838  10.708 -0.5699 -0.1552 -0.5948
  469TMC3    C3 7031   0.234   0.929  10.809 -0.1809  0.2573 -0.1391
  469TMC3    C4 7032   0.084   0.703  10.795 -0.3593  0.2305  0.0697
  469TMC3    C5 7033   0.063   0.794  10.895 -0.5494  0.4160  0.1485
  469TMC3    C6 7034   0.140   0.908  10.908  0.7552  0.0041 -0.3748
  469TMC3     C 7035   0.210   0.635  10.601 -1.0261 -0.2942  0.4774
  469TMC3     O 7036   0.259   0.672  10.494  0.0429 -0.3133  0.3529
  469TMC3     H 7037   0.339   0.863  10.644  0.6670 -0.1733  1.0119
  469TMC3    H1 7038   0.009   0.625  10.794 -1.7571  1.5898 -1.6624
  469TMC3    H2 7039   0.132   0.982  10.987 -0.1887 -1.0298  0.4896
  469TMC3    C7 7040   4.680   0.768  10.980  0.2616 -0.7650  0.0202
  469TMC3    C8 7041   0.349   1.015  10.840  1.0505  0.0880 -0.6875
  469TMC3    O1 7042   4.589   0.697  10.936  0.5460 -0.8881 -0.1560
  469TMC3    O2 7043   0.433   1.035  10.751 -0.4545  0.5525  0.2441
  470TMC3    C1 7044   2.819   1.961   0.372 -0.1259 -0.4754 -0.2094
  470TMC3    C2 7045   2.752   2.075   0.419  0.2399  0.4295  0.7547
  470TMC3    C3 7046   2.738   2.094   0.554  0.0667 -0.1405  0.3893
  470TMC3    C4 7047   2.869   1.867   0.459  0.6797  0.1492 -0.6256
  470TMC3    C5 7048   2.848   1.887   0.591 -0.7571 -0.4796  0.1299
  470TMC3    C6 7049   2.780   1.999   0.638  0.4579 -1.2003 -0.2122
  470TMC3     C 7050   2.869   1.960   0.233  0.1646  0.5699  0.4595
  470TMC3     O 7051   2.965   1.884   0.213  0.5198 -0.4997 -0.2753
  470TMC3     H 7052   2.713   2.150   0.350  2.3621 -0.5632 -1.5299
  470TMC3    H1 7053   2.913   1.776   0.419  0.1210 -0.5132  0.2791
  470TMC3    H2 7054   2.762   2.016   0.743  2.7560 -1.0995  0.1756
  470TMC3    C7 7055   2.868   1.775   0.673 -0.0073 -0.2885  0.3611
  470TMC3    C8 7056   2.664   2.213   0.594 -0.4225  0.2466 -0.5098
  470TMC3    O1 7057   2.925   1.682   0.618 -0.0015  0.8337  0.2921
  470TMC3    O2 7058   2.599   2.265   0.506  0.6722  0.0516  0.8921
  471MPD2     C 7059   3.598   2.855  16.864  0.5172 -0.1431  0.5339
  471MPD2    C1 7060   3.600   2.756  16.771  0.4600 -0.0128 -0.5443
  471MPD2    C2 7061   3.716   2.678  16.756 -0.0334  0.5928 -0.8874
  471MPD2    C3 7062   3.832   2.708  16.818  0.2200  0.4776  0.4771
  471MPD2    C4 7063   3.830   2.812  16.914  0.1302  0.9716 -0.2442
  471MPD2    C5 7064   3.718   2.886  16.928 -0.4311  0.4969 -0.4478
  471MPD2     H 7065   3.699   2.588  16.697  3.6091 -0.9069  0.3356
  471MPD2    H1 7066   3.915   2.850  16.969  0.2342  0.0208  0.2451
  471MPD2    H2 7067   3.514   2.922  16.879  1.6092  1.3829 -0.2223
  471MPD2    H3 7068   3.719   2.975  16.990  1.0181  0.0351  0.1985
  471MPD2     N 7069   3.950   2.635  16.791  0.7160 -0.1649  0.6209
  471MPD2    H5 7070   4.025   2.639  16.859  0.4962 -0.2574  0.8703
  471MPD2    N1 7071   3.499   2.722  16.678 -0.3541  0.2124 -0.3841
  471MPD2    H7 7072   3.528   2.646  16.617  1.1425 -0.7490  1.5483
  472TMC3    C1 7073   3.318   2.722  16.538  0.4458 -0.4723 -0.0524
  472TMC3    C2 7074   3.184   2.727  16.525 -0.2142 -0.1304  0.5964
  472TMC3    C3 7075   3.125   2.655  16.426 -0.0723 -0.1551 -0.6995
  472TMC3    C4 7076   3.395   2.637  16.470 -0.7923 -0.0808  0.8051
  472TMC3    C5 7077   3.332   2.559  16.373 -0.8970 -0.0161  0.5079
  472TMC3    C6 7078   3.201   2.573  16.342  0.3456 -0.6902 -0.0425
  472TMC3     C 7079   3.378   2.785  16.654 -0.0769  0.7094  0.4222
  472TMC3     O 7080   3.303   2.856  16.723 -0.0224 -0.1332  0.0273
  472TMC3     H 7081   3.124   2.779  16.598 -1.4106 -0.0352 -0.4508
  472TMC3    H1 7082   3.503   2.634  16.472 -0.7707  0.9946  1.7504
  472TMC3    H2 7083   3.159   2.513  16.262  1.6341 -0.2916 -1.0144
  472TMC3    C7 7084   3.404   2.444  16.337 -0.7827 -0.6787  0.3012
  472TMC3    C8 7085   2.990   2.606  16.442  0.6399 -0.4025  0.1254
  472TMC3    O1 7086   3.481   2.408  16.426 -0.0825  0.0184  0.3709
  472TMC3    O2 7087   2.952   2.573  16.554  0.0995 -0.6786 -0.2884
  473MPD2     C 7088   2.815   4.359  13.810  0.0052  0.6528 -0.4851
  473MPD2    C1 7089   2.851   4.451  13.716  0.2743 -1.2637 -0.2697
  473MPD2    C2 7090   2.897   4.573  13.754  0.0857  0.2363  0.0519
  473MPD2    C3 7091   2.923   4.593  13.890  0.1956  0.3407  0.5711
  473MPD2    C4 7092   2.891   4.495  13.980  0.4223 -0.0562  0.0324
  473MPD2    C5 7093   2.839   4.377  13.935 -0.0148  0.4042  0.0338
  473MPD2     H 7094   2.926   4.647  13.681  1.5057  0.0092  0.3727
  473MPD2    H1 7095   2.890   4.506  14.088  0.3881  2.2012 -0.1979
  473MPD2    H2 7096   2.755   4.274  13.779  0.4921  0.5568 -1.1587
  473MPD2    H3 7097   2.791   4.307  14.002  0.8838  0.8200  1.1210
  473MPD2     N 7098   2.976   4.720  13.939 -0.4804  0.2887  0.1927
  473MPD2    H5 7099   2.975   0.012  14.036 -1.0960  0.2353  0.2038
  473MPD2    N1 7100   2.828   4.427  13.578 -0.5615  0.0774  0.3437
  473MPD2    H7 7101   2.856   4.498  13.511  0.6057 -0.1051  0.6394
  474TMC3    C1 7102   3.052   0.210  13.951 -0.2755  0.1338  0.2849
  474TMC3    C2 7103   3.123   0.314  13.889  0.2020 -0.0747  0.3149
  474TMC3    C3 7104   3.122   0.433  13.961 -0.1183 -0.3363 -0.1500
  474TMC3    C4 7105   3.004   0.221  14.072 -0.1879 -0.7402 -0.5144
  474TMC3    C5 7106   3.019   0.335  14.144 -0.6962  0.1302 -0.9788
  474TMC3    C6 7107   3.072   0.445  14.092  0.5145 -0.0421  0.1748
  474TMC3     C 7108   3.023   0.092  13.867  0.3219 -0.0945 -0.5921
  474TMC3     O 7109   3.029   0.112  13.747 -0.2949  0.0314 -0.3413
  474TMC3     H 7110   3.158   0.301  13.787 -0.6501 -0.3045  0.0523
  474TMC3    H1 7111   2.953   0.135  14.114 -0.6687 -0.9398 -1.5091
  474TMC3    H2 7112   3.065   0.542  14.139  0.2888  1.5579 -3.1119
  474TMC3    C7 7113   2.959   0.339  14.271  0.1398 -0.5693  0.6124
  474TMC3    C8 7114   3.111   0.544  13.872 -0.3864  0.2774 -0.0043
  474TMC3    O1 7115   2.870   0.258  14.304  0.7875  0.0187 -0.7471
  474TMC3    O2 7116   3.073   0.518  13.758  0.5999  0.6073 -0.3075
  475MPD2     C 7117   0.978   2.631  10.824  0.0781  0.4252  0.2141
  475MPD2    C1 7118   1.008   2.753  10.882 -0.0247  0.8358 -0.3056
  475MPD2    C2 7119   0.929   2.808  10.980 -1.0432  0.2456 -0.0788
  475MPD2    C3 7120   0.810   2.744  11.019 -0.1699 -0.5312  0.1000
  475MPD2    C4 7121   0.782   2.621  10.964 -0.6029 -0.3553 -0.5104
  475MPD2    C5 7122   0.856   2.565  10.866  0.4598 -0.1154  0.1361
  475MPD2     H 7123   0.955   2.905  11.021 -0.0426 -0.0486 -0.0209
  475MPD2    H1 7124   0.693   2.562  10.984  0.5269 -2.8188 -2.7204
  475MPD2    H2 7125   1.031   2.585  10.741  1.0944 -0.6974  1.4886
  475MPD2    H3 7126   0.830   2.468  10.826 -3.9443  1.2225 -0.2066
  475MPD2     N 7127   0.717   2.815  11.102 -0.2931 -0.3037  0.1393
  475MPD2    H5 7128   0.730   2.913  11.125  1.1544  0.5174 -4.2555
  475MPD2    N1 7129   1.130   2.816  10.861 -0.1511  0.0366 -1.1040
  475MPD2    H7 7130   1.146   2.900  10.917  2.2863 -0.6406 -0.7846
  476TMC3    C1 7131   1.337   2.879  10.785 -0.2210 -0.2590 -0.1310
  476TMC3    C2 7132   1.387   2.948  10.679 -0.4052 -0.6876  0.1597
  476TMC3    C3 7133   1.440   3.069  10.694  0.6106 -0.1968 -0.2049
  476TMC3    C4 7134   1.361   2.917  10.914 -0.0756 -0.0995  0.4650
  476TMC3    C5 7135   1.427   3.041  10.930 -0.4681 -0.0058 -0.3512
  476TMC3    C6 7136   1.449   3.123  10.821 -0.5437  0.4505  0.2324
  476TMC3     C 7137   1.230   2.787  10.771 -0.2964 -0.4701  0.5259
  476TMC3     O 7138   1.233   2.720  10.669  0.1889  0.0930 -0.5401
  476TMC3     H 7139   1.369   2.910  10.579 -0.8739 -1.1091  0.4077
  476TMC3    H1 7140   1.325   2.853  10.994 -0.5777  0.2214  0.4989
  476TMC3    H2 7141   1.496   3.219  10.834 -0.9315  0.9331 -1.9830
  476TMC3    C7 7142   1.395   3.097  11.065 -0.2970  0.0117  0.4133
  476TMC3    C8 7143   1.543   3.120  10.600  0.5601 -0.0653  0.1823
  476TMC3    O1 7144   1.355   3.012  11.143 -0.1539  0.8164  0.7097
  476TMC3    O2 7145   1.623   3.202  10.647 -0.0436 -0.7005  0.7347
  477MPD2     C 7146   3.743   4.444  11.787 -0.0657 -0.8800  0.0036
  477MPD2    C1 7147   3.687   4.334  11.731 -0.3908  0.0762  0.2596
  477MPD2    C2 7148   3.653   4.221  11.806  0.1853  0.4987 -0.5649
  477MPD2    C3 7149   3.691   4.214  11.937  0.3590 -0.4196  0.1628
  477MPD2    C4 7150   3.753   4.324  11.999  0.2216 -0.5098  0.1440
  477MPD2    C5 7151   3.771   4.440  11.923  0.2852  0.0308  0.5179
  477MPD2     H 7152   3.597   4.135  11.770  0.7546 -0.4123  0.7163
  477MPD2    H1 7153   3.789   4.325  12.101  0.4686  0.3453  0.0522
  477MPD2    H2 7154   3.768   4.539  11.741  0.6323 -0.8238  0.5085
  477MPD2    H3 7155   3.818   4.528  11.966 -1.5614  2.1393 -1.7619
  477MPD2     N 7156   3.663   4.094  12.006  0.4268 -0.1816  0.2146
  477MPD2    H5 7157   3.639   4.015  11.947  0.3650 -1.3873  1.8339
  477MPD2    N1 7158   3.636   4.361  11.601  0.1856 -0.9016 -0.4071
  477MPD2    H7 7159   3.652   4.452  11.559 -0.4763 -1.1065 -1.1100
  478TMC3    C1 7160   3.498   4.337  11.411  0.3084  0.5166  0.9438
  478TMC3    C2 7161   3.474   4.471  11.410  1.0427 -0.1767  0.2052
  478TMC3    C3 7162   3.388   4.524  11.324 -0.3699  0.0391 -0.0765
  478TMC3    C4 7163   3.423   4.253  11.331 -0.2117  0.2031 -0.0641
  478TMC3    C5 7164   3.343   4.312  11.242  0.3501 -0.0668  0.0485
  478TMC3    C6 7165   3.324   4.447  11.232  0.0541  0.2147  0.2495
  478TMC3     C 7166   3.561   4.277  11.526  0.2009 -0.1061  0.3682
  478TMC3     O 7167   3.550   4.155  11.527  0.3003  0.1686  0.1417
  478TMC3     H 7168   3.526   4.536  11.480 -1.4899  0.0829  1.8156
  478TMC3    H1 7169   3.429   4.146  11.346 -0.0115  0.0517 -1.2142
  478TMC3    H2 7170   3.242   4.477  11.168  0.2019 -0.0244 -0.0540
  478TMC3    C7 7171   3.239   4.223  11.188  0.1698  0.0362 -0.3517
  478TMC3    C8 7172   3.309   4.627  11.388 -0.4042  0.9446  0.5830
  478TMC3    O1 7173   3.216   4.121  11.253 -0.2964 -0.1782 -0.1636
  478TMC3    O2 7174   3.320   4.643  11.511 -0.1966 -0.5524 -0.2865
  479MPD2     C 7175   3.126   2.127  15.337 -1.0036 -0.5127 -1.1896
  479MPD2    C1 7176   3.028   2.079  15.430 -0.4637 -0.4097 -0.1059
  479MPD2    C2 7177   3.036   2.124  15.559 -0.0864 -0.3289 -0.0770
  479MPD2    C3 7178   3.120   2.228  15.597 -0.4075 -0.2652  1.1318
  479MPD2    C4 7179   3.192   2.284  15.497 -0.1442  0.4189  0.2590
  479MPD2    C5 7180   3.211   2.234  15.372  0.6034 -0.0120 -0.3633
  479MPD2     H 7181   2.953   2.099  15.625 -1.6343  2.4903 -0.9555
  479MPD2    H1 7182   3.254   2.371  15.518  0.1313 -0.1370  1.7376
  479MPD2    H2 7183   3.135   2.092  15.235 -0.1247 -3.4015 -0.1068
  479MPD2    H3 7184   3.284   2.285  15.309 -0.2886  0.6125 -0.8844
  479MPD2     N 7185   3.127   2.280  15.730 -0.2310  0.8276 -0.4010
  479MPD2    H5 7186   3.164   2.373  15.745 -1.0780  1.2853 -1.1501
  479MPD2    N1 7187   2.927   1.992  15.388  0.5575 -0.1935 -0.2808
  479MPD2    H7 7188   2.936   1.961  15.292 -0.4390 -0.1044 -0.3949
  480TMC3    C1 7189   2.863   2.183  16.075 -0.1625  0.4859  0.1092
  480TMC3    C2 7190   2.760   2.211  15.989 -0.5764 -0.1483 -0.2576
  480TMC3    C3 7191   2.782   2.288  15.877 -0.8887 -0.1831  0.6119
  480TMC3    C4 7192   2.991   2.211  16.038 -0.3974  0.0846  0.2092
  480TMC3    C5 7193   3.009   2.289  15.924  0.4847  0.4603 -0.5921
  480TMC3    C6 7194   2.902   2.337  15.847 -0.1273 -0.2157 -0.4227
  480TMC3     C 7195   2.849   2.068  16.170 -0.7138 -0.3746 -0.2890
  480TMC3     O 7196   2.744   1.998  16.167  0.0199  0.4855 -0.0099
  480TMC3     H 7197   2.660   2.180  16.017 -0.0161 -0.9223  0.8901
  480TMC3    H1 7198   3.074   2.154  16.077 -0.9555 -0.2443  0.9276
  480TMC3    H2 7199   2.927   2.409  15.770 -0.3146  1.1850  0.8141
  480TMC3    C7 7200   3.082   2.204  15.835 -0.0573  0.8812 -0.1273
  480TMC3    C8 7201   2.686   2.277  15.771  0.8400 -0.2682 -0.2988
  480TMC3    O1 7202   3.081   2.086  15.835  0.0003  0.2291  0.0549
  480TMC3    O2 7203   2.565   2.255  15.803 -0.1589 -0.0333 -0.0334
  481MPD2     C 7204   4.662   1.271  14.482 -0.3310 -0.2359  0.2363
  481MPD2    C1 7205   4.525   1.251  14.500  0.2155 -0.4958 -0.3704
  481MPD2    C2 7206   4.487   1.206  14.624  0.1176 -0.0964 -0.3377
  481MPD2    C3 7207   4.580   1.186  14.731 -0.8600 -0.5497  0.5781
  481MPD2    C4 7208   4.717   1.206  14.710 -0.7102 -0.4358 -0.2632
  481MPD2    C5 7209   0.020   1.254  14.583  0.5390  0.1161 -0.5555
  481MPD2     H 7210   4.389   1.172  14.654  0.2198  0.9441  1.2086
  481MPD2    H1 7211   0.057   1.201  14.787 -1.0105  0.8220  0.1110
  481MPD2    H2 7212   4.707   1.308  14.390  2.3532  1.5374  2.2600
  481MPD2    H3 7213   0.123   1.276  14.558  0.5441  0.9656  0.2067
  481MPD2     N 7214   4.545   1.153  14.862  0.1525 -0.1535  0.4025
  481MPD2    H5 7215   4.624   1.132  14.922  0.1335 -0.1302  0.4359
  481MPD2    N1 7216   4.441   1.264  14.394 -0.5836 -0.1961 -0.0999
  481MPD2    H7 7217   4.479   1.294  14.305  0.7146 -0.3267  0.4071
  482TMC3    C1 7218   4.243   1.232  14.267 -0.5378 -0.5761 -1.1784
  482TMC3    C2 7219   4.132   1.156  14.251  0.3910  0.2822  0.8045
  482TMC3    C3 7220   4.066   1.173  14.136  0.3203  0.0213 -0.1860
  482TMC3    C4 7221   4.289   1.316  14.167 -0.1355 -0.2951  0.1718
  482TMC3    C5 7222   4.223   1.326  14.051 -0.1852  0.8890  1.0436
  482TMC3    C6 7223   4.110   1.257  14.030  0.1788  0.6321 -1.0354
  482TMC3     C 7224   4.304   1.229  14.398  0.5921  0.2054  0.0480
  482TMC3     O 7225   4.229   1.196  14.488 -0.3295 -0.0501 -0.5897
  482TMC3     H 7226   4.096   1.086  14.325 -3.5006  1.0374 -0.3385
  482TMC3    H1 7227   4.374   1.382  14.179 -0.9311  0.4512  1.7303
  482TMC3    H2 7228   4.077   1.256  13.927 -0.9447  1.3339 -0.6856
  482TMC3    C7 7229   4.251   1.438  13.970 -0.1045 -0.2664  0.3457
  482TMC3    C8 7230   3.961   1.084  14.101  1.0846 -0.7275  0.5117
  482TMC3    O1 7231   4.331   1.525  14.012  0.2448  0.0512 -0.2793
  482TMC3    O2 7232   3.945   0.981  14.166 -0.2797 -0.2314 -0.1228
  483TMC3    C1 7233   3.165   0.653   0.927 -0.2215  0.0294  0.1819
  483TMC3    C2 7234   3.146   0.777   0.865 -0.6609 -0.4577  0.3564
  483TMC3    C3 7235   3.255   0.835   0.810 -0.1198  0.8025  0.3003
  483TMC3    C4 7236   3.290   0.592   0.939  1.4029 -0.0184 -0.1482
  483TMC3    C5 7237   3.397   0.644   0.861 -0.6920  0.7616  0.2624
  483TMC3    C6 7238   3.378   0.762   0.799 -0.1417  1.0156 -0.3633
  483TMC3     C 7239   3.058   0.606   1.014 -0.0451 -0.3794 -0.1920
  483TMC3     O 7240   2.971   0.693   1.043 -0.0294  0.5203  0.0134
  483TMC3     H 7241   3.048   0.821   0.862 -0.9609 -1.2482 -1.2944
  483TMC3    H1 7242   3.296   0.496   0.990  0.9428  0.5103  0.8853
  483TMC3    H2 7243   3.459   0.804   0.740  1.1166 -0.4193  0.3481
  483TMC3    C7 7244   3.506   0.563   0.809 -1.0180 -0.2482 -0.0202
  483TMC3    C8 7245   3.233   0.932   0.697  1.0112  0.0945 -0.0093
  483TMC3    O1 7246   3.586   0.619   0.738 -0.3033 -0.7358  0.6056
  483TMC3    O2 7247   3.309   0.916   0.600 -0.3361 -0.0668 -0.0554
  484MPD2     C 7248   4.270   3.303  12.672  0.2381  0.2782 -0.1187
  484MPD2    C1 7249   4.343   3.196  12.727  0.2708 -0.0901  0.0730
  484MPD2    C2 7250   4.478   3.176  12.687 -0.0496 -0.6104 -0.2464
  484MPD2    C3 7251   4.535   3.256  12.590  0.2506 -0.2495  0.0354
  484MPD2    C4 7252   4.465   3.369  12.551  1.0924  0.3080 -0.6309
  484MPD2    C5 7253   4.340   3.389  12.585 -0.2534  0.0031 -0.4741
  484MPD2     H 7254   4.533   3.088  12.720 -2.2642 -1.9217 -0.0635
  484MPD2    H1 7255   4.510   3.452  12.498  0.4995  0.3322 -1.0969
  484MPD2    H2 7256   4.165   3.314  12.697 -0.4921 -1.6997 -2.3227
  484MPD2    H3 7257   4.293   3.481  12.552 -0.2211 -0.4911 -1.8883
  484MPD2     N 7258   4.663   3.242  12.532 -0.4812 -0.2033 -0.7718
  484MPD2    H5 7259   4.700   3.330  12.496  0.6737  0.1546  1.3026
  484MPD2    N1 7260   4.274   3.117  12.820 -0.9967  0.1421  0.3981
  484MPD2    H7 7261   4.172   3.124  12.816 -0.8529  0.7018 -2.0032
  485TMC3    C1 7262   0.140   3.160  12.486  0.4568 -0.8205  0.2462
  485TMC3    C2 7263   0.229   3.063  12.523 -0.1312 -0.3391  0.7981
  485TMC3    C3 7264   0.356   3.108  12.536 -0.0864 -0.2619  0.2146
  485TMC3    C4 7265   0.172   3.288  12.439 -0.1132  0.1977 -0.0123
  485TMC3    C5 7266   0.309   3.312  12.432 -0.1647  0.0433 -0.0215
  485TMC3    C6 7267   0.396   3.236  12.501  0.4603  0.5302 -0.4687
  485TMC3     C 7268   0.006   3.132  12.539 -0.1136  0.2172 -0.0587
  485TMC3     O 7269   4.723   3.027  12.589  0.1492 -0.2895 -0.3524
  485TMC3     H 7270   0.207   2.962  12.557 -0.0562 -0.3654  0.7670
  485TMC3    H1 7271   0.101   3.366  12.413 -2.5206 -1.7152  0.7793
  485TMC3    H2 7272   0.502   3.253  12.513  0.1550 -0.7178  4.1401
  485TMC3    C7 7273   0.348   3.357  12.297  0.0575  0.0379  0.1884
  485TMC3    C8 7274   0.451   3.014  12.492  0.0052  0.0277  0.0014
  485TMC3    O1 7275   0.282   3.448  12.242  0.9777 -0.5281  0.6016
  485TMC3    O2 7276   0.522   3.046  12.394  0.4893 -0.5960 -0.0593
  486MPD2     C 7277   2.003   1.476  13.231  0.0734  0.3732  0.1153
  486MPD2    C1 7278   2.061   1.473  13.108 -0.6717  0.6174  0.3569
  486MPD2    C2 7279   2.034   1.579  13.019  0.1311  0.6221  0.2481
  486MPD2    C3 7280   1.948   1.681  13.058  0.3733 -0.8845  0.0011
  486MPD2    C4 7281   1.869   1.668  13.174  0.1581 -0.5889  0.8246
  486MPD2    C5 7282   1.903   1.565  13.258 -0.1478  0.2014  0.2091
  486MPD2     H 7283   2.090   1.591  12.927  0.8618 -0.7377  0.5126
  486MPD2    H1 7284   1.806   1.747  13.214  0.3187 -0.9331  1.7669
  486MPD2    H2 7285   2.024   1.402  13.307 -2.3227 -1.6982 -1.2555
  486MPD2    H3 7286   1.851   1.553  13.352 -1.0504 -0.3864 -0.3608
  486MPD2     N 7287   1.932   1.789  12.979  0.4221  0.3983  0.1634
  486MPD2    H5 7288   1.972   1.797  12.886 -1.0605 -0.3408 -0.5402
  486MPD2    N1 7289   2.147   1.362  13.080  0.3266  0.9538  0.6046
  486MPD2    H7 7290   2.161   1.300  13.159 -2.4335  1.8869  1.8308
  487TMC3    C1 7291   2.281   1.211  12.974 -0.5210 -0.3120 -0.2939
  487TMC3    C2 7292   2.228   1.093  12.929  0.0853  0.2195 -0.0885
  487TMC3    C3 7293   2.261   0.974  12.995  0.9361  0.0576 -0.1825
  487TMC3    C4 7294   2.351   1.211  13.091 -0.0282 -0.2569 -0.2240
  487TMC3    C5 7295   2.370   1.094  13.155  0.3588 -0.0040 -0.6053
  487TMC3    C6 7296   2.328   0.973  13.111  0.5025 -0.9946 -0.3579
  487TMC3     C 7297   2.194   1.328  12.961  0.3187  0.3838  0.5368
  487TMC3     O 7298   2.153   1.366  12.852 -0.1102  0.4228 -0.6734
  487TMC3     H 7299   2.169   1.086  12.838  1.4444 -0.3383 -0.9301
  487TMC3    H1 7300   2.391   1.308  13.118 -0.7894  0.0723 -0.2657
  487TMC3    H2 7301   2.305   0.892  13.179  1.8930  1.3634  2.8926
  487TMC3    C7 7302   2.360   1.117  13.304 -0.9350 -0.0958 -0.5065
  487TMC3    C8 7303   2.149   0.880  12.985 -0.7965  0.2358 -0.6251
  487TMC3    O1 7304   2.298   1.219  13.342  0.3030 -0.2694  0.0810
  487TMC3    O2 7305   2.180   0.759  12.975  0.9024  0.2339  0.4663
  488MPD2     C 7306   2.285   3.728  15.948 -0.3572  0.3161 -0.0730
  488MPD2    C1 7307   2.329   3.835  16.022  0.0186  0.5222  0.0713
  488MPD2    C2 7308   2.350   3.823  16.161 -0.1301 -0.5886 -0.7057
  488MPD2    C3 7309   2.317   3.706  16.225  0.3804  0.3499 -0.2574
  488MPD2    C4 7310   2.267   3.601  16.145 -1.0249  0.2230  0.1776
  488MPD2    C5 7311   2.253   3.611  16.009  1.0261  0.0576 -0.3261
  488MPD2     H 7312   2.392   3.906  16.217  1.7528 -1.0302 -1.4390
  488MPD2    H1 7313   2.242   3.506  16.190  0.0392 -0.8536 -1.5163
  488MPD2    H2 7314   2.287   3.727  15.840 -1.6168 -0.9978 -0.0842
  488MPD2    H3 7315   2.227   3.526  15.947 -0.0730  0.2537 -0.1231
  488MPD2     N 7316   2.328   3.702  16.367 -0.2692 -0.0717 -0.1368
  488MPD2    H5 7317   2.363   3.782  16.418 -0.7463 -1.0738  1.7924
  488MPD2    N1 7318   2.370   3.955  15.966  0.1203 -0.5480  0.0731
  488MPD2    H7 7319   2.390   4.031  16.031 -1.6924 -1.6102  1.8751
  489TMC3    C1 7320   2.332   3.613  16.579  0.1322  0.0737  0.3928
  489TMC3    C2 7321   2.451   3.678  16.606 -0.1471 -0.2010  0.4986
  489TMC3    C3 7322   2.488   3.688  16.736 -0.6831  0.3064  0.0946
  489TMC3    C4 7323   2.252   3.550  16.675 -0.6925 -0.5763 -0.4871
  489TMC3    C5 7324   2.296   3.561  16.805  0.0485  0.2056 -0.1895
  489TMC3    C6 7325   2.407   3.634  16.839 -0.2153 -0.4737 -0.1220
  489TMC3     C 7326   2.279   3.601  16.449  0.3886 -1.0136  0.2586
  489TMC3     O 7327   2.213   3.501  16.416  0.3900  0.5902 -0.2260
  489TMC3     H 7328   2.504   3.734  16.530  0.3682 -0.4052  0.7076
  489TMC3    H1 7329   2.153   3.513  16.650 -1.4330  0.4586  0.9371
  489TMC3    H2 7330   2.448   3.621  16.939  0.5808 -1.2143 -0.5526
  489TMC3    C7 7331   2.198   3.559  16.906  0.1925  0.5677  0.0509
  489TMC3    C8 7332   2.577   3.797  16.770 -0.3442  0.7399  0.1127
  489TMC3    O1 7333   2.208   3.648  16.995  0.1048 -0.0651  0.3912
  489TMC3    O2 7334   2.649   3.835  16.678 -0.2498  0.1712  0.3287
  490MPD2     C 7335   3.393   3.277  17.145 -0.1062  0.3471 -0.4525
  490MPD2    C1 7336   3.373   3.227  17.275 -0.0854  0.4721  0.1753
  490MPD2    C2 7337   3.372   3.313  17.378 -0.5644  0.1003  0.4473
  490MPD2    C3 7338   3.413   3.445  17.366  0.2248 -0.3330  0.2931
  490MPD2    C4 7339   3.440   3.490  17.240  0.2378  0.0207 -0.5031
  490MPD2    C5 7340   3.435   3.408  17.131  0.2218 -1.0640 -0.1317
  490MPD2     H 7341   3.358   3.275  17.479 -3.4970 -0.1995 -0.0652
  490MPD2    H1 7342   3.467   3.595  17.233 -2.0783  0.8204  2.7070
  490MPD2    H2 7343   3.394   3.209  17.061 -0.3061  0.3621 -0.4660
  490MPD2    H3 7344   3.461   3.446  17.033 -0.5453  0.6416  0.3305
  490MPD2     N 7345   3.428   3.537  17.473  0.1252 -0.0965  0.7542
  490MPD2    H5 7346   3.482   3.621  17.455 -0.3899  0.1900  0.5393
  490MPD2    N1 7347   3.357   3.091  17.311  0.1800  0.4879 -0.1238
  490MPD2    H7 7348   3.359   3.074  17.411 -0.1904 -0.4309 -0.2780
  491TMC3    C1 7349   3.333   2.861  17.300  0.0363 -0.0280  0.7317
  491TMC3    C2 7350   3.262   2.864  17.421 -0.1299 -0.0124  0.5061
  491TMC3    C3 7351   3.231   2.742  17.476  0.6397  0.8607  0.3898
  491TMC3    C4 7352   3.359   2.739  17.228  0.1651 -0.2559  0.5712
  491TMC3    C5 7353   3.316   2.623  17.288  0.7018  0.0656  0.1955
  491TMC3    C6 7354   3.264   2.622  17.415  0.1789  0.4899 -0.5992
  491TMC3     C 7355   3.355   2.985  17.223  0.1180 -0.1798  0.7812
  491TMC3     O 7356   3.361   2.983  17.101 -0.4678 -0.5285 -0.5778
  491TMC3     H 7357   3.219   2.953  17.465 -0.5008  0.6709 -1.2260
  491TMC3    H1 7358   3.396   2.741  17.127 -1.5552  1.1928 -0.0316
  491TMC3    H2 7359   3.219   2.532  17.456 -1.3782  0.8307 -1.5458
  491TMC3    C7 7360   3.251   2.528  17.195 -0.8438 -0.1505 -0.1218
  491TMC3    C8 7361   3.112   2.742  17.566  0.5210 -0.3032  0.1426
  491TMC3    O1 7362   3.165   2.460  17.246 -0.5806 -0.1326 -0.2578
  491TMC3    O2 7363   3.031   2.835  17.549 -0.1820  0.1747  0.5640
  492MPD2     C 7364   3.320   2.812  11.238  0.4292  0.1596 -0.2804
  492MPD2    C1 7365   3.206   2.813  11.161 -0.3393 -0.0452 -0.1053
  492MPD2    C2 7366   3.096   2.742  11.197  0.3542 -0.1813  0.1844
  492MPD2    C3 7367   3.088   2.684  11.323  0.0045 -0.3718 -0.5632
  492MPD2    C4 7368   3.196   2.694  11.408 -0.6412 -0.6101  0.8769
  492MPD2    C5 7369   3.310   2.750  11.361  0.2492 -0.4666  0.3704
  492MPD2     H 7370   3.009   2.734  11.133 -0.2951  1.7884  0.8196
  492MPD2    H1 7371   3.196   2.663  11.512 -0.2409 -1.2732  0.6806
  492MPD2    H2 7372   3.414   2.858  11.210 -0.6539  1.6172 -1.5044
  492MPD2    H3 7373   3.401   2.749  11.420  1.3146  1.1833 -1.2461
  492MPD2     N 7374   2.975   2.622  11.380 -0.1247  0.0804 -0.6155
  492MPD2    H5 7375   2.989   2.598  11.478 -1.7294 -0.8217 -0.6116
  492MPD2    N1 7376   3.219   2.886  11.036  0.3149 -0.2185  0.0060
  492MPD2    H7 7377   3.310   2.931  11.030  1.0478 -1.5868  0.7576
  493TMC3    C1 7378   3.159   2.954  10.817  0.4980  0.8501 -0.0004
  493TMC3    C2 7379   3.197   3.085  10.824 -0.3191  0.7541  0.3805
  493TMC3    C3 7380   3.149   3.174  10.727  0.2226 -0.0160  0.1130
  493TMC3    C4 7381   3.078   2.912  10.706 -0.0400  0.0098  0.2970
  493TMC3    C5 7382   3.029   3.004  10.622  0.1787  0.4716  0.4730
  493TMC3    C6 7383   3.061   3.139  10.626  0.0462 -0.4110 -0.2936
  493TMC3     C 7384   3.126   2.879  10.937 -0.7678 -0.3446  0.2734
  493TMC3     O 7385   3.016   2.826  10.932  0.3173  0.0323 -0.2586
  493TMC3     H 7386   3.257   3.124  10.906  0.3024  0.6353 -0.0173
  493TMC3    H1 7387   3.054   2.808  10.691  0.4126 -0.0438 -0.0575
  493TMC3    H2 7388   2.990   3.214  10.594  0.5557 -0.3040 -1.1668
  493TMC3    C7 7389   2.898   2.969  10.576  0.2161 -0.5706  0.3564
  493TMC3    C8 7390   3.124   3.302  10.780  0.1984  0.1275 -0.0561
  493TMC3    O1 7391   2.841   3.042  10.494 -0.0253  0.3500 -0.0529
  493TMC3    O2 7392   3.111   3.304  10.903  0.5711  0.1873  0.5262
  494TMC3    C1 7393   4.299   0.055   0.583  0.1144 -0.5244 -0.1978
  494TMC3    C2 7394   4.222   4.680   0.546  0.0201  0.2691 -0.1096
  494TMC3    C3 7395   4.193   4.652   0.418 -0.1353 -0.1346 -0.8013
  494TMC3    C4 7396   4.336   0.144   0.482 -0.5103 -0.1423  0.0218
  494TMC3    C5 7397   4.310   0.108   0.353 -0.3543 -0.6075 -0.5533
  494TMC3    C6 7398   4.240   4.728   0.317 -0.0450  0.2511  0.0149
  494TMC3     C 7399   4.261   0.103   0.713 -0.4113  0.9686 -0.9698
  494TMC3     O 7400   4.140   0.101   0.749 -0.0610  0.2767 -0.5805
  494TMC3     H 7401   4.157   4.651   0.628  0.1929 -0.9090 -0.3954
  494TMC3    H1 7402   4.398   0.228   0.511  0.1422 -1.2719  1.8362
  494TMC3    H2 7403   4.216   4.697   0.216  0.7232  1.5533 -0.5705
  494TMC3    C7 7404   4.396   0.156   0.248  0.2296  0.1571  0.8984
  494TMC3    C8 7405   4.117   4.532   0.390 -0.0396  0.5177 -0.2440
  494TMC3    O1 7406   4.459   0.070   0.192 -0.1475  0.1276  0.3000
  494TMC3    O2 7407   4.053   4.536   0.287 -0.5227  0.3483 -0.1818
  495TMC3    C1 7408   3.119   2.278  14.866 -0.1105  0.6741 -0.3282
  495TMC3    C2 7409   3.040   2.321  14.758  1.0984  0.0481 -0.1377
  495TMC3    C3 7410   2.909   2.350  14.792 -0.1005  0.4621  0.3198
  495TMC3    C4 7411   3.080   2.294  14.997  0.6555  0.2085 -0.8767
  495TMC3    C5 7412   2.948   2.333  15.024  0.0019  0.6267  0.4592
  495TMC3    C6 7413   2.867   2.358  14.918 -0.0431 -0.1910 -0.2597
  495TMC3     C 7414   3.139   2.132  14.844  0.4956  0.2854 -0.7487
  495TMC3     O 7415   3.109   2.059  14.935  0.2642  0.7311 -0.1759
  495TMC3     H 7416   3.071   2.315  14.654 -0.6163 -1.1109 -0.5710
  495TMC3    H1 7417   3.142   2.259  15.079  1.1063 -1.6720 -2.0388
  495TMC3    H2 7418   2.765   2.389  14.937  0.1826 -0.3949  1.2599
  495TMC3    C7 7419   2.903   2.351  15.162 -0.1966 -0.1336  0.1278
  495TMC3    C8 7420   2.805   2.349  14.691  0.1557  0.0136  0.9910
  495TMC3    O1 7421   2.972   2.398  15.251  0.1809  0.4834  0.4894
  495TMC3    O2 7422   2.688   2.331  14.729  0.4706 -0.0380 -0.0005
  496MPD2     C 7423   4.566   2.000  14.988  0.2453 -0.1745  0.2412
  496MPD2    C1 7424   4.636   2.024  15.102 -1.0004  0.0610  0.2240
  496MPD2    C2 7425   4.635   1.928  15.200 -0.5479  0.0241  0.1751
  496MPD2    C3 7426   4.571   1.812  15.192 -1.0551 -0.5669 -0.4936
  496MPD2    C4 7427   4.509   1.785  15.071 -0.0191  0.9359  0.4099
  496MPD2    C5 7428   4.506   1.877  14.968 -0.2327  0.2866  0.3052
  496MPD2     H 7429   4.708   1.941  15.279  0.1553  2.3724 -0.8632
  496MPD2    H1 7430   4.447   1.697  15.064  0.9955  0.3539 -1.0985
  496MPD2    H2 7431   4.544   2.077  14.915 -0.2568 -0.2238  0.3383
  496MPD2    H3 7432   4.456   1.855  14.875 -0.6133  0.9387  0.3529
  496MPD2     N 7433   4.603   1.704  15.273  0.1743 -0.6300  0.3903
  496MPD2    H5 7434   4.586   1.618  15.222  0.4547 -0.7769  0.5479
  496MPD2    N1 7435   4.715   2.138  15.130 -0.0599  0.0571  0.6141
  496MPD2    H7 7436   0.013   2.155  15.225 -1.3343 -0.2893  1.1290
  497TMC3    C1 7437   4.697   1.584  15.455  0.0950  0.2231  0.5798
  497TMC3    C2 7438   0.046   1.528  15.364 -0.0312 -0.1007 -0.1281
  497TMC3    C3 7439   0.137   1.448  15.422 -0.6147 -0.6051 -0.4894
  497TMC3    C4 7440   4.718   1.585  15.588  0.5471  0.0244  1.1025
  497TMC3    C5 7441   0.097   1.519  15.636  0.2944  0.2294  0.1451
  497TMC3    C6 7442   0.180   1.456  15.554 -0.0677 -0.0501  0.1525
  497TMC3     C 7443   4.645   1.712  15.403 -0.1849 -0.1260 -0.0985
  497TMC3     O 7444   4.649   1.817  15.466  1.0002  0.4440 -0.7208
  497TMC3     H 7445   0.041   1.531  15.256 -0.2233  3.3853 -0.0125
  497TMC3    H1 7446   4.651   1.626  15.662 -0.2890 -0.1135  0.4286
  497TMC3    H2 7447   0.261   1.397  15.594 -0.2223 -0.3244  0.0573
  497TMC3    C7 7448   0.067   1.457  15.766  0.0706 -0.2793 -0.3500
  497TMC3    C8 7449   0.219   1.378  15.324  0.3002 -0.4133 -0.1114
  497TMC3    O1 7450   4.697   1.402  15.778 -0.0544  0.6419 -1.0079
  497TMC3    O2 7451   0.155   1.338  15.224 -0.3362 -0.3728  0.5782
  498MPD2     C 7452   0.369   3.666   9.917  0.2411 -0.3754 -0.0463
  498MPD2    C1 7453   0.497   3.631   9.979 -0.3860  0.0506 -0.2876
  498MPD2    C2 7454   0.503   3.585  10.106  0.4153 -0.5858  0.5609
  498MPD2    C3 7455   0.386   3.571  10.182  0.0197  0.6088  0.3336
  498MPD2    C4 7456   0.263   3.598  10.118  1.0645 -0.9733  0.8165
  498MPD2    C5 7457   0.257   3.654   9.994  0.1933  0.9304 -0.1175
  498MPD2     H 7458   0.595   3.553  10.152 -0.2809 -1.0214  1.6438
  498MPD2    H1 7459   0.169   3.567  10.160  0.6311 -0.4532  0.2242
  498MPD2    H2 7460   0.357   3.708   9.818 -2.9727  0.2491  0.5896
  498MPD2    H3 7461   0.161   3.678   9.951  0.2145  0.1625 -0.5951
  498MPD2     N 7462   0.397   3.506  10.304 -0.4479  0.1053 -0.4528
  498MPD2    H5 7463   0.486   3.462  10.328 -0.0512  0.3616 -1.4560
  498MPD2    N1 7464   0.619   3.637   9.907  0.0969  0.1247 -0.2095
  498MPD2    H7 7465   0.698   3.646   9.970  0.9973 -0.6930 -1.2246
  499TMC3    C1 7466   0.778   3.679   9.738 -0.5119  0.5157 -0.3111
  499TMC3    C2 7467   0.870   3.603   9.806 -0.3468  0.0611  0.3407
  499TMC3    C3 7468   1.001   3.618   9.774  0.1653  0.3317 -0.6018
  499TMC3    C4 7469   0.812   3.765   9.635  0.1177 -0.6558 -0.0171
  499TMC3    C5 7470   0.946   3.756   9.591 -0.0874  0.0471 -0.8216
  499TMC3    C6 7471   1.040   3.690   9.665 -0.0828  0.8845 -0.0908
  499TMC3     C 7472   0.644   3.680   9.774 -0.3214 -0.0308 -0.1840
  499TMC3     O 7473   0.566   3.710   9.683  0.5222 -0.3448 -0.1591
  499TMC3     H 7474   0.835   3.528   9.875  0.2634  0.7883  1.4336
  499TMC3    H1 7475   0.738   3.831   9.591  0.6053 -1.0064 -1.3706
  499TMC3    H2 7476   1.139   3.703   9.623 -0.6705  2.6763 -0.9412
  499TMC3    C7 7477   0.993   3.854   9.497 -0.2643 -0.0464 -0.3166
  499TMC3    C8 7478   1.099   3.569   9.869  0.1420  0.2351  0.6833
  499TMC3    O1 7479   1.113   3.876   9.485  0.3748 -0.8036  0.4548
  499TMC3    O2 7480   1.067   3.520   9.977 -0.1570 -0.6113  0.2820
  500MPD2     C 7481   1.640   3.569  10.782 -0.4668  0.0919  0.1579
  500MPD2    C1 7482   1.721   3.671  10.732 -1.0252 -0.0735 -0.3556
  500MPD2    C2 7483   1.720   3.707  10.597  0.6280 -0.0947 -0.2435
  500MPD2    C3 7484   1.622   3.651  10.516  0.2957  0.4913  0.0545
  500MPD2    C4 7485   1.529   3.566  10.571 -0.2042 -0.0347 -0.3760
  500MPD2    C5 7486   1.542   3.521  10.699 -0.5507  0.9288 -1.1788
  500MPD2     H 7487   1.783   3.790  10.568  0.3613  0.6046  1.1946
  500MPD2    H1 7488   1.451   3.516  10.515 -2.1097  1.0433  1.3454
  500MPD2    H2 7489   1.630   3.546  10.887 -4.3169  1.2527  0.0308
  500MPD2    H3 7490   1.471   3.445  10.732  0.0071  0.3668 -1.2567
  500MPD2     N 7491   1.605   3.684  10.375  0.7758  0.1671  0.3295
  500MPD2    H5 7492   1.544   3.623  10.322  0.2431  1.3341 -0.3952
  500MPD2    N1 7493   1.811   3.742  10.809  0.8270  0.0754  0.2236
  500MPD2    H7 7494   1.865   3.818  10.767 -0.7433  0.4019 -1.1622
  501TMC3    C1 7495   1.897   3.828  11.013  0.2869 -0.2206  0.2271
  501TMC3    C2 7496   1.940   3.934  10.944 -0.4646  0.5858 -0.7853
  501TMC3    C3 7497   2.045   4.008  10.994 -0.4150 -0.5280 -0.1396
  501TMC3    C4 7498   1.939   3.800  11.139 -0.0677 -0.2239  0.1455
  501TMC3    C5 7499   2.052   3.874  11.186 -0.3904 -0.3753  0.3372
  501TMC3    C6 7500   2.102   3.983  11.118  0.7811  0.5061 -0.8185
  501TMC3     C 7501   1.829   3.718  10.941  0.2642  0.2344 -0.3247
  501TMC3     O 7502   1.813   3.614  11.002  0.3126 -0.0640  0.6656
  501TMC3     H 7503   1.908   3.946  10.842  1.3587 -0.2670 -1.4779
  501TMC3    H1 7504   1.906   3.712  11.192  2.2661 -1.7122 -0.8601
  501TMC3    H2 7505   2.183   4.041  11.160  0.5454 -0.5489  1.0876
  501TMC3    C7 7506   2.110   3.850  11.320  0.0042 -0.5943  0.1595
  501TMC3    C8 7507   2.118   4.102  10.906 -0.1925 -0.0198 -0.0079
  501TMC3    O1 7508   2.201   3.921  11.355  1.0941  0.1388 -0.0760
  501TMC3    O2 7509   2.225   4.138  10.946  0.1136  0.1832  0.0931
  502TMC3    C1 7510   2.369   2.916  14.981 -0.2712  0.1109  0.1329
  502TMC3    C2 7511   2.302   3.016  14.922 -0.7039 -1.1646 -0.0042
  502TMC3    C3 7512   2.171   2.997  14.912 -0.3386  0.0097 -0.1674
  502TMC3    C4 7513   2.308   2.791  15.003 -0.2260 -0.1735  0.1280
  502TMC3    C5 7514   2.178   2.777  14.983 -0.2157  0.1462 -0.3328
  502TMC3    C6 7515   2.107   2.877  14.927 -0.5885  0.0993 -1.0976
  502TMC3     C 7516   2.462   2.951  15.082 -0.5581 -0.4293  0.0997
  502TMC3     O 7517   2.520   3.058  15.069 -0.5018 -0.0970  0.0759
  502TMC3     H 7518   2.343   3.116  14.911  0.0268 -1.4252  0.3134
  502TMC3    H1 7519   2.352   2.700  15.042 -0.1068 -0.0055  0.3863
  502TMC3    H2 7520   2.016   2.856  14.871  0.8156 -2.0661 -2.5324
  502TMC3    C7 7521   2.094   2.730  15.091 -0.5787 -0.2460  0.0190
  502TMC3    C8 7522   2.096   3.117  14.915  0.3006  0.2268  0.0984
  502TMC3    O1 7523   2.160   2.725  15.191 -0.0363 -0.4333  0.2688
  502TMC3    O2 7524   2.137   3.200  14.837  0.4725  0.3867  0.1034
  503MPD2     C 7525   4.455   3.751  16.835 -0.5983 -0.1157 -0.9010
  503MPD2    C1 7526   4.477   3.792  16.965  0.6820 -0.0952  0.3881
  503MPD2    C2 7527   4.530   3.700  17.056  0.6496 -0.3457 -0.2439
  503MPD2    C3 7528   4.565   3.573  17.016  0.1561  0.3833  0.6949
  503MPD2    C4 7529   4.546   3.535  16.883 -0.4038  0.8110 -0.1937
  503MPD2    C5 7530   4.490   3.625  16.800 -1.2723 -0.3925  0.3126
  503MPD2     H 7531   4.557   3.742  17.153 -0.2061  1.1794 -0.6763
  503MPD2    H1 7532   4.574   3.439  16.842 -1.1823  0.2224  0.6302
  503MPD2    H2 7533   4.412   3.813  16.756 -1.1707 -0.3450 -0.7696
  503MPD2    H3 7534   4.469   3.594  16.698  1.6345  0.5552 -0.5828
  503MPD2     N 7535   4.639   3.506  17.118 -0.0958  0.2763 -0.2168
  503MPD2    H5 7536   4.650   3.553  17.207  2.4109 -2.3600  0.8850
  503MPD2    N1 7537   4.425   3.915  17.018 -0.2025  0.1652  0.0671
  503MPD2    H7 7538   4.413   3.924  17.119  0.4746 -3.6932  0.4739
  504TMC3    C1 7539   0.039   3.319  17.200  0.4875  0.3054 -0.3209
  504TMC3    C2 7540   0.005   3.356  17.326 -0.0929 -0.8222  0.7871
  504TMC3    C3 7541   0.079   3.297  17.420 -0.0901  0.1478 -0.6042
  504TMC3    C4 7542   0.142   3.243  17.163  0.3280 -0.4861  0.1297
  504TMC3    C5 7543   0.210   3.187  17.266  0.5286 -0.2489 -0.3188
  504TMC3    C6 7544   0.176   3.210  17.395  0.9584  0.0793 -0.1835
  504TMC3     C 7545   4.713   3.389  17.083  0.5331  1.1988  0.1728
  504TMC3     O 7546   0.006   3.351  16.968  0.3325  0.4650  0.4920
  504TMC3     H 7547   4.657   3.420  17.353  0.2993 -0.1465  0.3861
  504TMC3    H1 7548   0.175   3.232  17.061 -2.2296  0.2132 -0.7828
  504TMC3    H2 7549   0.224   3.174  17.486  1.7723 -1.2246 -1.1223
  504TMC3    C7 7550   0.330   3.110  17.231 -0.5883  0.2458  0.7894
  504TMC3    C8 7551   0.059   3.338  17.556 -0.5047  0.5148  0.5604
  504TMC3    O1 7552   0.341   3.072  17.115 -0.1002 -0.1078  0.2982
  504TMC3    O2 7553   0.075   3.262  17.646  0.0172  0.1403 -0.3093
  505MPD2     C 7554   3.977   2.630  11.103 -0.5928 -0.0260  0.0731
  505MPD2    C1 7555   4.099   2.674  11.065 -0.4254  0.2415  0.6352
  505MPD2    C2 7556   4.142   2.792  11.108 -0.0789 -0.0756  0.7646
  505MPD2    C3 7557   4.071   2.857  11.199  0.8144  0.4869  0.1660
  505MPD2    C4 7558   3.948   2.812  11.246 -0.1328  0.6059  0.0285
  505MPD2    C5 7559   3.899   2.706  11.186 -0.4001  0.3781  0.0374
  505MPD2     H 7560   4.240   2.832  11.085 -0.9365  0.5820 -1.8723
  505MPD2    H1 7561   3.898   2.865  11.326 -2.0871 -0.8648 -0.2205
  505MPD2    H2 7562   3.932   2.542  11.057  0.9360  0.5894 -2.6379
  505MPD2    H3 7563   3.801   2.670  11.218 -0.1410 -0.3845 -0.0240
  505MPD2     N 7564   4.119   2.975  11.268 -0.3725  0.4615 -0.0657
  505MPD2    H5 7565   4.072   3.007  11.352 -2.0709 -0.9729 -0.4877
  505MPD2    N1 7566   4.174   2.583  10.981 -0.4507 -0.7071  0.4644
  505MPD2    H7 7567   4.122   2.496  10.968  0.0067 -1.1226  1.4118
  506TMC3    C1 7568   4.354   2.490  10.858  0.0485 -0.3986 -0.2332
  506TMC3    C2 7569   4.468   2.520  10.784 -0.0066 -0.1748  0.4093
  506TMC3    C3 7570   4.580   2.441  10.793  0.7364 -0.4661 -0.2729
  506TMC3    C4 7571   4.365   2.392  10.949  0.3212  0.4309  0.0778
  506TMC3    C5 7572   4.485   2.322  10.967  0.8275 -0.1490 -0.3403
  506TMC3    C6 7573   4.588   2.340  10.888 -0.0245  0.2601 -0.8151
  506TMC3     C 7574   4.284   2.610  10.906  1.3011  0.2149 -0.3630
  506TMC3     O 7575   4.342   2.716  10.890  0.8149  0.0059  0.1337
  506TMC3     H 7576   4.458   2.599  10.709 -1.1508 -4.0863 -3.5604
  506TMC3    H1 7577   4.296   2.381  11.031  0.2965  1.6321  0.2172
  506TMC3    H2 7578   4.680   2.293  10.920  0.6803  2.7422  0.8382
  506TMC3    C7 7579   4.516   2.311  11.099  0.3395 -0.0283  0.0673
  506TMC3    C8 7580   4.693   2.466  10.714 -0.3884  0.1978  0.0558
  506TMC3    O1 7581   4.510   2.203  11.158 -0.3568 -0.1551 -0.5827
  506TMC3    O2 7582   0.031   2.376  10.685  0.0268 -0.1403 -0.7140
  507TMC3    C1 7583   1.020   3.627  15.000 -0.0516  0.1491  0.0394
  507TMC3    C2 7584   1.024   3.552  14.886 -0.4016 -0.2592  0.2473
  507TMC3    C3 7585   1.073   3.619  14.783  0.5169 -0.5090  0.7233
  507TMC3    C4 7586   1.035   3.758  15.006  0.8082 -0.2008 -0.2461
  507TMC3    C5 7587   1.076   3.830  14.899  0.3415  0.0871 -0.7248
  507TMC3    C6 7588   1.107   3.754  14.788 -0.3340 -0.3241 -0.1034
  507TMC3     C 7589   1.014   3.552  15.122 -0.1403 -0.3591  0.0841
  507TMC3     O 7590   1.080   3.602  15.207 -0.1531  0.1445  0.1612
  507TMC3     H 7591   1.019   3.444  14.878  2.6337 -0.2404 -1.8699
  507TMC3    H1 7592   1.008   3.801  15.102  0.0241 -3.8790  1.1751
  507TMC3    H2 7593   1.142   3.805  14.699  1.6050  0.5601  1.1544
  507TMC3    C7 7594   1.005   3.952  14.868 -0.1179 -0.5526  0.3074
  507TMC3    C8 7595   0.998   3.580  14.664  0.1586 -0.4483 -0.1416
  507TMC3    O1 7596   0.993   3.969  14.746 -0.0625 -0.3081 -0.2095
  507TMC3    O2 7597   0.933   3.479  14.676  0.1892  0.0387  0.2099
  508MPD2     C 7598   1.924   0.416  15.898 -0.4121 -0.6027 -0.0622
  508MPD2    C1 7599   1.912   0.521  15.984 -0.1386 -0.0626  0.8954
  508MPD2    C2 7600   1.844   0.635  15.939 -0.0187 -0.6071  0.0341
  508MPD2    C3 7601   1.776   0.638  15.815  0.8683  0.2378 -0.0620
  508MPD2    C4 7602   1.789   0.528  15.734  0.1242 -0.7937  0.5651
  508MPD2    C5 7603   1.849   0.415  15.778  0.0920 -0.3131  0.4813
  508MPD2     H 7604   1.816   0.721  16.000  0.8999 -0.7864  0.7093
  508MPD2    H1 7605   1.746   0.515  15.635  1.7501 -0.1612 -0.2390
  508MPD2    H2 7606   1.988   0.330  15.915  0.3828 -0.0696 -0.3638
  508MPD2    H3 7607   1.851   0.327  15.715 -0.7377  1.5498 -2.1751
  508MPD2     N 7608   1.709   0.754  15.779  0.6533  0.2069 -0.3395
  508MPD2    H5 7609   1.715   0.833  15.843 -0.7113 -0.4544  0.6226
  508MPD2    N1 7610   1.962   0.515  16.112  0.5317  0.5244  0.2163
  508MPD2    H7 7611   2.003   0.426  16.140  2.8512  1.1244 -1.3182
  509TMC3    C1 7612   1.539   1.066  15.475 -0.6057  0.2632 -0.2617
  509TMC3    C2 7613   1.625   1.164  15.522  0.4171 -0.6530  0.4390
  509TMC3    C3 7614   1.715   1.121  15.610 -0.5779  0.2401 -0.2630
  509TMC3    C4 7615   1.529   0.942  15.530 -0.5867 -0.0904  0.2250
  509TMC3    C5 7616   1.620   0.909  15.626  0.0884  0.5914  0.1666
  509TMC3    C6 7617   1.718   0.994  15.659  0.2826  0.2198  0.0027
  509TMC3     C 7618   1.418   1.106  15.404  0.2852  0.1053  0.0512
  509TMC3     O 7619   1.337   1.023  15.365 -0.1624 -0.2769  1.0667
  509TMC3     H 7620   1.638   1.261  15.475  0.1731 -0.5251  0.6367
  509TMC3    H1 7621   1.455   0.865  15.509 -1.0328 -0.1164  1.9369
  509TMC3    H2 7622   1.804   0.965  15.719 -0.2291 -0.3412  0.4706
  509TMC3    C7 7623   1.646   0.767  15.656  0.5605 -0.4486  0.1233
  509TMC3    C8 7624   1.818   1.202  15.671 -0.5501 -0.2907  0.3730
  509TMC3    O1 7625   1.584   0.681  15.591  0.4350 -0.1192  0.0293
  509TMC3    O2 7626   1.916   1.150  15.723  0.4488 -0.2704 -0.1302
  510MPD2     C 7627   4.349   2.604  14.847  0.7381  0.2466 -0.0081
  510MPD2    C1 7628   4.356   2.474  14.875 -0.0542  0.3010 -0.1298
  510MPD2    C2 7629   4.470   2.405  14.829 -0.3344 -0.1601 -0.4760
  510MPD2    C3 7630   4.561   2.456  14.732 -0.3278  0.0693  0.1711
  510MPD2    C4 7631   4.527   2.585  14.689 -0.2501  0.8245  0.6100
  510MPD2    C5 7632   4.423   2.655  14.737  0.3163 -0.1004  0.2903
  510MPD2     H 7633   4.489   2.301  14.852 -1.0458 -0.1358  0.2376
  510MPD2    H1 7634   4.585   2.646  14.620 -0.4238 -0.9076 -1.0555
  510MPD2    H2 7635   4.264   2.665  14.877 -1.4184 -2.8610  0.2264
  510MPD2    H3 7636   4.420   2.759  14.706 -0.6090 -0.7167 -1.7031
  510MPD2     N 7637   4.668   2.383  14.680 -0.0742  0.1550 -0.2612
  510MPD2    H5 7638   4.699   2.300  14.730 -1.3899 -2.4986 -3.8110
  510MPD2    N1 7639   4.261   2.425  14.971 -0.2386 -0.5236  0.2978
  510MPD2    H7 7640   4.199   2.496  15.009 -0.4676 -1.0496  0.9085
  511TMC3    C1 7641   4.133   2.260  15.092  0.0887  0.0440  0.1387
  511TMC3    C2 7642   4.064   2.356  15.168  0.1010 -0.4186  0.5980
  511TMC3    C3 7643   3.949   2.306  15.223 -0.3616 -0.5508 -0.0904
  511TMC3    C4 7644   4.081   2.135  15.063  0.6542 -1.1684 -0.0177
  511TMC3    C5 7645   3.967   2.094  15.110 -0.0541  0.4402  0.0390
  511TMC3    C6 7646   3.898   2.180  15.191 -0.1326 -0.4514  0.4773
  511TMC3     C 7647   4.248   2.296  15.020 -0.3880  0.4864  0.2300
  511TMC3     O 7648   4.332   2.207  14.999  0.2586 -0.0390  0.0790
  511TMC3     H 7649   4.102   2.452  15.200 -1.6582  0.7320 -0.8211
  511TMC3    H1 7650   4.139   2.088  14.984  1.5451 -2.2202  1.2791
  511TMC3    H2 7651   3.797   2.151  15.217 -1.1160  2.3227 -0.2293
  511TMC3    C7 7652   3.883   2.017  15.022 -0.5376 -0.0766 -0.0144
  511TMC3    C8 7653   3.885   2.395  15.314  0.4348  0.3382 -0.0699
  511TMC3    O1 7654   3.886   2.045  14.903 -0.5504  0.2151 -0.3057
  511TMC3    O2 7655   3.910   2.514  15.305 -0.3482  0.6182  0.6156
  512TMC3    C1 7656   2.837   1.276  13.453 -0.4297  0.6341 -0.2739
  512TMC3    C2 7657   2.961   1.271  13.505 -0.3507 -0.3830 -0.2680
  512TMC3    C3 7658   3.061   1.241  13.419 -0.0032  0.3562 -0.0635
  512TMC3    C4 7659   2.808   1.230  13.326 -0.1634  0.8407 -0.0674
  512TMC3    C5 7660   2.912   1.192  13.248  0.5972  0.5568 -0.9522
  512TMC3    C6 7661   3.041   1.195  13.296 -0.2469  0.1784 -0.6768
  512TMC3     C 7662   2.725   1.327  13.536  0.5968 -0.3440 -0.4654
  512TMC3     O 7663   2.610   1.284  13.526  0.3696  0.1326 -0.2524
  512TMC3     H 7664   2.989   1.321  13.597 -3.4963  0.5037  0.1864
  512TMC3    H1 7665   2.710   1.233  13.281  0.8851 -0.4950 -2.4071
  512TMC3    H2 7666   3.129   1.167  13.239  0.5524 -0.3608  0.8081
  512TMC3    C7 7667   2.895   1.192  13.101 -0.9640  0.8602  0.4594
  512TMC3    C8 7668   3.195   1.287  13.455 -0.4384 -0.0085 -0.1196
  512TMC3    O1 7669   2.791   1.238  13.047  0.3768 -0.0987  0.8040
  512TMC3    O2 7670   3.288   1.233  13.395 -0.1688  0.5905  0.2537
  513MPD2     C 7671   0.313   2.548  12.901  0.4093 -0.0487  0.4881
  513MPD2    C1 7672   0.218   2.452  12.918  0.1654 -0.7744 -0.6562
  513MPD2    C2 7673   0.242   2.359  13.021  0.3910 -0.7053 -0.1527
  513MPD2    C3 7674   0.350   2.389  13.108 -0.2652 -0.0095  0.0588
  513MPD2    C4 7675   0.443   2.488  13.088  0.3484  0.2077 -0.0127
  513MPD2    C5 7676   0.417   2.573  12.987  0.7829 -0.2006  0.2223
  513MPD2     H 7677   0.165   2.286  13.042 -1.0898  1.0942  0.7685
  513MPD2    H1 7678   0.529   2.507  13.150  0.1924  1.5553 -0.1968
  513MPD2    H2 7679   0.309   2.616  12.817  0.4894 -0.2462  0.3220
  513MPD2    H3 7680   0.488   2.646  12.950 -0.5323  1.5474  1.1304
  513MPD2     N 7681   0.370   2.299  13.217 -0.1603 -0.4600  0.2496
  513MPD2    H5 7682   0.292   2.233  13.227 -0.1073 -0.9529 -2.7235
  513MPD2    N1 7683   0.103   2.439  12.830  0.6237 -0.3071  0.9282
  513MPD2    H7 7684   0.085   2.508  12.757  3.4659 -0.3082  0.2160
  514TMC3    C1 7685   4.635   2.351  12.737 -0.7833 -0.4848  0.1165
  514TMC3    C2 7686   4.669   2.412  12.620  0.5606  0.1130  0.3018
  514TMC3    C3 7687   4.652   2.335  12.507  0.2161  0.5834  0.6452
  514TMC3    C4 7688   4.578   2.226  12.734  0.2848 -0.0868 -0.5106
  514TMC3    C5 7689   4.594   2.150  12.623  0.4402  0.3912  0.4986
  514TMC3    C6 7690   4.630   2.201  12.508 -0.4124  0.6226  0.6424
  514TMC3     C 7691   0.001   2.352  12.845  0.1024  0.2977  0.1080
  514TMC3     O 7692   4.725   2.254  12.918 -0.2827 -0.3983  0.5268
  514TMC3     H 7693   4.681   2.519  12.610 -0.0660  0.4335  3.0413
  514TMC3    H1 7694   4.542   2.179  12.825  0.8518 -0.5968 -0.5498
  514TMC3    H2 7695   4.625   2.140  12.418 -0.4347  1.5460  0.0178
  514TMC3    C7 7696   4.651   2.017  12.659 -0.0560 -0.0355 -0.0521
  514TMC3    C8 7697   4.699   2.393  12.378 -0.5846 -0.1998  0.1808
  514TMC3    O1 7698   4.670   1.941  12.568  0.3934  0.1994  0.3363
  514TMC3    O2 7699   4.708   2.515  12.381 -0.2703  0.8461 -0.5307
  515MPD2     C 7700   3.471   3.160  14.660  0.1171  0.3022  0.8662
  515MPD2    C1 7701   3.369   3.252  14.668 -0.1792  0.4378  0.3890
  515MPD2    C2 7702   3.383   3.368  14.740 -0.3448 -0.8468  0.0688
  515MPD2    C3 7703   3.491   3.384  14.817 -0.2194 -0.4864  0.0500
  515MPD2    C4 7704   3.593   3.292  14.826 -0.1688  0.4544  0.2910
  515MPD2    C5 7705   3.586   3.185  14.738 -0.6293 -0.0059  0.2437
  515MPD2     H 7706   3.296   3.428  14.764  0.6958 -0.0095  1.7895
  515MPD2    H1 7707   3.677   3.295  14.894  0.1388  2.7505 -0.2064
  515MPD2    H2 7708   3.464   3.068  14.602  0.3397  0.4793  0.5591
  515MPD2    H3 7709   3.664   3.110  14.742 -0.9396 -0.2891  1.0550
  515MPD2     N 7710   3.484   3.481  14.911 -0.0331 -0.0428  0.3510
  515MPD2    H5 7711   3.559   3.493  14.979 -0.1543  2.3676  0.0443
  515MPD2    N1 7712   3.249   3.237  14.598  0.4029  0.1140 -0.2097
  515MPD2    H7 7713   3.179   3.310  14.602 -0.2006 -0.6236  3.0667
  516TMC3    C1 7714   3.067   3.135  14.499 -0.8946 -0.2811  0.1342
  516TMC3    C2 7715   3.014   3.259  14.460  0.2195  0.2745  0.0960
  516TMC3    C3 7716   2.883   3.270  14.434 -0.7815  0.0708  0.1069
  516TMC3    C4 7717   2.982   3.030  14.517 -0.3936  0.4595  0.4200
  516TMC3    C5 7718   2.846   3.047  14.494 -0.2236  0.0739  0.2583
  516TMC3    C6 7719   2.791   3.169  14.448  0.2999 -0.4068  0.1564
  516TMC3     C 7720   3.210   3.114  14.536 -0.2706  0.2899 -0.0089
  516TMC3     O 7721   3.246   3.001  14.567 -0.2399 -0.3988  0.5036
  516TMC3     H 7722   3.083   3.339  14.436 -0.5596  0.8137 -0.3435
  516TMC3    H1 7723   3.026   2.943  14.564  0.1131  0.1176 -0.7107
  516TMC3    H2 7724   2.685   3.180  14.427  0.0287 -2.7839  0.3394
  516TMC3    C7 7725   2.758   2.937  14.535 -0.6723  0.3563 -0.8728
  516TMC3    C8 7726   2.830   3.398  14.386  0.3221 -0.6277  0.3028
  516TMC3    O1 7727   2.654   2.915  14.472  0.0947 -0.5296 -0.3510
  516TMC3    O2 7728   2.722   3.405  14.324  0.2155 -0.1838  0.0957
  517MPD2     C 7729   2.926   0.653  17.527 -0.0595  0.7235  0.7541
  517MPD2    C1 7730   3.050   0.686  17.478 -0.3100 -0.0330 -0.3866
  517MPD2    C2 7731   3.109   0.809  17.511 -0.4464  0.2277  0.4404
  517MPD2    C3 7732   3.043   0.901  17.596 -0.0300  0.2809  0.3100
  517MPD2    C4 7733   2.913   0.866  17.644  0.2110 -0.6920 -0.0465
  517MPD2    C5 7734   2.862   0.745  17.611  0.4435  0.4356 -0.0142
  517MPD2     H 7735   3.209   0.821  17.471 -0.0467 -0.4448  1.2536
  517MPD2    H1 7736   2.852   0.933  17.703  0.8428  0.3001 -0.5233
  517MPD2    H2 7737   2.870   0.561  17.519  1.2139  0.1457 -1.3461
  517MPD2    H3 7738   2.768   0.713  17.655  0.4695  1.6517  0.9147
  517MPD2     N 7739   3.093   1.019  17.646 -0.0747 -0.0812  0.0997
  517MPD2    H5 7740   3.028   1.077  17.698  2.6104  3.3292 -0.4113
  517MPD2    N1 7741   3.123   0.591  17.400 -0.5184  0.1130  0.1884
  517MPD2    H7 7742   3.217   0.622  17.375 -0.4568  1.2223  1.8183
  518TMC3    C1 7743   3.146   0.392  17.271  0.6559 -0.0661  0.0524
  518TMC3    C2 7744   3.087   0.279  17.218  0.2055  0.0131  0.4748
  518TMC3    C3 7745   3.164   0.183  17.155 -0.5323 -0.4757  0.5604
  518TMC3    C4 7746   3.285   0.408  17.259 -0.4620  0.0883 -0.7232
  518TMC3    C5 7747   3.360   0.313  17.194 -0.0657  0.4488 -0.4592
  518TMC3    C6 7748   3.301   0.203  17.145 -0.0600 -0.5903  0.3826
  518TMC3     C 7749   3.060   0.475  17.347  0.3854  0.2148  0.1517
  518TMC3     O 7750   2.939   0.464  17.327  0.8901  0.1618  0.3915
  518TMC3     H 7751   2.979   0.272  17.215  0.1796  0.1564  1.0928
  518TMC3    H1 7752   3.341   0.484  17.312 -1.1141 -0.9781  1.4740
  518TMC3    H2 7753   3.358   0.129  17.091  0.6443 -0.8832  1.5418
  518TMC3    C7 7754   3.498   0.287  17.250  0.6721 -0.6638 -0.2768
  518TMC3    C8 7755   3.113   0.047  17.146 -0.2285  0.5526 -0.2076
  518TMC3    O1 7756   3.572   0.380  17.278 -0.1966 -0.0494  0.0495
  518TMC3    O2 7757   3.199   4.697  17.130 -0.0858 -0.0732  0.0825
  519MPD2     C 7758   4.586   3.300  14.383 -0.1041 -0.0313  0.3817
  519MPD2    C1 7759   4.546   3.307  14.255 -0.0515  0.0661 -0.2378
  519MPD2    C2 7760   4.639   3.303  14.150 -0.4967 -0.5619 -0.4253
  519MPD2    C3 7761   0.039   3.295  14.177  0.4784 -0.7175  0.2678
  519MPD2    C4 7762   0.076   3.287  14.304  0.4068 -0.2692 -0.6364
  519MPD2    C5 7763   4.718   3.285  14.404  0.9917  0.1423  0.8653
  519MPD2     H 7764   4.602   3.303  14.048 -1.1983 -0.1275 -0.1692
  519MPD2    H1 7765   0.181   3.287  14.328  0.6209  3.2224 -1.5572
  519MPD2    H2 7766   4.535   3.285  14.477 -2.2939 -0.9764 -0.9583
  519MPD2    H3 7767   0.019   3.284  14.507 -0.7700 -1.1499  1.4754
  519MPD2     N 7768   0.130   3.294  14.079  0.4050 -0.5985 -0.0015
  519MPD2    H5 7769   0.225   3.274  14.111  0.3081  1.8901  1.8726
  519MPD2    N1 7770   4.409   3.308  14.230 -0.2659  0.1665 -0.3728
  519MPD2    H7 7771   4.348   3.304  14.311  0.5308 -1.9933  0.1131
  520TMC3    C1 7772   0.216   3.270  13.856 -0.1350 -0.5818 -0.1921
  520TMC3    C2 7773   0.158   3.245  13.732 -0.7627  0.3089 -0.7334
  520TMC3    C3 7774   0.186   3.128  13.671  0.0292  0.3674 -0.3536
  520TMC3    C4 7775   0.302   3.175  13.915 -0.5290 -0.2637 -0.9048
  520TMC3    C5 7776   0.330   3.066  13.838 -0.0937 -0.4616  0.7328
  520TMC3    C6 7777   0.280   3.039  13.712 -0.1336 -0.1436  0.2911
  520TMC3     C 7778   0.112   3.327  13.950 -0.4216  0.0338  0.2205
  520TMC3     O 7779   0.017   3.372  13.893  0.2932  0.1270 -0.0025
  520TMC3     H 7780   0.085   3.307  13.682 -1.9640 -0.5619 -0.0445
  520TMC3    H1 7781   0.338   3.176  14.017  1.3132 -1.5976 -1.5504
  520TMC3    H2 7782   0.297   2.944  13.663  0.9589  0.7387 -1.0634
  520TMC3    C7 7783   0.425   2.971  13.899  0.3734  0.6721 -0.1006
  520TMC3    C8 7784   0.114   3.091  13.553  0.2403  0.8877 -0.3211
  520TMC3    O1 7785   0.433   2.975  14.021 -0.0159 -1.1385  0.2008
  520TMC3    O2 7786   0.176   3.018  13.478  0.0838  0.4514 -0.1412
  521MPD2     C 7787   0.766   1.472  17.405  0.2696  0.6669 -0.2113
  521MPD2    C1 7788   0.708   1.389  17.321  0.4845  0.1845 -0.1533
  521MPD2    C2 7789   0.785   1.308  17.236  0.5694  0.5536 -0.1007
  521MPD2    C3 7790   0.927   1.318  17.236  0.3253  0.1364 -0.6018
  521MPD2    C4 7791   0.981   1.414  17.322 -0.8033  0.6587 -0.1289
  521MPD2    C5 7792   0.899   1.493  17.399  0.2394  0.1033 -0.2962
  521MPD2     H 7793   0.736   1.230  17.179 -0.0355  2.0659 -1.6638
  521MPD2    H1 7794   1.087   1.435  17.331 -0.3198 -1.5024 -0.7163
  521MPD2    H2 7795   0.715   1.530  17.481  0.0672  1.3648 -0.8833
  521MPD2    H3 7796   0.944   1.566  17.466  0.6518 -2.2426  1.9906
  521MPD2     N 7797   1.007   1.226  17.164 -0.1994  0.5492 -0.3251
  521MPD2    H5 7798   0.965   1.181  17.084 -2.7724 -0.1403  1.4127
  521MPD2    N1 7799   0.564   1.375  17.338  0.1611  0.1943  0.0970
  521MPD2    H7 7800   0.524   1.405  17.427 -1.8405  0.9039 -1.0475
  522TMC3    C1 7801   1.205   1.107  17.109  0.8507  0.0427 -0.3406
  522TMC3    C2 7802   1.326   1.069  17.156 -0.0613 -0.1307  0.1845
  522TMC3    C3 7803   1.414   1.018  17.075  0.8918 -0.5460  0.7449
  522TMC3    C4 7804   1.175   1.108  16.978 -0.6521 -0.0398 -0.1436
  522TMC3    C5 7805   1.272   1.061  16.895  0.6217 -0.4183 -0.1211
  522TMC3    C6 7806   1.391   1.017  16.943 -0.2919 -0.4973 -0.3487
  522TMC3     C 7807   1.135   1.191  17.199  1.0968  0.9046 -0.1060
  522TMC3     O 7808   1.196   1.225  17.301  1.0110 -0.0287  0.8831
  522TMC3     H 7809   1.343   1.060  17.262 -1.8369 -1.3497  0.3685
  522TMC3    H1 7810   1.083   1.151  16.938  0.5890  1.6161 -1.2127
  522TMC3    H2 7811   1.480   1.010  16.881 -0.2381  0.0371 -0.3358
  522TMC3    C7 7812   1.275   1.106  16.753  0.3619 -0.4699  0.1613
  522TMC3    C8 7813   1.541   0.951  17.132  0.0763 -0.2367 -0.7318
  522TMC3    O1 7814   1.384   1.099  16.700  0.3168  0.0972 -0.1697
  522TMC3    O2 7815   1.584   0.992  17.238 -0.0868 -0.2665 -0.2893
  523MPD2     C 7816   2.787   1.296  10.010  0.4793 -0.2921 -0.9315
  523MPD2    C1 7817   2.669   1.219  10.018  1.1295 -0.2865  0.2708
  523MPD2    C2 7818   2.553   1.279   9.989  0.2508  0.2250  0.3633
  523MPD2    C3 7819   2.538   1.416   9.966  0.1301  0.0166 -0.1828
  523MPD2    C4 7820   2.658   1.487   9.945  0.2877  0.0730  0.8075
  523MPD2    C5 7821   2.775   1.424   9.973  0.5335  0.2600  0.3453
  523MPD2     H 7822   2.466   1.214   9.997 -0.5492  1.4172  1.3588
  523MPD2    H1 7823   2.655   1.593   9.927 -2.9719 -0.0179  0.7720
  523MPD2    H2 7824   2.887   1.259  10.029  0.0655 -0.0741  1.6410
  523MPD2    H3 7825   2.864   1.484   9.966  1.8546 -1.6153  1.0075
  523MPD2     N 7826   2.412   1.486   9.944 -0.2388 -0.8319  0.7821
  523MPD2    H5 7827   2.414   1.586   9.925  0.6555 -1.1436 -0.7410
  523MPD2    N1 7828   2.677   1.084  10.041  0.4159 -0.0949 -0.6097
  523MPD2    H7 7829   2.753   1.050  10.098  0.3500  1.8938  0.6667
  524TMC3    C1 7830   2.177   1.513   9.929 -0.7157  0.2743 -0.1664
  524TMC3    C2 7831   2.068   1.447   9.878 -0.1162 -0.0535 -0.5237
  524TMC3    C3 7832   1.971   1.518   9.805  0.2873 -0.3703 -0.2197
  524TMC3    C4 7833   2.203   1.641   9.893  0.3298 -0.3483 -0.7341
  524TMC3    C5 7834   2.105   1.710   9.819  0.1281  0.3524  0.0099
  524TMC3    C6 7835   1.991   1.653   9.778  0.1470 -0.0454 -0.3294
  524TMC3     C 7836   2.289   1.423   9.955  0.4280  0.4671 -0.1512
  524TMC3     O 7837   2.266   1.306   9.990 -0.0199  0.1549  0.6699
  524TMC3     H 7838   2.046   1.349   9.919  1.2918 -0.8169 -1.6254
  524TMC3    H1 7839   2.287   1.692   9.938 -1.8366  2.9172 -0.4022
  524TMC3    H2 7840   1.924   1.711   9.715 -0.4333  0.3877  0.6916
  524TMC3    C7 7841   2.136   1.843   9.781  0.2849  0.0562 -0.1602
  524TMC3    C8 7842   1.861   1.451   9.742  0.1063 -0.1298  0.1969
  524TMC3    O1 7843   2.258   1.866   9.792 -0.5546 -0.8365  0.3513
  524TMC3    O2 7844   1.765   1.523   9.715 -0.4178  0.2357  0.1264
  525MPD2     C 7845   1.030   2.638  14.398  0.1318  0.1653 -0.5231
  525MPD2    C1 7846   1.141   2.685  14.468 -0.0809 -0.1708  0.9335
  525MPD2    C2 7847   1.228   2.777  14.410 -0.4987 -0.1706 -0.0692
  525MPD2    C3 7848   1.198   2.823  14.286  0.5098 -0.5131  0.0831
  525MPD2    C4 7849   1.086   2.775  14.215 -0.0973 -0.2216  0.0513
  525MPD2    C5 7850   1.009   2.675  14.268 -0.3075 -0.1716 -0.1255
  525MPD2     H 7851   1.306   2.823  14.470 -1.6520  0.0165  1.2857
  525MPD2    H1 7852   1.057   2.818  14.119 -4.2896  0.7641  1.7364
  525MPD2    H2 7853   0.960   2.566  14.439 -2.0228  3.6843  1.9640
  525MPD2    H3 7854   0.923   2.640  14.213 -1.4709  1.9880  0.2962
  525MPD2     N 7855   1.264   2.934  14.222 -0.5886 -0.1239 -0.3515
  525MPD2    H5 7856   1.210   2.981  14.150  0.7157  0.6734 -0.8184
  525MPD2    N1 7857   1.166   2.663  14.605 -0.1114  0.3460  0.0034
  525MPD2    H7 7858   1.255   2.701  14.635  0.3122 -0.7843  0.1869
  526TMC3    C1 7859   1.145   2.567  14.809 -0.2707  0.8508 -0.2919
  526TMC3    C2 7860   1.074   2.495  14.896 -0.5101 -0.0912 -0.1311
  526TMC3    C3 7861   1.131   2.435  15.002  0.0788  0.3531  0.3111
  526TMC3    C4 7862   1.274   2.595  14.825  0.0345  0.6465 -0.7590
  526TMC3    C5 7863   1.341   2.535  14.932 -0.6392  0.1624 -0.8041
  526TMC3    C6 7864   1.268   2.448  15.017  0.1908  0.8414 -0.3720
  526TMC3     C 7865   1.079   2.608  14.689 -0.3594  0.1802  0.2518
  526TMC3     O 7866   0.961   2.580  14.678 -0.0337 -0.9011 -0.2601
  526TMC3     H 7867   0.973   2.471  14.863  0.4894 -3.3064 -0.8599
  526TMC3    H1 7868   1.331   2.670  14.771  1.7717 -0.5484 -0.6076
  526TMC3    H2 7869   1.314   2.399  15.102 -2.3640 -1.2152 -0.2048
  526TMC3    C7 7870   1.489   2.537  14.935 -0.3400 -0.2820 -0.1281
  526TMC3    C8 7871   1.064   2.449  15.133  0.5785  0.5353  0.7851
  526TMC3    O1 7872   1.540   2.608  14.855  0.3297 -0.6901  0.2046
  526TMC3    O2 7873   1.118   2.414  15.234 -0.6006 -0.7150  0.1045
  527MPD2     C 7874   3.831   0.744   1.573  0.0521  0.3036 -0.1729
  527MPD2    C1 7875   3.857   0.808   1.455 -0.1137 -0.3969  0.0506
  527MPD2    C2 7876   3.977   0.784   1.395 -0.1280  0.0326 -0.2818
  527MPD2    C3 7877   4.079   0.719   1.462  0.2633  0.3821 -0.1648
  527MPD2    C4 7878   4.053   0.665   1.586 -0.6317 -0.3380  0.0078
  527MPD2    C5 7879   3.926   0.663   1.633  0.2014 -0.2700 -0.5529
  527MPD2     H 7880   4.000   0.827   1.298 -1.0211  2.2596  0.4944
  527MPD2    H1 7881   4.116   0.594   1.639  1.9554  2.2369  0.3212
  527MPD2    H2 7882   3.738   0.760   1.627  0.6809  2.8872  0.1353
  527MPD2    H3 7883   3.905   0.617   1.729 -0.6120  0.2572 -0.4783
  527MPD2     N 7884   4.202   0.706   1.395 -0.6127  0.3788 -0.0230
  527MPD2    H5 7885   4.208   0.749   1.303  1.7385  0.6196  0.2605
  527MPD2    N1 7886   3.764   0.886   1.377  0.2830  1.1076 -0.8186
  527MPD2    H7 7887   3.799   0.932   1.293  0.2365  0.0090 -1.4526
  528TMC3    C1 7888   3.560   0.989   1.318 -0.1786 -0.0600 -0.0693
  528TMC3    C2 7889   3.616   1.012   1.191  0.1252 -0.1895  0.2105
  528TMC3    C3 7890   3.533   1.069   1.100 -0.5765 -0.2919 -0.0712
  528TMC3    C4 7891   3.427   1.020   1.345 -0.2706  0.5499 -0.1276
  528TMC3    C5 7892   3.353   1.080   1.251  0.7885 -0.0157  0.1581
  528TMC3    C6 7893   3.407   1.104   1.131  0.6009 -0.5232  0.7666
  528TMC3     C 7894   3.634   0.917   1.420 -0.1369  0.4839  0.4182
  528TMC3     O 7895   3.588   0.914   1.531  0.4139  0.1334 -0.2618
  528TMC3     H 7896   3.713   0.976   1.158  0.0955  1.4586 -1.6904
  528TMC3    H1 7897   3.379   0.994   1.439  0.9342 -0.4940  0.2032
  528TMC3    H2 7898   3.334   1.139   1.058  1.4290 -2.0003 -0.7566
  528TMC3    C7 7899   3.227   1.155   1.278 -0.1850 -0.0259 -0.0844
  528TMC3    C8 7900   3.579   1.086   0.967  0.7144 -0.2448  0.7615
  528TMC3    O1 7901   3.156   1.199   1.187  0.3189  0.3466  0.6615
  528TMC3    O2 7902   3.684   1.029   0.931 -0.0910  0.2128  0.3188
  529MPD2     C 7903   2.352   4.333   0.307 -0.4335 -0.0638 -0.6076
  529MPD2    C1 7904   2.252   4.385   0.384  0.2132 -0.6905 -0.3014
  529MPD2    C2 7905   2.147   4.450   0.324  0.7065  0.1961  0.4456
  529MPD2    C3 7906   2.142   4.453   0.186  0.2310  0.2555  0.6100
  529MPD2    C4 7907   2.240   4.399   0.113 -0.0037  1.2471 -1.3900
  529MPD2    C5 7908   2.345   4.342   0.177  0.9262 -0.1944 -0.3359
  529MPD2     H 7909   2.072   4.497   0.385  1.5616  0.2362  1.4645
  529MPD2    H1 7910   2.241   4.400   0.005  3.9163 -2.0126 -1.3702
  529MPD2    H2 7911   2.444   4.285   0.338 -2.1650 -1.4340  2.3376
  529MPD2    H3 7912   2.430   4.311   0.118  0.5910  1.2103 -1.5471
  529MPD2     N 7913   2.039   4.510   0.107 -0.2861 -0.2134  0.9692
  529MPD2    H5 7914   2.031   4.490   0.008  0.7200 -1.8706  1.2288
  529MPD2    N1 7915   2.260   4.363   0.530 -0.0578  0.3580  0.6345
  529MPD2    H7 7916   2.179   4.390   0.584  0.2204 -1.2917  1.8820
  530TMC3    C1 7917   2.340   4.295   0.740 -0.2334 -0.2469  0.1863
  530TMC3    C2 7918   2.444   4.245   0.812 -0.1760 -0.0208 -0.2422
  530TMC3    C3 7919   2.431   4.248   0.948 -0.3685 -0.7593  0.3382
  530TMC3    C4 7920   2.224   4.342   0.803 -0.3050 -0.3418  0.3313
  530TMC3    C5 7921   2.212   4.323   0.939 -0.2585 -0.4621 -0.6784
  530TMC3    C6 7922   2.314   4.276   1.016  0.1251 -0.1510  0.7194
  530TMC3     C 7923   2.353   4.294   0.599  0.6826  0.7422  0.3557
  530TMC3     O 7924   2.451   4.228   0.559 -0.1189  0.0534  0.3933
  530TMC3     H 7925   2.541   4.211   0.780 -0.4577 -1.1366  0.0815
  530TMC3    H1 7926   2.134   4.364   0.747 -0.8348 -2.2085  0.4697
  530TMC3    H2 7927   2.331   4.282   1.123 -0.1355  0.0264  0.7526
  530TMC3    C7 7928   2.083   4.339   0.994  0.1200  0.2296  0.5402
  530TMC3    C8 7929   2.550   4.242   1.030 -0.5705  0.2099 -0.1956
  530TMC3    O1 7930   2.015   4.431   0.959 -0.0007  0.1290  0.5631
  530TMC3    O2 7931   2.626   4.334   1.025 -1.3810  0.1600  0.0447
  531MPD2     C 7932   0.226   1.742  12.958  0.1403 -0.4799  0.2642
  531MPD2    C1 7933   0.178   1.847  13.031 -0.7442  0.6759  0.3328
  531MPD2    C2 7934   0.077   1.933  12.984 -0.7109 -0.1841  0.4407
  531MPD2    C3 7935   0.042   1.923  12.852 -0.4194 -0.2332  0.2227
  531MPD2    C4 7936   0.093   1.813  12.782 -0.0927  0.0214 -0.1058
  531MPD2    C5 7937   0.184   1.725  12.828  0.1273 -0.3415 -0.4525
  531MPD2     H 7938   0.046   2.023  13.036 -1.7557 -0.9622  1.1505
  531MPD2    H1 7939   0.075   1.791  12.677  0.1645 -0.3700 -0.0681
  531MPD2    H2 7940   0.307   1.685  13.001  0.8254 -0.4147 -0.9443
  531MPD2    H3 7941   0.228   1.648  12.765  1.0028 -1.1211  1.0749
  531MPD2     N 7942   4.697   2.023  12.792 -0.4343 -0.1871  0.4663
  531MPD2    H5 7943   4.688   2.108  12.847 -1.8076 -0.3794  0.5296
  531MPD2    N1 7944   0.253   1.876  13.145  0.0664  0.0270 -0.2748
  531MPD2    H7 7945   0.334   1.815  13.156 -0.5066 -0.2563  2.3324
  532TMC3    C1 7946   0.324   1.975  13.339  0.4984  0.9715 -0.4801
  532TMC3    C2 7947   0.335   2.108  13.379 -0.4200 -0.6139  0.0116
  532TMC3    C3 7948   0.461   2.160  13.378  0.1144 -0.5466 -0.2263
  532TMC3    C4 7949   0.437   1.902  13.318  0.0350 -0.1395  0.9295
  532TMC3    C5 7950   0.564   1.952  13.326 -0.0465  0.7910 -0.2263
  532TMC3    C6 7951   0.571   2.081  13.354 -0.1957 -0.0870  0.4561
  532TMC3     C 7952   0.211   1.963  13.243 -0.1050 -0.1092  0.3779
  532TMC3     O 7953   0.121   2.047  13.247  0.2682 -0.0553  0.1034
  532TMC3     H 7954   0.244   2.167  13.390  1.1243  1.3965  1.8587
  532TMC3    H1 7955   0.429   1.794  13.313 -0.9940 -0.0147  0.0226
  532TMC3    H2 7956   0.673   2.117  13.362  0.5911 -2.6356  1.7947
  532TMC3    C7 7957   0.674   1.865  13.374  0.6459 -0.3356  0.3447
  532TMC3    C8 7958   0.469   2.294  13.309 -0.4053  0.1909 -0.0649
  532TMC3    O1 7959   0.751   1.927  13.449  0.0913 -0.0630  0.3680
  532TMC3    O2 7960   0.576   2.354  13.311 -0.3607 -0.0316  0.3725
  533TMC3    C1 7961   1.377   3.131  14.221 -0.1314 -0.8393 -0.3303
  533TMC3    C2 7962   1.500   3.194  14.231  0.4978  0.6968 -0.3500
  533TMC3    C3 7963   1.510   3.323  14.243  0.0628 -0.2381 -0.3659
  533TMC3    C4 7964   1.266   3.202  14.254 -0.2506 -0.4832  0.3956
  533TMC3    C5 7965   1.289   3.332  14.297  0.9726 -0.0106  0.8820
  533TMC3    C6 7966   1.402   3.399  14.278  0.0532  0.6512 -0.3425
  533TMC3     C 7967   1.380   2.990  14.271 -0.7974 -0.9240  0.0723
  533TMC3     O 7968   1.462   2.943  14.352 -0.2211  0.4592 -0.2612
  533TMC3     H 7969   1.593   3.140  14.222  1.4447  2.6156 -2.2134
  533TMC3    H1 7970   1.173   3.151  14.277 -1.5857  1.6424 -0.2524
  533TMC3    H2 7971   1.424   3.499  14.315  3.4908 -0.1541 -0.2299
  533TMC3    C7 7972   1.240   3.355  14.434  0.4478 -0.2945 -0.5025
  533TMC3    C8 7973   1.635   3.386  14.262 -0.0942  0.0382 -0.4645
  533TMC3    O1 7974   1.167   3.268  14.479 -0.0594  0.3923  0.0960
  533TMC3    O2 7975   1.702   3.341  14.355 -0.2766 -0.2641  0.1946
  534MPD2     C 7976   4.050   3.742   1.133  0.0631 -1.2327  0.1849
  534MPD2    C1 7977   4.050   3.879   1.101  0.0342 -0.2496  0.1907
  534MPD2    C2 7978   3.975   3.916   0.992  0.2211 -0.2586  0.7698
  534MPD2    C3 7979   3.909   3.820   0.914 -0.5000  0.5406  0.6632
  534MPD2    C4 7980   3.911   3.689   0.952 -0.1121 -0.2990  0.8202
  534MPD2    C5 7981   3.991   3.651   1.060 -0.0588  0.0297 -0.0195
  534MPD2     H 7982   3.973   4.021   0.964  0.0186  0.0070  1.8073
  534MPD2    H1 7983   3.851   3.610   0.909 -0.3846  0.3982 -0.0726
  534MPD2    H2 7984   4.095   3.708   1.225  1.5029 -1.5293 -0.6318
  534MPD2    H3 7985   3.964   3.554   1.101  0.5851 -0.7346 -1.4141
  534MPD2     N 7986   3.844   3.844   0.789 -0.0761  1.0603 -0.3164
  534MPD2    H5 7987   3.795   3.766   0.747 -0.0912  0.8111  0.1653
  534MPD2    N1 7988   4.112   3.975   1.186  0.6321  0.1228 -0.2350
  534MPD2    H7 7989   4.085   4.073   1.175 -0.6294  0.0214  1.9308
  535TMC3    C1 7990   3.759   3.971   0.613 -0.6505  0.4329 -0.9862
  535TMC3    C2 7991   3.743   3.859   0.535  0.0796 -0.2275  0.1547
  535TMC3    C3 7992   3.677   3.885   0.411 -0.1580  0.2696 -0.0319
  535TMC3    C4 7993   3.697   4.092   0.590  0.8268 -0.0495 -0.8681
  535TMC3    C5 7994   3.628   4.104   0.471  0.1738  0.3347 -0.1976
  535TMC3    C6 7995   3.634   4.007   0.377 -0.5435  0.3059  0.9180
  535TMC3     C 7996   3.840   3.970   0.731  0.3050 -0.3310  0.5606
  535TMC3     O 7997   3.886   4.076   0.768  0.3076  0.1236  0.5047
  535TMC3     H 7998   3.780   3.761   0.561 -0.1170 -0.1672  0.6536
  535TMC3    H1 7999   3.713   4.173   0.659  0.7828 -1.1625  0.4384
  535TMC3    H2 8000   3.577   4.021   0.286  0.1292 -2.7920  0.0103
  535TMC3    C7 8001   3.612   4.246   0.428 -0.4870 -0.0090  0.4594
  535TMC3    C8 8002   3.587   3.780   0.367  0.1408 -0.0400 -0.2865
  535TMC3    O1 8003   3.644   4.261   0.312 -0.0675 -0.2022  0.4968
  535TMC3    O2 8004   3.483   3.824   0.322  0.3087 -0.4840  0.3605
  536MPD2     C 8005   2.677   2.790  16.452  0.4652  0.5811 -0.7889
  536MPD2    C1 8006   2.565   2.713  16.460  0.6072  0.6790 -0.7725
  536MPD2    C2 8007   2.464   2.715  16.364  0.0183 -0.6254  0.1915
  536MPD2    C3 8008   2.485   2.797  16.250  0.1429 -0.2982  0.2964
  536MPD2    C4 8009   2.610   2.863  16.230  0.0508  0.6039 -0.1160
  536MPD2    C5 8010   2.697   2.863  16.338  1.1279  0.6245 -0.6537
  536MPD2     H 8011   2.374   2.656  16.379 -1.5800  1.8515  0.2906
  536MPD2    H1 8012   2.641   2.922  16.144 -0.3826  1.1191  0.0811
  536MPD2    H2 8013   2.756   2.771  16.523  0.3319 -1.5245 -1.2010
  536MPD2    H3 8014   2.792   2.914  16.324  1.2402  1.3276  2.8351
  536MPD2     N 8015   2.383   2.812  16.146  0.0294 -0.0151 -0.5572
  536MPD2    H5 8016   2.417   2.874  16.072 -0.1135  1.8653  0.9372
  536MPD2    N1 8017   2.566   2.623  16.577 -0.2936  0.3573 -0.4761
  536MPD2    H7 8018   2.642   2.639  16.642  0.2881  0.5364 -1.2110
  537TMC3    C1 8019   2.509   2.434  16.712 -0.2171  0.2303  0.4729
  537TMC3    C2 8020   2.642   2.421  16.748  0.1878 -0.6905 -0.2034
  537TMC3    C3 8021   2.671   2.394  16.877  0.2084 -0.0322  0.1343
  537TMC3    C4 8022   2.414   2.415  16.809  0.9133  0.1361 -0.5747
  537TMC3    C5 8023   2.449   2.374  16.929 -0.0782 -0.5006 -0.0674
  537TMC3    C6 8024   2.576   2.378  16.970  0.4828  0.3866 -0.3952
  537TMC3     C 8025   2.474   2.520  16.601 -0.0910 -0.1392  0.0891
  537TMC3     O 8026   2.367   2.490  16.544 -0.3647 -0.1094 -0.0267
  537TMC3     H 8027   2.722   2.437  16.676 -0.5851  1.1879 -0.6448
  537TMC3    H1 8028   2.308   2.425  16.788  1.0175  0.5155 -0.9151
  537TMC3    H2 8029   2.604   2.368  17.074 -1.4049 -0.1959  0.0591
  537TMC3    C7 8030   2.350   2.324  17.021 -0.2520 -0.1303  0.7471
  537TMC3    C8 8031   2.807   2.391  16.928 -0.5727 -0.3028  0.3507
  537TMC3    O1 8032   2.232   2.342  16.990 -0.3600 -0.0402 -0.1497
  537TMC3    O2 8033   2.819   2.423  17.045  0.1429 -0.6573  0.6124
  538TMC3    C1 8034   3.321   1.102  10.871 -0.4792 -0.2130  0.2491
  538TMC3    C2 8035   3.402   1.003  10.829 -0.1192 -0.2817  0.4410
  538TMC3    C3 8036   3.485   1.032  10.719  0.6129  0.1257 -0.1834
  538TMC3    C4 8037   3.305   1.219  10.800  0.2107 -0.1286 -0.4802
  538TMC3    C5 8038   3.373   1.236  10.686  0.2706 -0.9105  0.4254
  538TMC3    C6 8039   3.471   1.148  10.646 -0.2048 -0.2378 -0.0537
  538TMC3     C 8040   3.249   1.089  10.997  0.3932 -0.6266 -0.4379
  538TMC3     O 8041   3.202   1.195  11.035 -0.2484  0.3587 -0.5231
  538TMC3     H 8042   3.426   0.917  10.890  2.4877 -1.4105 -2.1884
  538TMC3    H1 8043   3.241   1.297  10.838 -0.1930 -0.3353 -0.7330
  538TMC3    H2 8044   3.515   1.159  10.547  2.2249  2.0055  1.2914
  538TMC3    C7 8045   3.299   1.308  10.586 -0.1921  0.0900 -0.0847
  538TMC3    C8 8046   3.584   0.930  10.695 -0.1239  0.1798 -0.1480
  538TMC3    O1 8047   3.374   1.347  10.496 -0.1719  0.4995  0.6106
  538TMC3    O2 8048   3.567   0.817  10.734  0.7596 -0.3861 -0.2426
  539MPD2     C 8049   3.081   0.077  11.463 -0.6514  0.1464 -0.8921
  539MPD2    C1 8050   3.137   0.073  11.339  0.3264  0.5653  0.3455
  539MPD2    C2 8051   3.083   0.155  11.237 -0.2852  0.2937 -0.1115
  539MPD2    C3 8052   2.987   0.247  11.267 -0.4460 -0.3385  0.7116
  539MPD2    C4 8053   2.926   0.241  11.392  0.1519 -0.3853 -0.1455
  539MPD2    C5 8054   2.975   0.162  11.492 -0.8172  0.2346 -0.3778
  539MPD2     H 8055   3.119   0.152  11.135  1.3085  0.6996  0.4393
  539MPD2    H1 8056   2.841   0.307  11.411  0.4838  0.0134 -0.0410
  539MPD2    H2 8057   3.111   0.015  11.547 -1.6112  2.3649  1.0697
  539MPD2    H3 8058   2.937   0.163  11.593 -1.1497  1.2133 -0.5117
  539MPD2     N 8059   2.950   0.357  11.193  0.1869 -0.6412  0.5187
  539MPD2    H5 8060   2.879   0.420  11.228 -0.4416 -0.3984 -1.2060
  539MPD2    N1 8061   3.229   4.703  11.300 -0.7268 -0.0845 -0.0743
  539MPD2    H7 8062   3.247   4.700  11.200  0.6619  1.0493  0.1327
  540TMC3    C1 8063   2.953   0.531  11.043  0.0318  0.2153 -0.5151
  540TMC3    C2 8064   2.921   0.560  10.918 -0.0603  0.0857  0.7483
  540TMC3    C3 8065   2.843   0.679  10.895  0.3449  0.1550  0.1643
  540TMC3    C4 8066   2.917   0.618  11.145  0.0022  0.2260  0.0106
  540TMC3    C5 8067   2.846   0.735  11.114  0.2941 -0.4056 -0.1917
  540TMC3    C6 8068   2.811   0.771  10.992  0.6298  0.5777 -0.3829
  540TMC3     C 8069   2.994   0.396  11.070 -0.1857 -0.0891  0.5756
  540TMC3     O 8070   3.073   0.337  10.995  0.3410  1.2752 -0.6773
  540TMC3     H 8071   2.952   0.487  10.845 -0.6677  1.2961 -0.7151
  540TMC3    H1 8072   2.961   0.601  11.243  0.7303 -2.4544 -0.7781
  540TMC3    H2 8073   2.738   0.849  10.971  2.3526  2.0530 -0.9414
  540TMC3    C7 8074   2.754   0.753  11.218  0.5395  0.1927 -0.5138
  540TMC3    C8 8075   2.755   0.676  10.779 -0.4167  0.5114  0.3404
  540TMC3    O1 8076   2.715   0.652  11.278 -0.7564 -0.1942  0.2884
  540TMC3    O2 8077   2.678   0.768  10.750 -0.2872 -0.4853 -0.0834
  541MPD2     C 8078   1.474   1.744  13.347 -0.0937 -0.1595  0.6413
  541MPD2    C1 8079   1.469   1.644  13.255 -0.6475  0.4190 -0.5136
  541MPD2    C2 8080   1.482   1.673  13.119  0.5112  0.8321 -0.1379
  541MPD2    C3 8081   1.493   1.808  13.078  0.2019  0.2567  0.1314
  541MPD2    C4 8082   1.494   1.904  13.171  0.0440 -0.4323 -0.0084
  541MPD2    C5 8083   1.486   1.877  13.302 -0.5056 -0.1119 -0.7658
  541MPD2     H 8084   1.465   1.590  13.051 -1.5587  1.3434 -0.2658
  541MPD2    H1 8085   1.500   2.009  13.144  2.1371 -0.5693 -0.0370
  541MPD2    H2 8086   1.463   1.734  13.454  2.1457 -1.0961  0.7796
  541MPD2    H3 8087   1.469   1.956  13.374  1.6613 -0.7700  0.4637
  541MPD2     N 8088   1.492   1.845  12.942 -0.2588 -0.1383 -0.3126
  541MPD2    H5 8089   1.471   1.944  12.931 -1.4752 -0.2488  1.0108
  541MPD2    N1 8090   1.450   1.519  13.307 -0.9837 -0.1147  0.0183
  541MPD2    H7 8091   1.428   1.513  13.406 -1.5174 -1.6644 -0.1942
  542TMC3    C1 8092   1.477   1.838  12.711  0.4364  0.0542 -0.4005
  542TMC3    C2 8093   1.476   1.764  12.595  0.3445  0.2249  0.0628
  542TMC3    C3 8094   1.479   1.824  12.478  0.5268 -0.2852 -0.2754
  542TMC3    C4 8095   1.466   1.979  12.707 -0.5486 -0.3888  0.5843
  542TMC3    C5 8096   1.448   2.036  12.581  1.3528  0.1882  0.4266
  542TMC3    C6 8097   1.458   1.963  12.469 -0.8878 -0.2663 -0.3172
  542TMC3     C 8098   1.489   1.761  12.836 -0.1727  0.3743 -0.4701
  542TMC3     O 8099   1.501   1.639  12.831  0.0985 -0.1924  0.0286
  542TMC3     H 8100   1.469   1.656  12.602  0.6571  0.1908 -0.1430
  542TMC3    H1 8101   1.467   2.041  12.795 -0.9189  0.0215  0.2982
  542TMC3    H2 8102   1.452   1.997  12.366 -1.2327  1.4313  0.2582
  542TMC3    C7 8103   1.413   2.177  12.572 -0.0302  0.4037  0.1214
  542TMC3    C8 8104   1.475   1.746  12.354 -0.5704 -0.1496 -0.8289
  542TMC3    O1 8105   1.397   2.229  12.682  0.3310 -0.1167  0.3410
  542TMC3    O2 8106   1.416   1.792  12.257 -0.0611 -0.5260  0.7701
  543TMC3    C1 8107   1.464   3.348  17.464 -0.1345 -0.1039 -0.0715
  543TMC3    C2 8108   1.472   3.238  17.542  0.0894  0.1673 -1.0498
  543TMC3    C3 8109   1.457   3.250  17.677 -0.0114 -0.5147  0.2330
  543TMC3    C4 8110   1.422   3.476  17.510 -0.1428  0.1900 -0.3110
  543TMC3    C5 8111   1.399   3.481  17.650 -0.3768 -0.5478  0.1292
  543TMC3    C6 8112   1.417   3.370  17.730 -0.0428 -0.0239 -0.0498
  543TMC3     C 8113   1.430   3.312  17.330  0.2569  0.2129 -1.2271
  543TMC3     O 8114   1.484   3.213  17.277 -0.4292 -0.3441  0.2623
  543TMC3     H 8115   1.502   3.143  17.498 -1.4707 -0.4974 -0.6930
  543TMC3    H1 8116   1.410   3.565  17.451 -2.2449  0.1378  0.0193
  543TMC3    H2 8117   1.395   3.383   0.094  0.3336 -1.9951  0.2723
  543TMC3    C7 8118   1.330   3.595  17.717 -0.4385 -0.6981  0.6631
  543TMC3    C8 8119   1.434   3.123   0.007  0.0799 -0.3146 -0.4536
  543TMC3    O1 8120   1.261   3.566   0.075  0.0556 -0.7188  0.9045
  543TMC3    O2 8121   1.503   3.028  17.720 -0.2620 -0.8037 -0.6240
  544MPD2     C 8122   1.167   2.812   0.314  0.0410 -0.2644  0.1752
  544MPD2    C1 8123   1.245   2.783   0.210  0.1797  0.7532 -0.9643
  544MPD2    C2 8124   1.299   2.889   0.140 -0.2355  0.6177  0.3843
  544MPD2    C3 8125   1.285   3.020   0.175 -0.4451  0.3270  0.0726
  544MPD2    C4 8126   1.214   3.039   0.287  0.6692  0.2496  0.0179
  544MPD2    C5 8127   1.145   2.941   0.352  0.3786  0.3991 -0.5230
  544MPD2     H 8128   1.356   2.867   0.050  2.7261 -0.0033  2.3912
  544MPD2    H1 8129   1.187   3.140   0.314  1.6349 -0.1037  2.3069
  544MPD2    H2 8130   1.113   2.733   0.365 -2.3071  1.4558  0.3723
  544MPD2    H3 8131   1.075   2.965   0.431  1.0703  0.8363 -0.0466
  544MPD2     N 8132   1.337   3.127   0.099  0.2776 -0.2856 -0.1637
  544MPD2    H5 8133   1.296   3.218   0.113 -1.4946 -0.9972 -0.7302
  544MPD2    N1 8134   1.245   2.650   0.161  0.1878 -0.0613  0.3731
  544MPD2    H7 8135   1.175   2.587   0.199 -0.1008  0.8853  1.4144
  545TMC3    C1 8136   1.347   2.450   0.081 -0.2708  1.1187  0.0156
  545TMC3    C2 8137   1.458   2.375   0.125  0.1727 -0.3205 -0.1667
  545TMC3    C3 8138   1.437   2.249   0.161 -0.3342 -0.2685 -0.1007
  545TMC3    C4 8139   1.222   2.400   0.068  0.0131 -0.7815  0.1237
  545TMC3    C5 8140   1.207   2.279   0.108 -0.0677 -0.4511  0.2686
  545TMC3    C6 8141   1.312   2.200   0.157 -0.0755 -0.4219 -0.2854
  545TMC3     C 8142   1.352   2.593   0.094  0.4285  0.1216  0.0143
  545TMC3     O 8143   1.457   2.646   0.068  0.1743  0.4893  0.2968
  545TMC3     H 8144   1.555   2.423   0.128 -0.1717  0.3343  0.4812
  545TMC3    H1 8145   1.140   2.461   0.031  0.6150 -0.0433  0.0078
  545TMC3    H2 8146   1.295   2.096   0.180 -1.0704  0.1434  1.5425
  545TMC3    C7 8147   1.082   2.217   0.071  0.4336 -0.0643 -0.4881
  545TMC3    C8 8148   1.541   2.172   0.237  0.8756 -0.2396 -0.3484
  545TMC3    O1 8149   1.019   2.275  17.721 -0.1590 -0.3798  0.3337
  545TMC3    O2 8150   1.502   2.106   0.331  0.0583  0.5657 -0.4410
  546MPD2     C 8151   2.626   3.323  16.825 -0.3475  0.2183 -0.7855
  546MPD2    C1 8152   2.608   3.375  16.955  0.5048 -0.1808 -0.4134
  546MPD2    C2 8153   2.689   3.478  16.991 -0.0343 -0.0545  0.1461
  546MPD2    C3 8154   2.781   3.535  16.908  0.7894  0.7189  1.2618
  546MPD2    C4 8155   2.807   3.481  16.786  0.0676 -0.2903  0.1770
  546MPD2    C5 8156   2.724   3.382  16.743 -0.3011  0.2499  0.0054
  546MPD2     H 8157   2.687   3.514  17.093 -0.7115 -0.6553  0.3440
  546MPD2    H1 8158   2.892   3.510  16.725 -1.6598  0.1253 -2.0163
  546MPD2    H2 8159   2.572   3.240  16.780  0.2808 -0.9074  0.5431
  546MPD2    H3 8160   2.720   3.344  16.641  1.2929  2.1191 -0.7509
  546MPD2     N 8161   2.865   3.643  16.942  0.1656  0.2406 -0.1884
  546MPD2    H5 8162   2.941   3.673  16.882 -2.1225  0.8400 -2.7376
  546MPD2    N1 8163   2.511   3.313  17.034  0.3845  0.0683  0.0908
  546MPD2    H7 8164   2.465   3.232  16.993  0.1330 -0.9432  2.3727
  547TMC3    C1 8165   2.338   3.293  17.188  0.1275  0.1279 -0.3712
  547TMC3    C2 8166   2.270   3.214  17.099 -0.1353 -0.1730 -0.0423
  547TMC3    C3 8167   2.175   3.138  17.149 -1.3294  0.0040 -0.1725
  547TMC3    C4 8168   2.321   3.290  17.327 -0.2834  0.3177 -0.2929
  547TMC3    C5 8169   2.228   3.197  17.370 -0.4864 -0.2851 -0.2257
  547TMC3    C6 8170   2.160   3.121  17.286  0.4710  0.6012 -0.2743
  547TMC3     C 8171   2.458   3.364  17.152  0.0198  0.3173  0.2110
  547TMC3     O 8172   2.477   3.475  17.199 -0.1501  0.0110 -0.4974
  547TMC3     H 8173   2.280   3.248  16.996 -2.1864  0.0752 -0.1549
  547TMC3    H1 8174   2.373   3.347  17.403 -0.8772  0.9819 -0.3843
  547TMC3    H2 8175   2.083   3.053  17.321  3.9516 -2.5337  1.4030
  547TMC3    C7 8176   2.241   3.147  17.511  0.1374 -0.2738  0.2989
  547TMC3    C8 8177   2.094   3.055  17.059  0.1696 -0.4206 -0.1618
  547TMC3    O1 8178   2.250   3.231  17.599  0.2873 -0.0543  0.2355
  547TMC3    O2 8179   1.976   3.028  17.088 -0.1092  0.0345  0.0668
  548MPD2     C 8180   2.281   2.692  12.855 -0.3200  0.2937 -0.0400
  548MPD2    C1 8181   2.228   2.778  12.767  0.3111  0.0220 -0.6794
  548MPD2    C2 8182   2.215   2.730  12.636  0.3068  0.3706 -0.4724
  548MPD2    C3 8183   2.254   2.606  12.602 -0.9346  0.8893  0.5535
  548MPD2    C4 8184   2.331   2.527  12.688 -0.0169  0.1054  0.0364
  548MPD2    C5 8185   2.331   2.566  12.823  0.1102  0.1568 -0.0747
  548MPD2     H 8186   2.168   2.791  12.560  0.8494  1.3447 -0.0352
  548MPD2    H1 8187   2.367   2.432  12.651 -1.3695  0.0548 -1.1809
  548MPD2    H2 8188   2.280   2.719  12.960  1.1998 -0.6846  0.2284
  548MPD2    H3 8189   2.364   2.497  12.900 -3.4706  0.2534  1.5206
  548MPD2     N 8190   2.241   2.568  12.467  0.1229  0.1467  0.4172
  548MPD2    H5 8191   2.229   2.648  12.406  0.9405  0.9928  1.3731
  548MPD2    N1 8192   2.199   2.909  12.796  0.1990  0.0023  0.6024
  548MPD2    H7 8193   2.200   2.934  12.895 -2.3158  1.4460  0.2746
  549TMC3    C1 8194   2.064   3.099  12.781  0.4478  0.3105 -0.2171
  549TMC3    C2 8195   1.987   3.180  12.698 -0.8767  0.1417 -0.5596
  549TMC3    C3 8196   1.859   3.211  12.741  0.6889  0.6197  0.0847
  549TMC3    C4 8197   2.012   3.047  12.897  0.0954 -0.4485 -0.5103
  549TMC3    C5 8198   1.882   3.079  12.931  0.0228  0.2814  0.1710
  549TMC3    C6 8199   1.803   3.158  12.855  0.1706 -0.2027 -0.6802
  549TMC3     C 8200   2.148   3.003  12.709 -0.1358  1.0229 -0.2599
  549TMC3     O 8201   2.158   3.021  12.590 -0.1212 -0.1824  0.4140
  549TMC3     H 8202   2.032   3.233  12.614  3.4791  1.4976  2.6249
  549TMC3    H1 8203   2.064   2.984  12.968 -0.2711 -0.7887 -0.5425
  549TMC3    H2 8204   1.699   3.172  12.882  0.3089 -1.4047  0.5037
  549TMC3    C7 8205   1.819   3.001  13.035 -0.1224 -0.2752 -0.1279
  549TMC3    C8 8206   1.798   3.327  12.691  0.1676 -0.1174 -0.3904
  549TMC3    O1 8207   1.769   3.057  13.130  0.2972  0.9223 -0.1051
  549TMC3    O2 8208   1.674   3.336  12.683 -0.2470 -0.0883 -0.5148
  550TMC3    C1 8209   1.163   1.371  11.838 -0.1776  0.4548  0.4020
  550TMC3    C2 8210   1.172   1.419  11.967 -0.6489 -0.4844 -0.3894
  550TMC3    C3 8211   1.156   1.553  11.987 -0.0566 -0.7757 -0.1432
  550TMC3    C4 8212   1.169   1.453  11.728  0.2179  1.0857 -0.4052
  550TMC3    C5 8213   1.162   1.590  11.754  0.2570 -0.4577 -0.1558
  550TMC3    C6 8214   1.146   1.639  11.880 -0.7204 -0.8683 -0.6835
  550TMC3     C 8215   1.065   1.265  11.822  1.2853 -0.5643  0.5205
  550TMC3     O 8216   1.085   1.161  11.884  0.7431 -0.4955 -0.0939
  550TMC3     H 8217   1.154   1.351  12.049  4.6912  2.4388  3.1984
  550TMC3    H1 8218   1.148   1.417  11.628 -0.8752 -1.4330  0.7154
  550TMC3    H2 8219   1.147   1.746  11.900  0.7497 -0.5683 -2.3058
  550TMC3    C7 8220   1.051   1.644  11.671 -1.1106 -0.0154  0.3428
  550TMC3    C8 8221   1.131   1.610  12.117  0.5025  0.3216 -0.0536
  550TMC3    O1 8222   0.972   1.558  11.629  0.1617  0.3982 -0.5344
  550TMC3    O2 8223   1.078   1.719  12.109 -0.3628  0.6117  0.1063
  551TMC3    C1 8224   3.238   3.919  13.355  0.0946 -0.2686  0.6232
  551TMC3    C2 8225   3.335   3.833  13.324 -0.2269  0.5569  0.0892
  551TMC3    C3 8226   3.451   3.845  13.399 -0.3699 -0.0708  0.2569
  551TMC3    C4 8227   3.234   3.995  13.465 -0.3115  0.3645 -0.2354
  551TMC3    C5 8228   3.350   4.013  13.528 -0.1191 -0.1851  1.0512
  551TMC3    C6 8229   3.460   3.938  13.502  0.0724  0.0489 -0.0969
  551TMC3     C 8230   3.123   3.919  13.265  0.2810 -0.7174 -0.2828
  551TMC3     O 8231   3.099   3.817  13.200  0.0705 -0.0466 -0.1513
  551TMC3     H 8232   3.340   3.779  13.231 -1.2874  0.4470  0.0885
  551TMC3    H1 8233   3.143   4.048  13.490  0.0413  1.7960 -1.9773
  551TMC3    H2 8234   3.554   3.941  13.556 -1.5147  1.8313  2.5726
  551TMC3    C7 8235   3.347   4.086  13.651  0.2436 -0.5259 -0.1373
  551TMC3    C8 8236   3.575   3.807  13.339  0.0581 -0.3359 -0.3284
  551TMC3    O1 8237   3.428   4.055  13.744  0.2396  0.3538 -0.0018
  551TMC3    O2 8238   3.576   3.704  13.272  0.2465 -0.1122 -0.3483
  552MPD2     C 8239   0.774   1.679  13.888 -0.6860  0.2860  0.3979
  552MPD2    C1 8240   0.780   1.546  13.914  0.3354  0.0363 -0.2992
  552MPD2    C2 8241   0.893   1.488  13.981 -0.6485  0.6557 -0.0958
  552MPD2    C3 8242   0.991   1.581  14.024  0.3171  0.2694  0.0598
  552MPD2    C4 8243   0.997   1.706  13.970 -0.5615  0.2527  0.7695
  552MPD2    C5 8244   0.885   1.754  13.902  0.2126  0.2543  0.1929
  552MPD2     H 8245   0.885   1.382  14.004 -0.6597  0.1919 -2.2514
  552MPD2    H1 8246   1.078   1.776  13.983 -0.1437  0.3526 -2.4168
  552MPD2    H2 8247   0.689   1.728  13.842 -0.3917  0.9154  0.5218
  552MPD2    H3 8248   0.897   1.856  13.868  0.0837  0.0224 -0.5352
  552MPD2     N 8249   1.089   1.549  14.125  0.3505  0.9835 -0.5421
  552MPD2    H5 8250   1.157   1.622  14.142  1.2595  0.1737 -0.7313
  552MPD2    N1 8251   0.674   1.462  13.882 -0.1429  0.2797 -0.4617
  552MPD2    H7 8252   0.690   1.363  13.899 -3.1581  0.4457  3.4326
  553TMC3    C1 8253   0.477   1.377  13.820  0.4274  1.1040  0.1799
  553TMC3    C2 8254   0.433   1.342  13.692  0.7830  0.0498 -0.0765
  553TMC3    C3 8255   0.398   1.215  13.667 -0.5563  0.1153 -0.2687
  553TMC3    C4 8256   0.478   1.289  13.928  0.2955 -0.3044 -0.3087
  553TMC3    C5 8257   0.428   1.167  13.897  0.3239  0.4620  0.6911
  553TMC3    C6 8258   0.394   1.121  13.771 -0.3741  0.8067 -0.2176
  553TMC3     C 8259   0.558   1.499  13.819  0.6949  0.5778 -0.5510
  553TMC3     O 8260   0.523   1.602  13.761 -0.5183  0.0280 -1.0568
  553TMC3     H 8261   0.448   1.420  13.618 -0.2683  0.1688 -0.1638
  553TMC3    H1 8262   0.478   1.332  14.028  1.8497  0.9696 -0.8546
  553TMC3    H2 8263   0.361   1.020  13.749 -1.6129  1.2322 -0.3094
  553TMC3    C7 8264   0.445   1.063  14.000 -0.6586 -0.2448  0.1678
  553TMC3    C8 8265   0.352   1.180  13.537 -0.1785  0.0677 -0.3269
  553TMC3    O1 8266   0.391   0.950  13.983  0.4500  0.4019  0.3019
  553TMC3    O2 8267   0.362   1.058  13.519  0.5203  0.0610  0.9746
  554TMC3    C1 8268   2.092   0.349  11.308 -0.1354 -0.2453 -0.2861
  554TMC3    C2 8269   2.027   0.303  11.197  0.6340 -0.2365  0.2196
  554TMC3    C3 8270   2.089   0.342  11.081 -0.2434 -0.1329 -0.7746
  554TMC3    C4 8271   2.194   0.435  11.312 -0.5752  0.2198 -0.1962
  554TMC3    C5 8272   2.254   0.472  11.197  0.8228  0.1701 -0.7660
  554TMC3    C6 8273   2.205   0.422  11.080  0.6067 -0.0220 -0.2292
  554TMC3     C 8274   2.079   0.269  11.428 -0.0699  0.3593  0.3342
  554TMC3     O 8275   1.969   0.213  11.446 -0.0702 -0.4269  0.6133
  554TMC3     H 8276   1.955   0.222  11.199  0.5186 -0.1927 -2.1546
  554TMC3    H1 8277   2.219   0.475  11.410 -0.0021  0.3008 -0.3767
  554TMC3    H2 8278   2.245   0.447  10.982  0.3323 -2.2232 -0.9186
  554TMC3    C7 8279   2.333   0.596  11.204  0.3700  0.4397  0.5726
  554TMC3    C8 8280   2.020   0.323  10.954  0.2198 -0.3143  0.6962
  554TMC3    O1 8281   2.367   0.626  11.323 -0.0043  0.1097 -0.4333
  554TMC3    O2 8282   2.057   0.391  10.860 -0.7343  0.0077  0.4059
  555TMC3    C1 8283   1.347   4.662  14.938 -0.6475 -0.7715  0.5182
  555TMC3    C2 8284   1.449   0.008  14.986  0.4427 -0.2858 -0.5067
  555TMC3    C3 8285   1.543   4.697  15.074 -0.0804 -0.5533  0.1327
  555TMC3    C4 8286   1.338   4.534  14.971  0.5728 -0.0067 -1.5006
  555TMC3    C5 8287   1.435   4.489  15.052  0.6464 -0.5339  0.7022
  555TMC3    C6 8288   1.542   4.562  15.101  0.3214  0.4357 -0.4489
  555TMC3     C 8289   1.268   4.724  14.833  0.2103  0.3750 -0.5683
  555TMC3     O 8290   1.159   4.684  14.807 -0.2971 -0.7254 -0.5550
  555TMC3     H 8291   1.458   0.115  14.972 -0.4618  0.2321  3.0018
  555TMC3    H1 8292   1.251   4.478  14.940 -0.8246  1.0022  0.5963
  555TMC3    H2 8293   1.613   4.517  15.170  0.5762  0.8930 -0.4145
  555TMC3    C7 8294   1.439   4.353  15.086 -1.0173 -0.0785 -0.3328
  555TMC3    C8 8295   1.635   0.050  15.134 -0.6251  0.3313  0.1283
  555TMC3    O1 8296   1.506   4.328  15.185  0.6398  0.9060  0.0003
  555TMC3    O2 8297   1.673   0.141  15.064 -0.0998  0.4592  0.6001
  556MPD2     C 8298   4.441   1.876  10.948  0.1596  0.0887  0.2533
  556MPD2    C1 8299   4.410   1.753  10.998  0.1035  0.1173 -0.1048
  556MPD2    C2 8300   4.412   1.636  10.916 -0.5004 -0.0562 -0.4071
  556MPD2    C3 8301   4.445   1.655  10.787 -0.1049 -0.3757  0.0994
  556MPD2    C4 8302   4.468   1.783  10.735 -0.3974  0.1324  0.1215
  556MPD2    C5 8303   4.461   1.892  10.816 -0.1752 -0.0478  0.1215
  556MPD2     H 8304   4.396   1.537  10.958 -0.1868  0.3782  0.7654
  556MPD2    H1 8305   4.506   1.799  10.634 -2.1417  1.4074 -0.3304
  556MPD2    H2 8306   4.442   1.970  11.002  0.4917 -0.7057  1.6329
  556MPD2    H3 8307   4.474   1.993  10.780 -1.0924  0.1738  0.4322
  556MPD2     N 8308   4.429   1.536  10.702 -0.2525 -0.2084 -0.2739
  556MPD2    H5 8309   4.393   1.450  10.742  0.8749 -0.4834  0.1554
  556MPD2    N1 8310   4.385   1.754  11.137  0.4035  0.0894 -0.6779
  556MPD2    H7 8311   4.394   1.841  11.189 -1.5303  1.1252 -2.0613
  557TMC3    C1 8312   4.436   1.392  10.518  0.4368  0.0440 -0.0891
  557TMC3    C2 8313   4.524   1.332  10.427 -0.6119 -0.6760 -0.0497
  557TMC3    C3 8314   4.491   1.204  10.380  0.2602  0.3630 -0.3722
  557TMC3    C4 8315   4.320   1.329  10.554 -0.1552  0.0666 -0.6475
  557TMC3    C5 8316   4.292   1.210  10.496  0.8972 -0.1886  0.2769
  557TMC3    C6 8317   4.367   1.145  10.407 -0.3662 -0.5950  0.5148
  557TMC3     C 8318   4.474   1.522  10.571  1.1298 -0.5241  0.9051
  557TMC3     O 8319   4.545   1.600  10.507 -0.0424  0.0233  0.2063
  557TMC3     H 8320   4.624   1.373  10.419 -1.0660  0.5396  0.5072
  557TMC3    H1 8321   4.260   1.382  10.627 -0.7423 -2.6538  0.8429
  557TMC3    H2 8322   4.337   1.047  10.370 -2.3881  0.4223 -0.5782
  557TMC3    C7 8323   4.169   1.144  10.551 -0.2768  0.1222  0.2601
  557TMC3    C8 8324   4.536   1.197  10.237  0.2817  0.2732 -0.3454
  557TMC3    O1 8325   4.096   1.218  10.617 -0.1017 -0.4087  0.3035
  557TMC3    O2 8326   4.562   1.304  10.183  0.0586  0.5905 -0.5669
  558TMC3    C1 8327   1.589   3.823  10.192  0.3609 -0.5571  0.3142
  558TMC3    C2 8328   1.451   3.828  10.206  0.5344  0.5955 -0.0655
  558TMC3    C3 8329   1.377   3.914  10.130  0.0553 -0.0211  0.0862
  558TMC3    C4 8330   1.652   3.911  10.106  0.3254 -0.3951  0.2398
  558TMC3    C5 8331   1.577   3.999  10.028 -0.0892 -0.3408  0.7980
  558TMC3    C6 8332   1.443   4.002  10.044 -0.1736 -0.2791  0.5801
  558TMC3     C 8333   1.675   3.777  10.301 -0.6794  0.1951 -0.0754
  558TMC3     O 8334   1.775   3.838  10.337 -0.0952  0.3914  0.3366
  558TMC3     H 8335   1.405   3.775  10.289  1.2522 -1.0111 -0.6960
  558TMC3    H1 8336   1.760   3.916  10.111  0.2052  1.1412  1.4590
  558TMC3    H2 8337   1.391   4.080   9.989  1.0383  0.6706  0.7578
  558TMC3    C7 8338   1.644   4.100   9.949 -0.0656  0.1903 -0.1310
  558TMC3    C8 8339   1.259   3.963  10.199  0.5597 -0.3581 -0.2136
  558TMC3    O1 8340   1.749   4.136  10.001 -0.5839  0.1182 -0.2146
  558TMC3    O2 8341   1.169   4.014  10.129 -0.5388  0.7632  0.0192
  559MPD2     C 8342   1.804   0.056  10.283  1.1500  0.4417  0.2797
  559MPD2    C1 8343   1.742   4.710  10.373 -0.3667  0.1689 -0.4767
  559MPD2    C2 8344   1.809   4.671  10.487 -0.1705 -0.1095  0.4710
  559MPD2    C3 8345   1.937   4.696  10.510  0.4137 -0.7174  0.1571
  559MPD2    C4 8346   1.999   0.029  10.408 -0.0251  0.2778 -0.3846
  559MPD2    C5 8347   1.936   0.078  10.302 -0.2823 -0.6237  0.1612
  559MPD2     H 8348   1.750   4.623  10.565  0.9312 -0.7948  0.8745
  559MPD2    H1 8349   2.107   0.040  10.409  0.1371 -1.3570  1.8115
  559MPD2    H2 8350   1.754   0.098  10.197 -1.8753  0.4325  2.0606
  559MPD2    H3 8351   1.990   0.132  10.226 -1.9821  0.3342 -0.3684
  559MPD2     N 8352   1.995   4.644  10.629  0.4074 -0.2811 -0.6113
  559MPD2    H5 8353   1.933   4.601  10.697 -0.4464  1.9312 -0.0029
  559MPD2    N1 8354   1.604   4.695  10.356 -0.1972 -0.2949  0.1666
  559MPD2    H7 8355   1.559   0.015  10.284 -1.6711  2.0472  2.8857
  560TMC3    C1 8356   2.161   4.623  10.797 -0.0570  0.2275 -0.3586
  560TMC3    C2 8357   2.059   4.567  10.870 -0.0275 -0.6071 -0.3450
  560TMC3    C3 8358   2.096   4.473  10.964  0.4768  0.2956 -0.2016
  560TMC3    C4 8359   2.293   4.602  10.818  0.1078  0.4038 -0.2076
  560TMC3    C5 8360   2.325   4.512  10.912 -0.7793 -0.6435  0.4093
  560TMC3    C6 8361   2.230   4.449  10.995 -0.0426  0.5486  0.5014
  560TMC3     C 8362   2.125   4.683  10.667  0.0201  0.0814  0.4110
  560TMC3     O 8363   2.213   0.008  10.603 -0.3488  0.1316  0.1629
  560TMC3     H 8364   1.953   4.587  10.854  0.3524  0.3077 -1.7548
  560TMC3    H1 8365   2.361   4.659  10.756  0.1616 -1.1029 -1.5060
  560TMC3    H2 8366   2.265   4.374  11.064  0.8721  0.0804 -0.4609
  560TMC3    C7 8367   2.470   4.488  10.950  0.4827 -0.2686  1.5445
  560TMC3    C8 8368   1.991   4.403  11.041  0.9306  0.5039 -0.7774
  560TMC3    O1 8369   2.491   4.379  11.009  0.0586  0.7316 -0.2990
  560TMC3    O2 8370   1.879   4.416  10.994 -0.2452 -0.7108 -0.1991
  561TMC3    C1 8371   0.033   3.745  11.665  0.3477 -0.2659  0.5763
  561TMC3    C2 8372   4.698   3.659  11.743  0.5734  0.0751 -0.4649
  561TMC3    C3 8373   4.581   3.715  11.790  0.1579  0.2287  0.3528
  561TMC3    C4 8374   4.720   3.863  11.611  0.1763 -0.9128 -0.2465
  561TMC3    C5 8375   4.598   3.904  11.655 -0.2766  0.8449 -0.6203
  561TMC3    C6 8376   4.535   3.836  11.754  0.3106  0.2012  0.3091
  561TMC3     C 8377   0.174   3.709  11.649 -1.1897 -0.0727 -0.4451
  561TMC3     O 8378   0.206   3.596  11.677  0.3649  0.2206  0.3124
  561TMC3     H 8379   4.726   3.559  11.773 -0.0008  0.4471  1.2956
  561TMC3    H1 8380   0.035   3.902  11.523 -0.9234  1.8058  0.3307
  561TMC3    H2 8381   4.441   3.883  11.783 -0.2211  0.5153 -1.9171
  561TMC3    C7 8382   4.535   4.027  11.606  0.3947 -0.2198 -0.3009
  561TMC3    C8 8383   4.493   3.616  11.852 -0.2055 -0.1391  0.5267
  561TMC3    O1 8384   4.419   4.050  11.644  0.2732 -0.0404 -0.3684
  561TMC3    O2 8385   4.519   3.499  11.819 -0.4093 -0.3183 -0.6154
  562TMC3    C1 8386   1.602   0.386  16.246  0.7883  0.2198  0.4925
  562TMC3    C2 8387   1.552   0.507  16.202  0.4631  0.0532  0.6135
  562TMC3    C3 8388   1.543   0.527  16.067  0.2549  0.1070 -0.2639
  562TMC3    C4 8389   1.619   0.278  16.167  0.5364 -0.0978 -0.0774
  562TMC3    C5 8390   1.611   0.302  16.036  0.4537  0.0150  0.3991
  562TMC3    C6 8391   1.578   0.424  15.980  0.2398  0.4821 -0.1645
  562TMC3     C 8392   1.651   0.382  16.381 -0.3876  0.1268  0.4660
  562TMC3     O 8393   1.628   0.486  16.445  0.5417  0.2944  0.8999
  562TMC3     H 8394   1.531   0.586  16.273 -2.5720 -0.5287  0.3485
  562TMC3    H1 8395   1.659   0.185  16.207 -1.2470 -1.0973 -0.6343
  562TMC3    H2 8396   1.569   0.425  15.872 -0.0549 -1.6173 -0.1597
  562TMC3    C7 8397   1.603   0.192  15.941 -0.2624 -0.1788  0.2020
  562TMC3    C8 8398   1.478   0.644  16.019 -0.6761 -0.2255 -0.5430
  562TMC3    O1 8399   1.612   0.205  15.824 -0.3147  0.1535 -0.3536
  562TMC3    O2 8400   1.472   0.722  16.114  0.2916 -0.6058  0.1899
  563MPD2     C 8401   3.910   1.734  15.401 -0.1896 -0.4056 -0.4712
  563MPD2    C1 8402   3.915   1.667  15.525 -0.3650  0.0254  0.1852
  563MPD2    C2 8403   4.022   1.581  15.545 -0.5176 -0.1250  0.0443
  563MPD2    C3 8404   4.118   1.559  15.456  0.2950  0.3845  0.3334
  563MPD2    C4 8405   4.117   1.623  15.334  0.6334  0.6631  0.5520
  563MPD2    C5 8406   4.007   1.701  15.303  0.3869 -0.4894 -0.1360
  563MPD2     H 8407   4.015   1.526  15.639  1.4079 -1.8474 -0.8174
  563MPD2    H1 8408   4.189   1.601  15.257  0.6403  0.1477  0.7097
  563MPD2    H2 8409   3.827   1.796  15.370 -0.5517 -1.8486 -2.3824
  563MPD2    H3 8410   3.989   1.745  15.206 -1.6485  1.5827  1.1678
  563MPD2     N 8411   4.220   1.467  15.499  0.3740 -0.7416  0.5666
  563MPD2    H5 8412   4.213   1.424  15.590  1.5015 -0.8604  0.5964
  563MPD2    N1 8413   3.818   1.672  15.627  0.2291 -0.6935 -0.6060
  563MPD2    H7 8414   3.843   1.618  15.710 -1.8547  0.6589  0.8886
  564TMC3    C1 8415   3.635   1.722  15.748 -0.2919  0.3132 -0.8840
  564TMC3    C2 8416   3.509   1.661  15.740  0.7980 -0.1907  0.1603
  564TMC3    C3 8417   3.457   1.599  15.844 -0.1543 -0.0811 -0.2141
  564TMC3    C4 8418   3.715   1.699  15.854 -0.0126 -0.2529 -0.3908
  564TMC3    C5 8419   3.663   1.624  15.956  0.3592  0.3294 -0.8531
  564TMC3    C6 8420   3.531   1.586  15.955  0.0414 -0.2607  0.9242
  564TMC3     C 8421   3.704   1.748  15.628  0.1093 -0.3365 -1.2506
  564TMC3     O 8422   3.652   1.807  15.533  0.0528  0.1758  0.4217
  564TMC3     H 8423   3.467   1.648  15.641 -2.3680 -0.2259  1.5345
  564TMC3    H1 8424   3.817   1.735  15.854 -0.1471  0.1642  1.2225
  564TMC3    H2 8425   3.478   1.556  16.045  0.8765 -0.5831  1.3023
  564TMC3    C7 8426   3.747   1.516  15.989  0.3568 -0.2235  0.2485
  564TMC3    C8 8427   3.388   1.470  15.825  0.5324  0.3628  0.8148
  564TMC3    O1 8428   3.867   1.546  15.981 -0.0556 -0.0745  0.2259
  564TMC3    O2 8429   3.357   1.409  15.922  0.2979 -0.5806  0.1230
  565TMC3    C1 8430   3.925   2.895  10.630  0.2780 -0.2062 -0.4042
  565TMC3    C2 8431   4.043   2.821  10.631 -1.2834 -0.4678 -0.2730
  565TMC3    C3 8432   4.026   2.691  10.592 -0.4239  0.9539  0.7551
  565TMC3    C4 8433   3.800   2.845  10.614 -0.0042  0.0720 -0.3156
  565TMC3    C5 8434   3.793   2.710  10.585 -0.5907  0.0957 -0.9895
  565TMC3    C6 8435   3.904   2.629  10.580 -0.1996 -0.2814  0.1108
  565TMC3     C 8436   3.955   3.020  10.572  0.1228  0.3050  0.2212
  565TMC3     O 8437   4.061   3.074  10.589  0.1787 -0.4384 -0.2014
  565TMC3     H 8438   4.144   2.860  10.629 -1.6051  0.2428 -2.2870
  565TMC3    H1 8439   3.715   2.912  10.619 -0.3280 -0.3388 -0.2182
  565TMC3    H2 8440   3.898   2.532  10.532  0.5258  0.2051 -0.9528
  565TMC3    C7 8441   3.674   2.664  10.514 -0.9513  0.3864 -0.2554
  565TMC3    C8 8442   4.146   2.616  10.564 -0.1865 -0.2341  0.1243
  565TMC3    O1 8443   3.608   2.757  10.473 -0.3425  0.0756  0.2502
  565TMC3    O2 8444   4.249   2.678  10.539 -0.0197  0.9372 -0.2823
  566MPD2     C 8445   0.566   4.593  13.946  0.7796 -0.3670 -0.3343
  566MPD2    C1 8446   0.584   4.706  13.868 -0.3138  0.3045  0.5351
  566MPD2    C2 8447   0.476   0.018  13.792  0.4435 -0.6879 -0.5664
  566MPD2    C3 8448   0.356   4.695  13.797 -0.3273 -0.7320 -0.4774
  566MPD2    C4 8449   0.340   4.583  13.875  1.0236  0.0869 -0.0213
  566MPD2    C5 8450   0.446   4.533  13.945  0.4524 -0.1991  0.0287
  566MPD2     H 8451   0.480   0.108  13.731  1.5672 -1.0106 -0.9912
  566MPD2    H1 8452   0.245   4.532  13.867  1.7821 -1.0146 -2.0667
  566MPD2    H2 8453   0.649   4.538  13.987  0.7237 -0.8827 -0.9115
  566MPD2    H3 8454   0.433   4.444  14.005  1.0793  0.5822  1.3344
  566MPD2     N 8455   0.249   4.733  13.705  0.3688 -0.0214  0.3950
  566MPD2    H5 8456   0.162   4.686  13.725  1.5997 -3.3433 -2.0146
  566MPD2    N1 8457   0.712   0.024  13.862 -0.7823  0.3604  0.0352
  566MPD2    H7 8458   0.780   4.726  13.929  0.3500  0.2440 -1.1974
  567TMC3    C1 8459   0.899   0.152  13.789  0.2671  0.6364 -0.2872
  567TMC3    C2 8460   0.968   0.193  13.679  0.1815  0.4254 -0.8540
  567TMC3    C3 8461   1.102   0.202  13.677  0.4017  0.5034 -0.1746
  567TMC3    C4 8462   0.958   0.124  13.908 -1.1166 -0.1041 -0.8725
  567TMC3    C5 8463   1.095   0.124  13.902 -0.1654  0.0264 -0.3506
  567TMC3    C6 8464   1.169   0.157  13.788  0.0496  0.4418  0.5093
  567TMC3     C 8465   0.758   0.112  13.766 -0.1158 -0.7152 -0.3837
  567TMC3     O 8466   0.697   0.152  13.665 -1.1037 -0.2488 -0.0021
  567TMC3     H 8467   0.921   0.227  13.588 -0.1870  4.1217  0.7259
  567TMC3    H1 8468   0.899   0.116  13.998  0.6119  0.6115  0.3214
  567TMC3    H2 8469   1.276   0.171  13.799  0.2764 -1.5211  0.8050
  567TMC3    C7 8470   1.176   0.079  14.019 -0.5627  0.0460  0.1257
  567TMC3    C8 8471   1.161   0.178  13.549 -0.3453 -0.3501  0.0219
  567TMC3    O1 8472   1.293   0.112  14.018  0.1904 -0.2217  0.1182
  567TMC3    O2 8473   1.104   0.226  13.451 -0.0222  0.3919 -0.6873
  568MPD2     C 8474   3.069   0.138  16.372 -0.3653  0.1022 -0.1594
  568MPD2    C1 8475   3.167   0.235  16.414 -0.2250  0.1927  0.1750
  568MPD2    C2 8476   3.198   0.335  16.321  0.0602 -0.3030 -0.1237
  568MPD2    C3 8477   3.139   0.351  16.199  0.3626  0.1421  0.0403
  568MPD2    C4 8478   3.042   0.261  16.165  0.3896 -0.4186  0.1627
  568MPD2    C5 8479   3.008   0.160  16.255  0.0748 -0.3111 -0.7567
  568MPD2     H 8480   3.283   0.397  16.346 -1.6524  2.2369 -0.6683
  568MPD2    H1 8481   2.983   0.271  16.075 -3.6384  0.0940  2.7965
  568MPD2    H2 8482   3.035   0.061  16.440  1.6346  0.7566  1.5625
  568MPD2    H3 8483   2.938   0.084  16.220 -0.8760  0.5699 -0.7535
  568MPD2     N 8484   3.189   0.450  16.117  0.6079 -0.1172 -0.6331
  568MPD2    H5 8485   3.262   0.514  16.148  0.8525 -0.2518 -0.9339
  568MPD2    N1 8486   3.236   0.218  16.536 -0.2576 -0.3914 -0.3350
  568MPD2    H7 8487   3.204   0.142  16.595 -0.9005 -0.5080 -0.8365
  569TMC3    C1 8488   3.240   0.568  15.928 -0.0265 -0.0076  0.6505
  569TMC3    C2 8489   3.372   0.571  15.971  0.2110 -0.3277  0.5594
  569TMC3    C3 8490   3.448   0.678  15.934  0.1632 -0.2580  0.1322
  569TMC3    C4 8491   3.184   0.654  15.843  0.2350 -0.1471  0.5543
  569TMC3    C5 8492   3.262   0.760  15.803  0.1842 -0.2722 -0.2618
  569TMC3    C6 8493   3.392   0.770  15.845  0.2479  0.3156 -0.3337
  569TMC3     C 8494   3.143   0.481  15.992 -0.5515  0.4751 -0.7255
  569TMC3     O 8495   3.050   0.437  15.928 -0.1104  0.5240  0.1339
  569TMC3     H 8496   3.419   0.495  16.032 -0.4828 -1.1653  0.0363
  569TMC3    H1 8497   3.080   0.650  15.811  0.6232 -0.9283 -0.6024
  569TMC3    H2 8498   3.460   0.844  15.805  0.4532  0.9377  1.1490
  569TMC3    C7 8499   3.208   0.859  15.713  0.0737 -1.2321  1.0423
  569TMC3    C8 8500   3.593   0.668  15.952 -0.3476 -0.8150  0.1810
  569TMC3    O1 8501   3.115   0.826  15.644 -0.1398 -0.2445 -0.1673
  569TMC3    O2 8502   3.636   0.552  15.968  0.5010 -0.2165  0.0618
  570TMC3    C1 8503   2.403   4.129  15.814 -0.1554 -0.6784 -0.0383
  570TMC3    C2 8504   2.405   4.164  15.678  0.4747 -0.8255  0.3157
  570TMC3    C3 8505   2.432   4.288  15.643  0.3617 -0.0324 -0.0516
  570TMC3    C4 8506   2.442   4.218  15.911  0.5523 -0.0501 -0.2060
  570TMC3    C5 8507   2.473   4.345  15.873 -0.5730 -0.5354 -0.1128
  570TMC3    C6 8508   2.466   4.380  15.740 -0.1945  0.0347  1.1680
  570TMC3     C 8509   2.377   3.986  15.833 -0.1583 -0.1247 -0.3420
  570TMC3     O 8510   2.383   3.915  15.729 -0.7533  0.4177 -0.1333
  570TMC3     H 8511   2.370   4.097  15.600 -2.6865  0.6666  0.4503
  570TMC3    H1 8512   2.461   4.186  16.013  0.4079  0.3544 -0.0520
  570TMC3    H2 8513   2.490   4.483  15.715  0.9771  0.0569  2.4148
  570TMC3    C7 8514   2.569   4.420  15.956 -0.3365  0.2756 -0.2010
  570TMC3    C8 8515   2.481   4.319  15.506  0.1315  0.4895 -0.1421
  570TMC3    O1 8516   2.555   4.405  16.074 -0.0336  0.2839  0.1420
  570TMC3    O2 8517   2.513   4.435  15.489 -0.0402  0.5269  0.6515
  571MPD2     C 8518   0.283   1.188   0.332 -0.3447 -0.2052  0.2542
  571MPD2    C1 8519   0.247   1.210   0.459  0.2761  0.4587  0.4823
  571MPD2    C2 8520   0.265   1.338   0.517  0.1269 -1.2476  0.2137
  571MPD2    C3 8521   0.306   1.443   0.438 -0.0084 -0.0174 -0.0335
  571MPD2    C4 8522   0.321   1.423   0.303  0.0907 -0.0005  0.2793
  571MPD2    C5 8523   0.313   1.295   0.251  0.3307 -0.0299 -0.5257
  571MPD2     H 8524   0.248   1.349   0.623 -0.0287  1.4711 -0.1046
  571MPD2    H1 8525   0.355   1.502   0.237  1.5466  0.9282  2.1632
  571MPD2    H2 8526   0.278   1.088   0.292  0.0950  0.1096 -0.6065
  571MPD2    H3 8527   0.330   1.280   0.145 -1.6004 -0.4966 -0.7660
  571MPD2     N 8528   0.329   1.575   0.484  0.4516  0.6091  0.0319
  571MPD2    H5 8529   0.368   1.645   0.422 -0.2930  1.3264  0.3693
  571MPD2    N1 8530   0.219   1.093   0.542 -0.0326 -0.5723  0.8538
  571MPD2    H7 8531   0.225   1.003   0.496 -1.3649 -0.3574  0.2508
  572TMC3    C1 8532   0.369   1.755   0.650 -0.3941 -0.7159 -0.6208
  572TMC3    C2 8533   0.374   1.788   0.782  0.4894  0.0030 -0.0951
  572TMC3    C3 8534   0.417   1.917   0.809 -0.1535  0.7764 -0.4205
  572TMC3    C4 8535   0.400   1.842   0.548  0.4754 -1.0190  0.0507
  572TMC3    C5 8536   0.445   1.968   0.582 -0.4423 -0.3380 -0.2689
  572TMC3    C6 8537   0.447   2.010   0.709  0.1110  0.5485 -0.3994
  572TMC3     C 8538   0.336   1.611   0.619  0.6522 -0.0040  1.1969
  572TMC3     O 8539   0.310   1.536   0.714 -0.2669 -0.1723 -0.1413
  572TMC3     H 8540   0.366   1.715   0.862 -1.6679  1.6909  1.2739
  572TMC3    H1 8541   0.376   1.827   0.444  0.4728  2.0084 -0.3726
  572TMC3    H2 8542   0.494   2.106   0.723  1.8404 -0.4748  0.8390
  572TMC3    C7 8543   0.523   2.034   0.487  0.4889  0.4036 -0.1988
  572TMC3    C8 8544   0.483   1.948   0.939  0.2572  0.6521  0.3351
  572TMC3    O1 8545   0.480   2.031   0.371 -0.3729 -0.0919  1.0958
  572TMC3    O2 8546   0.572   2.030   0.927  0.2897 -0.3214 -0.1262
  573MPD2     C 8547   1.444   1.407   0.676  0.7731 -0.3167  0.5268
  573MPD2    C1 8548   1.388   1.534   0.695 -0.0571  0.4696  0.4158
  573MPD2    C2 8549   1.255   1.549   0.725 -0.9241 -0.7869  0.7257
  573MPD2    C3 8550   1.168   1.436   0.710 -0.2735 -0.5818  0.6258
  573MPD2    C4 8551   1.222   1.316   0.670 -0.2817  0.9241  0.4685
  573MPD2    C5 8552   1.360   1.301   0.655 -0.5377  0.4677 -0.4230
  573MPD2     H 8553   1.219   1.644   0.763  0.7895  0.5993 -1.1401
  573MPD2    H1 8554   1.166   1.232   0.631  1.5081 -0.3081  0.5437
  573MPD2    H2 8555   1.549   1.383   0.674  0.7766 -0.4805  2.8416
  573MPD2    H3 8556   1.390   1.206   0.611 -2.5977 -0.7424  0.7797
  573MPD2     N 8557   1.024   1.438   0.730 -0.5619  0.5204  0.1100
  573MPD2    H5 8558   0.980   1.348   0.713  1.9799 -0.8370  0.6954
  573MPD2    N1 8559   1.481   1.640   0.715  0.0394  0.0330  0.0072
  573MPD2    H7 8560   1.577   1.608   0.708 -1.0631 -3.0918 -1.0831
  574TMC3    C1 8561   0.819   1.532   0.666  0.3773  0.2297 -0.3370
  574TMC3    C2 8562   0.785   1.628   0.574  0.0148 -0.4751  0.3123
  574TMC3    C3 8563   0.694   1.588   0.477 -0.2220  0.5928 -0.4256
  574TMC3    C4 8564   0.767   1.405   0.664 -0.1238 -0.3042 -0.2366
  574TMC3    C5 8565   0.680   1.369   0.565  0.3507  0.1511 -0.1132
  574TMC3    C6 8566   0.638   1.462   0.472 -0.4305  0.5358  0.1419
  574TMC3     C 8567   0.953   1.549   0.733  0.0716  0.0650  0.2688
  574TMC3     O 8568   0.990   1.662   0.733 -0.0394  0.1972  0.3563
  574TMC3     H 8569   0.805   1.734   0.588  0.2924 -0.6320  1.0784
  574TMC3    H1 8570   0.791   1.341   0.749  0.1984 -1.0766 -0.9150
  574TMC3    H2 8571   0.572   1.440   0.389 -1.8512 -0.4031  1.5276
  574TMC3    C7 8572   0.623   1.234   0.560 -0.2128  0.2036  0.0153
  574TMC3    C8 8573   0.663   1.683   0.374 -0.5399 -1.0309  0.1359
  574TMC3    O1 8574   0.631   1.172   0.456 -0.6069  0.0649  0.4755
  574TMC3    O2 8575   0.544   1.694   0.335 -0.3798  0.1749 -0.4496
  575TMC3    C1 8576   0.141   2.215  10.194 -0.2649 -0.0136 -0.9694
  575TMC3    C2 8577   0.230   2.312  10.153 -0.7349 -0.2839 -0.0558
  575TMC3    C3 8578   0.204   2.441  10.190  0.5076 -0.8131 -0.4865
  575TMC3    C4 8579   0.025   2.245  10.255 -0.6518  0.3452 -0.0022
  575TMC3    C5 8580   0.001   2.376  10.288  0.1518  0.3359 -0.4493
  575TMC3    C6 8581   0.093   2.475  10.262  0.7203 -0.6425 -0.1786
  575TMC3     C 8582   0.187   2.073  10.196  0.1058  0.4905 -0.4077
  575TMC3     O 8583   0.267   2.048  10.112 -0.1693 -0.0105 -0.0569
  575TMC3     H 8584   0.315   2.280  10.092 -1.7179  0.9632 -2.0898
  575TMC3    H1 8585   4.694   2.160  10.253 -1.3341  0.9606 -2.6964
  575TMC3    H2 8586   0.068   2.580  10.263 -1.2628 -1.1224  0.1528
  575TMC3    C7 8587   4.620   2.413  10.372  0.0470 -0.1438 -0.2944
  575TMC3    C8 8588   0.264   2.542  10.102 -0.0834  0.0384 -0.6259
  575TMC3    O1 8589   4.583   2.530  10.380 -0.1351  0.0879 -0.4629
  575TMC3    O2 8590   0.229   2.657  10.116 -0.4470  0.1481  0.3274
  576MPD2     C 8591   3.647   4.017  12.789 -0.3951  0.1694  0.3037
  576MPD2    C1 8592   3.643   4.083  12.667 -0.0281  0.2164  0.7245
  576MPD2    C2 8593   3.642   4.222  12.664 -0.6364  0.1276  0.6393
  576MPD2    C3 8594   3.656   4.292  12.782 -0.2210  0.2871  0.3862
  576MPD2    C4 8595   3.668   4.224  12.901 -0.1647  0.0580 -0.1092
  576MPD2    C5 8596   3.670   4.090  12.900 -0.0590  0.2461  0.5514
  576MPD2     H 8597   3.624   4.275  12.571  2.2259  3.3324  1.9339
  576MPD2    H1 8598   3.691   4.279  12.992  3.7615 -3.7104  1.1542
  576MPD2    H2 8599   3.654   3.909  12.799 -3.1126 -0.0437 -0.3851
  576MPD2    H3 8600   3.676   4.047  12.999  1.0605  1.3132  0.9428
  576MPD2     N 8601   3.659   4.434  12.769 -0.1636 -0.2091 -0.4426
  576MPD2    H5 8602   3.625   4.477  12.684 -2.8837 -0.6409  0.4362
  576MPD2    N1 8603   3.620   4.011  12.541 -0.3649  0.4530  0.3084
  576MPD2    H7 8604   3.586   4.068  12.464 -1.6150 -1.5525 -0.6266
  577TMC3    C1 8605   3.608   3.834  12.379  0.4761  0.9038  0.1139
  577TMC3    C2 8606   3.679   3.727  12.339  0.1077  0.3517 -0.4883
  577TMC3    C3 8607   3.741   3.732  12.220  0.4355  0.5385  1.0140
  577TMC3    C4 8608   3.576   3.936  12.297  0.9495  0.3187 -0.0409
  577TMC3    C5 8609   3.650   3.939  12.179  0.2770 -0.5571 -0.2358
  577TMC3    C6 8610   3.737   3.846  12.140 -0.4654  0.2947  0.0487
  577TMC3     C 8611   3.625   3.872  12.519  0.2592 -0.2731  0.4543
  577TMC3     O 8612   3.667   3.785  12.592  0.2811 -0.5627 -0.4763
  577TMC3     H 8613   3.694   3.642  12.404  3.5782  0.7243 -0.8095
  577TMC3    H1 8614   3.504   4.013  12.321 -1.1904 -2.2707  1.8571
  577TMC3    H2 8615   3.783   3.848  12.041 -1.9620 -2.0429 -0.7049
  577TMC3    C7 8616   3.673   4.079  12.141 -0.2918  0.0721  0.6421
  577TMC3    C8 8617   3.851   3.641  12.199 -0.8249 -0.1343 -0.4546
  577TMC3    O1 8618   3.653   4.164  12.224 -0.3515 -0.4009 -0.6833
  577TMC3    O2 8619   3.834   3.538  12.263 -0.0028 -0.3988  0.3134
  578MPD2     C 8620   3.054   4.029   1.082  0.6320 -0.2130 -0.6575
  578MPD2    C1 8621   2.993   4.048   0.962  0.1981 -0.6752  0.7681
  578MPD2    C2 8622   2.981   3.941   0.873 -0.6684 -0.0532 -0.6280
  578MPD2    C3 8623   3.002   3.809   0.922 -0.4008  0.8083  0.7680
  578MPD2    C4 8624   3.044   3.789   1.048 -0.0681  0.0136  0.0570
  578MPD2    C5 8625   3.088   3.900   1.122 -0.2562 -0.5619  0.1028
  578MPD2     H 8626   2.932   3.956   0.777  0.8174 -3.4179 -1.9106
  578MPD2    H1 8627   3.071   3.692   1.088 -0.2705 -0.6837 -1.4876
  578MPD2    H2 8628   3.095   4.105   1.147 -1.7077  0.2257  0.3152
  578MPD2    H3 8629   3.131   3.879   1.219 -0.9130  1.1596  0.7732
  578MPD2     N 8630   2.973   3.707   0.830 -0.6243 -0.9024  0.0677
  578MPD2    H5 8631   2.931   3.738   0.743  0.9054  1.0191  0.0179
  578MPD2    N1 8632   2.951   4.182   0.924 -0.1361  0.3041  0.2445
  578MPD2    H7 8633   2.983   4.258   0.983 -0.2305 -1.7920  3.0055
  579TMC3    C1 8634   2.974   3.501   0.722  0.1416  0.1161 -0.6427
  579TMC3    C2 8635   3.081   3.455   0.650 -0.2185 -0.6212 -0.2384
  579TMC3    C3 8636   3.054   3.359   0.551  0.2580  0.8912 -0.1581
  579TMC3    C4 8637   2.846   3.458   0.700  0.2761 -0.3565  0.0332
  579TMC3    C5 8638   2.826   3.356   0.613  0.1190 -0.2153 -0.1228
  579TMC3    C6 8639   2.926   3.305   0.538 -0.2846 -1.0957  0.2826
  579TMC3     C 8640   3.007   3.575   0.838 -0.6555 -0.0639  0.2532
  579TMC3     O 8641   3.091   3.526   0.910  0.1411  0.1145 -0.9282
  579TMC3     H 8642   3.174   3.509   0.653 -1.5235  1.6318 -0.1293
  579TMC3    H1 8643   2.765   3.491   0.764  0.1450 -0.2387 -0.1951
  579TMC3    H2 8644   2.901   3.221   0.475  0.4060 -0.6652 -0.5526
  579TMC3    C7 8645   2.704   3.288   0.618  0.0187  0.4596 -0.8761
  579TMC3    C8 8646   3.157   3.317   0.460 -0.0164 -0.0867  0.5058
  579TMC3    O1 8647   2.706   3.166   0.595  0.3857 -0.4442  0.4693
  579TMC3    O2 8648   3.154   3.208   0.406  0.0217 -0.2439 -1.0557
  580TMC3    C1 8649   1.858   2.780  11.906  0.2372 -0.5299  0.8352
  580TMC3    C2 8650   1.846   2.739  11.779 -0.2790 -0.0168  0.6460
  580TMC3    C3 8651   1.875   2.602  11.754 -0.5868 -0.0491  0.0158
  580TMC3    C4 8652   1.886   2.694  12.008  0.0771 -0.5766  1.1895
  580TMC3    C5 8653   1.909   2.560  11.981 -0.2423  0.0033  0.1759
  580TMC3    C6 8654   1.912   2.517  11.854  0.8150  0.3838  0.1943
  580TMC3     C 8655   1.856   2.922  11.929  0.2662  0.2245  0.5434
  580TMC3     O 8656   1.800   2.993  11.845 -0.7411 -0.2629 -0.0740
  580TMC3     H 8657   1.808   2.810  11.706  1.0456  1.7062  1.6373
  580TMC3    H1 8658   1.856   2.726  12.107 -3.8844 -0.2010 -0.1430
  580TMC3    H2 8659   1.945   2.415  11.840  0.7400  0.1769  1.5234
  580TMC3    C7 8660   1.885   2.471  12.091 -0.1383  0.4262 -0.3083
  580TMC3    C8 8661   1.884   2.558  11.615 -0.6361 -0.4486  0.2717
  580TMC3    O1 8662   1.889   2.520  12.198 -0.3479  0.2215 -0.6138
  580TMC3    O2 8663   1.886   2.437  11.587  0.7069  0.2343 -0.0767
  581MPD2     C 8664   0.031   2.907  14.607 -0.4174 -0.3465 -0.2108
  581MPD2    C1 8665   4.709   2.892  14.731  0.2548  0.6679 -1.0827
  581MPD2    C2 8666   4.592   2.950  14.760 -0.2047  0.1077 -0.2713
  581MPD2    C3 8667   4.510   3.004  14.666  0.2469 -0.5599 -0.1683
  581MPD2    C4 8668   4.555   3.000  14.536  0.5472 -0.7492 -0.1914
  581MPD2    C5 8669   4.686   2.962  14.515 -0.4249  0.3177  0.7137
  581MPD2     H 8670   4.554   2.941  14.861  0.0664 -2.4974 -0.4038
  581MPD2    H1 8671   4.503   3.046  14.452  0.1101 -2.0089 -0.6179
  581MPD2    H2 8672   0.127   2.865  14.580  0.6138  1.4379  0.7108
  581MPD2    H3 8673   4.718   2.967  14.412 -1.0301 -3.0350  0.3655
  581MPD2     N 8674   4.379   3.035  14.699  0.8529 -0.4943  0.3564
  581MPD2    H5 8675   4.350   3.011  14.793 -0.9068 -1.2910 -0.3805
  581MPD2    N1 8676   0.043   2.814  14.827  0.3904  0.3820  0.7807
  581MPD2    H7 8677   0.114   2.747  14.800  2.0615  2.1681  0.7388
  582TMC3    C1 8678   0.052   2.684  15.035  1.1098 -0.1328 -0.0208
  582TMC3    C2 8679   0.139   2.714  15.140  0.1617  0.3848 -0.3027
  582TMC3    C3 8680   0.113   2.663  15.260  0.0953 -1.0022  0.7763
  582TMC3    C4 8681   4.679   2.613  15.061  0.3019  0.6002 -0.0951
  582TMC3    C5 8682   4.649   2.563  15.189  0.2141 -0.2976  0.6762
  582TMC3    C6 8683   4.734   2.589  15.293  0.2518 -0.7270 -0.2929
  582TMC3     C 8684   0.003   2.800  14.958  0.0471  0.5706  0.8943
  582TMC3     O 8685   4.664   2.861  15.030 -0.2242  0.3025 -0.0981
  582TMC3     H 8686   0.237   2.756  15.119  0.2508  1.0100  1.4177
  582TMC3    H1 8687   4.610   2.597  14.979 -0.1660 -3.2232  1.0646
  582TMC3    H2 8688   4.709   2.547  15.390 -0.1986 -0.5750 -0.3439
  582TMC3    C7 8689   4.508   2.593  15.229 -0.1602  0.7226 -0.8029
  582TMC3    C8 8690   0.208   2.692  15.364  0.4396  0.7003 -0.1576
  582TMC3    O1 8691   4.445   2.527  15.306  0.2807 -0.0536 -0.1339
  582TMC3    O2 8692   0.325   2.718  15.333  0.4690  0.3833  0.0089
  583MPD2     C 8693   4.643   4.390  16.684 -0.0400 -0.6408  0.0918
  583MPD2    C1 8694   4.701   4.512  16.642  0.6955 -0.1064 -0.4054
  583MPD2    C2 8695   4.707   4.616  16.739 -0.3267 -0.7162  0.0741
  583MPD2    C3 8696   4.649   4.606  16.867  0.1760 -0.1492 -0.3681
  583MPD2    C4 8697   4.593   4.481  16.897  0.4634 -0.1980  0.0193
  583MPD2    C5 8698   4.585   4.377  16.804 -0.4394  1.0797 -0.0899
  583MPD2     H 8699   0.023   4.708  16.713 -1.5028 -0.6464 -2.0621
  583MPD2    H1 8700   4.565   4.458  17.000 -0.4566  1.1791  0.0842
  583MPD2    H2 8701   4.624   4.321  16.602  1.0914  0.9125 -1.4761
  583MPD2    H3 8702   4.539   4.282  16.828  2.1451 -0.2968 -0.6127
  583MPD2     N 8703   4.646   4.711  16.960  0.1025  0.5957  0.4343
  583MPD2    H5 8704   4.667   0.068  16.922 -2.4681 -0.7196 -4.2378
  583MPD2    N1 8705   0.025   4.538  16.513 -0.0251 -0.6732 -0.1346
  583MPD2    H7 8706   0.067   4.627  16.493  0.8551 -0.8893  0.7745
  584TMC3    C1 8707   4.623   0.108  17.153 -0.0979  0.4150 -0.0875
  584TMC3    C2 8708   4.657   0.215  17.076 -0.0565 -0.5984 -0.1383
  584TMC3    C3 8709   4.688   0.330  17.140 -0.5892 -0.5029 -0.1568
  584TMC3    C4 8710   4.624   0.111  17.291  0.6856  0.4220  0.0919
  584TMC3    C5 8711   4.653   0.229  17.353  0.1073 -0.6408 -0.3287
  584TMC3    C6 8712   4.691   0.337  17.281 -0.2554 -0.2763  0.8846
  584TMC3     C 8713   4.610   4.705  17.092 -0.3811 -0.1118  0.3147
  584TMC3     O 8714   4.591   4.614  17.172 -0.0050 -0.6016  0.1159
  584TMC3     H 8715   4.661   0.216  16.968 -1.7136  1.7615 -0.1946
  584TMC3    H1 8716   4.609   0.027  17.358  2.1417  0.0711 -0.0146
  584TMC3    H2 8717   4.730   0.426  17.329  0.7046 -0.7651  1.0268
  584TMC3    C7 8718   4.631   0.238  17.494 -0.7196  0.2904  0.2885
  584TMC3    C8 8719   0.020   0.428  17.058 -0.1060 -0.4353 -0.1869
  584TMC3    O1 8720   4.631   0.138  17.565 -0.2714  0.1095 -0.1444
  584TMC3    O2 8721   0.069   0.394  16.955 -0.3916  0.3810 -0.2730
  585MPD2     C 8722   3.310   4.306   0.147 -0.0993 -0.7188  0.2497
  585MPD2    C1 8723   3.412   4.315   0.056  0.5526 -0.7208 -0.6455
  585MPD2    C2 8724   3.469   4.197   0.013  0.6985 -0.2571 -0.2516
  585MPD2    C3 8725   3.439   4.081   0.076  0.6311  0.3010 -1.4094
  585MPD2    C4 8726   3.337   4.076   0.167  0.0172  0.2131  0.1531
  585MPD2    C5 8727   3.278   4.190   0.211 -0.8493  0.0522  0.1582
  585MPD2     H 8728   3.547   4.190  17.679  0.4101  0.7754 -0.6483
  585MPD2    H1 8729   3.296   3.984   0.206 -0.3530  0.5327  0.5229
  585MPD2    H2 8730   3.253   4.395   0.173  0.7405 -0.4056  1.0338
  585MPD2    H3 8731   3.202   4.193   0.288 -3.0796 -2.4918 -1.9660
  585MPD2     N 8732   3.495   3.957   0.046  0.3558  0.7653  0.5308
  585MPD2    H5 8733   3.457   3.875   0.092  1.3173  0.3470  0.5765
  585MPD2    N1 8734   3.429   4.442   0.001 -0.1835  0.1257 -0.1858
  585MPD2    H7 8735   3.375   4.518   0.041  2.7217  1.9545  0.2771
  586TMC3    C1 8736   3.624   3.786  17.684 -0.5692  0.1519 -0.0877
  586TMC3    C2 8737   3.742   3.722  17.712  0.2562  0.1010  0.2830
  586TMC3    C3 8738   3.735   3.586  17.717 -0.5278  0.0066  0.3697
  586TMC3    C4 8739   3.502   3.720  17.672  1.0140 -0.8937 -1.9299
  586TMC3    C5 8740   3.505   3.585  17.690 -0.1697 -0.9711 -0.2417
  586TMC3    C6 8741   3.618   3.518  17.712 -0.0244  0.2451  0.1001
  586TMC3     C 8742   3.604   3.929  17.710  0.1939 -0.3005 -0.2137
  586TMC3     O 8743   3.684   4.010  17.661  0.4348  0.4280 -0.3539
  586TMC3     H 8744   3.834   3.778  17.725  0.6138 -0.9529  2.3997
  586TMC3    H1 8745   3.413   3.772  17.638  2.2607  1.1330 -2.1569
  586TMC3    H2 8746   3.613   3.411  17.693  1.7506  0.2504 -0.3984
  586TMC3    C7 8747   3.421   3.502  17.605 -0.0161 -0.2699  0.2079
  586TMC3    C8 8748   3.857   3.511  17.680  0.0444  0.7594 -0.3847
  586TMC3    O1 8749   3.367   3.403  17.652  0.0273  0.3797 -0.3419
  586TMC3    O2 8750   3.839   3.388  17.677  0.8682 -0.1175 -0.5024
  587TMC3    C1 8751   1.495   2.053  16.315 -0.2163 -0.3299 -0.3095
  587TMC3    C2 8752   1.507   2.146  16.409 -0.5107 -0.5230 -0.5592
  587TMC3    C3 8753   1.624   2.214  16.425 -1.0914 -0.2178 -0.5916
  587TMC3    C4 8754   1.598   2.021  16.234 -0.0933  0.4046  0.0726
  587TMC3    C5 8755   1.718   2.089  16.250 -0.6857  0.4411 -0.6485
  587TMC3    C6 8756   1.723   2.193  16.335  0.0021  0.0873 -0.0401
  587TMC3     C 8757   1.391   1.958  16.332  0.0491  0.1147  0.6381
  587TMC3     O 8758   1.331   1.956  16.436 -0.4239 -0.7025  0.4122
  587TMC3     H 8759   1.425   2.169  16.475  0.4654 -2.2174  1.2502
  587TMC3    H1 8760   1.584   1.938  16.165  0.4638  0.7507 -0.4535
  587TMC3    H2 8761   1.822   2.234  16.351  0.2598 -0.7961  0.6657
  587TMC3    C7 8762   1.831   2.026  16.176 -0.0772 -0.4293  0.1230
  587TMC3    C8 8763   1.643   2.308  16.538  0.5309  0.5505 -0.5468
  587TMC3    O1 8764   1.819   1.910  16.135  0.2739 -0.6038  0.4862
  587TMC3    O2 8765   1.760   2.313  16.586 -0.3205  0.1259  0.0210
  588TMC3    C1 8766   3.246   0.315   9.886  0.4840  0.5521 -0.2908
  588TMC3    C2 8767   3.171   0.206   9.913  0.0909 -0.2076 -0.0353
  588TMC3    C3 8768   3.226   0.080   9.908  0.5713  0.0722  0.8403
  588TMC3    C4 8769   3.377   0.301   9.850 -0.2138 -0.7752 -0.1835
  588TMC3    C5 8770   3.432   0.171   9.842 -0.7032 -0.0726  0.6000
  588TMC3    C6 8771   3.354   0.059   9.861  0.4157  0.4932  0.2349
  588TMC3     C 8772   3.200   0.435   9.950 -0.4734  0.0406  0.3140
  588TMC3     O 8773   3.088   0.436  10.002 -0.2414  0.0161 -0.2129
  588TMC3     H 8774   3.070   0.220   9.950  0.6305 -1.0003  1.7219
  588TMC3    H1 8775   3.436   0.385   9.816 -2.1718 -0.0827 -1.8471
  588TMC3    H2 8776   3.396   4.698   9.834 -0.8768  0.5461 -1.9008
  588TMC3    C7 8777   3.572   0.163   9.858 -0.0907  0.4020  0.5385
  588TMC3    C8 8778   3.136   4.699   9.901 -0.6269 -0.0767 -0.7939
  588TMC3    O1 8779   3.623   0.052   9.852 -0.7657  0.3935  0.7180
  588TMC3    O2 8780   3.013   4.718   9.883  0.0851  0.1715 -0.2269
  589TMC3    C1 8781   2.785   2.758   1.444 -0.5240  0.2102 -0.8217
  589TMC3    C2 8782   2.911   2.741   1.501  0.0268 -0.3893 -0.3271
  589TMC3    C3 8783   2.988   2.635   1.454 -0.4309 -1.0978 -0.2600
  589TMC3    C4 8784   2.748   2.676   1.337 -0.1513 -0.6880  0.3178
  589TMC3    C5 8785   2.825   2.566   1.293 -1.2317 -0.2868 -0.3798
  589TMC3    C6 8786   2.952   2.550   1.349  0.3123  0.4703  0.3333
  589TMC3     C 8787   2.696   2.868   1.477  0.2934  0.8559 -0.1051
  589TMC3     O 8788   2.593   2.900   1.417 -0.7940  0.5745  0.0471
  589TMC3     H 8789   2.953   2.794   1.586 -0.4027  0.8741 -0.8958
  589TMC3    H1 8790   2.665   2.706   1.274  0.6958 -0.0160 -0.4698
  589TMC3    H2 8791   3.013   2.468   1.312 -1.1863  0.6412 -2.5152
  589TMC3    C7 8792   2.802   2.494   1.171  0.2484  0.1720  0.3215
  589TMC3    C8 8793   3.102   2.595   1.532 -0.2315 -0.6366 -0.5018
  589TMC3    O1 8794   2.894   2.436   1.116 -0.2561 -0.1517 -0.3115
  589TMC3    O2 8795   3.087   2.614   1.652  0.3996  0.0302 -0.3826
  590MPD2     C 8796   2.542   0.645  16.750 -0.0101 -0.4858  0.5037
  590MPD2    C1 8797   2.491   0.661  16.622 -0.2497  0.4447  0.2137
  590MPD2    C2 8798   2.534   0.769  16.553  0.2986  0.3282 -0.3064
  590MPD2    C3 8799   2.618   0.867  16.605 -0.0242 -0.0762 -0.7967
  590MPD2    C4 8800   2.677   0.841  16.726  0.0781  0.3438 -0.0270
  590MPD2    C5 8801   2.645   0.726  16.794  0.1724 -0.4120  0.0271
  590MPD2     H 8802   2.506   0.774  16.448  1.6959  2.0373 -0.6003
  590MPD2    H1 8803   2.750   0.905  16.775 -0.4272 -0.9804  2.4344
  590MPD2    H2 8804   2.525   0.556  16.810  0.5044 -2.2737 -1.9917
  590MPD2    H3 8805   2.691   0.702  16.889  3.0948  2.4652 -0.6810
  590MPD2     N 8806   2.634   0.985  16.530 -0.3675  0.3762  0.3018
  590MPD2    H5 8807   2.588   0.989  16.439 -0.7529 -0.1724  0.4708
  590MPD2    N1 8808   2.383   0.583  16.579 -0.0261 -0.3028 -0.6024
  590MPD2    H7 8809   2.347   0.513  16.644 -1.1905  2.2361  1.4585
  591TMC3    C1 8810   2.727   1.194  16.466  0.2885  0.7133 -0.8353
  591TMC3    C2 8811   2.741   1.154  16.333  0.4048 -0.0777 -0.2678
  591TMC3    C3 8812   2.810   1.236  16.253  0.4819 -0.7820 -0.1357
  591TMC3    C4 8813   2.772   1.315  16.506  0.0425  1.4099 -0.2533
  591TMC3    C5 8814   2.843   1.392  16.421 -0.4616  0.0034 -0.0293
  591TMC3    C6 8815   2.876   1.353  16.295 -0.1503  0.2286 -0.5628
  591TMC3     C 8816   2.708   1.098  16.574 -0.3643 -0.3856  0.3441
  591TMC3     O 8817   2.724   1.142  16.687 -0.8268  0.2324 -0.2752
  591TMC3     H 8818   2.721   1.051  16.304 -2.4992 -0.2357  2.2989
  591TMC3    H1 8819   2.773   1.341  16.612  0.6219  2.7397 -0.5882
  591TMC3    H2 8820   2.945   1.404  16.229  1.2199 -0.9511 -0.0457
  591TMC3    C7 8821   2.905   1.505  16.487  0.0219  0.3147  0.0083
  591TMC3    C8 8822   2.813   1.206  16.113  0.5175 -0.1637  0.0345
  591TMC3    O1 8823   2.896   1.515  16.608 -0.4231 -0.0459  0.2438
  591TMC3    O2 8824   2.830   1.087  16.086  0.6059  0.4856  0.2371
  592MPD2     C 8825   2.427   2.431  11.154  0.1955 -0.4556  0.1953
  592MPD2    C1 8826   2.343   2.443  11.257  0.3043 -0.6675  0.4268
  592MPD2    C2 8827   2.260   2.334  11.279  0.4664  0.1125 -0.2712
  592MPD2    C3 8828   2.263   2.218  11.204 -0.7213 -0.4338 -0.2504
  592MPD2    C4 8829   2.357   2.205  11.101 -0.8165 -0.1924  0.4830
  592MPD2    C5 8830   2.432   2.317  11.078 -0.1429  0.4826  0.2885
  592MPD2     H 8831   2.181   2.337  11.352  0.9065 -1.0540  0.2528
  592MPD2    H1 8832   2.364   2.120  11.034  0.2303  0.1670  0.1390
  592MPD2    H2 8833   2.494   2.515  11.138  1.0974 -1.0664  0.8111
  592MPD2    H3 8834   2.505   2.306  10.998 -0.5007 -0.4787  0.1038
  592MPD2     N 8835   2.170   2.115  11.234 -0.3397  0.1859 -0.1323
  592MPD2    H5 8836   2.115   2.133  11.318 -0.9934 -0.4727 -0.4257
  592MPD2    N1 8837   2.333   2.561  11.337 -0.0432 -0.2487 -0.3682
  592MPD2    H7 8838   2.372   2.647  11.299 -0.7122  0.2426  0.0467
  593TMC3    C1 8839   2.259   2.713  11.503 -0.3317 -0.2799 -0.6783
  593TMC3    C2 8840   2.218   2.727  11.632 -0.4717 -0.1820  0.6564
  593TMC3    C3 8841   2.218   2.854  11.682  0.5183  0.2139 -0.1878
  593TMC3    C4 8842   2.303   2.814  11.423  0.2732  0.4316 -0.2891
  593TMC3    C5 8843   2.310   2.939  11.479 -0.6656 -0.4663  0.3745
  593TMC3    C6 8844   2.267   2.959  11.607  0.0611  0.2269  0.4574
  593TMC3     C 8845   2.259   2.574  11.449  0.0304  0.0012 -0.1460
  593TMC3     O 8846   2.231   2.486  11.530 -0.0081 -0.7190 -0.8127
  593TMC3     H 8847   2.185   2.641  11.688  0.2815 -0.2492  0.9989
  593TMC3    H1 8848   2.315   2.798  11.316 -2.0349 -1.7729 -0.2411
  593TMC3    H2 8849   2.253   3.059  11.647  0.7664 -0.4212  2.3143
  593TMC3    C7 8850   2.408   3.022  11.411  0.2531  0.6959  0.0877
  593TMC3    C8 8851   2.227   2.852  11.825 -0.3793  1.1161 -0.4061
  593TMC3    O1 8852   2.451   2.986  11.302 -0.1703 -0.3452  0.0904
  593TMC3    O2 8853   2.190   2.753  11.887  0.0459  0.4763  0.3688
  594MPD2     C 8854   1.690   1.700  14.049  0.2952 -0.6573 -0.0762
  594MPD2    C1 8855   1.664   1.719  14.178 -0.4190  0.1316  0.1402
  594MPD2    C2 8856   1.741   1.801  14.266  0.1483 -0.0520 -0.1189
  594MPD2    C3 8857   1.832   1.876  14.206 -0.0273  0.3939  0.3553
  594MPD2    C4 8858   1.863   1.874  14.072  0.6442  0.0875 -0.7310
  594MPD2    C5 8859   1.781   1.786  13.996  0.4029 -0.1032  0.4091
  594MPD2     H 8860   1.712   1.818  14.370 -2.1492  2.3231 -1.1245
  594MPD2    H1 8861   1.934   1.936  14.018  0.0313  2.0116  0.7190
  594MPD2    H2 8862   1.642   1.633  13.978 -1.5855  1.0844 -0.4666
  594MPD2    H3 8863   1.802   1.769  13.891  1.1480 -1.2111  0.7385
  594MPD2     N 8864   1.895   1.965  14.292 -0.0829  0.0824 -0.1447
  594MPD2    H5 8865   1.858   1.953  14.385  2.1060 -0.7372  0.6155
  594MPD2    N1 8866   1.553   1.641  14.223 -0.0778  0.1791  0.5517
  594MPD2    H7 8867   1.493   1.598  14.154 -1.3887  1.3652  0.9230
  595TMC3    C1 8868   2.190   2.308  14.437  0.5882 -0.2848  0.6262
  595TMC3    C2 8869   2.152   2.202  14.357  0.6722 -0.8455 -0.6118
  595TMC3    C3 8870   2.033   2.140  14.378 -0.8351  0.4459 -0.1770
  595TMC3    C4 8871   2.108   2.338  14.545  0.0060  0.0132  0.9630
  595TMC3    C5 8872   1.979   2.289  14.545 -0.3038 -0.7507  0.0927
  595TMC3    C6 8873   1.941   2.188  14.459 -0.0514 -0.4861 -0.0020
  595TMC3     C 8874   2.327   2.336  14.464 -0.1001  0.8756  0.2351
  595TMC3     O 8875   2.363   2.340  14.582 -0.0008  0.0041  0.0748
  595TMC3     H 8876   2.212   2.187  14.268  1.5724  1.7302 -0.4506
  595TMC3    H1 8877   2.134   2.414  14.618  0.5368  0.6179  0.1450
  595TMC3    H2 8878   1.835   2.167  14.450 -0.0154  0.1982 -1.9509
  595TMC3    C7 8879   1.892   2.315  14.654 -0.2006 -0.0130  0.1236
  595TMC3    C8 8880   1.994   2.059  14.262  0.0484  0.3132  0.3078
  595TMC3    O1 8881   1.774   2.278  14.639 -0.0666  0.3192  0.3303
  595TMC3    O2 8882   2.017   2.095  14.151  0.0128  0.0835 -0.2051
  596MPD2     C 8883   0.613   4.291  16.840  0.5849  0.1505 -0.4588
  596MPD2    C1 8884   0.655   4.402  16.769  0.0529  0.1771  1.0359
  596MPD2    C2 8885   0.697   4.378  16.637  0.0849 -0.4735 -0.0026
  596MPD2    C3 8886   0.693   4.252  16.582 -0.6012  0.3728 -0.0206
  596MPD2    C4 8887   0.649   4.140  16.652 -0.0435 -0.6406 -0.4382
  596MPD2    C5 8888   0.613   4.165  16.781 -0.3087  0.1736 -0.5567
  596MPD2     H 8889   0.746   4.459  16.584  1.1924  0.1573  1.9700
  596MPD2    H1 8890   0.636   4.040  16.613 -1.0059 -0.3228 -0.9430
  596MPD2    H2 8891   0.574   4.308  16.940  3.3095  1.5322  0.3582
  596MPD2    H3 8892   0.574   4.081  16.838 -1.7576  0.5817 -0.9587
  596MPD2     N 8893   0.728   4.231  16.447  0.2256 -0.0272 -0.3175
  596MPD2    H5 8894   0.722   4.131  16.431  0.9496  0.0820 -1.2951
  596MPD2    N1 8895   0.663   4.534  16.818 -0.0180  0.0797 -0.4164
  596MPD2    H7 8896   0.711   4.605  16.764  1.2682  0.7946  1.6549
  597TMC3    C1 8897   0.656   4.720  16.961  0.1954  0.0037 -0.5020
  597TMC3    C2 8898   0.663   0.069  16.857  0.3061 -0.0981 -0.2193
  597TMC3    C3 8899   0.649   0.201  16.887 -0.6597  0.3449  0.2223
  597TMC3    C4 8900   0.652   0.023  17.092  0.3785  0.8210  0.3188
  597TMC3    C5 8901   0.629   0.154  17.119 -0.1122  0.4129  0.2952
  597TMC3    C6 8902   0.625   0.247  17.013  0.9532  0.2081 -0.5621
  597TMC3     C 8903   0.636   4.578  16.948  0.0383  0.8468 -0.2624
  597TMC3     O 8904   0.585   4.522  17.045  0.6997  0.3771  0.2308
  597TMC3     H 8905   0.667   0.031  16.755  0.3660  2.5666 -1.2155
  597TMC3    H1 8906   0.654   4.685  17.172  0.3176  3.0826  2.4132
  597TMC3    H2 8907   0.620   0.354  17.026  2.1160  0.3009 -0.9139
  597TMC3    C7 8908   0.554   0.184  17.239 -0.2085  0.0418 -0.3624
  597TMC3    C8 8909   0.650   0.288  16.768 -0.6560  0.7583 -0.2011
  597TMC3    O1 8910   0.572   0.107  17.333 -0.6127  0.0212  0.3815
  597TMC3    O2 8911   0.718   0.259  16.673  0.7361  0.4080 -0.7673
  598TMC3    C1 8912   3.390   1.201  15.273 -0.1553 -1.0149 -0.0621
  598TMC3    C2 8913   3.275   1.130  15.238 -0.2722  0.6341 -0.2416
  598TMC3    C3 8914   3.206   1.182  15.134  0.4922  0.2816  0.1107
  598TMC3    C4 8915   3.424   1.316  15.216  0.3821  0.1420  0.5882
  598TMC3    C5 8916   3.338   1.374  15.130  0.0877 -0.4031 -0.2993
  598TMC3    C6 8917   3.227   1.308  15.084 -0.5118 -0.2247  0.4807
  598TMC3     C 8918   3.487   1.134  15.356  0.6200 -0.3555  0.2499
  598TMC3     O 8919   3.586   1.196  15.392 -0.2806 -0.4769 -0.0075
  598TMC3     H 8920   3.245   1.033  15.277 -0.1290  0.8691  0.4545
  598TMC3    H1 8921   3.521   1.358  15.236  1.2770 -0.2277 -2.8733
  598TMC3    H2 8922   3.150   1.363  15.030  1.1214  1.0295 -0.5816
  598TMC3    C7 8923   3.388   1.465  15.035 -0.1797 -0.1851 -0.1792
  598TMC3    C8 8924   3.122   1.099  15.051  0.3862  0.3145 -0.3111
  598TMC3    O1 8925   3.361   1.444  14.916 -0.0866  1.4973 -0.1406
  598TMC3    O2 8926   3.065   1.000  15.102 -0.0088 -0.0220 -0.0226
  599MPD2     C 8927   3.953   3.614  15.925  0.0113  1.0891 -0.4230
  599MPD2    C1 8928   3.897   3.488  15.920  0.6866  0.3317 -0.3767
  599MPD2    C2 8929   3.769   3.469  15.978  0.5516 -0.2514  0.0677
  599MPD2    C3 8930   3.707   3.578  16.035  1.0842  0.5441 -0.3405
  599MPD2    C4 8931   3.769   3.697  16.040  0.5325  1.6378  0.1326
  599MPD2    C5 8932   3.894   3.714  15.990 -0.0881 -0.0162 -0.8277
  599MPD2     H 8933   3.719   3.375  15.959 -2.2442  1.2022  0.2485
  599MPD2    H1 8934   3.721   3.778  16.092 -1.2975  1.3210 -1.0648
  599MPD2    H2 8935   4.055   3.629  15.892  0.8132 -1.3178  0.8736
  599MPD2    H3 8936   3.950   3.804  16.010 -0.7712  0.1887  0.1625
  599MPD2     N 8937   3.581   3.570  16.091  0.4647 -0.1451 -0.2692
  599MPD2    H5 8938   3.527   3.655  16.098  0.5001 -0.0055 -1.8051
  599MPD2    N1 8939   3.975   3.382  15.862 -0.1252 -0.3024  0.1711
  599MPD2    H7 8940   4.065   3.407  15.824 -0.8278  0.8973 -0.7043
  600TMC3    C1 8941   3.404   3.480  16.220  0.6680 -0.2541 -0.0764
  600TMC3    C2 8942   3.317   3.378  16.241 -0.5516  0.1259 -0.0885
  600TMC3    C3 8943   3.247   3.380  16.359 -0.2961 -0.3655  0.4160
  600TMC3    C4 8944   3.406   3.590  16.307 -0.1830  0.5197  0.2508
  600TMC3    C5 8945   3.322   3.590  16.420  0.1879  0.2775  0.8140
  600TMC3    C6 8946   3.234   3.488  16.441 -0.1016  0.2551 -0.2716
  600TMC3     C 8947   3.517   3.452  16.136  0.1090  0.2082 -0.2816
  600TMC3     O 8948   3.538   3.335  16.116 -0.1723  0.5241 -0.2559
  600TMC3     H 8949   3.321   3.290  16.177 -0.6398  0.2692 -0.2930
  600TMC3    H1 8950   3.475   3.671  16.285 -1.7625  2.3891  2.1962
  600TMC3    H2 8951   3.160   3.480  16.520  1.1881 -0.4439  0.8603
  600TMC3    C7 8952   3.307   3.707  16.498 -0.1257 -0.3732 -0.5059
  600TMC3    C8 8953   3.133   3.291  16.371  0.6159  0.7104  0.3867
  600TMC3    O1 8954   3.197   3.731  16.548 -0.3137 -0.2181 -0.2936
  600TMC3    O2 8955   3.065   3.258  16.277 -0.3399  0.5019 -0.3610
  601MPD2     C 8956   0.928   2.351   0.427  0.3172 -0.2098 -0.7722
  601MPD2    C1 8957   0.813   2.350   0.356  0.5785  0.7438  0.3283
  601MPD2    C2 8958   0.726   2.251   0.386 -0.0998  0.6639 -0.1689
  601MPD2    C3 8959   0.748   2.166   0.494 -0.0539 -0.0231 -0.0271
  601MPD2    C4 8960   0.852   2.182   0.580 -0.0076 -0.0224 -0.4552
  601MPD2    C5 8961   0.946   2.277   0.540  0.4469 -1.0163 -1.4820
  601MPD2     H 8962   0.631   2.242   0.333 -0.5491  1.3947  0.4996
  601MPD2    H1 8963   0.861   2.120   0.668 -0.7963  0.1444 -0.2594
  601MPD2    H2 8964   1.012   2.415   0.404  1.2182 -0.1546  2.5746
  601MPD2    H3 8965   1.044   2.291   0.584 -0.1972  2.0825 -1.0326
  601MPD2     N 8966   0.648   2.071   0.539  0.3518 -0.2391  0.7116
  601MPD2    H5 8967   0.669   2.020   0.624  1.3193 -1.4051 -0.2136
  601MPD2    N1 8968   0.791   2.436   0.248 -0.5228  0.4197  0.3156
  601MPD2    H7 8969   0.704   2.419   0.197 -1.7148  1.2827  2.0649
  602TMC3    C1 8970   0.830   2.598   0.081  0.3272  1.0132  0.0269
  602TMC3    C2 8971   0.920   2.624  17.724 -0.3262 -0.8257 -0.1821
  602TMC3    C3 8972   0.875   2.670  17.607  0.4682  0.2682  0.1573
  602TMC3    C4 8973   0.701   2.650   0.080 -0.1228  0.3096  0.3146
  602TMC3    C5 8974   0.658   2.712  17.703 -0.0179 -0.3241 -0.6887
  602TMC3    C6 8975   0.749   2.719  17.591  0.2413  0.0686  0.2380
  602TMC3     C 8976   0.882   2.534   0.202 -0.2269  0.1923 -0.3055
  602TMC3     O 8977   1.004   2.547   0.217 -0.2296 -0.4233  0.5077
  602TMC3     H 8978   1.023   2.591  17.734 -1.1134 -2.8633  0.9699
  602TMC3    H1 8979   0.644   2.633   0.170 -0.6945  1.7386  0.2233
  602TMC3    H2 8980   0.721   2.779  17.505 -0.6637 -0.8301 -0.1056
  602TMC3    C7 8981   0.514   2.726  17.683  0.2875  0.4151  0.3440
  602TMC3    C8 8982   0.955   2.645  17.488  0.4015  0.1293 -0.2989
  602TMC3    O1 8983   0.443   2.736   0.038  0.0974 -0.3233 -0.7504
  602TMC3    O2 8984   1.074   2.616  17.503 -0.4827 -0.2069 -0.3547
  603TMC3    C1 8985   3.673   2.277  11.231  0.5633  0.2560  0.5140
  603TMC3    C2 8986   3.599   2.228  11.340  0.1816 -0.7874  0.1061
  603TMC3    C3 8987   3.492   2.303  11.372 -0.1010  0.1285 -1.1450
  603TMC3    C4 8988   3.648   2.394  11.168 -1.3245 -1.0309  0.3241
  603TMC3    C5 8989   3.540   2.462  11.206 -0.4533 -0.0391  0.2577
  603TMC3    C6 8990   3.457   2.415  11.302  0.3449  0.0674 -0.4202
  603TMC3     C 8991   3.781   2.187  11.183 -0.3693  0.4967 -0.1917
  603TMC3     O 8992   3.860   2.234  11.101 -0.2526  0.0485  0.6681
  603TMC3     H 8993   3.635   2.146  11.400 -0.0699 -0.9266  0.0659
  603TMC3    H1 8994   3.712   2.430  11.088 -2.3023 -1.7224 -0.7651
  603TMC3    H2 8995   3.380   2.481  11.342  1.1226  1.4436 -1.2016
  603TMC3    C7 8996   3.495   2.562  11.111 -0.2134 -0.3449 -0.0059
  603TMC3    C8 8997   3.461   2.312  11.509 -0.4950  0.2472 -0.3321
  603TMC3    O1 8998   3.581   2.637  11.065 -0.2878  0.7845 -0.3316
  603TMC3    O2 8999   3.415   2.415  11.553 -0.1368 -0.0931  0.8650
  604MPD2     C 9000   4.557   0.396  16.029 -0.3772  0.2709  0.9727
  604MPD2    C1 9001   4.517   0.502  15.946 -0.0867  0.3166  0.2994
  604MPD2    C2 9002   4.577   0.512  15.823 -0.1631  0.1729 -0.1167
  604MPD2    C3 9003   4.673   0.428  15.779 -0.8112  0.1366 -0.5568
  604MPD2    C4 9004   4.701   0.322  15.859 -0.6084 -0.4424  0.4446
  604MPD2    C5 9005   4.646   0.306  15.984  0.4924  0.0325  0.0027
  604MPD2     H 9006   4.538   0.593  15.762  1.4640  1.4304  0.5010
  604MPD2    H1 9007   0.033   0.243  15.829 -1.2547 -1.5754  1.9752
  604MPD2    H2 9008   4.516   0.385  16.128 -0.1973  0.3910  1.0603
  604MPD2    H3 9009   4.664   0.220  16.048  1.7579  0.8172  0.6912
  604MPD2     N 9010   0.002   0.453  15.651  0.3418  0.0662 -0.1692
  604MPD2    H5 9011   4.697   0.537  15.610  0.2250  0.5575  0.9472
  604MPD2    N1 9012   4.426   0.596  15.993 -0.3285 -0.2187  0.0175
  604MPD2    H7 9013   4.383   0.579  16.083 -2.2171 -2.5716 -1.3353
  605TMC3    C1 9014   4.309   0.795  16.026 -0.1383 -0.1436 -0.4688
  605TMC3    C2 9015   4.358   0.804  16.156  0.2414  0.1463  0.9318
  605TMC3    C3 9016   4.340   0.920  16.224  0.8665 -0.0243  0.0322
  605TMC3    C4 9017   4.247   0.902  15.966 -0.1451 -0.1225  0.6944
  605TMC3    C5 9018   4.230   1.014  16.038 -0.7070  0.3471  0.5888
  605TMC3    C6 9019   4.285   1.030  16.169  0.2580 -0.3272 -0.5120
  605TMC3     C 9020   4.391   0.714  15.932  0.2685  0.2483 -0.3828
  605TMC3     O 9021   4.418   0.755  15.817  0.1021  0.2078  0.2351
  605TMC3     H 9022   4.426   0.727  16.190  0.2759 -0.6277 -0.8924
  605TMC3    H1 9023   4.218   0.887  15.863  1.1124 -1.0796  0.4761
  605TMC3    H2 9024   4.275   1.128  16.216  1.0365 -0.2727 -0.4640
  605TMC3    C7 9025   4.134   1.112  15.995  0.5036 -0.4707  0.0143
  605TMC3    C8 9026   4.475   0.956  16.283  0.7062 -0.1145 -0.7171
  605TMC3    O1 9027   4.135   1.217  16.050  0.0096 -0.2644 -0.4136
  605TMC3    O2 9028   4.566   0.992  16.207  0.1016  0.2833 -0.6661
  606TMC3    C1 9029   1.085   4.479  16.956  0.0284 -0.5901  0.0115
  606TMC3    C2 9030   1.213   4.476  17.005  0.3040  0.1257  0.1346
  606TMC3    C3 9031   1.277   4.352  17.032  0.5780  0.2626 -0.1738
  606TMC3    C4 9032   1.008   4.369  16.929 -0.3048  0.0154 -0.6220
  606TMC3    C5 9033   1.075   4.251  16.947  0.1702 -0.1249 -0.1837
  606TMC3    C6 9034   1.202   4.242  16.999  0.6944  0.1332 -0.0551
  606TMC3     C 9035   1.036   4.602  16.899 -0.6169 -0.8781 -0.0719
  606TMC3     O 9036   0.952   4.594  16.811  0.0533  0.0438  0.3879
  606TMC3     H 9037   1.264   4.571  17.021 -0.2402  0.5028 -0.3908
  606TMC3    H1 9038   0.907   4.375  16.888 -0.7296  0.8723  0.5545
  606TMC3    H2 9039   1.250   4.144  17.000 -1.0431 -0.7244 -0.3011
  606TMC3    C7 9040   0.997   4.132  16.938 -0.0062  0.6877 -0.0236
  606TMC3    C8 9041   1.396   4.350  17.110  0.3141  0.1848  0.5379
  606TMC3    O1 9042   1.044   4.021  16.907 -0.8126  0.1100 -0.2342
  606TMC3    O2 9043   1.454   4.453  17.128  0.2622  0.0258  0.3975
  607MPD2     C 9044   2.471   1.912  11.323  0.7923 -0.0039 -0.7640
  607MPD2    C1 9045   2.450   1.987  11.437 -0.5546  0.0005 -0.1703
  607MPD2    C2 9046   2.397   1.930  11.548 -0.2898  0.1599  0.3527
  607MPD2    C3 9047   2.365   1.797  11.550 -0.5913 -0.3347 -0.1575
  607MPD2    C4 9048   2.377   1.724  11.437 -0.1302 -0.1081  0.0949
  607MPD2    C5 9049   2.430   1.780  11.320 -0.0396 -0.5196  0.0641
  607MPD2     H 9050   2.381   1.988  11.638  0.0231 -2.5356  2.1747
  607MPD2    H1 9051   2.342   1.622  11.422  1.1206 -0.5516  0.2102
  607MPD2    H2 9052   2.517   1.947  11.231  0.3485 -0.5550 -1.1994
  607MPD2    H3 9053   2.456   1.712  11.241 -1.0373 -1.1516  0.2804
  607MPD2     N 9054   2.339   1.746  11.678  0.7076  0.3754  0.2069
  607MPD2    H5 9055   2.353   1.804  11.760 -0.4101 -0.6907  1.1533
  607MPD2    N1 9056   2.496   2.116  11.452  0.5110  0.0487 -0.1624
  607MPD2    H7 9057   2.481   2.169  11.537  1.1744  0.0799 -0.0671
  608TMC3    C1 9058   2.661   2.284  11.429  0.0900  0.0406  0.3884
  608TMC3    C2 9059   2.688   2.269  11.555 -0.3084 -0.5721  0.2682
  608TMC3    C3 9060   2.758   2.366  11.616  0.1605  0.1910  0.0881
  608TMC3    C4 9061   2.703   2.383  11.346 -0.0169 -0.3399 -0.0498
  608TMC3    C5 9062   2.788   2.480  11.403  0.2892  0.2315  0.5038
  608TMC3    C6 9063   2.812   2.472  11.544 -0.0944  0.1731 -0.4208
  608TMC3     C 9064   2.585   2.180  11.363 -0.6404 -0.3615 -0.1436
  608TMC3     O 9065   2.625   2.158  11.246 -0.2586  0.1458  0.2221
  608TMC3     H 9066   2.689   2.167  11.591  0.9972 -1.3478 -1.9680
  608TMC3    H1 9067   2.679   2.387  11.240  4.4502  2.8274 -0.9319
  608TMC3    H2 9068   2.866   2.549  11.598 -1.5679  1.4013 -0.7044
  608TMC3    C7 9069   2.871   2.559  11.313 -0.0403  0.5000 -0.4879
  608TMC3    C8 9070   2.749   2.369  11.756  0.4538 -0.4171  0.4612
  608TMC3    O1 9071   2.839   2.571  11.197  0.3716  0.8781 -0.5392
  608TMC3    O2 9072   2.831   2.438  11.813  0.7472 -0.1295  0.4015
  609TMC3    C1 9073   0.439   1.646   9.514 -0.4324 -0.0144 -0.7139
  609TMC3    C2 9074   0.308   1.687   9.509 -0.0494  0.9060  1.1902
  609TMC3    C3 9075   0.228   1.664   9.404 -0.4523 -0.2410 -0.2691
  609TMC3    C4 9076   0.491   1.583   9.403  0.3624  0.1880 -0.3172
  609TMC3    C5 9077   0.403   1.540   9.303  0.3188  0.1386 -0.1199
  609TMC3    C6 9078   0.274   1.581   9.302 -0.6091  0.0492  0.2166
  609TMC3     C 9079   0.515   1.718   9.610 -0.1143 -0.0430  0.1100
  609TMC3     O 9080   0.462   1.816   9.673  0.5220 -0.0583  0.5749
  609TMC3     H 9081   0.274   1.740   9.598  0.9127 -0.5741  2.4445
  609TMC3    H1 9082   0.590   1.541   9.391 -0.1111 -0.7117 -0.9845
  609TMC3    H2 9083   0.207   1.574   9.218 -0.6403  0.5454  0.1976
  609TMC3    C7 9084   0.467   1.512   9.173 -0.7270 -0.4366  0.8657
  609TMC3    C8 9085   0.103   1.730   9.379  0.2683 -0.0352 -0.5339
  609TMC3    O1 9086   0.587   1.551   9.171 -0.3443 -0.5979 -0.2577
  609TMC3    O2 9087   0.030   1.687   9.285  0.2541 -0.0118 -0.4003
  610TMC3    C1 9088   3.743   2.061  12.255 -0.4872 -0.2868 -0.0815
  610TMC3    C2 9089   3.658   2.167  12.268  0.8750 -0.1198  0.0111
  610TMC3    C3 9090   3.610   2.195  12.394 -0.0049  0.0517 -0.1785
  610TMC3    C4 9091   3.784   1.989  12.354 -0.6199 -0.2342 -0.2093
  610TMC3    C5 9092   3.732   2.018  12.476 -0.4551  0.4413  0.2132
  610TMC3    C6 9093   3.640   2.118  12.503 -0.1302  0.0476 -0.4728
  610TMC3     C 9094   3.804   2.050  12.123  0.1642 -0.2095  0.0282
  610TMC3     O 9095   3.775   2.125  12.034 -0.4319 -0.2168 -0.1449
  610TMC3     H 9096   3.631   2.222  12.178  2.4267 -1.6723 -1.4211
  610TMC3    H1 9097   3.869   1.923  12.344  0.3302  0.8266  0.9368
  610TMC3    H2 9098   3.586   2.130  12.596 -0.7753 -0.9345 -0.7222
  610TMC3    C7 9099   3.763   1.943  12.588  0.3116  0.2734  0.2247
  610TMC3    C8 9100   3.490   2.284  12.409 -0.4022 -0.0305 -0.3785
  610TMC3    O1 9101   3.789   1.827  12.566  0.0519  0.3986 -0.2783
  610TMC3    O2 9102   3.422   2.313  12.310 -0.4359 -0.5338 -0.0541
  611MPD2     C 9103   2.262   2.695  10.024 -0.4500  0.5911 -0.2703
  611MPD2    C1 9104   2.260   2.565  10.070  0.3911  0.6260 -0.4621
  611MPD2    C2 9105   2.349   2.520  10.163 -0.4771 -0.4005  0.1053
  611MPD2    C3 9106   2.448   2.607  10.205 -0.1130  0.5176  0.3611
  611MPD2    C4 9107   2.456   2.732  10.155  0.0382  0.7891  0.4885
  611MPD2    C5 9108   2.355   2.780  10.073 -0.0957  0.4041  0.3908
  611MPD2     H 9109   2.338   2.423  10.209 -1.5037  0.5385  1.8232
  611MPD2    H1 9110   2.537   2.797  10.184  2.7543 -1.5854 -1.7401
  611MPD2    H2 9111   2.191   2.730   9.950  2.2519 -2.6240 -4.3500
  611MPD2    H3 9112   2.352   2.884  10.041 -1.6439  0.7561  1.6886
  611MPD2     N 9113   2.552   2.564  10.290 -0.1110  0.0105  0.0890
  611MPD2    H5 9114   2.616   2.634  10.325  0.8334 -0.0664 -1.5288
  611MPD2    N1 9115   2.165   2.484  10.010  0.0297  0.1479  0.3725
  611MPD2    H7 9116   2.103   2.530   9.944  3.0340  2.5080 -0.8080
  612TMC3    C1 9117   2.666   2.402  10.444 -0.1241  0.6928 -0.7265
  612TMC3    C2 9118   2.766   2.489  10.478  0.8506  0.1696 -0.0376
  612TMC3    C3 9119   2.841   2.459  10.590 -0.6564 -0.1684 -0.0945
  612TMC3    C4 9120   2.649   2.280  10.508 -0.5418  0.0465 -0.7556
  612TMC3    C5 9121   2.716   2.259  10.623 -0.7206 -0.5149 -0.3818
  612TMC3    C6 9122   2.807   2.351  10.667 -0.3106 -0.1560 -0.1657
  612TMC3     C 9123   2.573   2.426  10.327 -0.5843 -0.2305  0.3681
  612TMC3     O 9124   2.531   2.323  10.274  0.0499  0.0785 -0.1821
  612TMC3     H 9125   2.788   2.575  10.416 -0.1402  0.1653 -0.3969
  612TMC3    H1 9126   2.566   2.220  10.474  0.8578 -0.5371 -3.1792
  612TMC3    H2 9127   2.860   2.325  10.758  2.7379 -3.4300 -2.9200
  612TMC3    C7 9128   2.733   2.122  10.661  0.6388  0.5049 -0.0829
  612TMC3    C8 9129   2.967   2.525  10.608  0.6530  0.1194  0.5149
  612TMC3    O1 9130   2.785   2.101  10.774 -0.1568 -0.0520  0.3726
  612TMC3    O2 9131   2.997   2.590  10.512  0.0846 -0.4480  0.5227
  613MPD2     C 9132   2.025   4.564  16.607  0.2088  0.4831 -0.8678
  613MPD2    C1 9133   1.940   4.589  16.498 -0.3993  0.8571 -0.0360
  613MPD2    C2 9134   1.817   4.519  16.479 -0.5443 -0.3185 -0.2266
  613MPD2    C3 9135   1.772   4.426  16.573 -0.9098 -0.3015 -0.3491
  613MPD2    C4 9136   1.852   4.410  16.685  0.6929 -0.4817  0.2832
  613MPD2    C5 9137   1.975   4.473  16.702 -0.0764 -0.2392 -0.1675
  613MPD2     H 9138   1.767   4.539  16.385  0.0872 -0.4794 -0.5970
  613MPD2    H1 9139   1.825   4.342  16.766  2.1395 -0.0753  1.1049
  613MPD2    H2 9140   2.115   4.624  16.619 -1.3460  2.4684  0.7587
  613MPD2    H3 9141   2.023   4.466  16.799 -2.7984  0.7501  1.2740
  613MPD2     N 9142   1.658   4.350  16.553  0.1227  0.4100 -0.2768
  613MPD2    H5 9143   1.633   4.270  16.610 -1.5926  2.2216  1.5126
  613MPD2    N1 9144   1.993   4.666  16.384  0.3839  0.0807 -0.7523
  613MPD2    H7 9145   2.094   4.671  16.381  0.3351  1.0392 -0.9014
  614TMC3    C1 9146   1.975   4.643  16.153 -0.5511 -0.1251 -0.3281
  614TMC3    C2 9147   1.951   4.506  16.139 -0.3182 -0.9386  0.3314
  614TMC3    C3 9148   1.891   4.462  16.030  0.4614 -1.0243 -0.9955
  614TMC3    C4 9149   1.940   4.723  16.044  0.7370 -0.1544  0.3123
  614TMC3    C5 9150   1.887   4.676  15.925 -0.2278 -0.0058  1.0138
  614TMC3    C6 9151   1.857   4.540  15.921 -0.0668 -0.4730 -0.5671
  614TMC3     C 9152   1.918   4.693  16.276  0.7341 -0.1912  0.3712
  614TMC3     O 9153   1.801   4.734  16.277  1.2334  0.9935 -0.0330
  614TMC3     H 9154   1.972   4.449  16.229 -3.4683 -1.5021  0.7084
  614TMC3    H1 9155   1.946   0.095  16.057 -0.7289 -0.3239  2.4102
  614TMC3    H2 9156   1.803   4.499  15.836  1.4954  0.1341 -1.8536
  614TMC3    C7 9157   1.925   0.012  15.809  0.2520  0.4167  0.2171
  614TMC3    C8 9158   1.824   4.340  16.052 -0.2052 -0.2015  0.1402
  614TMC3    O1 9159   2.022   0.093  15.819 -0.2085  0.5744 -0.0059
  614TMC3    O2 9160   1.803   4.309  16.169 -0.0225  0.3650  0.1239
  615MPD2     C 9161   1.476   1.295  15.801  0.1745 -0.0391 -0.2899
  615MPD2    C1 9162   1.496   1.422  15.841  0.5236  0.0362  0.5048
  615MPD2    C2 9163   1.419   1.527  15.789  0.1675 -0.0739 -0.4329
  615MPD2    C3 9164   1.319   1.496  15.694  0.2594 -0.3230  0.7234
  615MPD2    C4 9165   1.291   1.367  15.676 -0.2485  0.2098 -0.1714
  615MPD2    C5 9166   1.374   1.271  15.717  0.1588 -0.0579 -0.2181
  615MPD2     H 9167   1.449   1.629  15.815 -1.7587  0.6917 -1.2502
  615MPD2    H1 9168   1.216   1.344  15.601  0.3153  1.4100 -1.1080
  615MPD2    H2 9169   1.555   1.222  15.817 -0.8914 -1.2260 -0.4082
  615MPD2    H3 9170   1.374   1.170  15.679 -1.0338 -0.4175  0.7406
  615MPD2     N 9171   1.251   1.595  15.618  0.1207 -0.0610 -0.0848
  615MPD2    H5 9172   1.179   1.556  15.557  2.1829 -0.4651 -2.2723
  615MPD2    N1 9173   1.595   1.458  15.936 -0.7183 -0.7633 -0.4384
  615MPD2    H7 9174   1.599   1.559  15.948 -1.2772 -0.6306 -1.3391
  616TMC3    C1 9175   1.758   1.454  16.108 -0.4652 -0.4515 -0.3823
  616TMC3    C2 9176   1.900   1.458  16.116  0.3261 -0.2632  0.2394
  616TMC3    C3 9177   1.952   1.549  16.203  0.2058  0.3926  0.9571
  616TMC3    C4 9178   1.672   1.523  16.184 -0.1712  0.5794 -0.5054
  616TMC3    C5 9179   1.731   1.614  16.263  0.0236 -0.2770  0.1397
  616TMC3    C6 9180   1.866   1.627  16.270  0.4044  0.9218  0.5120
  616TMC3     C 9181   1.689   1.374  16.002 -0.1210  0.6380  0.1202
  616TMC3     O 9182   1.720   1.254  15.991 -0.5213 -0.6974 -0.6278
  616TMC3     H 9183   1.961   1.387  16.061  0.6306  0.2479 -0.0808
  616TMC3    H1 9184   1.566   1.522  16.165 -0.6190  0.1225  2.0454
  616TMC3    H2 9185   1.911   1.695  16.342 -0.1966  1.8034  0.0632
  616TMC3    C7 9186   1.656   1.642  16.392 -0.2536  0.4279 -0.0381
  616TMC3    C8 9187   2.092   1.566  16.246 -0.2560  0.7158  0.1698
  616TMC3    O1 9188   1.556   1.578  16.413  0.6684  0.7192 -0.2407
  616TMC3    O2 9189   2.134   1.673  16.288 -0.1632 -0.3297 -0.3479
  617MPD2     C 9190   4.021   3.970  13.645  0.2554  0.6411 -0.0071
  617MPD2    C1 9191   4.030   3.933  13.778 -0.2921  0.0632  0.3715
  617MPD2    C2 9192   3.926   3.949  13.865  0.6253 -0.4730 -0.2504
  617MPD2    C3 9193   3.805   3.997  13.815 -0.6093  1.1853 -0.4936
  617MPD2    C4 9194   3.796   4.029  13.684 -0.1414 -0.4220 -0.7903
  617MPD2    C5 9195   3.904   4.022  13.603  0.1946  0.3951 -0.1783
  617MPD2     H 9196   3.934   3.942  13.973 -0.9389 -0.9892 -0.1664
  617MPD2    H1 9197   3.706   4.078  13.649  1.1759  0.8618 -2.4438
  617MPD2    H2 9198   4.104   3.968  13.575 -0.0959 -0.5863 -0.4055
  617MPD2    H3 9199   3.900   4.068  13.505  2.6986 -0.2448 -0.5752
  617MPD2     N 9200   3.687   4.009  13.905  0.0716 -1.0037 -0.2051
  617MPD2    H5 9201   3.597   4.033  13.865 -0.9612 -2.0816  1.4838
  617MPD2    N1 9202   4.160   3.901  13.822  0.2471  0.2308  0.1255
  617MPD2    H7 9203   4.231   3.919  13.751 -1.5836 -1.3991 -2.1221
  618TMC3    C1 9204   4.328   3.793  13.942 -0.1608 -0.1365  0.2774
  618TMC3    C2 9205   4.425   3.874  13.978  0.9179 -0.0736  0.9033
  618TMC3    C3 9206   4.555   3.839  13.962 -0.1043 -0.7222  0.3418
  618TMC3    C4 9207   4.349   3.679  13.871  0.2028 -0.0451 -0.3476
  618TMC3    C5 9208   4.475   3.655  13.831 -0.1479 -0.6095  0.2350
  618TMC3    C6 9209   4.581   3.725  13.891 -0.3866 -0.0965 -0.0057
  618TMC3     C 9210   4.190   3.835  13.941 -0.2408 -0.0703 -0.2640
  618TMC3     O 9211   4.115   3.807  14.031  0.4500  0.2165 -0.2848
  618TMC3     H 9212   4.390   3.972  14.009  1.0554  0.4903 -0.6894
  618TMC3    H1 9213   4.266   3.628  13.823  0.2346  1.8791 -2.4702
  618TMC3    H2 9214   4.682   3.691  13.869  0.1380  0.6178  1.2737
  618TMC3    C7 9215   4.500   3.548  13.739  0.3671  0.0102 -0.4940
  618TMC3    C8 9216   4.659   3.943  13.972  0.1761  0.2819  0.2257
  618TMC3    O1 9217   4.404   3.478  13.699  0.1486  0.1188 -0.0560
  618TMC3    O2 9218   4.623   4.060  13.982  0.1090  0.1429  0.3303
  619MPD2     C 9219   0.710   0.588  13.561 -0.8604 -0.3316 -0.3099
  619MPD2    C1 9220   0.586   0.636  13.520  1.2257  0.9242 -0.1883
  619MPD2    C2 9221   0.483   0.590  13.590  0.2454  0.1378 -0.0318
  619MPD2    C3 9222   0.493   0.493  13.687  0.2999 -0.6300 -0.5316
  619MPD2    C4 9223   0.611   0.449  13.732  0.2599 -0.1937 -0.2320
  619MPD2    C5 9224   0.723   0.496  13.662  1.0354  0.2389 -1.1158
  619MPD2     H 9225   0.386   0.618  13.552  0.3748  1.4630  0.6168
  619MPD2    H1 9226   0.626   0.369  13.805  3.1907  1.0078  0.4877
  619MPD2    H2 9227   0.797   0.624  13.508 -0.5799  0.2318  0.5303
  619MPD2    H3 9228   0.823   0.459  13.680  0.9598  1.1769  1.1428
  619MPD2     N 9229   0.369   0.439  13.734 -0.2762 -0.6037  0.0655
  619MPD2    H5 9230   0.284   0.473  13.691  1.0390 -1.3019 -3.0931
  619MPD2    N1 9231   0.564   0.732  13.423 -0.4851 -0.6262 -0.6423
  619MPD2    H7 9232   0.469   0.758  13.399  0.2642  1.5839 -1.1748
  620TMC3    C1 9233   0.627   0.893  13.246  0.5437 -0.1226 -0.3131
  620TMC3    C2 9234   0.510   0.880  13.180  0.2345 -0.3480  0.4349
  620TMC3    C3 9235   0.467   0.990  13.110  0.5161  0.2545  0.1373
  620TMC3    C4 9236   0.688   1.015  13.256  0.2076 -0.1932  0.0304
  620TMC3    C5 9237   0.653   1.108  13.165  1.1107  0.6161 -0.1690
  620TMC3    C6 9238   0.537   1.107  13.091 -0.6672 -0.8983 -0.0235
  620TMC3     C 9239   0.667   0.803  13.354 -0.5245  0.4343  0.4533
  620TMC3     O 9240   0.789   0.805  13.371  0.4285  0.2016 -0.2186
  620TMC3     H 9241   0.453   0.787  13.186  0.2335 -0.1682  3.1411
  620TMC3    H1 9242   0.777   1.024  13.317 -0.3266  0.2996  0.7297
  620TMC3    H2 9243   0.507   1.180  13.016 -1.1541  0.1350  1.1768
  620TMC3    C7 9244   0.704   1.245  13.185 -0.0405  0.5841 -0.8055
  620TMC3    C8 9245   0.345   0.971  13.031 -0.1652 -0.3024  0.5015
  620TMC3    O1 9246   0.687   1.317  13.087 -0.7943  0.3958 -0.0801
  620TMC3    O2 9247   0.347   0.873  12.955  0.3372  0.0683 -0.1413
  621MPD2     C 9248   1.034   1.171   9.596 -0.5902  0.1321 -0.2427
  621MPD2    C1 9249   1.079   1.156   9.728  0.2240 -0.2139 -0.4050
  621MPD2    C2 9250   1.156   1.250   9.789  0.2373  0.3400  0.4115
  621MPD2    C3 9251   1.180   1.363   9.718 -0.2673  0.4997 -0.0915
  621MPD2    C4 9252   1.121   1.391   9.595  0.1866 -0.3536  0.7497
  621MPD2    C5 9253   1.042   1.294   9.540  0.1332 -0.7578  0.0836
  621MPD2     H 9254   1.192   1.235   9.890 -4.2313  0.7489  2.0618
  621MPD2    H1 9255   1.122   1.490   9.550 -3.1645 -1.3626 -1.5884
  621MPD2    H2 9256   0.979   1.093   9.544 -0.0107 -1.1116  0.9948
  621MPD2    H3 9257   0.996   1.311   9.443 -0.3910  1.6546  0.7634
  621MPD2     N 9258   1.255   1.459   9.791  0.3935  0.6209 -0.4688
  621MPD2    H5 9259   1.262   1.447   9.892 -0.3825  0.2001 -0.4641
  621MPD2    N1 9260   1.034   1.049   9.803  0.6093  0.1678  0.4577
  621MPD2    H7 9261   1.077   1.042   9.895 -0.0947 -2.4815  0.5912
  622TMC3    C1 9262   0.925   0.839   9.849 -0.2019 -0.0879 -0.5000
  622TMC3    C2 9263   0.914   0.885   9.976  0.1487 -0.2959 -0.0057
  622TMC3    C3 9264   0.848   0.806  10.073  0.0938  0.0982 -0.4006
  622TMC3    C4 9265   0.862   0.716   9.809  0.0115  0.8605  0.4515
  622TMC3    C5 9266   0.808   0.642   9.911  0.3001 -0.0886 -0.7339
  622TMC3    C6 9267   0.808   0.684  10.045  0.4989  0.3710  0.7809
  622TMC3     C 9268   0.975   0.933   9.751  1.0886 -0.5434 -0.1675
  622TMC3     O 9269   0.947   0.905   9.634  0.1397  0.0023  0.0852
  622TMC3     H 9270   0.951   0.982  10.007  0.8625  0.0837 -2.0503
  622TMC3    H1 9271   0.886   0.668   9.715  0.9332 -0.4246  1.3406
  622TMC3    H2 9272   0.755   0.628  10.121 -1.5283  0.0248 -0.8882
  622TMC3    C7 9273   0.741   0.514   9.879 -0.4657  1.0362 -0.1751
  622TMC3    C8 9274   0.856   0.840  10.208  0.7151 -0.7820 -0.3613
  622TMC3    O1 9275   0.732   0.419   9.960  0.7932 -0.2893  0.7292
  622TMC3    O2 9276   0.871   0.746  10.285  0.6478 -0.1066  0.2501
  623MPD2     C 9277   0.261   1.121  15.542 -0.2364 -0.2418 -0.4641
  623MPD2    C1 9278   0.173   1.138  15.644  1.4387 -0.3463  0.1990
  623MPD2    C2 9279   0.222   1.127  15.770 -0.5407 -0.2441 -0.1657
  623MPD2    C3 9280   0.356   1.123  15.797  0.3456  0.0040 -0.0381
  623MPD2    C4 9281   0.443   1.131  15.700  0.3068 -0.1258 -0.0145
  623MPD2    C5 9282   0.395   1.140  15.576 -0.4355  0.0924  0.0588
  623MPD2     H 9283   0.144   1.142  15.844 -0.9497  1.1403 -0.8791
  623MPD2    H1 9284   0.549   1.119  15.720  0.1017  0.7413  1.6824
  623MPD2    H2 9285   0.234   1.104  15.439 -0.0399  0.4328 -0.6289
  623MPD2    H3 9286   0.469   1.145  15.497  2.1425 -2.6126  2.3080
  623MPD2     N 9287   0.390   1.117  15.932 -0.6092 -0.4290 -0.1534
  623MPD2    H5 9288   0.312   1.097  15.995  1.0913  2.8831  3.0573
  623MPD2    N1 9289   0.035   1.132  15.627  0.2641  0.2262  0.2778
  623MPD2    H7 9290   4.712   1.141  15.710 -1.4579 -0.1901 -0.8872
  624TMC3    C1 9291   0.613   1.140  16.341  0.2683 -0.2520  0.0076
  624TMC3    C2 9292   0.509   1.074  16.408 -0.1920  0.1547 -0.3216
  624TMC3    C3 9293   0.396   1.058  16.332 -0.4491  0.3550  0.4594
  624TMC3    C4 9294   0.605   1.180  16.203  0.6838 -0.6469 -0.6214
  624TMC3    C5 9295   0.493   1.142  16.134 -0.0458  0.0190 -0.4264
  624TMC3    C6 9296   0.390   1.082  16.199  1.3580  0.1787 -0.1194
  624TMC3     C 9297   0.721   1.182  16.421  0.7045  1.1531  1.3276
  624TMC3     O 9298   0.704   1.164  16.541  0.9243 -0.1025 -0.1406
  624TMC3     H 9299   0.522   1.035  16.508  1.4198 -0.7757 -0.9110
  624TMC3    H1 9300   0.692   1.221  16.152  0.6364 -0.5497 -0.6235
  624TMC3    H2 9301   0.299   1.053  16.147  0.4791  0.7918  1.0742
  624TMC3    C7 9302   0.510   1.146  15.988 -0.7394 -0.6365  0.5554
  624TMC3    C8 9303   0.269   0.995  16.379  0.1671 -0.0687  0.1282
  624TMC3    O1 9304   0.610   1.191  15.937 -0.0670 -0.8909  0.8009
  624TMC3    O2 9305   0.208   0.926  16.297  0.5493  0.3954 -0.1456
  625MPD2     C 9306   0.391   2.940   0.949  0.1306 -0.3803 -0.6986
  625MPD2    C1 9307   0.430   3.044   0.874 -0.2968  0.2355  0.9046
  625MPD2    C2 9308   0.563   3.084   0.865 -0.4122 -0.6417  0.6707
  625MPD2    C3 9309   0.654   3.000   0.925 -0.2324  0.0342  0.0739
  625MPD2    C4 9310   0.615   2.887   0.986 -0.0671 -0.6090  0.0075
  625MPD2    C5 9311   0.479   2.859   1.001  0.6620  0.2685 -0.0739
  625MPD2     H 9312   0.603   3.179   0.831 -0.7049 -0.2987  1.2691
  625MPD2    H1 9313   0.680   2.821   1.044 -0.8016 -1.7748 -0.4849
  625MPD2    H2 9314   0.285   2.923   0.958 -0.1068  0.3014 -2.1167
  625MPD2    H3 9315   0.446   2.773   1.059  0.7063  0.3667  0.0964
  625MPD2     N 9316   0.792   3.042   0.921 -0.1059  0.1949 -0.1985
  625MPD2    H5 9317   0.815   3.138   0.898  3.1418 -1.0543 -2.1938
  625MPD2    N1 9318   0.328   3.112   0.802 -0.1094  0.3891 -0.2281
  625MPD2    H7 9319   0.235   3.078   0.826  0.5012 -0.1458  1.3716
  626TMC3    C1 9320   0.216   3.258   0.666  0.6396 -0.3848 -0.4756
  626TMC3    C2 9321   0.195   3.268   0.536  0.2590 -0.1491 -0.6166
  626TMC3    C3 9322   0.088   3.350   0.501 -0.1377  0.0947 -0.3177
  626TMC3    C4 9323   0.130   3.313   0.763  0.8369  0.2360  0.0448
  626TMC3    C5 9324   0.026   3.389   0.718  0.4602  0.1601  0.4554
  626TMC3    C6 9325   0.003   3.412   0.586 -0.6663  0.2056 -0.2505
  626TMC3     C 9326   0.348   3.197   0.695  0.2967 -0.0030  0.2990
  626TMC3     O 9327   0.445   3.237   0.633  0.5518  0.5137  0.8254
  626TMC3     H 9328   0.264   3.228   0.462 -1.1302  1.0341 -2.5465
  626TMC3    H1 9329   0.140   3.286   0.867  0.3136 -0.1158  0.0057
  626TMC3    H2 9330   4.646   3.451   0.545 -1.5811 -3.0790 -1.3123
  626TMC3    C7 9331   4.651   3.403   0.812  0.4405  0.7388  0.5297
  626TMC3    C8 9332   0.061   3.367   0.359  0.5534  0.1374 -0.2870
  626TMC3    O1 9333   4.681   3.379   0.928  0.1875  0.5477 -0.3672
  626TMC3    O2 9334   0.066   3.265   0.287  0.8187  0.2219  0.1241
  627MPD2     C 9335   3.667   2.795  14.840  0.3533  0.6117  0.3561
  627MPD2    C1 9336   3.764   2.826  14.748  0.1407 -0.2852 -0.4046
  627MPD2    C2 9337   3.753   2.785  14.614 -0.4410 -0.2122 -0.5728
  627MPD2    C3 9338   3.637   2.723  14.575  0.1441 -0.1481 -0.1309
  627MPD2    C4 9339   3.541   2.696  14.671 -0.2736  0.0510  0.0292
  627MPD2    C5 9340   3.553   2.735  14.802  0.4883 -0.0061  0.1665
  627MPD2     H 9341   3.838   2.781  14.548 -0.9378  0.8279 -1.2723
  627MPD2    H1 9342   3.447   2.655  14.635 -0.2888  0.1753 -0.0728
  627MPD2    H2 9343   3.674   2.829  14.943  0.3810  1.5562  0.0328
  627MPD2    H3 9344   3.474   2.719  14.874  0.4779 -0.6942 -0.0006
  627MPD2     N 9345   3.633   2.686  14.437  0.1004 -0.4434 -0.6838
  627MPD2    H5 9346   3.719   2.698  14.384 -0.9459  2.0715 -1.7638
  627MPD2    N1 9347   3.886   2.890  14.782  0.0159  0.0745  0.1832
  627MPD2    H7 9348   3.944   2.912  14.701  1.5751 -1.0336  0.9924
  628TMC3    C1 9349   4.025   3.036  14.876 -0.1466  0.9032 -0.8255
  628TMC3    C2 9350   4.119   3.012  14.777  0.2801 -0.4324  0.7011
  628TMC3    C3 9351   4.159   3.113  14.697 -0.0338 -0.7328  0.0945
  628TMC3    C4 9352   3.970   3.160  14.881  0.1060 -0.3846 -0.6832
  628TMC3    C5 9353   4.000   3.250  14.783 -0.0632  0.1412 -0.5982
  628TMC3    C6 9354   4.095   3.231  14.689  0.3962 -0.2130 -0.0065
  628TMC3     C 9355   3.928   2.934  14.904  0.8925 -0.4516  0.4692
  628TMC3     O 9356   3.882   2.926  15.015  0.6064 -0.2273  0.1330
  628TMC3     H 9357   4.156   2.911  14.763  1.2887 -0.1633  1.3962
  628TMC3    H1 9358   3.889   3.190  14.946  0.0022  0.8580 -1.3771
  628TMC3    H2 9359   4.137   3.317  14.638  0.7149 -2.1981 -3.0792
  628TMC3    C7 9360   3.955   3.380  14.816  0.8032  0.0937 -0.3931
  628TMC3    C8 9361   4.283   3.105  14.625 -0.1992  0.3083 -0.4239
  628TMC3    O1 9362   3.941   3.400  14.935 -0.0257 -0.2095 -0.2001
  628TMC3    O2 9363   4.306   3.172  14.524 -0.5125 -0.3603  0.5543
  629MPD2     C 9364   2.448   1.356  16.529  0.9577 -0.0545  0.2708
  629MPD2    C1 9365   2.438   1.486  16.490  0.0948  0.4156 -0.0280
  629MPD2    C2 9366   2.335   1.506  16.401 -0.6285  0.3355  0.2105
  629MPD2    C3 9367   2.253   1.411  16.347 -0.1761  0.3361 -0.1490
  629MPD2    C4 9368   2.268   1.283  16.384 -0.3966 -0.2409 -0.0236
  629MPD2    C5 9369   2.363   1.257  16.478 -0.6177  0.1565 -0.2669
  629MPD2     H 9370   2.330   1.603  16.353  1.5556 -0.3115 -1.3420
  629MPD2    H1 9371   2.205   1.202  16.349  2.2883 -1.8368 -1.2168
  629MPD2    H2 9372   2.516   1.333  16.611 -0.5443  1.1651  1.8629
  629MPD2    H3 9373   2.376   1.160  16.525 -1.3269  0.7513  1.1399
  629MPD2     N 9374   2.147   1.440  16.260 -0.5375  0.2268 -0.2221
  629MPD2    H5 9375   2.104   1.364  16.210  0.8745 -2.1266  2.1618
  629MPD2    N1 9376   2.535   1.584  16.529  0.3369 -0.8991 -0.0837
  629MPD2    H7 9377   2.600   1.535  16.590  1.5720  2.9793  1.6599
  630TMC3    C1 9378   2.648   1.798  16.561 -0.0453  0.2169  0.0772
  630TMC3    C2 9379   2.674   1.920  16.504  0.6665 -1.0889 -0.3109
  630TMC3    C3 9380   2.753   2.005  16.576 -0.4131  0.0429 -0.0616
  630TMC3    C4 9381   2.699   1.759  16.682  0.5307  0.0282 -0.4400
  630TMC3    C5 9382   2.776   1.845  16.751 -0.4094  0.7036 -0.3389
  630TMC3    C6 9383   2.802   1.971  16.704  0.4886 -0.0706  0.1756
  630TMC3     C 9384   2.558   1.718  16.482  0.2136  0.3506 -0.7552
  630TMC3     O 9385   2.499   1.777  16.392 -0.6094  0.4625 -0.0279
  630TMC3     H 9386   2.656   1.952  16.402  2.3757  2.6455  0.5652
  630TMC3    H1 9387   2.681   1.654  16.705 -0.7566  0.6568  1.4475
  630TMC3    H2 9388   2.867   2.040  16.756  0.5800 -0.5023  0.6325
  630TMC3    C7 9389   2.800   1.794  16.886  1.1318  0.1396 -0.1388
  630TMC3    C8 9390   2.761   2.147  16.538  0.3920 -0.8860  0.4160
  630TMC3    O1 9391   2.754   1.686  16.922  0.5021  0.1746 -0.0317
  630TMC3    O2 9392   2.858   2.198  16.593 -0.8942 -0.2154 -0.0301
  631MPD2     C 9393   0.363   1.912  15.345  0.1888 -0.3501 -0.2673
  631MPD2    C1 9394   0.430   2.024  15.327 -0.1094 -1.0886 -0.4685
  631MPD2    C2 9395   0.570   2.010  15.320  0.3153  0.7139 -0.5751
  631MPD2    C3 9396   0.636   1.896  15.355  0.4256 -0.1986  0.0338
  631MPD2    C4 9397   0.563   1.788  15.374  0.0031 -0.8403 -1.1400
  631MPD2    C5 9398   0.429   1.794  15.379 -0.0196  0.5386 -0.4374
  631MPD2     H 9399   0.622   2.104  15.305  0.5004  0.7326  0.1668
  631MPD2    H1 9400   0.609   1.692  15.393 -0.8360 -0.9067  0.5176
  631MPD2    H2 9401   0.255   1.914  15.341  0.2100  0.1141 -0.7665
  631MPD2    H3 9402   0.366   1.707  15.397 -2.2810  2.2220 -0.1364
  631MPD2     N 9403   0.773   1.896  15.361  0.3341 -0.2188  0.2018
  631MPD2    H5 9404   0.813   1.990  15.359  1.6691 -0.8313 -3.3167
  631MPD2    N1 9405   0.359   2.148  15.310 -0.5499 -0.3034  0.0357
  631MPD2    H7 9406   0.258   2.134  15.313  0.0538 -4.0268  1.5855
  632TMC3    C1 9407   0.308   2.355  15.220  0.0822  0.1522 -0.1863
  632TMC3    C2 9408   0.184   2.298  15.203 -0.4038  0.3163 -0.1422
  632TMC3    C3 9409   0.129   2.312  15.075  0.8745 -0.5333  0.1124
  632TMC3    C4 9410   0.363   2.435  15.126 -0.0956 -1.0397 -0.1859
  632TMC3    C5 9411   0.320   2.426  14.998 -0.5105 -0.3577 -0.1370
  632TMC3    C6 9412   0.200   2.367  14.974  0.0945 -0.4192  0.3985
  632TMC3     C 9413   0.408   2.272  15.277 -0.1707 -0.4324 -0.4831
  632TMC3     O 9414   0.524   2.310  15.266 -0.0441  0.2642 -0.5697
  632TMC3     H 9415   0.119   2.267  15.284 -0.0492  0.0445  0.0383
  632TMC3    H1 9416   0.446   2.499  15.156 -2.1130  1.1406  0.7647
  632TMC3    H2 9417   0.172   2.362  14.870  1.3266  0.0781  0.0426
  632TMC3    C7 9418   0.431   2.377  14.918 -0.5731 -0.0004 -1.2736
  632TMC3    C8 9419   0.020   2.231  15.029 -0.7702 -1.1094 -0.5617
  632TMC3    O1 9420   0.426   2.383  14.794 -0.2332  0.3801  0.0626
  632TMC3    O2 9421   4.717   2.235  14.915  0.3399 -0.2395  0.0915
  633MPD2     C 9422   0.255   0.028  17.361 -0.6610 -0.8294  0.3568
  633MPD2    C1 9423   0.305   4.650  17.289 -0.0839 -0.2203  0.2145
  633MPD2    C2 9424   0.349   4.536  17.351 -0.1997  0.2107  0.3048
  633MPD2    C3 9425   0.326   4.532  17.487 -0.0008  0.2319  0.2308
  633MPD2    C4 9426   0.269   4.635  17.553  0.0379  0.9097  0.1581
  633MPD2    C5 9427   0.239   0.010  17.493  0.5869  0.5076  0.1489
  633MPD2     H 9428   0.387   4.452  17.294 -1.1727 -1.0678  1.5413
  633MPD2    H1 9429   0.268   4.643  17.661 -0.8468 -1.1642  0.3079
  633MPD2    H2 9430   0.232   0.124  17.316  2.5845  1.3178  3.2256
  633MPD2    H3 9431   0.190   0.088  17.550  1.1797  1.1335 -0.1932
  633MPD2     N 9432   0.368   4.438  17.576  0.5742  1.0228 -0.0753
  633MPD2    H5 9433   0.364   4.470  17.672 -0.8469 -0.1360  0.2556
  633MPD2    N1 9434   0.320   4.653  17.152  0.6076  0.7772 -0.1814
  633MPD2    H7 9435   0.387   4.587  17.113 -0.0589  0.1083 -0.2046
  634TMC3    C1 9436   0.277   4.725  16.928 -0.3167  0.2468 -0.6055
  634TMC3    C2 9437   0.312   4.595  16.892  0.2429 -0.1240  0.4151
  634TMC3    C3 9438   0.327   4.565  16.755 -0.3798 -0.3678 -0.3232
  634TMC3    C4 9439   0.256   0.093  16.838  0.6999  0.6385  0.1043
  634TMC3    C5 9440   0.283   0.066  16.708 -0.0003  0.1971 -0.0952
  634TMC3    C6 9441   0.308   4.669  16.668  0.0922  0.7566 -0.3502
  634TMC3     C 9442   0.252   0.011  17.070  0.4018  0.6751 -0.6782
  634TMC3     O 9443   0.207   0.120  17.103 -0.1311 -0.2840  0.4273
  634TMC3     H 9444   0.327   4.513  16.962  0.3241  0.3821  0.9914
  634TMC3    H1 9445   0.206   0.179  16.882  0.9132  0.5088  0.6000
  634TMC3    H2 9446   0.312   4.650  16.562 -0.4539 -0.8032 -0.0890
  634TMC3    C7 9447   0.230   0.150  16.605  0.3529  0.3184  0.5827
  634TMC3    C8 9448   0.305   4.429  16.715  0.6493 -0.1064  0.9697
  634TMC3    O1 9449   0.238   0.120  16.487  0.4021  0.1077  0.1432
  634TMC3    O2 9450   0.276   4.350  16.806  0.5144 -0.2810 -0.8363
  635TMC3    C1 9451   0.131   0.966   0.716  0.0593  0.6824 -0.7519
  635TMC3    C2 9452   0.204   0.857   0.664  0.3574  0.3398 -0.4397
  635TMC3    C3 9453   0.170   0.733   0.707  0.7745  0.1465  0.1250
  635TMC3    C4 9454   0.024   0.948   0.796  0.1981 -0.7952  0.2795
  635TMC3    C5 9455   0.016   0.828   0.861 -0.7453 -0.4828 -0.3669
  635TMC3    C6 9456   0.080   0.717   0.816 -0.5205 -0.6342  0.4443
  635TMC3     C 9457   0.156   1.100   0.665 -0.7677  0.1474  0.3257
  635TMC3     O 9458   0.105   1.193   0.726  0.4129  0.5663 -0.3258
  635TMC3     H 9459   0.284   0.879   0.594 -0.7035  0.0248 -1.7337
  635TMC3    H1 9460   4.718   1.039   0.838  0.0054 -0.1218 -1.3596
  635TMC3    H2 9461   0.060   0.622   0.864  0.1639 -2.0603 -2.0809
  635TMC3    C7 9462   4.708   0.812   0.999  0.4242  0.4168  0.3460
  635TMC3    C8 9463   0.229   0.615   0.658  0.1249  0.3154 -0.6606
  635TMC3    O1 9464   0.021   0.723   1.066  0.2987  0.2566  0.2561
  635TMC3    O2 9465   0.218   0.516   0.728 -0.1817  0.0962  0.5999
  636MPD2     C 9466   1.530   4.657  15.827  1.1030 -0.2968  0.4160
  636MPD2    C1 9467   1.534   4.689  15.964  0.1680  0.0046 -0.7923
  636MPD2    C2 9468   1.501   4.585  16.049 -0.1999 -0.0464  0.1185
  636MPD2    C3 9469   1.450   4.466  15.999 -0.1111 -0.6058  0.0986
  636MPD2    C4 9470   1.437   4.442  15.867  0.2437  0.2624 -0.0006
  636MPD2    C5 9471   1.484   4.535  15.782  0.2130  0.3621  0.0298
  636MPD2     H 9472   1.511   4.599  16.156  1.9714  0.2799 -0.1387
  636MPD2    H1 9473   1.394   4.351  15.827  0.0756  0.3209  0.0479
  636MPD2    H2 9474   1.556   4.731  15.751  1.3326 -0.3359  0.4552
  636MPD2    H3 9475   1.487   4.517  15.675  1.4522  1.6459 -0.1544
  636MPD2     N 9476   1.408   4.380  16.105  0.8359  0.5310  0.2262
  636MPD2    H5 9477   1.426   4.417  16.198 -0.7423  0.0750  0.7094
  636MPD2    N1 9478   1.575   0.082  16.009 -0.4242 -0.3407 -0.8423
  636MPD2    H7 9479   1.571   0.087  16.111 -2.6787 -1.1946 -0.8933
  637TMC3    C1 9480   1.374   4.189  16.228 -0.1140  0.2019 -0.4990
  637TMC3    C2 9481   1.408   4.280  16.324  0.5540  0.8484 -0.3231
  637TMC3    C3 9482   1.507   4.254  16.414 -0.4644 -1.0166  0.0676
  637TMC3    C4 9483   1.447   4.072  16.230 -0.4747  0.1438  0.7734
  637TMC3    C5 9484   1.560   4.067  16.303  0.7639 -0.2574 -0.0095
  637TMC3    C6 9485   1.595   4.153  16.394 -0.5602 -0.2318 -0.3818
  637TMC3     C 9486   1.368   4.248  16.098 -0.1108 -0.8669  0.5180
  637TMC3     O 9487   1.334   4.186  15.999  0.6553 -0.1856  0.4099
  637TMC3     H 9488   1.351   4.371  16.340  0.0841  0.3861  0.6682
  637TMC3    H1 9489   1.425   3.999  16.153 -0.8044  1.1603 -0.1102
  637TMC3    H2 9490   1.682   4.137  16.455 -1.1611 -0.3316  0.4530
  637TMC3    C7 9491   1.644   3.945  16.297 -0.2776 -0.1548  0.5227
  637TMC3    C8 9492   1.571   4.377  16.456  0.7449  0.5746  0.0119
  637TMC3    O1 9493   1.706   3.924  16.404 -0.4016  0.0640  0.1662
  637TMC3    O2 9494   1.557   4.471  16.378  0.0435 -0.1403  0.1148
  638MPD2     C 9495   1.419   3.540  14.685 -0.1846 -0.0615 -0.0967
  638MPD2    C1 9496   1.328   3.457  14.639 -0.1593 -0.3819 -0.2231
  638MPD2    C2 9497   1.264   3.362  14.723  0.2054 -0.2519 -0.0863
  638MPD2    C3 9498   1.292   3.356  14.857  1.0619  0.2664 -0.3871
  638MPD2    C4 9499   1.383   3.452  14.904  0.8253  0.0176  0.1435
  638MPD2    C5 9500   1.455   3.536  14.817 -0.6377  1.2667  0.0817
  638MPD2     H 9501   1.189   3.288  14.698  1.3254 -1.2955 -0.3524
  638MPD2    H1 9502   1.409   3.444  15.010 -0.0212 -1.4672  0.2448
  638MPD2    H2 9503   1.459   3.621  14.624  0.8349 -0.4273  0.0742
  638MPD2    H3 9504   1.521   3.610  14.859  1.4264 -0.4041 -0.1975
  638MPD2     N 9505   1.223   3.268  14.936 -0.1798 -0.6529 -0.1255
  638MPD2    H5 9506   1.149   3.214  14.893 -0.3586 -2.2487  2.1933
  638MPD2    N1 9507   1.303   3.454  14.502  0.6651 -0.1027  0.0759
  638MPD2    H7 9508   1.357   3.518  14.445  0.1377  0.7701  0.5615
  639TMC3    C1 9509   1.191   3.120  15.119 -1.2476 -0.0497  0.3049
  639TMC3    C2 9510   1.073   3.071  15.076  0.9439  0.7517  0.1783
  639TMC3    C3 9511   1.049   2.937  15.101  0.6018  0.5022 -0.4126
  639TMC3    C4 9512   1.289   3.042  15.176 -0.5588 -0.0883 -0.2726
  639TMC3    C5 9513   1.262   2.907  15.201 -0.1170 -0.7884  0.8782
  639TMC3    C6 9514   1.138   2.861  15.168  0.8416 -0.2379  0.7095
  639TMC3     C 9515   1.246   3.240  15.069 -0.3302  0.5729 -0.1523
  639TMC3     O 9516   1.323   3.295  15.148  0.4441 -0.3449  0.7746
  639TMC3     H 9517   1.005   3.132  15.017  0.6249 -0.2263 -0.4656
  639TMC3    H1 9518   1.385   3.086  15.198 -0.9436  0.4736  0.2860
  639TMC3    H2 9519   1.122   2.755  15.187 -0.8639  0.0301  0.7198
  639TMC3    C7 9520   1.369   2.816  15.232  0.4968  0.3032  0.9037
  639TMC3    C8 9521   0.958   2.855  15.030 -0.4545 -0.1489 -0.7135
  639TMC3    O1 9522   1.342   2.724  15.313  0.1786  0.5854 -0.2227
  639TMC3    O2 9523   1.002   2.754  14.982  0.1116  0.0795  0.5244
  640MPD2     C 9524   1.407   2.378   9.653 -0.1412 -0.4676  0.3622
  640MPD2    C1 9525   1.294   2.438   9.605 -0.0479 -0.4036 -0.8258
  640MPD2    C2 9526   1.279   2.573   9.620 -0.4010  0.6140  0.3209
  640MPD2    C3 9527   1.380   2.655   9.677  1.1920 -0.2081 -0.2098
  640MPD2    C4 9528   1.486   2.586   9.740  0.5935 -0.7570 -0.6310
  640MPD2    C5 9529   1.502   2.445   9.724 -0.1005  0.2293 -0.6191
  640MPD2     H 9530   1.197   2.625   9.573 -0.0562  0.4355 -0.4763
  640MPD2    H1 9531   1.567   2.636   9.792 -1.2572  0.9511  0.5938
  640MPD2    H2 9532   1.400   2.270   9.652 -0.4937 -0.4551  1.4813
  640MPD2    H3 9533   1.585   2.394   9.773 -1.5910  0.2560  1.9311
  640MPD2     N 9534   1.377   2.799   9.681 -0.4019 -0.4375  0.0927
  640MPD2    H5 9535   1.457   2.848   9.719 -0.4802 -0.1939 -0.0601
  640MPD2    N1 9536   1.202   2.350   9.546  0.0910  0.3240 -1.0565
  640MPD2    H7 9537   1.226   2.251   9.538 -3.8010 -0.6840  0.1616
  641TMC3    C1 9538   0.999   2.266   9.462 -0.1189  0.2319 -0.4076
  641TMC3    C2 9539   1.063   2.152   9.402 -0.5245 -0.7578  0.3495
  641TMC3    C3 9540   0.985   2.044   9.367 -0.1611  0.1457 -0.4510
  641TMC3    C4 9541   0.863   2.268   9.490 -0.1246 -1.0596  0.4041
  641TMC3    C5 9542   0.794   2.156   9.453 -0.9061  0.1868  0.1677
  641TMC3    C6 9543   0.850   2.041   9.401 -0.2555  0.1435  0.3409
  641TMC3     C 9544   1.077   2.383   9.500 -0.3128  0.6631  0.1050
  641TMC3     O 9545   1.016   2.486   9.533  0.2655  0.0439  0.0905
  641TMC3     H 9546   1.163   2.164   9.361 -0.3415  2.3762  1.6327
  641TMC3    H1 9547   0.817   2.348   9.546  1.0365 -0.4844  0.5495
  641TMC3    H2 9548   0.792   1.956   9.369 -0.5054 -0.5197  2.5832
  641TMC3    C7 9549   0.653   2.163   9.471  0.1483 -0.4643 -0.3808
  641TMC3    C8 9550   1.036   1.926   9.294  0.2696 -0.1835 -0.4150
  641TMC3    O1 9551   0.609   2.230   9.565 -0.3441  0.0516  0.3201
  641TMC3    O2 9552   0.961   1.882   9.210  0.3138 -0.0494 -0.0085
  642TMC3    C1 9553   2.273   2.431  12.282 -0.1096  0.3452  0.6034
  642TMC3    C2 9554   2.366   2.516  12.231 -0.4635 -0.4871 -0.0035
  642TMC3    C3 9555   2.399   2.508  12.094  0.3703  0.0298 -0.0558
  642TMC3    C4 9556   2.222   2.332  12.207  0.9368 -0.1195  1.0679
  642TMC3    C5 9557   2.247   2.331  12.073 -0.0220 -0.0533  0.1470
  642TMC3    C6 9558   2.327   2.427  12.011  0.7830 -0.2172 -0.7565
  642TMC3     C 9559   2.252   2.436  12.424  0.4755 -0.0609  0.3152
  642TMC3     O 9560   2.236   2.335  12.486  0.1598  0.0426 -0.4886
  642TMC3     H 9561   2.429   2.587  12.284  1.0130 -1.2182 -0.7465
  642TMC3    H1 9562   2.156   2.260  12.255 -0.0695  0.6549  0.8522
  642TMC3    H2 9563   2.328   2.414  11.904  1.7312 -0.7601 -0.6799
  642TMC3    C7 9564   2.172   2.251  11.980 -0.5581 -0.0035 -0.0427
  642TMC3    C8 9565   2.498   2.601  12.038  0.3202  0.2015 -0.2361
  642TMC3    O1 9566   2.152   2.297  11.867 -0.1607 -0.5837 -0.0430
  642TMC3    O2 9567   2.535   2.694  12.112 -0.4239 -0.3483 -0.3101
  643TMC3    C1 9568   1.865   3.046   0.608  0.1508 -0.1162 -0.7342
  643TMC3    C2 9569   1.818   3.167   0.636 -0.5928 -0.1770  0.2450
  643TMC3    C3 9570   1.844   3.265   0.552  0.3731 -0.0981 -0.4514
  643TMC3    C4 9571   1.925   3.027   0.484 -1.1594  0.0387 -0.2626
  643TMC3    C5 9572   1.933   3.125   0.393  0.0661  1.0059 -0.4980
  643TMC3    C6 9573   1.907   3.255   0.428 -0.1828 -1.2330 -0.9187
  643TMC3     C 9574   1.910   2.983   0.727 -0.8892 -0.1644  0.4159
  643TMC3     O 9575   1.867   3.026   0.831  0.0103  0.5322 -0.0518
  643TMC3     H 9576   1.764   3.191   0.727  2.8744  1.0795  1.9984
  643TMC3    H1 9577   1.948   2.924   0.461 -0.8092 -0.0877  0.6506
  643TMC3    H2 9578   1.912   3.336   0.356  1.7500 -1.4742 -1.0529
  643TMC3    C7 9579   1.984   3.102   0.254 -0.6202 -0.9294  0.1240
  643TMC3    C8 9580   1.816   3.397   0.609 -0.2422 -0.0237 -0.2971
  643TMC3    O1 9581   2.007   3.202   0.185  0.5082 -0.0431 -0.7412
  643TMC3    O2 9582   1.748   3.421   0.707  0.5294  0.3445  0.0727
  644MPD2     C 9583   1.197   2.882   9.236  0.0397 -0.0388  0.3960
  644MPD2    C1 9584   1.326   2.901   9.273  0.1408 -0.1194 -0.1110
  644MPD2    C2 9585   1.383   3.026   9.272 -0.3431 -0.0160  0.0826
  644MPD2    C3 9586   1.301   3.138   9.232  0.5618  0.0254  0.4684
  644MPD2    C4 9587   1.175   3.120   9.193  0.0234 -0.5850 -0.6338
  644MPD2    C5 9588   1.125   2.994   9.189  0.2023 -0.6395 -0.4009
  644MPD2     H 9589   1.485   3.031   9.307 -0.4148  3.1765 -0.1666
  644MPD2    H1 9590   1.100   3.193   9.166 -1.4216 -0.8915  2.6488
  644MPD2    H2 9591   1.152   2.784   9.248  0.6521 -0.6339 -2.0461
  644MPD2    H3 9592   1.021   2.981   9.160  0.4511 -1.8168 -0.7542
  644MPD2     N 9593   1.354   3.266   9.229  0.0470 -0.1796 -0.4306
  644MPD2    H5 9594   1.450   3.272   9.262  0.2070  0.6678 -1.0427
  644MPD2    N1 9595   1.386   2.782   9.313 -0.9882  0.5197  0.5664
  644MPD2    H7 9596   1.325   2.701   9.320  1.1294 -1.1468  0.1134
  645TMC3    C1 9597   1.368   3.501   9.203  0.0961  0.3550 -0.3974
  645TMC3    C2 9598   1.471   3.503   9.293 -0.0836 -0.7665 -0.0790
  645TMC3    C3 9599   1.511   3.630   9.323 -0.4195 -0.7452  0.6586
  645TMC3    C4 9600   1.314   3.618   9.143  0.7077  0.3830 -0.4829
  645TMC3    C5 9601   1.364   3.738   9.176 -0.1134 -0.8154  0.7075
  645TMC3    C6 9602   1.461   3.751   9.274 -0.4450 -0.0532  0.1796
  645TMC3     C 9603   1.291   3.381   9.177  0.1269 -0.8092  0.1995
  645TMC3     O 9604   1.203   3.389   9.095 -0.3803  0.1466  0.4490
  645TMC3     H 9605   1.486   3.424   9.365  0.7113  0.9166  1.5900
  645TMC3    H1 9606   1.262   3.597   9.050 -1.3829  1.6705  0.4070
  645TMC3    H2 9607   1.474   3.847   9.322  2.2381 -0.0973 -0.4697
  645TMC3    C7 9608   1.310   3.856   9.107 -1.0996 -0.4062  0.5049
  645TMC3    C8 9609   1.606   3.639   9.436 -0.3779  0.3257 -0.3345
  645TMC3    O1 9610   1.188   3.853   9.089 -0.5033  0.1082 -0.2333
  645TMC3    O2 9611   1.669   3.536   9.469 -1.0164  0.0290  0.4660
  646MPD2     C 9612   1.454   2.277  14.675 -0.4342 -0.1665 -0.0415
  646MPD2    C1 9613   1.362   2.217  14.760 -0.3448  0.1801 -0.3459
  646MPD2    C2 9614   1.228   2.230  14.729 -0.4724  0.3600 -0.5143
  646MPD2    C3 9615   1.186   2.278  14.604  0.0170 -0.3128  0.0512
  646MPD2    C4 9616   1.284   2.331  14.524  0.7129 -0.2158 -0.5469
  646MPD2    C5 9617   1.414   2.337  14.564 -0.1764 -0.2287  0.0185
  646MPD2     H 9618   1.156   2.178  14.792 -1.4963  2.4641  0.0685
  646MPD2    H1 9619   1.255   2.391  14.439  2.2224 -0.5770 -1.3004
  646MPD2    H2 9620   1.558   2.269  14.704 -0.6039  0.1143  0.6375
  646MPD2    H3 9621   1.486   2.399  14.512  1.3867 -0.6114  1.7474
  646MPD2     N 9622   1.045   2.284  14.575  0.4596 -0.1212  0.2778
  646MPD2    H5 9623   0.982   2.277  14.654  1.2266 -0.2301  0.8820
  646MPD2    N1 9624   1.422   2.161  14.883  0.4461 -0.5268  0.0794
  646MPD2    H7 9625   1.522   2.151  14.888  0.2111 -2.0201  1.9271
  647TMC3    C1 9626   1.442   2.062  15.090  0.3608 -0.3365 -0.6818
  647TMC3    C2 9627   1.390   1.955  15.162  0.2104  0.4052 -0.8456
  647TMC3    C3 9628   1.478   1.885  15.233 -0.1079 -0.8300 -1.1693
  647TMC3    C4 9629   1.581   2.066  15.072  0.4658 -0.2077 -0.3997
  647TMC3    C5 9630   1.665   1.996  15.150  0.4537  0.5724 -0.4741
  647TMC3    C6 9631   1.615   1.911  15.248 -0.0720 -1.3520 -0.1270
  647TMC3     C 9632   1.351   2.116  14.988  0.2608  0.6719  0.2258
  647TMC3     O 9633   1.227   2.112  15.002  0.3090  0.8332  0.3648
  647TMC3     H 9634   1.289   1.919  15.150 -0.2843  1.5977 -0.3288
  647TMC3    H1 9635   1.626   2.149  15.020  0.9124  1.8467  3.2467
  647TMC3    H2 9636   1.671   1.868  15.330  1.8518  3.9739  1.3938
  647TMC3    C7 9637   1.807   2.000  15.158 -0.2745 -0.5883  0.2142
  647TMC3    C8 9638   1.442   1.752  15.276 -0.7813  0.6170 -0.6728
  647TMC3    O1 9639   1.864   1.955  15.253 -0.4607  0.1950 -0.6299
  647TMC3    O2 9640   1.489   1.720  15.386  0.1183  0.0643 -0.2378
  648TMC3    C1 9641   0.691   4.267  16.226 -0.5521 -0.2645  0.6357
  648TMC3    C2 9642   0.660   4.134  16.221 -0.5417  0.4759  0.0642
  648TMC3    C3 9643   0.638   4.084  16.093  0.2730  0.0454  0.0846
  648TMC3    C4 9644   0.692   4.348  16.114 -0.3300 -0.1507  0.5716
  648TMC3    C5 9645   0.674   4.295  15.991 -0.5436 -1.2141  0.5397
  648TMC3    C6 9646   0.646   4.164  15.985 -0.3050  0.3337 -0.6756
  648TMC3     C 9647   0.737   4.323  16.348 -0.0852  0.6293  0.2867
  648TMC3     O 9648   0.720   4.439  16.345  0.0766 -0.2422  0.7310
  648TMC3     H 9649   0.647   4.077  16.312 -2.0256  0.6668 -0.0372
  648TMC3    H1 9650   0.720   4.452  16.126 -0.4956  0.2202 -2.2517
  648TMC3    H2 9651   0.624   4.118  15.889 -0.3275  1.7023 -1.3300
  648TMC3    C7 9652   0.668   4.379  15.873 -0.0399 -0.3500  0.1231
  648TMC3    C8 9653   0.665   3.943  16.075 -0.2508 -1.2178 -0.6606
  648TMC3    O1 9654   0.672   4.326  15.762 -0.4911  0.6064  0.4749
  648TMC3    O2 9655   0.610   3.866  16.149  0.1425 -0.3500  0.0694
  649TMC3    C1 9656   4.033   0.644  13.050  0.6028 -0.2525 -0.8536
  649TMC3    C2 9657   4.144   0.719  13.081 -0.7865  0.3408  0.1920
  649TMC3    C3 9658   4.219   0.684  13.188  0.9548 -0.0348 -0.0852
  649TMC3    C4 9659   3.996   0.532  13.114  0.6072  1.0984 -0.5894
  649TMC3    C5 9660   4.080   0.489  13.217 -0.4263  0.4714  0.2459
  649TMC3    C6 9661   4.183   0.572  13.264 -0.6589  0.6750  0.2156
  649TMC3     C 9662   3.942   0.708  12.969  0.3656  0.2125 -0.0466
  649TMC3     O 9663   3.902   0.816  13.009  0.3180  0.1086  0.9995
  649TMC3     H 9664   4.161   0.810  13.026 -2.2262 -0.5286 -1.6805
  649TMC3    H1 9665   3.894   0.496  13.106 -0.0799  3.2161 -1.1758
  649TMC3    H2 9666   4.256   0.526  13.330  0.2745  1.7813 -0.0493
  649TMC3    C7 9667   4.023   0.410  13.324  0.5404  0.3919  0.6453
  649TMC3    C8 9668   4.335   0.764  13.226 -0.0599  0.1683  0.8765
  649TMC3    O1 9669   4.054   0.451  13.438  0.1019 -1.2879 -0.2728
  649TMC3    O2 9670   4.361   0.857  13.152 -0.1038 -0.8562 -0.2048
  650TMC3    C1 9671   1.833   1.999  12.916  0.0690  0.1290 -0.0054
  650TMC3    C2 9672   1.802   2.125  12.960  0.2898 -0.3270  0.7983
  650TMC3    C3 9673   1.767   2.220  12.869  0.1546  0.0861  0.3984
  650TMC3    C4 9674   1.816   1.957  12.787  0.2149  0.3561 -0.0580
  650TMC3    C5 9675   1.789   2.056  12.701 -0.3057  0.1522  0.2777
  650TMC3    C6 9676   1.765   2.181  12.734  0.1519  0.6808  0.3568
  650TMC3     C 9677   1.898   1.917  13.021  0.6884  0.8889 -0.4429
  650TMC3     O 9678   1.876   1.954  13.135 -0.6662 -0.6108  0.2497
  650TMC3     H 9679   1.827   2.153  13.061  3.5986 -2.7702  0.6497
  650TMC3    H1 9680   1.823   1.856  12.749  0.4340 -0.5966  2.5333
  650TMC3    H2 9681   1.754   2.264  12.665  1.2619  0.6973  0.1866
  650TMC3    C7 9682   1.782   2.018  12.558 -0.3702  0.3445  0.3001
  650TMC3    C8 9683   1.779   2.362  12.907 -0.6133 -0.3545 -0.1700
  650TMC3    O1 9684   1.757   1.897  12.542 -0.2621 -0.2186 -0.7491
  650TMC3    O2 9685   1.824   2.436  12.822 -0.3888  0.2209 -0.1945
  651MPD2     C 9686   0.602   4.277  10.552  0.2286 -0.3815  0.5473
  651MPD2    C1 9687   0.631   4.385  10.631 -0.0593  0.0081 -0.1350
  651MPD2    C2 9688   0.750   4.444  10.615 -0.0311 -0.3529 -0.4043
  651MPD2    C3 9689   0.842   4.399  10.528  0.4308  0.5142 -0.2502
  651MPD2    C4 9690   0.814   4.302  10.444  0.4378 -0.0500 -0.6087
  651MPD2    C5 9691   0.686   4.240  10.449 -0.2018 -0.0196  0.1305
  651MPD2     H 9692   0.773   4.531  10.676  1.1870 -1.2609  0.4234
  651MPD2    H1 9693   0.873   4.284  10.355  1.0031  4.2592 -1.0970
  651MPD2    H2 9694   0.505   4.229  10.553 -0.3630  0.7743 -1.6777
  651MPD2    H3 9695   0.646   4.170  10.377 -1.5792 -1.3467  2.1800
  651MPD2     N 9696   0.970   4.460  10.531  0.3801 -0.4018  0.2539
  651MPD2    H5 9697   0.984   4.536  10.597 -3.7189 -0.5768  1.2958
  651MPD2    N1 9698   0.534   4.436  10.720 -0.1331  0.1996  0.6087
  651MPD2    H7 9699   0.544   4.528  10.762  1.2945  0.0732  0.5567
  652TMC3    C1 9700   1.388   4.606  10.373  0.0170  0.0797  0.5857
  652TMC3    C2 9701   1.309   4.500  10.420 -0.3620 -0.1713 -0.2726
  652TMC3    C3 9702   1.174   4.536  10.443 -0.1641 -0.0610  0.6862
  652TMC3    C4 9703   1.335   4.734  10.352  0.1005  0.0635 -0.6988
  652TMC3    C5 9704   1.206   0.025  10.389 -0.7615  0.0613  0.2820
  652TMC3    C6 9705   1.124   4.661  10.431  0.7902 -0.3862  0.3071
  652TMC3     C 9706   1.523   4.601  10.420  0.5308 -0.0217 -0.2885
  652TMC3     O 9707   1.556   4.513  10.495 -1.2407  0.7630 -0.0192
  652TMC3     H 9708   1.341   4.396  10.415  1.2950  0.1819  3.2281
  652TMC3    H1 9709   1.400   0.082  10.327  2.7207 -1.2366  1.6993
  652TMC3    H2 9710   1.018   4.683  10.443  0.5828 -1.3334  0.2179
  652TMC3    C7 9711   1.149   0.148  10.341 -0.6045 -0.0397 -0.2698
  652TMC3    C8 9712   1.078   4.428  10.456  0.9423 -0.2345  0.7861
  652TMC3    O1 9713   1.035   0.144  10.290  0.5273  0.9092  0.2994
  652TMC3    O2 9714   1.112   4.316  10.413 -0.5068 -0.4161 -0.6559
  653MPD2     C 9715   4.702   4.416   0.028  0.3494 -0.5715 -0.4643
  653MPD2    C1 9716   4.685   4.531  17.696  0.2229  0.0438 -0.3002
  653MPD2    C2 9717   4.618   4.519  17.574  0.0928  0.5407  0.2406
  653MPD2    C3 9718   4.572   4.403  17.523 -0.0442  0.2118 -0.7204
  653MPD2    C4 9719   4.594   4.286  17.600  0.0480 -0.1605 -0.3570
  653MPD2    C5 9720   4.658   4.297  17.722  0.0790 -0.2155 -0.1641
  653MPD2     H 9721   4.586   4.613  17.530 -1.2407 -0.9677 -1.9710
  653MPD2    H1 9722   4.583   4.183  17.566  2.7841  0.1780 -2.2499
  653MPD2    H2 9723   0.033   4.415   0.114 -1.0736  1.1658  0.6644
  653MPD2    H3 9724   4.686   4.204   0.029  1.3726 -0.6741 -1.8366
  653MPD2     N 9725   4.510   4.398  17.394  0.8563  0.2559  0.5841
  653MPD2    H5 9726   4.526   4.484  17.343  0.1990  0.9293  1.5059
  653MPD2    N1 9727   4.703   4.658   0.008 -0.6211 -0.3141  0.0947
  653MPD2    H7 9728   4.678   0.002  17.690  0.7561 -0.1806 -0.3146
  654TMC3    C1 9729   4.405   4.287  17.206 -0.1883 -0.3402 -0.3112
  654TMC3    C2 9730   4.335   4.388  17.151  0.3364  0.4236  0.2407
  654TMC3    C3 9731   4.269   4.361  17.035  0.3978 -0.2351  0.7985
  654TMC3    C4 9732   4.419   4.162  17.138  0.3610 -0.3367 -0.1172
  654TMC3    C5 9733   4.358   4.146  17.021  0.3738 -0.3565 -0.4211
  654TMC3    C6 9734   4.273   4.242  16.972 -0.2434 -0.4914 -0.7835
  654TMC3     C 9735   4.444   4.281  17.344  0.1501  0.1964 -0.2487
  654TMC3     O 9736   4.425   4.175  17.399  0.6622 -0.4268  0.1416
  654TMC3     H 9737   4.320   4.480  17.207  1.2514  0.1626  0.9200
  654TMC3    H1 9738   4.480   4.085  17.184  3.6886  1.8314 -0.8772
  654TMC3    H2 9739   4.234   4.231  16.871 -1.4343 -1.9740 -0.1421
  654TMC3    C7 9740   4.388   4.024  16.945  0.1522  0.3465 -0.1841
  654TMC3    C8 9741   4.146   4.439  17.015  0.2293 -0.3965 -0.0855
  654TMC3    O1 9742   4.363   4.035  16.823  0.0088 -0.1446  0.6122
  654TMC3    O2 9743   4.150   4.560  17.037 -0.4030  0.0365  0.0064
  655MPD2     C 9744   1.133   4.414  15.407 -0.1090 -0.3130 -0.0900
  655MPD2    C1 9745   1.070   4.541  15.395 -0.2312 -0.3598  0.5819
  655MPD2    C2 9746   1.003   4.568  15.274  0.2856  0.3306  0.8397
  655MPD2    C3 9747   1.005   4.474  15.175 -0.3316  0.0380  0.8264
  655MPD2    C4 9748   1.080   4.360  15.189 -0.0699  0.0314 -0.3783
  655MPD2    C5 9749   1.136   4.323  15.303  0.1913  0.6549  0.7917
  655MPD2     H 9750   0.960   4.667  15.262  0.2848  0.1352 -0.6687
  655MPD2    H1 9751   1.095   4.291  15.108  0.8705  0.7691 -0.8272
  655MPD2    H2 9752   1.179   4.389  15.503  1.5518 -0.2853 -0.8805
  655MPD2    H3 9753   1.182   4.225  15.311 -1.3595 -0.1005  0.5414
  655MPD2     N 9754   0.938   4.501  15.054  0.3271  1.1418 -0.9296
  655MPD2    H5 9755   0.945   4.434  14.977  3.0515 -0.3909  0.6474
  655MPD2    N1 9756   1.076   4.646  15.486 -0.3500 -0.2353  0.3013
  655MPD2    H7 9757   1.036   4.733  15.454 -2.2861 -1.1824  0.1459
  656TMC3    C1 9758   1.088   0.008  15.703 -1.0846 -0.0468 -0.3581
  656TMC3    C2 9759   1.011   4.731  15.820  0.8394 -0.2876 -0.1021
  656TMC3    C3 9760   0.956   0.107  15.868 -0.5871  0.1318 -0.4871
  656TMC3    C4 9761   1.110   0.130  15.645  0.1597 -0.0990  0.3936
  656TMC3    C5 9762   1.037   0.234  15.688  0.2580 -0.3049 -0.1659
  656TMC3    C6 9763   0.960   0.229  15.803  0.1490  0.5124  0.3928
  656TMC3     C 9764   1.090   4.622  15.622  0.3072 -0.3666 -0.0926
  656TMC3     O 9765   1.091   4.516  15.686 -0.3475 -0.1178  0.0004
  656TMC3     H 9766   0.998   4.636  15.869 -0.9874  0.8885  1.6621
  656TMC3    H1 9767   1.171   0.136  15.555  0.3555  2.2146  0.6882
  656TMC3    H2 9768   0.904   0.315  15.836  0.9843  1.0593  0.3713
  656TMC3    C7 9769   1.032   0.347  15.589 -0.4060 -0.1904  0.2581
  656TMC3    C8 9770   0.880   0.090  15.990  0.4325  0.1700 -0.7191
  656TMC3    O1 9771   1.127   0.347  15.514 -0.1179  0.2549  0.0178
  656TMC3    O2 9772   0.878   4.716  16.040 -0.0734  0.2681  0.1914
  657TMC3    C1 9773   4.533   4.079  14.802  0.0334  0.0852 -0.4243
  657TMC3    C2 9774   4.584   4.162  14.895 -0.4645 -0.6941 -0.1310
  657TMC3    C3 9775   4.506   4.272  14.929  0.0155  0.1353  0.6409
  657TMC3    C4 9776   4.430   4.125  14.726 -0.5346 -0.5261  0.7673
  657TMC3    C5 9777   4.370   4.245  14.751  0.2249 -0.5395  0.5994
  657TMC3    C6 9778   4.406   4.321  14.859  0.4508  0.1012 -0.6815
  657TMC3     C 9779   4.590   3.955  14.768 -0.0143 -0.0253 -0.0191
  657TMC3     O 9780   4.537   3.897  14.673 -0.5379  0.0666  0.3951
  657TMC3     H 9781   4.676   4.137  14.948  0.0976  1.7725  0.0312
  657TMC3    H1 9782   4.398   4.076  14.635  2.0535 -1.8887  0.5948
  657TMC3    H2 9783   4.344   4.404  14.892 -0.5707 -1.9441  2.4893
  657TMC3    C7 9784   4.282   4.312  14.655  0.5492  0.1470  0.4577
  657TMC3    C8 9785   4.531   4.338  15.055 -0.9900 -0.0250  0.0982
  657TMC3    O1 9786   4.274   4.430  14.663 -0.3013  0.3094  0.5568
  657TMC3    O2 9787   4.453   4.418  15.101  0.3550 -0.2206 -0.3161
  658MPD2     C 9788   1.221   4.623  14.496  0.1012 -0.2381  0.0796
  658MPD2    C1 9789   1.091   4.622  14.463 -0.2883 -0.1499 -0.5644
  658MPD2    C2 9790   1.059   4.681  14.340  0.1304  0.6487 -0.9250
  658MPD2    C3 9791   1.155   4.733  14.254  0.4420 -0.1262 -0.3940
  658MPD2    C4 9792   1.281   0.009  14.294  0.4310 -0.0850 -0.2360
  658MPD2    C5 9793   1.313   4.685  14.421  0.2603 -0.0141 -0.8344
  658MPD2     H 9794   0.959   4.681  14.299 -0.2642 -1.8281  0.0127
  658MPD2    H1 9795   1.361   0.050  14.234  0.4254  1.7841  1.0210
  658MPD2    H2 9796   1.259   4.574  14.585  0.2617 -0.1240  0.0745
  658MPD2    H3 9797   1.419   4.683  14.442  0.2374 -1.9411 -0.9151
  658MPD2     N 9798   1.104   0.029  14.124  0.2410 -0.5788 -0.2557
  658MPD2    H5 9799   1.008   0.001  14.107 -0.7697  3.1832 -0.5725
  658MPD2    N1 9800   0.996   4.574  14.562 -0.3796 -0.0376 -0.0251
  658MPD2    H7 9801   1.032   4.558  14.656 -1.0923 -1.4531  0.0002
  659TMC3    C1 9802   0.793   4.551  14.673  0.2990 -0.2273  0.3729
  659TMC3    C2 9803   0.860   4.567  14.794 -0.3722  0.5876 -1.0610
  659TMC3    C3 9804   0.777   4.578  14.906 -0.4534  0.2898  0.4484
  659TMC3    C4 9805   0.655   4.565  14.664 -0.4158 -0.3484  0.8058
  659TMC3    C5 9806   0.580   4.591  14.783 -0.2809 -0.6409 -0.2586
  659TMC3    C6 9807   0.641   4.595  14.901  0.2591 -0.3725  0.4173
  659TMC3     C 9808   0.859   4.576  14.548 -0.1190 -0.2791 -0.4581
  659TMC3     O 9809   0.793   4.597  14.450 -0.3300  0.2244 -0.6615
  659TMC3     H 9810   0.966   4.560  14.816 -0.7846  0.8144  1.0131
  659TMC3    H1 9811   0.602   4.567  14.570 -0.2376 -0.5853  0.6997
  659TMC3    H2 9812   0.589   4.595  14.996  1.1854  1.7763  0.9176
  659TMC3    C7 9813   0.436   4.570  14.791 -0.0263 -0.2276  1.0243
  659TMC3    C8 9814   0.839   4.597  15.036 -0.0056 -0.7114 -0.0831
  659TMC3    O1 9815   0.389   4.588  14.898 -0.1358  0.1987 -0.1619
  659TMC3    O2 9816   0.796   4.691  15.103 -0.2466 -0.2205  0.0011
  660MPD2     C 9817   3.492   3.392  12.433 -0.3140 -0.0162  0.3823
  660MPD2    C1 9818   3.367   3.346  12.466  0.2056 -0.8218  0.4676
  660MPD2    C2 9819   3.354   3.292  12.589  0.0947 -0.3669  0.7904
  660MPD2    C3 9820   3.464   3.280  12.682  0.3370  0.4611  0.2815
  660MPD2    C4 9821   3.593   3.310  12.640  0.2408  0.2266 -0.0622
  660MPD2    C5 9822   3.601   3.367  12.514 -0.2926  0.5174  0.0550
  660MPD2     H 9823   3.262   3.243  12.617 -0.8699  1.7261  1.2643
  660MPD2    H1 9824   3.685   3.303  12.696 -0.3374  2.8493  1.1959
  660MPD2    H2 9825   3.521   3.441  12.341 -0.4651  0.4848  0.6043
  660MPD2    H3 9826   3.697   3.396  12.473  0.3688 -0.0334  1.2375
  660MPD2     N 9827   3.453   3.219  12.807 -0.3822  0.2245 -0.2420
  660MPD2    H5 9828   3.539   3.202  12.859 -1.6953 -1.6905  1.3246
  660MPD2    N1 9829   3.259   3.369  12.377  0.1656 -0.0311  0.0352
  660MPD2    H7 9830   3.286   3.412  12.289  0.5419 -0.1202  0.1032
  661TMC3    C1 9831   3.048   3.325  12.282  0.3920 -0.3633  0.0789
  661TMC3    C2 9832   3.100   3.329  12.155  0.2003  0.4374  0.1789
  661TMC3    C3 9833   3.008   3.291  12.063 -0.7510 -0.2722 -0.3732
  661TMC3    C4 9834   2.915   3.295  12.309  0.1610 -0.2296  0.5114
  661TMC3    C5 9835   2.829   3.266  12.214 -0.5038 -0.0908  0.4502
  661TMC3    C6 9836   2.876   3.260  12.083  0.0432  0.9804  0.6334
  661TMC3     C 9837   3.130   3.329  12.400 -0.0089  0.0173  0.0663
  661TMC3     O 9838   3.071   3.307  12.505 -0.4274 -0.1310 -0.3547
  661TMC3     H 9839   3.201   3.352  12.122  0.0599 -1.9855 -1.9725
  661TMC3    H1 9840   2.872   3.307  12.407 -0.6504  1.9184 -0.1051
  661TMC3    H2 9841   2.810   3.227  12.004  0.8137  2.8206 -0.7945
  661TMC3    C7 9842   2.697   3.220  12.242 -0.0812 -1.0392 -1.0540
  661TMC3    C8 9843   3.056   3.271  11.926  0.0928  0.3018  0.0975
  661TMC3    O1 9844   2.678   3.187  12.358 -0.4888 -0.3141 -0.4349
  661TMC3    O2 9845   3.148   3.339  11.882 -1.0020 -0.1730  0.3242
  662MPD2     C 9846   4.315   3.473  17.448  0.4801 -0.4012  0.7300
  662MPD2    C1 9847   4.223   3.373  17.482 -0.1442 -0.0006  0.2942
  662MPD2    C2 9848   4.106   3.415  17.550  0.1660 -0.0508  0.8040
  662MPD2    C3 9849   4.083   3.546  17.596 -0.7538  0.0359  0.6056
  662MPD2    C4 9850   4.181   3.637  17.566  0.3218  0.0705 -0.3467
  662MPD2    C5 9851   4.294   3.603  17.498  0.1642 -0.0755  0.2550
  662MPD2     H 9852   4.034   3.334  17.557  1.4323 -1.1833  0.6096
  662MPD2    H1 9853   4.162   3.735  17.608 -3.0064 -1.6843  2.2424
  662MPD2    H2 9854   4.398   3.456  17.381  0.6625  0.2641  0.7837
  662MPD2    H3 9855   4.364   3.686  17.493  2.3142 -1.9290  0.0000
  662MPD2     N 9856   3.967   3.591  17.649  0.2645 -0.2028 -0.6013
  662MPD2    H5 9857   3.955   3.692  17.644 -0.1334 -0.1990  0.3261
  662MPD2    N1 9858   4.237   3.235  17.440 -0.0811  0.1829 -0.0431
  662MPD2    H7 9859   4.159   3.172  17.450 -0.6895  0.3012 -3.9794
  663TMC3    C1 9860   4.306   3.048  17.328  0.6222 -0.9812  0.1366
  663TMC3    C2 9861   4.205   2.973  17.383 -0.1432 -0.4774 -0.1177
  663TMC3    C3 9862   4.198   2.839  17.363 -0.4415  0.0929 -0.1137
  663TMC3    C4 9863   4.386   2.997  17.235 -0.2006  0.2785 -0.2795
  663TMC3    C5 9864   4.380   2.861  17.209 -0.4467 -0.7694 -0.2061
  663TMC3    C6 9865   4.286   2.778  17.273  0.5411 -0.3777  0.1459
  663TMC3     C 9866   4.346   3.181  17.382  0.2161 -0.3392  0.8953
  663TMC3     O 9867   4.448   3.239  17.354  0.4146  0.5615  0.0918
  663TMC3     H 9868   4.159   3.007  17.475 -0.7441  0.8143 -0.8931
  663TMC3    H1 9869   4.443   3.065  17.172  0.7198 -0.8176 -0.6418
  663TMC3    H2 9870   4.258   2.688  17.220 -0.5292 -1.3857  2.4540
  663TMC3    C7 9871   4.449   2.818  17.091 -0.0993 -0.3307 -0.1165
  663TMC3    C8 9872   4.059   2.813  17.342 -0.5490  0.3337 -0.6211
  663TMC3    O1 9873   4.467   2.905  17.001 -0.1426  0.4417  0.2059
  663TMC3    O2 9874   4.027   2.761  17.234  0.8740 -0.4229 -0.0763
  664MPD2     C 9875   2.210   1.269   0.066 -0.2803 -0.4735  0.4681
  664MPD2    C1 9876   2.233   1.412   0.078 -0.1217  0.3000 -0.3592
  664MPD2    C2 9877   2.192   1.467   0.196 -0.0204 -0.3892 -0.2861
  664MPD2    C3 9878   2.158   1.388   0.308 -0.0188 -0.3330  0.1158
  664MPD2    C4 9879   2.164   1.246   0.300 -1.1904  0.2803  0.4152
  664MPD2    C5 9880   2.184   1.192   0.176  0.0196  0.6522 -0.4091
  664MPD2     H 9881   2.200   1.573   0.220  1.3325 -0.0979 -2.0987
  664MPD2    H1 9882   2.136   1.182   0.383 -0.7455 -0.4715 -0.0186
  664MPD2    H2 9883   2.220   1.211  17.716 -1.2853  2.3262 -1.3954
  664MPD2    H3 9884   2.180   1.083   0.169  2.4139  0.6058 -0.9241
  664MPD2     N 9885   2.125   1.458   0.425  0.0881 -0.1708 -0.5543
  664MPD2    H5 9886   2.150   1.557   0.424 -1.2488  0.1450 -2.7549
  664MPD2    N1 9887   2.273   1.494  17.713 -0.6899 -0.3550 -0.7372
  664MPD2    H7 9888   2.256   1.595  17.715  1.6337  0.0737 -2.5231
  665TMC3    C1 9889   2.114   1.498   0.653  0.0389 -0.6512 -0.1866
  665TMC3    C2 9890   2.116   1.437   0.780 -1.1438 -0.3074  0.0036
  665TMC3    C3 9891   2.156   1.512   0.890 -0.7677  0.3236  0.6029
  665TMC3    C4 9892   2.143   1.631   0.631 -0.5801 -0.7812  0.1454
  665TMC3    C5 9893   2.183   1.694   0.740 -0.3300 -0.3944  0.2197
  665TMC3    C6 9894   2.193   1.639   0.866 -0.2050 -0.0133 -0.2481
  665TMC3     C 9895   2.091   1.403   0.547  0.1254  0.7435  0.1282
  665TMC3     O 9896   2.048   1.294   0.582  0.3203 -0.0013 -0.3141
  665TMC3     H 9897   2.083   1.337   0.803  1.4918 -1.2456 -0.2230
  665TMC3    H1 9898   2.157   1.686   0.539  0.1893  0.1131  0.8062
  665TMC3    H2 9899   2.232   1.699   0.947 -0.2096 -1.7800  1.0670
  665TMC3    C7 9900   2.198   1.839   0.718  0.4447  0.5741  0.4013
  665TMC3    C8 9901   2.082   1.504   1.012  0.6023 -0.0316 -0.0564
  665TMC3    O1 9902   2.167   1.889   0.613 -0.6205  0.4747 -0.1518
  665TMC3    O2 9903   2.147   1.536   1.114  0.7973 -0.2607  0.2823
  666TMC3    C1 9904   1.377   1.655   9.838 -0.0068 -0.5067 -0.1424
  666TMC3    C2 9905   1.404   1.601   9.955 -0.6702 -0.1321  0.1945
  666TMC3    C3 9906   1.430   1.683  10.063  0.4083 -0.3903 -0.1101
  666TMC3    C4 9907   1.365   1.790   9.825 -0.1872 -0.5239  0.3846
  666TMC3    C5 9908   1.385   1.868   9.933 -0.1596 -0.1569  0.2243
  666TMC3    C6 9909   1.409   1.815  10.055 -0.2249  0.2341  0.0134
  666TMC3     C 9910   1.313   1.570   9.737 -0.0216  0.0570  0.1571
  666TMC3     O 9911   1.326   1.601   9.619 -0.4647  1.1741 -0.1649
  666TMC3     H 9912   1.411   1.493   9.962 -3.1890 -0.2468  1.1776
  666TMC3    H1 9913   1.330   1.832   9.732  1.8827 -0.8096 -0.5202
  666TMC3    H2 9914   1.422   1.873  10.146  1.2163 -0.4125  0.2241
  666TMC3    C7 9915   1.356   2.004   9.913 -0.0067  0.8379 -0.0108
  666TMC3    C8 9916   1.447   1.616  10.189  0.1232 -0.1031  0.4373
  666TMC3    O1 9917   1.397   2.041   9.800  0.0889  0.2482 -0.2826
  666TMC3    O2 9918   1.404   1.502  10.195  0.2343  0.2809  0.3677
  667MPD2     C 9919   3.291   1.659  14.508  0.2706  0.4582  0.2817
  667MPD2    C1 9920   3.247   1.657  14.639 -0.3565  0.3437 -0.3860
  667MPD2    C2 9921   3.150   1.566  14.667  0.2717  0.3558 -0.1382
  667MPD2    C3 9922   3.096   1.480  14.579 -0.1939 -0.0732  0.0238
  667MPD2    C4 9923   3.136   1.491  14.441  0.1037 -0.2332  0.5057
  667MPD2    C5 9924   3.232   1.585  14.406 -0.4515  0.1751 -0.4210
  667MPD2     H 9925   3.127   1.559  14.772 -0.7418 -0.1030 -0.3868
  667MPD2    H1 9926   3.093   1.437  14.358  0.5280  2.2023 -1.3021
  667MPD2    H2 9927   3.364   1.731  14.472  0.2481  0.3794  0.0778
  667MPD2    H3 9928   3.252   1.601  14.301  0.0124  1.7853 -0.0990
  667MPD2     N 9929   2.980   1.412  14.610  0.0428 -0.1111 -0.1271
  667MPD2    H5 9930   2.934   1.358  14.538 -2.2869  1.4492  0.1610
  667MPD2    N1 9931   3.288   1.736  14.743  0.1810  0.2154  0.0820
  667MPD2    H7 9932   3.227   1.724  14.823 -2.0063  2.0304 -1.2972
  668TMC3    C1 9933   3.401   1.911  14.861 -0.4483  0.4336 -1.1701
  668TMC3    C2 9934   3.460   2.035  14.876 -0.0582  0.1047  0.2474
  668TMC3    C3 9935   3.489   2.098  14.995  0.6248  0.8929 -0.4448
  668TMC3    C4 9936   3.346   1.846  14.973  0.8367  0.1482 -0.3287
  668TMC3    C5 9937   3.355   1.919  15.090 -0.2424  0.4418  0.3465
  668TMC3    C6 9938   3.426   2.041  15.105 -0.2090 -0.5542 -0.5419
  668TMC3     C 9939   3.388   1.837  14.735  0.2082  0.1332 -0.4347
  668TMC3     O 9940   3.447   1.883  14.639  0.4627  0.2177  0.5799
  668TMC3     H 9941   3.513   2.076  14.791 -0.2256  1.8105  0.9526
  668TMC3    H1 9942   3.319   1.741  14.964 -1.4491  0.7784 -0.8229
  668TMC3    H2 9943   3.421   2.100  15.196  0.2717  1.2852 -1.7341
  668TMC3    C7 9944   3.321   1.858  15.218  0.5898  0.2662 -0.2197
  668TMC3    C8 9945   3.553   2.227  15.010  0.2763 -0.4365 -0.0186
  668TMC3    O1 9946   3.392   1.888  15.315 -0.0903  0.4432 -0.0441
  668TMC3    O2 9947   3.522   2.304  15.101 -0.1570 -0.1443  0.3674
  669TMC3    C1 9948   1.270   1.395  14.501 -0.1518  0.2619 -0.1856
  669TMC3    C2 9949   1.196   1.367  14.393 -0.6421  0.2394 -0.0765
  669TMC3    C3 9950   1.205   1.443  14.285  0.6414  0.2182 -0.5662
  669TMC3    C4 9951   1.370   1.487  14.495 -0.5367  0.4868 -0.2474
  669TMC3    C5 9952   1.386   1.560  14.377 -0.1673  0.2544 -0.3331
  669TMC3    C6 9953   1.311   1.529  14.264  0.4947 -0.8484 -0.3953
  669TMC3     C 9954   1.250   1.307  14.619  0.1327  0.3199  0.0238
  669TMC3     O 9955   1.145   1.249  14.644 -0.5091  0.1824 -0.7374
  669TMC3     H 9956   1.108   1.307  14.413 -1.8460  1.6689 -1.0663
  669TMC3    H1 9957   1.428   1.523  14.579  2.9776 -1.5555 -1.7950
  669TMC3    H2 9958   1.325   1.583  14.171  1.2520 -1.4425 -0.6287
  669TMC3    C7 9959   1.513   1.623  14.352 -0.0598 -0.5987 -0.4050
  669TMC3    C8 9960   1.102   1.428  14.189 -0.0392 -0.0520 -0.3318
  669TMC3    O1 9961   1.570   1.650  14.454 -0.6682  0.1215  0.6229
  669TMC3    O2 9962   1.054   1.313  14.173  0.0849  0.2953  0.3196
  670MPD2     C 9963   3.872   3.556  13.413 -0.1341 -0.5529  0.3509
  670MPD2    C1 9964   3.975   3.469  13.409  0.3034  0.3654 -0.6208
  670MPD2    C2 9965   4.027   3.442  13.530 -0.2983 -0.0314 -1.0277
  670MPD2    C3 9966   3.961   3.475  13.648  0.4061  0.1528  0.0057
  670MPD2    C4 9967   3.868   3.573  13.645  0.3029  0.9618 -0.4067
  670MPD2    C5 9968   3.811   3.602  13.521 -0.8973  0.1269 -0.2787
  670MPD2     H 9969   4.116   3.381  13.540 -0.6393 -0.3393  0.1028
  670MPD2    H1 9970   3.823   3.617  13.733  2.5125 -0.3751  1.4076
  670MPD2    H2 9971   3.823   3.588  13.322  1.4466 -1.7351 -0.9120
  670MPD2    H3 9972   3.732   3.677  13.518  0.0257  1.0625 -1.3214
  670MPD2     N 9973   4.004   3.423  13.772  0.4540 -0.4035  0.2234
  670MPD2    H5 9974   4.085   3.362  13.779  0.7507 -0.0666 -0.3043
  670MPD2    N1 9975   4.040   3.425  13.289 -0.1074 -0.2954 -0.1207
  670MPD2    H7 9976   4.125   3.371  13.301  1.9540  3.0026 -0.0229
  671TMC3    C1 9977   4.010   3.393  14.010 -0.7423 -0.0683  0.5166
  671TMC3    C2 9978   4.143   3.383  14.007 -0.1012 -0.3082 -0.0960
  671TMC3    C3 9979   4.202   3.331  14.118 -0.7252  0.6936  1.0487
  671TMC3    C4 9980   3.938   3.357  14.114 -0.4643  0.1356 -0.3581
  671TMC3    C5 9981   3.990   3.294  14.224  0.0147 -0.5092  0.8358
  671TMC3    C6 9982   4.125   3.288  14.229 -0.2044 -0.5277 -0.0976
  671TMC3     C 9983   3.937   3.437  13.891  0.3422 -0.3363 -0.5406
  671TMC3     O 9984   3.821   3.469  13.908  0.1285  0.0431  0.2573
  671TMC3     H 9985   4.198   3.445  13.937 -1.1703  1.7391  0.8519
  671TMC3    H1 9986   3.830   3.350  14.113 -0.2879 -2.1824 -1.5843
  671TMC3    H2 9987   4.177   3.247  14.315 -1.8081  1.0784  1.6200
  671TMC3    C7 9988   3.910   3.261  14.343  0.3773 -0.7419  0.4613
  671TMC3    C8 9989   4.350   3.337  14.111  0.3392  0.6922 -0.4820
  671TMC3    O1 9990   3.956   3.318  14.445  0.6880 -0.4787 -0.5067
  671TMC3    O2 9991   4.400   3.362  14.003  0.9814 -0.1041  0.2917
  672MPD2     C 9992   4.325   4.251   1.055 -0.9096  0.2063 -0.1405
  672MPD2    C1 9993   4.418   4.154   1.077  0.6316 -0.2015 -0.6003
  672MPD2    C2 9994   4.522   4.180   1.165 -0.2705  0.8817  0.4032
  672MPD2    C3 9995   4.533   4.293   1.238  0.2489 -0.0568 -0.3386
  672MPD2    C4 9996   4.434   4.386   1.217  0.2419  0.7888  0.1100
  672MPD2    C5 9997   4.336   4.366   1.128  0.6829  0.5427 -0.2565
  672MPD2     H 9998   4.582   4.092   1.183 -0.4414  0.6943  0.0602
  672MPD2    H1 9999   4.431   4.478   1.274 -0.3146 -1.1301  3.1405
  672MPD2    H210000   4.238   4.229   0.995 -0.3439 -0.2679 -0.7859
  672MPD2    H310001   4.268   4.447   1.103 -0.9338 -1.3201 -1.9512
  672MPD2     N10002   4.631   4.321   1.338 -0.4941  0.4140  0.6823
  672MPD2    H510003   4.619   4.409   1.386 -1.2630  0.0538  1.1498
  672MPD2    N110004   4.417   4.029   1.014 -0.4684  0.5860  0.3683
  672MPD2    H710005   4.484   3.962   1.050  0.3873  0.7591 -0.8911
  673TMC3    C110006   4.359   3.857   0.871  0.4425  0.4722 -0.2685
  673TMC3    C210007   4.487   3.826   0.828 -0.7583  0.1792  0.4680
  673TMC3    C310008   4.500   3.755   0.709 -0.2216 -0.1540  0.5463
  673TMC3    C410009   4.256   3.815   0.797 -0.2227  0.4003  0.0192
  673TMC3    C510010   4.276   3.762   0.669  0.5479 -0.4794 -0.3870
  673TMC3    C610011   4.399   3.722   0.625  0.3903 -0.4746  0.8592
  673TMC3     C10012   4.346   3.996   0.906 -0.5353 -0.4853 -0.5249
  673TMC3     O10013   4.264   4.061   0.838  0.2063  0.2149  0.3607
  673TMC3     H10014   4.571   3.859   0.887  1.4094 -0.4332 -2.2867
  673TMC3    H110015   4.153   3.843   0.818 -0.6597 -0.3279 -1.1745
  673TMC3    H210016   4.414   3.678   0.527  1.8183  1.1009  0.3617
  673TMC3    C710017   4.196   3.828   0.566  0.0443 -0.7325 -0.6058
  673TMC3    C810018   4.636   3.747   0.662  0.4059 -0.3940 -0.0334
  673TMC3    O110019   4.204   3.788   0.453  0.2618  0.4755  0.1675
  673TMC3    O210020   4.641   3.718   0.546 -0.0790 -0.1188 -0.0285
  674MPD2     C10021   4.331   4.656  17.725 -0.3310 -0.2223  0.0003
  674MPD2    C110022   4.253   4.544  17.740  0.7137 -0.1140  0.5066
  674MPD2    C210023   4.116   4.549  17.708  1.0069 -0.5154  0.1720
  674MPD2    C310024   4.058   4.673  17.678  0.3626  0.2771 -0.3019
  674MPD2    C410025   4.144   0.045  17.657  0.5701  0.2608 -0.0669
  674MPD2    C510026   4.277   0.033  17.677  0.8535  0.0109  0.6971
  674MPD2     H10027   4.048   4.466  17.721  1.7562 -1.0617  0.5388
  674MPD2    H110028   4.110   0.145  17.630  2.9070  1.3826  1.1040
  674MPD2    H210029   4.438   4.645  17.738 -0.8912 -2.9614  2.2044
  674MPD2    H310030   4.337   0.122  17.662  3.9898 -1.9700  1.6092
  674MPD2     N10031   3.920   4.680  17.673 -0.0809 -0.0566 -0.7493
  674MPD2    H510032   3.863   4.603  17.706  1.9085 -0.7984  0.9301
  674MPD2    N110033   4.315   4.426   0.050  0.1286  1.1076 -0.1525
  674MPD2    H710034   4.410   4.439   0.083  0.9387  0.3035 -2.1683
  675TMC3    C110035   4.341   4.204   0.127  0.8593 -0.3227  0.3311
  675TMC3    C210036   4.344   4.078   0.082  0.8844  0.2899 -0.5540
  675TMC3    C310037   4.387   3.980   0.169 -0.1853  0.4238  0.1180
  675TMC3    C410038   4.377   4.240   0.252 -0.8859 -0.3528  0.0239
  675TMC3    C510039   4.428   4.141   0.336 -0.1348  0.2997 -0.1761
  675TMC3    C610040   4.432   4.007   0.297  0.3110  1.0594 -0.3322
  675TMC3     C10041   4.272   4.298   0.038 -0.1193 -0.1800  0.0694
  675TMC3     O10042   4.180   4.256  17.713 -0.1521  0.2578 -0.3813
  675TMC3     H10043   4.307   4.058  17.723 -0.2866  0.0729 -0.0895
  675TMC3    H110044   4.351   4.335   0.296  0.0625 -0.2121  0.2686
  675TMC3    H210045   4.469   3.930   0.364 -1.2647  3.2025  3.0288
  675TMC3    C710046   4.494   4.188   0.457  0.4051 -0.8200 -0.4816
  675TMC3    C810047   4.396   3.845   0.123  0.1206 -0.0786 -0.9034
  675TMC3    O110048   4.543   4.116   0.540 -0.5618 -0.2723  0.0533
  675TMC3    O210049   4.404   3.834  17.740 -0.0544 -0.0776 -0.0449
  676MPD2     C10050   2.265   2.253  10.631 -0.0833 -0.1519 -0.4323
  676MPD2    C110051   2.183   2.164  10.578 -0.6752 -0.3151 -0.4236
  676MPD2    C210052   2.176   2.032  10.612 -0.2357 -0.3205  0.1757
  676MPD2    C310053   2.282   1.986  10.694  0.1299  0.0931  0.3761
  676MPD2    C410054   2.364   2.077  10.758 -0.7137 -0.5000  0.9306
  676MPD2    C510055   2.346   2.212  10.736  0.5611 -0.1099 -0.3977
  676MPD2     H10056   2.098   1.970  10.570  1.8885 -0.6617 -3.2295
  676MPD2    H110057   2.448   2.045  10.820 -0.6540 -2.0756  0.0267
  676MPD2    H210058   2.256   2.359  10.614  0.7185 -0.3162 -1.9197
  676MPD2    H310059   2.405   2.281  10.795 -0.5327 -0.7157  1.4139
  676MPD2     N10060   2.305   1.853  10.721 -0.5110  0.0748 -0.7548
  676MPD2    H510061   2.356   1.830  10.806 -1.3217 -2.6727 -1.0375
  676MPD2    N110062   2.083   2.195  10.489  0.3258 -0.1435 -0.1478
  676MPD2    H710063   2.017   2.124  10.457 -1.2495  2.0318 -1.7497
  677TMC3    C110064   1.927   2.316  10.376 -0.4803 -0.2383  0.1560
  677TMC3    C210065   1.861   2.194  10.386 -0.3642  0.4908  0.8147
  677TMC3    C310066   1.743   2.198  10.455 -0.6697 -0.4317  0.0577
  677TMC3    C410067   1.868   2.429  10.412  0.0927  0.4339  0.1873
  677TMC3    C510068   1.766   2.419  10.496 -0.7096 -0.0437  0.1202
  677TMC3    C610069   1.685   2.307  10.507 -0.8499 -0.7225  0.4157
  677TMC3     C10070   2.062   2.311  10.427  0.1772 -0.1794  0.7758
  677TMC3     O10071   2.134   2.409  10.435 -0.3850  0.1282  0.3978
  677TMC3     H10072   1.889   2.098  10.346  3.1009  1.3347  1.1969
  677TMC3    H110073   1.913   2.523  10.383 -0.1960  0.9972  1.5456
  677TMC3    H210074   1.609   2.294  10.583 -2.2746  2.3435 -0.4602
  677TMC3    C710075   1.804   2.458  10.632  0.3148  0.2781 -0.4116
  677TMC3    C810076   1.737   2.082  10.539 -0.5809  0.2366 -0.1977
  677TMC3    O110077   1.757   2.400  10.726  0.1377 -0.4790  0.7944
  677TMC3    O210078   1.836   2.026  10.568  0.0546 -0.3441  0.7822
  678MPD2     C10079   3.509   2.295   1.596 -0.1951  0.0007 -0.1492
  678MPD2    C110080   3.494   2.320   1.454 -0.0997 -0.0842 -0.0432
  678MPD2    C210081   3.386   2.393   1.420  0.4735  0.0577 -0.1692
  678MPD2    C310082   3.293   2.444   1.512  1.4407 -0.9030 -0.2145
  678MPD2    C410083   3.307   2.420   1.644  0.3537 -0.3540 -0.0794
  678MPD2    C510084   3.418   2.353   1.683 -0.3623  0.6772  0.5078
  678MPD2     H10085   3.369   2.417   1.316 -1.1633  1.7799  0.4884
  678MPD2    H110086   3.242   2.460   1.721 -0.2370 -0.6399 -0.4267
  678MPD2    H210087   3.587   2.239   1.644  1.0381  0.4842 -1.6044
  678MPD2    H310088   3.416   2.337   1.791  2.9131  1.3725  0.6737
  678MPD2     N10089   3.194   2.531   1.459 -0.5142 -0.7759  0.0219
  678MPD2    H510090   3.180   2.536   1.358  0.2375  1.4332  0.0137
  678MPD2    N110091   3.601   2.289   1.362 -0.1943  0.1099 -0.4054
  678MPD2    H710092   3.584   2.304   1.264  1.5168  1.4862 -0.4876
  679TMC3    C110093   3.978   2.083   1.190 -0.8427  0.1056 -0.6010
  679TMC3    C210094   3.883   2.087   1.288  0.4370  0.2887  0.7838
  679TMC3    C310095   3.798   2.190   1.289 -1.2333 -0.0531  0.3455
  679TMC3    C410096   3.990   2.171   1.087  0.1994  0.6813 -0.1405
  679TMC3    C510097   3.900   2.274   1.096 -0.0469 -0.5461  0.3050
  679TMC3    C610098   3.805   2.289   1.195 -0.1986 -0.2786  0.1864
  679TMC3     C10099   4.076   1.970   1.185  0.0453 -0.0596  0.5809
  679TMC3     O10100   4.180   1.984   1.121  0.6422 -0.4261 -0.3758
  679TMC3     H10101   3.903   2.031   1.379  0.5788  0.5905  0.9377
  679TMC3    H110102   4.069   2.153   1.015 -1.9551  2.4299 -2.9207
  679TMC3    H210103   3.740   2.375   1.207 -0.3993 -0.3130 -0.6393
  679TMC3    C710104   3.900   2.361   0.979 -0.4202  0.1991  0.9356
  679TMC3    C810105   3.700   2.197   1.395  0.3464  0.1051  0.2830
  679TMC3    O110106   3.833   2.462   0.990 -0.5568 -0.0611  0.0453
  679TMC3    O210107   3.726   2.133   1.493  0.0157 -0.0677 -0.0697
  680MPD2     C10108   3.569   0.976  13.782 -0.1570  0.6519 -0.2151
  680MPD2    C110109   3.641   0.888  13.862 -0.3965 -0.4902 -0.0615
  680MPD2    C210110   3.741   0.947  13.937 -0.5089  0.4277 -0.5609
  680MPD2    C310111   3.770   1.083  13.935 -0.3247 -0.1121 -0.6429
  680MPD2    C410112   3.696   1.166  13.849  0.4293  0.2851 -0.3493
  680MPD2    C510113   3.593   1.108  13.770 -0.1813  0.2773  0.1274
  680MPD2     H10114   3.797   0.884  14.004 -0.1570  0.7927 -0.5085
  680MPD2    H110115   3.716   1.270  13.825  1.2904  0.1911 -0.0432
  680MPD2    H210116   3.494   0.934  13.716  3.2618 -0.9109 -3.1072
  680MPD2    H310117   3.542   1.162  13.691 -1.2360 -0.8195  0.0632
  680MPD2     N10118   3.878   1.144  14.009 -0.4916 -0.1853  0.2176
  680MPD2    H510119   3.886   1.244  14.002  0.7682 -0.2948  0.1683
  680MPD2    N110120   3.610   0.753  13.871  0.4269 -0.0075 -0.1865
  680MPD2    H710121   3.544   0.716  13.804  0.7123 -0.0625 -0.4385
  681TMC3    C110122   3.561   0.548  13.966  0.2966 -0.1534  0.5903
  681TMC3    C210123   3.511   0.494  14.087 -0.3807 -0.5286 -0.1755
  681TMC3    C310124   3.475   0.357  14.089 -0.2887  0.3737  0.3211
  681TMC3    C410125   3.575   0.471  13.861 -0.7122 -0.4707 -0.3216
  681TMC3    C510126   3.536   0.339  13.866 -0.6594 -0.1234  0.6126
  681TMC3    C610127   3.473   0.283  13.972  0.4204 -0.2301 -0.7096
  681TMC3     C10128   3.641   0.670  13.974  0.3321  0.1347 -0.5754
  681TMC3     O10129   3.687   0.701  14.080 -0.0841 -0.1001  0.6891
  681TMC3     H10130   3.500   0.553  14.178  1.7209  1.3293 -1.1205
  681TMC3    H110131   3.606   0.504  13.762  1.1994  0.6915  0.6897
  681TMC3    H210132   3.444   0.179  13.964 -1.0305 -0.2494  4.7889
  681TMC3    C710133   3.564   0.249  13.759 -0.2054  0.5826 -0.3244
  681TMC3    C810134   3.408   0.306  14.209  0.3732  0.2329 -0.2688
  681TMC3    O110135   3.484   0.156  13.740  0.1077 -0.4935 -0.5264
  681TMC3    O210136   3.330   0.212  14.182  0.1922  0.2879  0.2886
  682MPD2     C10137   0.455   2.819  10.749  0.3545  0.1161 -0.4412
  682MPD2    C110138   0.458   2.677  10.770  0.3858 -0.5216  0.4274
  682MPD2    C210139   0.392   2.622  10.878  0.1737 -0.3542 -0.2993
  682MPD2    C310140   0.319   2.704  10.964 -0.0665 -0.4384  0.1137
  682MPD2    C410141   0.317   2.841  10.945 -0.6743  0.8216 -0.4693
  682MPD2    C510142   0.385   2.894  10.841 -1.2325 -0.0338 -0.1580
  682MPD2     H10143   0.403   2.515  10.894  0.9801 -0.0269  1.3509
  682MPD2    H110144   0.264   2.908  11.011 -1.0736  0.8514 -0.8196
  682MPD2    H210145   0.509   2.870  10.670 -0.7210  0.9624 -0.6301
  682MPD2    H310146   0.373   3.000  10.821 -1.6668  0.1189  0.9176
  682MPD2     N10147   0.250   2.651  11.075  1.2544  0.1133 -0.5603
  682MPD2    H510148   0.211   2.713  11.144  1.5035 -0.0187 -0.3008
  682MPD2    N110149   0.525   2.593  10.692 -0.7283 -0.2418  0.3740
  682MPD2    H710150   0.512   2.494  10.712 -0.3442 -0.4537 -0.3985
  683TMC3    C110151   0.258   2.543  11.468 -0.5361 -0.3876  0.0351
  683TMC3    C210152   0.171   2.451  11.509 -0.5663 -0.7858 -0.0263
  683TMC3    C310153   0.114   2.368  11.412  0.0984 -0.0291 -0.6878
  683TMC3    C410154   0.281   2.569  11.337  0.3704  0.2718  0.3799
  683TMC3    C510155   0.220   2.492  11.248  0.6067 -0.2358  0.6110
  683TMC3    C610156   0.139   2.391  11.278 -0.5644 -1.2365  0.4904
  683TMC3     C10157   0.379   2.556  11.554  0.2846 -1.0255  0.2494
  683TMC3     O10158   0.353   2.551  11.675 -0.4026 -0.4486  0.0396
  683TMC3     H10159   0.173   2.410  11.610 -1.5320 -2.4911 -0.7095
  683TMC3    H110160   0.354   2.644  11.311 -0.6884  0.6507 -1.5434
  683TMC3    H210161   0.087   2.331  11.203  0.0226  0.4709 -1.2755
  683TMC3    C710162   0.251   2.515  11.111 -0.0700  1.0566  0.1096
  683TMC3    C810163   0.066   2.241  11.451 -0.7223  0.1286  0.2097
  683TMC3    O110164   0.255   2.412  11.041  0.0202  0.3005 -0.6809
  683TMC3    O210165   0.024   2.233  11.564 -0.0943 -0.3797  0.2356
  684MPD2     C10166   4.493   1.309  16.147 -0.4573  0.1131  0.0756
  684MPD2    C110167   4.447   1.402  16.047 -0.1284  0.0376  0.8333
  684MPD2    C210168   4.419   1.542  16.077  0.7258 -1.5470  0.0551
  684MPD2    C310169   4.435   1.590  16.211 -0.2618  0.0315 -0.1788
  684MPD2    C410170   4.480   1.497  16.308  0.2314  1.5940  0.1157
  684MPD2    C510171   4.514   1.365  16.275 -0.4738  0.1095 -0.1412
  684MPD2     H10172   4.376   1.601  15.997  1.3300 -1.4814 -0.2133
  684MPD2    H110173   4.497   1.528  16.410  1.0342 -2.4447  1.2312
  684MPD2    H210174   4.514   1.203  16.136 -1.9862 -0.1508 -0.1916
  684MPD2    H310175   4.571   1.309  16.349  0.1041  2.3020  1.0647
  684MPD2     N10176   4.408   1.727  16.238 -0.2891 -0.2271 -0.5067
  684MPD2    H510177   4.438   1.766  16.326 -0.9214 -2.2569  0.5946
  684MPD2    N110178   4.425   1.358  15.914 -0.0014  0.3001 -0.0974
  684MPD2    H710179   4.405   1.438  15.855 -2.4240  0.9497  1.5956
  685TMC3    C110180   4.439   1.229  15.720 -0.0432 -0.0000  0.3631
  685TMC3    C210181   4.389   1.338  15.653 -0.6469  0.1560 -0.0502
  685TMC3    C310182   4.409   1.339  15.513 -0.4784  0.0071  0.0561
  685TMC3    C410183   4.516   1.133  15.664  0.4769  0.0245  0.1338
  685TMC3    C510184   4.564   1.158  15.534 -0.0010 -0.2226 -0.1472
  685TMC3    C610185   4.506   1.256  15.452  0.0761 -0.0928  0.0360
  685TMC3     C10186   4.456   1.232  15.866  0.0342 -1.0542 -0.1278
  685TMC3     O10187   4.514   1.143  15.925  0.5227  0.0761  0.6523
  685TMC3     H10188   4.324   1.409  15.703  0.3069 -0.1177  1.5629
  685TMC3    H110189   4.558   1.046  15.714  0.2802 -0.0558  0.1583
  685TMC3    H210190   4.538   1.278  15.351  1.3399 -1.4678  0.1351
  685TMC3    C710191   4.701   1.134  15.508 -0.1518 -0.2616 -0.2646
  685TMC3    C810192   4.325   1.426  15.428 -0.1751 -0.1303  0.1359
  685TMC3    O110193   0.007   1.155  15.394 -0.3622  0.4936 -0.0442
  685TMC3    O210194   4.351   1.438  15.308  0.6359 -0.3092 -0.0153
  686MPD2     C10195   0.689   2.125  15.676 -0.4333  0.4097 -0.2460
  686MPD2    C110196   0.798   2.049  15.695 -0.4916 -0.1042  0.0902
  686MPD2    C210197   0.916   2.084  15.640 -0.1434  0.5580 -0.6397
  686MPD2    C310198   0.933   2.193  15.545  0.4810  0.8069  0.6413
  686MPD2    C410199   0.821   2.273  15.533 -0.3196  0.1091 -0.3864
  686MPD2    C510200   0.700   2.241  15.602  0.1247 -0.3411  0.8495
  686MPD2     H10201   1.007   2.034  15.669 -1.7915 -0.8004  2.2244
  686MPD2    H110202   0.820   2.357  15.464  3.0895 -1.1359 -1.9896
  686MPD2    H210203   0.589   2.102  15.711 -1.0650  1.7862 -1.1760
  686MPD2    H310204   0.608   2.296  15.586 -0.4485 -1.4843  0.2039
  686MPD2     N10205   1.050   2.233  15.476  0.4272  0.0045 -0.1204
  686MPD2    H510206   1.056   2.326  15.437 -1.4802 -0.0432 -0.5390
  686MPD2    N110207   0.778   1.923  15.759  0.2782 -0.2432  0.1007
  686MPD2    H710208   0.684   1.903  15.790  0.4596 -0.8369  0.2694
  687TMC3    C110209   1.129   2.007  15.446 -0.2444  0.2923  0.3388
  687TMC3    C210210   1.029   1.958  15.364  0.5140  0.0936  0.8159
  687TMC3    C310211   1.003   1.829  15.385 -0.1674 -0.3965 -0.1535
  687TMC3    C410212   1.201   1.930  15.532 -0.3680 -0.3415 -0.3364
  687TMC3    C510213   1.176   1.799  15.538  0.6902 -0.5465 -0.4110
  687TMC3    C610214   1.071   1.744  15.469  0.5568 -0.7260  0.2663
  687TMC3     C10215   1.161   2.150  15.464  0.4800  0.4159  0.2498
  687TMC3     O10216   1.277   2.186  15.451 -0.1936  0.0871 -0.3453
  687TMC3     H10217   0.983   2.036  15.304  0.1813 -3.0811 -3.0005
  687TMC3    H110218   1.278   1.972  15.596 -0.4309 -2.9880  1.4691
  687TMC3    H210219   1.037   1.645  15.497 -0.0327 -0.0485  1.9318
  687TMC3    C710220   1.261   1.730  15.633  0.1748  0.4931  0.0250
  687TMC3    C810221   0.864   1.792  15.373 -0.0074 -0.7478 -0.3268
  687TMC3    O110222   1.346   1.797  15.693  0.1315 -0.1130 -0.0518
  687TMC3    O210223   0.840   1.671  15.363  0.4863  0.1325  0.0487
  688MPD2     C10224   0.229   0.491  17.483  0.1971 -0.0090 -0.4042
  688MPD2    C110225   0.286   0.377  17.524 -0.1523  0.3203  0.7662
  688MPD2    C210226   0.383   0.316  17.449 -0.4435 -0.5867 -0.3690
  688MPD2    C310227   0.400   0.353  17.317 -0.9263  0.1678  0.1493
  688MPD2    C410228   0.344   0.471  17.276 -0.3429  0.4470 -0.1194
  688MPD2    C510229   0.252   0.534  17.356 -0.2189 -0.2645  0.7848
  688MPD2     H10230   0.436   0.226  17.477 -0.0619 -1.0375 -2.5343
  688MPD2    H110231   0.357   0.510  17.176 -1.0998  2.6676  0.6536
  688MPD2    H210232   0.152   0.538  17.543  1.8661  1.5289  0.5275
  688MPD2    H310233   0.200   0.617  17.310 -1.0306 -0.9373  0.4785
  688MPD2     N10234   0.477   0.291  17.214 -0.2357  0.2674  0.2712
  688MPD2    H510235   0.475   0.334  17.123  1.9702 -0.5223 -0.1386
  688MPD2    N110236   0.263   0.328  17.651 -0.5285  0.6734 -0.1375
  688MPD2    H710237   0.302   0.239  17.680 -1.6558  0.4874  0.8239
  689TMC3    C110238   0.159   0.292   0.114 -0.3303  0.4814  0.7174
  689TMC3    C210239   0.109   0.341   0.231  1.2457 -0.0800 -0.6641
  689TMC3    C310240   0.035   0.261   0.313 -0.0756  0.2309  0.3761
  689TMC3    C410241   0.129   0.162   0.077 -0.0769 -0.2991  0.1426
  689TMC3    C510242   0.056   0.081   0.166 -0.1171 -0.5594  0.3451
  689TMC3    C610243   0.009   0.132   0.282  0.3560 -0.2833 -0.5544
  689TMC3     C10244   0.206   0.385   0.018  0.1413 -0.2798 -0.3971
  689TMC3     O10245   0.187   0.504   0.035 -0.2489  0.0434  0.0144
  689TMC3     H10246   0.146   0.436   0.269 -1.0463  0.4598  0.2312
  689TMC3    H110247   0.178   0.122  17.730  0.4240  0.3135  0.1388
  689TMC3    H210248   4.662   0.084   0.333  3.0347 -0.9592  3.0982
  689TMC3    C710249   0.020   4.679   0.138 -0.5291  0.1522 -0.3039
  689TMC3    C810250   4.711   0.319   0.434 -1.0068  0.3682 -0.1183
  689TMC3    O110251   0.016   4.612   0.238  0.2682 -0.0133  0.4147
  689TMC3    O210252   4.653   0.241   0.506  0.2124  0.1902  0.1378
  690MPD2     C10253   2.172   2.475  15.948 -0.4421  0.2421  1.0375
  690MPD2    C110254   2.134   2.457  15.823  0.1145 -0.2393  0.2697
  690MPD2    C210255   2.229   2.481  15.722 -0.1330 -0.3432 -0.5337
  690MPD2    C310256   2.359   2.531  15.752  0.0971  0.1331  0.4236
  690MPD2    C410257   2.390   2.543  15.886 -0.3823 -0.0789 -0.1805
  690MPD2    C510258   2.296   2.519  15.978 -0.5238  0.0232  0.2650
  690MPD2     H10259   2.207   2.481  15.616 -0.3299  0.1823 -0.4960
  690MPD2    H110260   2.487   2.577  15.923  0.1529 -3.3554  1.4636
  690MPD2    H210261   2.104   2.455  16.030 -1.9312  0.0118 -0.2625
  690MPD2    H310262   2.325   2.537  16.081 -2.8346 -1.0467  1.1105
  690MPD2     N10263   2.441   2.566  15.642 -0.0677 -0.4583 -0.3751
  690MPD2    H510264   2.413   2.549  15.546 -2.1095  0.3131  0.0708
  690MPD2    N110265   2.008   2.405  15.788 -0.0139 -0.6581  0.7856
  690MPD2    H710266   1.995   2.385  15.689  0.7091 -0.5257  0.6690
  691TMC3    C110267   1.829   2.266  15.812  0.2038 -0.5496 -0.3904
  691TMC3    C210268   1.709   2.243  15.868  0.0590  0.2595  0.8018
  691TMC3    C310269   1.651   2.118  15.858  0.0993 -0.9654 -0.0662
  691TMC3    C410270   1.901   2.164  15.748  0.2168  0.1356 -0.2629
  691TMC3    C510271   1.843   2.038  15.746 -0.4804  0.5297  0.1294
  691TMC3    C610272   1.722   2.013  15.801  0.2194  0.1112  0.1936
  691TMC3     C10273   1.909   2.368  15.872  0.6507 -0.0206 -0.2617
  691TMC3     O10274   1.874   2.415  15.978 -0.6772  0.2388  0.3218
  691TMC3     H10275   1.657   2.321  15.923 -0.3134 -0.3047  1.2427
  691TMC3    H110276   2.001   2.170  15.708 -0.7312 -0.1521 -2.6810
  691TMC3    H210277   1.666   1.921  15.792 -0.7160  0.7595 -0.5766
  691TMC3    C710278   1.930   1.921  15.741 -0.1109 -0.0308  0.3531
  691TMC3    C810279   1.519   2.093  15.899 -0.0070  0.2473 -0.2270
  691TMC3    O110280   2.049   1.941  15.761 -0.3934 -0.1334 -1.1168
  691TMC3    O210281   1.489   1.989  15.952 -0.3997 -0.1269 -0.4572
  692TMC3    C110282   4.038   3.158  15.811  0.0838  0.3083  0.0671
  692TMC3    C210283   4.160   3.178  15.875 -0.5582  0.5555  0.0323
  692TMC3    C310284   4.234   3.072  15.912 -0.0165  0.3883  0.2190
  692TMC3    C410285   3.987   3.031  15.795  0.4505 -0.0925  0.1816
  692TMC3    C510286   4.060   2.928  15.845  0.0886 -0.0636 -0.6287
  692TMC3    C610287   4.183   2.946  15.905  0.5441 -0.3823 -0.5707
  692TMC3     C10288   3.935   3.253  15.844 -0.0552 -0.5329 -0.1244
  692TMC3     O10289   3.826   3.214  15.826 -0.2502 -0.4398 -0.6021
  692TMC3     H10290   4.212   3.272  15.854 -1.4778  1.1087  0.2308
  692TMC3    H110291   3.896   3.009  15.740  0.8648 -3.1529  0.6897
  692TMC3    H210292   4.245   2.857  15.909 -1.7500 -1.8678  2.7974
  692TMC3    C710293   4.028   2.794  15.788 -0.6950 -0.1399  0.4580
  692TMC3    C810294   4.283   3.095  16.042 -0.2250  0.4914  0.3463
  692TMC3    O110295   3.981   2.799  15.675 -0.0966 -0.0789  0.1624
  692TMC3    O210296   4.349   3.004  16.096  0.0465  0.2437  0.1736
  693MPD2     C10297   2.868   1.427  10.323 -0.6067  0.4889 -0.1219
  693MPD2    C110298   2.836   1.341  10.427  0.5170  0.1468 -0.6279
  693MPD2    C210299   2.935   1.305  10.516 -0.6006 -0.1635  0.5976
  693MPD2    C310300   3.068   1.343  10.497 -0.6121  0.1231 -0.1355
  693MPD2    C410301   3.099   1.412  10.384 -0.0528  0.2454  0.7747
  693MPD2    C510302   3.003   1.458  10.304 -0.6542  0.0944  0.2321
  693MPD2     H10303   2.906   1.245  10.601 -1.5680 -1.7483 -0.8305
  693MPD2    H110304   3.198   1.438  10.350 -0.9812  1.3295 -1.1099
  693MPD2    H210305   2.794   1.448  10.246  0.6102 -0.1491 -1.4698
  693MPD2    H310306   3.025   1.507  10.210  0.5928 -1.8762 -0.5102
  693MPD2     N10307   3.160   1.295  10.595 -0.0026  0.2219 -0.5085
  693MPD2    H510308   3.118   1.244  10.671 -1.7692  3.3028  0.5859
  693MPD2    N110309   2.701   1.288  10.443  0.5927  0.4391  0.2513
  693MPD2    H710310   2.677   1.218  10.512 -0.4926  0.1142 -0.4581
  694TMC3    C110311   2.473   1.282  10.437 -0.5995 -0.6532  0.4565
  694TMC3    C210312   2.385   1.205  10.368 -0.2613  0.0533 -0.4292
  694TMC3    C310313   2.301   1.122  10.440  0.4611 -0.1938  0.0821
  694TMC3    C410314   2.481   1.276  10.571 -0.4265 -0.0497 -0.1202
  694TMC3    C510315   2.402   1.184  10.632 -0.1966 -0.4991  0.2952
  694TMC3    C610316   2.307   1.110  10.571 -0.4716 -0.1673  0.5962
  694TMC3     C10317   2.591   1.334  10.377 -0.4172 -0.0660 -0.2223
  694TMC3     O10318   2.587   1.431  10.304  0.1585 -0.2282  0.0962
  694TMC3     H10319   2.379   1.218  10.261 -0.6241 -1.5311 -0.6006
  694TMC3    H110320   2.539   1.348  10.628 -1.2458  0.5931 -0.0947
  694TMC3    H210321   2.238   1.063  10.639  0.2278  0.9739  2.0960
  694TMC3    C710322   2.418   1.166  10.770 -0.2007  0.1825 -0.3790
  694TMC3    C810323   2.193   1.046  10.374 -0.0531  0.3717 -0.1165
  694TMC3    O110324   2.477   1.255  10.825 -0.3549  0.2718  0.3581
  694TMC3    O210325   2.131   0.969  10.443  0.3708  0.1572 -0.8149
  695MPD2     C10326   4.645   3.046  13.347 -0.8697 -0.2663  0.4073
  695MPD2    C110327   4.615   3.088  13.472 -0.5842  0.2782  0.5205
  695MPD2    C210328   4.483   3.096  13.514  0.8913 -0.1038 -0.4808
  695MPD2    C310329   4.376   3.081  13.429 -0.5503  0.1513 -0.0035
  695MPD2    C410330   4.402   3.052  13.298 -0.2233  0.9946  0.4733
  695MPD2    C510331   4.536   3.028  13.266  0.1763 -0.2442  0.4025
  695MPD2     H10332   4.458   3.111  13.618 -2.1519 -0.2211 -1.1764
  695MPD2    H110333   4.326   3.025  13.226 -0.1869 -1.2391  1.2635
  695MPD2    H210334   0.010   3.050  13.307 -0.5966  1.5598  1.2698
  695MPD2    H310335   4.567   3.001  13.165  0.7602  0.0454  0.5075
  695MPD2     N10336   4.246   3.085  13.488  0.1969  0.0592  0.3636
  695MPD2    H510337   4.241   3.101  13.589  0.0574 -0.9655  0.5176
  695MPD2    N110338   4.716   3.115  13.568 -0.5065  0.1033  0.0561
  695MPD2    H710339   4.665   3.149  13.649  1.2525 -1.8446  1.9948
  696TMC3    C110340   4.012   3.032  13.497 -0.1067 -0.1790  0.2989
  696TMC3    C210341   4.021   3.003  13.632  0.0019  0.3925  0.3985
  696TMC3    C310342   3.908   3.024  13.707  0.0771 -0.7443 -0.0295
  696TMC3    C410343   3.895   3.076  13.436 -0.8242  0.4583 -0.2865
  696TMC3    C510344   3.787   3.087  13.512 -0.4794  0.6594  0.4982
  696TMC3    C610345   3.791   3.067  13.649  0.1479 -0.3834 -0.1517
  696TMC3     C10346   4.130   3.051  13.421  0.6484  0.5969 -0.6574
  696TMC3     O10347   4.106   3.043  13.299  0.2456 -0.1864 -0.1954
  696TMC3     H10348   4.108   2.975  13.689  0.0017 -0.8741 -0.2187
  696TMC3    H110349   3.896   3.115  13.335 -0.7131 -1.0646 -0.8745
  696TMC3    H210350   3.700   3.086  13.704 -0.6966 -0.4619 -1.5089
  696TMC3    C710351   3.696   3.194  13.469  0.2684  0.8862 -0.7997
  696TMC3    C810352   3.906   3.008  13.848 -0.5095 -0.0154 -0.3102
  696TMC3    O110353   3.677   3.209  13.350 -0.4699  0.2273 -0.0219
  696TMC3    O210354   4.010   3.040  13.907  0.2610 -0.2647  0.5088
  697MPD2     C10355   3.083   0.349  15.522  0.6057  0.1491  0.5820
  697MPD2    C110356   3.148   0.280  15.422 -0.2799 -0.2106 -0.3883
  697MPD2    C210357   3.221   0.350  15.326 -0.0577 -0.6535  0.1234
  697MPD2    C310358   3.223   0.489  15.331 -0.8119 -0.1550 -1.1469
  697MPD2    C410359   3.169   0.561  15.435  0.0609 -0.9365  0.0774
  697MPD2    C510360   3.094   0.485  15.527 -0.1385  0.2907  0.4091
  697MPD2     H10361   3.261   0.293  15.243 -0.7201  1.5513 -1.6909
  697MPD2    H110362   3.188   0.666  15.452  1.1488 -1.0624 -0.3162
  697MPD2    H210363   3.017   0.295  15.588  0.6217  0.2597  0.6886
  697MPD2    H310364   3.057   0.543  15.611 -2.0500  0.6194 -0.6725
  697MPD2     N10365   3.289   0.557  15.223 -0.1233  0.0886  0.1246
  697MPD2    H510366   3.326   0.494  15.152  1.7500  1.6929 -0.3135
  697MPD2    N110367   3.135   0.143  15.413 -0.2965  0.4211 -0.1339
  697MPD2    H710368   3.054   0.096  15.452  0.2586 -0.9040 -0.5777
  698TMC3    C110369   3.372   0.718  15.083 -0.7169 -0.4348  0.4181
  698TMC3    C210370   3.465   0.818  15.077 -0.0558  0.5106  0.7900
  698TMC3    C310371   3.494   0.887  14.965 -0.0196 -0.2353  0.0270
  698TMC3    C410372   3.293   0.686  14.981 -0.6224  0.1627 -0.4812
  698TMC3    C510373   3.323   0.754  14.863  0.1233 -0.2542  0.3386
  698TMC3    C610374   3.415   0.855  14.857 -0.1285  0.6481 -0.1622
  698TMC3     C10375   3.313   0.694  15.209  0.4642 -1.0049 -0.0559
  698TMC3     O10376   3.265   0.791  15.263 -0.2758 -0.5152 -0.0223
  698TMC3     H10377   3.510   0.846  15.171  0.2390  1.5225  0.3424
  698TMC3    H110378   3.198   0.634  14.989 -1.1979  0.9988 -1.8028
  698TMC3    H210379   3.413   0.916  14.768 -1.2474  0.6910 -0.1094
  698TMC3    C710380   3.256   0.708  14.740  0.7263  0.1678 -0.1700
  698TMC3    C810381   3.527   1.029  14.982 -0.2903  0.1813 -0.0186
  698TMC3    O110382   3.319   0.692  14.638  0.0999  0.0402  0.2406
  698TMC3    O210383   3.446   1.108  14.937 -0.0005  0.1316 -0.1131
  699TMC3    C110384   3.355   3.152  13.009  0.3176 -0.5899 -0.4737
  699TMC3    C210385   3.461   3.066  13.040  0.1843 -0.3015 -1.0697
  699TMC3    C310386   3.475   3.027  13.171 -0.4188 -0.4238  0.0293
  699TMC3    C410387   3.255   3.172  13.101  0.3594 -0.2939 -0.7053
  699TMC3    C510388   3.275   3.133  13.232 -0.2823 -0.5986 -0.2420
  699TMC3    C610389   3.386   3.063  13.267  0.3129  0.5285 -0.3617
  699TMC3     C10390   3.335   3.206  12.878 -0.6000 -0.3302  0.6893
  699TMC3     O10391   3.222   3.248  12.856 -0.1911 -0.3260  0.5513
  699TMC3     H10392   3.527   3.028  12.963  2.8317  1.3863  0.3328
  699TMC3    H110393   3.175   3.238  13.067  0.9892  1.1551  0.6661
  699TMC3    H210394   3.410   3.030  13.368 -2.7842 -0.0145  0.1896
  699TMC3    C710395   3.172   3.144  13.332  0.2731 -0.1730  0.6932
  699TMC3    C810396   3.587   2.943  13.203  0.1040 -0.2815 -0.8358
  699TMC3    O110397   3.205   3.145  13.448  0.0969 -0.3163 -0.2634
  699TMC3    O210398   3.701   2.962  13.160  0.4815 -0.0310  0.2590
  700TMC3    C110399   2.952   1.060  16.954  0.3449 -0.7299 -0.1595
  700TMC3    C210400   2.966   0.939  17.014 -0.1665  0.4773  0.2551
  700TMC3    C310401   3.021   0.925  17.137  1.0366  0.2051  0.0679
  700TMC3    C410402   2.995   1.166  17.027 -0.1268 -0.2068 -0.1912
  700TMC3    C510403   3.038   1.153  17.156  0.2200 -0.6019  0.1659
  700TMC3    C610404   3.057   1.027  17.206  0.2666 -0.1050  0.4801
  700TMC3     C10405   2.996   1.054  16.812  0.1148  0.5225 -0.2331
  700TMC3     O10406   2.977   0.943  16.752  0.1475  0.4691  0.7971
  700TMC3     H10407   2.933   0.849  16.964  1.0604  1.1772 -1.7682
  700TMC3    H110408   2.976   1.264  16.984 -0.1265 -0.2615 -0.3176
  700TMC3    H210409   3.079   1.013  17.311 -0.5995 -0.4733  0.6101
  700TMC3    C710410   3.152   1.244  17.182 -0.2908  0.7127  0.0999
  700TMC3    C810411   3.119   0.820  17.142  0.5942  0.4953 -0.3100
  700TMC3    O110412   3.242   1.194  17.252 -0.5068 -0.3802  0.1315
  700TMC3    O210413   3.090   0.715  17.088  0.1000  0.0566  0.4459
  701TMC3    C110414   2.123   4.465  15.677 -0.1539  0.5977  0.1727
  701TMC3    C210415   2.082   4.479  15.550 -0.3954 -0.2017 -0.1878
  701TMC3    C310416   2.141   4.584  15.484  0.0168  0.2155 -0.0365
  701TMC3    C410417   2.222   4.540  15.743 -0.1518 -0.0897 -0.3370
  701TMC3    C510418   2.266   4.648  15.665 -1.5077 -0.4332  0.1406
  701TMC3    C610419   2.233   4.670  15.534  0.1295 -0.1204 -0.0276
  701TMC3     C10420   2.099   4.332  15.731  0.0814 -0.3070 -0.0758
  701TMC3     O10421   2.136   4.317  15.848 -0.5551  0.3963  0.5902
  701TMC3     H10422   1.986   4.442  15.518 -0.1509 -0.3775 -0.7183
  701TMC3    H110423   2.271   4.515  15.836 -1.5299 -2.5538 -0.2647
  701TMC3    H210424   2.291   0.001  15.473 -2.3450  0.4023 -1.8041
  701TMC3    C710425   2.372   4.723  15.738  0.3962  0.5006 -0.1063
  701TMC3    C810426   2.104   4.607  15.344  0.0897  0.0858  0.1759
  701TMC3    O110427   2.372   4.698  15.858  0.4419  0.3784 -0.1407
  701TMC3    O210428   2.150   4.702  15.280  0.6972 -0.2076 -0.2370
  702MPD2     C10429   1.956   1.507  10.238  0.7216  0.2579  0.0855
  702MPD2    C110430   2.044   1.589  10.295 -0.1970 -0.8656 -0.0989
  702MPD2    C210431   2.032   1.721  10.251 -0.2736  0.2613  0.0867
  702MPD2    C310432   1.936   1.767  10.164  0.2500  0.0999 -0.1384
  702MPD2    C410433   1.861   1.676  10.094  0.0446  0.6991  0.3476
  702MPD2    C510434   1.872   1.544  10.139 -0.0296 -0.7911 -0.4798
  702MPD2     H10435   2.097   1.790  10.304  1.4647  0.0571 -1.7490
  702MPD2    H110436   1.789   1.705  10.019 -0.1748  2.2448  1.1676
  702MPD2    H210437   1.962   1.403  10.269  1.9843  0.2043 -0.3421
  702MPD2    H310438   1.807   1.470  10.093 -0.0040 -2.3766  2.0250
  702MPD2     N10439   1.935   1.900  10.143 -0.2641  0.2736  0.2589
  702MPD2    H510440   2.017   1.945  10.182  0.0086 -2.0739  2.3630
  702MPD2    N110441   2.141   1.549  10.391  0.5628  0.3952  0.3235
  702MPD2    H710442   2.207   1.620  10.420 -0.8873  1.1690  1.6698
  703TMC3    C110443   1.875   2.111  10.068 -0.3746 -0.0549  0.1171
  703TMC3    C210444   1.768   2.196  10.064 -0.3708  0.4873 -0.2983
  703TMC3    C310445   1.790   2.325  10.035  0.1411  0.6197 -0.4440
  703TMC3    C410446   2.002   2.152  10.037  0.2312  0.2046  0.3785
  703TMC3    C510447   2.017   2.287   9.999 -0.5352 -0.0726 -0.3749
  703TMC3    C610448   1.913   2.378  10.005 -0.5442  0.2865  0.1039
  703TMC3     C10449   1.836   1.972  10.087 -0.4482 -0.0379 -0.0338
  703TMC3     O10450   1.734   1.926  10.039 -0.1364 -0.2881 -0.2391
  703TMC3     H10451   1.669   2.152  10.063  0.1959 -0.8486  1.3036
  703TMC3    H110452   2.086   2.085  10.030 -1.5316 -1.9646 -0.1429
  703TMC3    H210453   1.933   2.485  10.005 -2.3300  0.6101  0.9746
  703TMC3    C710454   2.152   2.344  10.029 -0.1931 -0.2302 -0.0343
  703TMC3    C810455   1.690   2.434  10.070  0.8180  0.6625  0.6335
  703TMC3    O110456   2.228   2.267  10.080 -0.3965 -0.0365  0.0999
  703TMC3    O210457   1.716   2.547  10.044  0.5198 -0.1593 -0.0856
  704TMC3    C110458   0.091   4.471  13.072 -0.1450  0.2888  0.0414
  704TMC3    C210459   0.167   4.580  13.030  0.0712 -1.3922 -0.0583
  704TMC3    C310460   0.294   4.581  13.079  0.0082 -0.4669  0.3837
  704TMC3    C410461   0.123   4.390  13.181  0.4348  0.2454  0.2591
  704TMC3    C510462   0.245   4.417  13.241 -0.1887  0.0097  0.1011
  704TMC3    C610463   0.332   4.506  13.188  0.0669  0.2325  0.3341
  704TMC3     C10464   0.015   4.395  12.978  0.0595 -0.3678  0.1240
  704TMC3     O10465   4.699   4.292  13.017  0.5182  0.6207  0.3610
  704TMC3     H10466   0.120   4.643  12.955  0.9174 -0.4716  0.1804
  704TMC3    H110467   0.058   4.316  13.226  1.3582 -0.8674 -0.2380
  704TMC3    H210468   0.438   4.493  13.209 -0.3651 -1.2657  1.5248
  704TMC3    C710469   0.284   4.315  13.329 -0.4381  0.1114 -0.0569
  704TMC3    C810470   0.383   4.598  12.971  0.5870 -0.1664 -0.6827
  704TMC3    O110471   0.320   4.342  13.445 -0.0530  0.7952 -0.0684
  704TMC3    O210472   0.321   4.609  12.866 -0.1559 -0.0259  0.3090
  705MPD2     C10473   4.343   2.656  16.443 -0.7160  0.9538  0.6777
  705MPD2    C110474   4.371   2.784  16.493  0.5067 -0.3674  0.6174
  705MPD2    C210475   4.264   2.866  16.534  0.3551  0.4098 -0.8309
  705MPD2    C310476   4.130   2.824  16.511 -0.0754  0.6316  0.1525
  705MPD2    C410477   4.107   2.709  16.450 -0.2602  0.2970 -0.2770
  705MPD2    C510478   4.215   2.623  16.429 -0.3916  0.4747  0.1845
  705MPD2     H10479   4.273   2.971  16.559  0.0651  0.2166  0.1000
  705MPD2    H110480   4.006   2.680  16.424  0.3504 -0.3079 -1.9301
  705MPD2    H210481   4.422   2.589  16.411 -2.1140 -0.7270  0.7371
  705MPD2    H310482   4.191   2.525  16.389  0.2876  0.5030 -0.2819
  705MPD2     N10483   4.015   2.898  16.548  0.3883 -0.3648 -0.0760
  705MPD2    H510484   3.925   2.857  16.525  0.6245 -1.1484  0.3972
  705MPD2    N110485   4.502   2.834  16.503  0.1347  0.2488  0.0539
  705MPD2    H710486   4.517   2.931  16.530  1.3951  0.2405 -0.6041
  706TMC3    C110487   0.080   2.845  16.193 -0.0986  0.5218  0.6263
  706TMC3    C210488   0.040   2.963  16.155  0.3832  0.3186 -0.2138
  706TMC3    C310489   4.708   3.037  16.244 -0.9820  0.1510 -0.3376
  706TMC3    C410490   0.059   2.791  16.319  0.8529  0.0559 -0.6259
  706TMC3    C510491   4.715   2.862  16.404 -0.0187 -0.2963  0.4318
  706TMC3    C610492   4.679   2.994  16.374 -0.7201 -0.6359 -0.3889
  706TMC3     C10493   0.160   2.770  16.093  0.3293 -0.3070  0.6944
  706TMC3     O10494   0.245   2.689  16.132 -0.3548  0.3975 -0.4846
  706TMC3     H10495   0.069   3.011  16.062  1.2698  0.3382  0.0662
  706TMC3    H110496   0.089   2.687  16.327  2.7719  0.5431 -1.4388
  706TMC3    H210497   4.626   3.067  16.434 -1.3200 -0.3786 -1.2405
  706TMC3    C710498   4.616   2.769  16.460 -0.4400 -0.3487  0.3879
  706TMC3    C810499   4.704   3.180  16.202  0.2454  0.0530 -0.4906
  706TMC3    O110500   4.632   2.650  16.430 -0.3927  0.4642  0.3458
  706TMC3    O210501   4.659   3.184  16.084 -0.9336  0.4186 -0.0322
  707TMC3    C110502   1.521   2.817   0.918 -0.0155  0.3642 -1.1446
  707TMC3    C210503   1.635   2.860   0.976 -0.7169 -0.6656  0.3859
  707TMC3    C310504   1.632   2.916   1.096  0.2142  0.2227  0.3457
  707TMC3    C410505   1.398   2.830   0.982  0.3803 -0.3565  0.5746
  707TMC3    C510506   1.401   2.871   1.117  0.5421  0.1747 -0.9984
  707TMC3    C610507   1.516   2.919   1.174  0.0838  0.8860  0.2930
  707TMC3     C10508   1.541   2.714   0.825  0.2214  0.4396  0.0061
  707TMC3     O10509   1.643   2.646   0.836  0.2035  0.1418 -0.0630
  707TMC3     H10510   1.731   2.846   0.926  1.3215 -0.0853  4.1720
  707TMC3    H110511   1.310   2.794   0.930  2.3768  1.0256 -3.7564
  707TMC3    H210512   1.509   2.943   1.280  1.6990  0.3811  0.5096
  707TMC3    C710513   1.283   2.887   1.196  0.1331 -0.6258  0.7495
  707TMC3    C810514   1.746   2.891   1.175 -0.1480  0.0160 -0.2864
  707TMC3    O110515   1.287   2.967   1.288  0.3435  0.7155  0.0560
  707TMC3    O210516   1.840   2.970   1.181  0.2746  0.3607 -0.7197
  708MPD2     C10517   2.416   1.878  14.117 -0.4020  0.3393 -0.0309
  708MPD2    C110518   2.336   1.792  14.190  0.3268  0.5538  0.6479
  708MPD2    C210519   2.351   1.796  14.328  0.5578  0.0860 -0.2408
  708MPD2    C310520   2.427   1.893  14.388 -0.0139  0.2943 -0.1456
  708MPD2    C410521   2.493   1.982  14.314  0.0664  0.3535  1.2939
  708MPD2    C510522   2.492   1.976  14.175  0.0657 -1.2155 -0.1268
  708MPD2     H10523   2.297   1.716  14.377 -1.0752  1.4865  0.2387
  708MPD2    H110524   2.568   2.051  14.351 -1.3864  1.4158  2.2250
  708MPD2    H210525   2.399   1.877  14.009 -2.4670  0.0569  0.2874
  708MPD2    H310526   2.547   2.056  14.128 -1.5722 -1.2212 -2.0546
  708MPD2     N10527   2.445   1.891  14.532  0.2417  0.2883 -0.4512
  708MPD2    H510528   2.503   1.962  14.576  0.6712 -0.5012  0.2511
  708MPD2    N110529   2.245   1.696  14.141 -0.5773  0.1774 -0.0474
  708MPD2    H710530   2.190   1.648  14.211  1.5253 -1.8124  0.2240
  709TMC3    C110531   2.132   1.546  14.006 -0.2083  0.2964 -0.1914
  709TMC3    C210532   2.167   1.426  13.946  0.3281  0.4430 -1.1619
  709TMC3    C310533   2.121   1.309  13.993  0.0424  0.3977  0.2578
  709TMC3    C410534   2.055   1.543  14.117  0.1028  0.9617 -0.0157
  709TMC3    C510535   2.024   1.416  14.167  0.3454  0.1014  0.4272
  709TMC3    C610536   2.055   1.300  14.111  0.4025  0.4918 -0.6472
  709TMC3     C10537   2.221   1.658  14.006  0.0443  0.8230  0.6607
  709TMC3     O10538   2.294   1.685  13.909 -0.0967 -0.5904  0.1201
  709TMC3     H10539   2.241   1.428  13.867  1.0970  2.2592 -0.4022
  709TMC3    H110540   2.000   1.625  14.160  0.5183  0.7788  0.8738
  709TMC3    H210541   2.021   1.206  14.153  2.8186  0.3882  1.0684
  709TMC3    C710542   2.050   1.423  14.313 -0.3336  0.1274 -0.4691
  709TMC3    C810543   2.167   1.181  13.937 -0.2074  0.7827 -0.2895
  709TMC3    O110544   2.026   1.535  14.360  0.5480  0.0681  0.1201
  709TMC3    O210545   2.147   1.085  14.009  0.4217  0.7346  0.4687
  710TMC3    C110546   3.481   2.899   0.430 -0.0399 -0.6528 -0.0650
  710TMC3    C210547   3.497   2.882   0.301  0.3476  0.5638 -0.8261
  710TMC3    C310548   3.628   2.862   0.263 -0.1304 -0.1332  0.6342
  710TMC3    C410549   3.578   2.863   0.518  0.6633  0.1108 -0.1118
  710TMC3    C510550   3.700   2.825   0.486  0.1446  0.4059  0.3370
  710TMC3    C610551   3.727   2.824   0.351  0.5373  0.4332  0.1201
  710TMC3     C10552   3.345   2.920   0.469  0.4519 -0.0556 -0.3158
  710TMC3     O10553   3.255   2.904   0.384  0.0816  0.5261  0.2102
  710TMC3     H10554   3.434   2.940   0.235  0.1850 -1.7465 -2.7068
  710TMC3    H110555   3.545   2.838   0.619  1.3438  2.5908  0.7109
  710TMC3    H210556   3.827   2.800   0.316  0.3406 -1.7378  1.1020
  710TMC3    C710557   3.757   2.722   0.577 -0.4297 -0.4941 -0.2476
  710TMC3    C810558   3.659   2.898   0.125 -0.1502  0.1397 -1.1324
  710TMC3    O110559   3.712   2.707   0.692  0.2807 -0.0596 -0.6196
  710TMC3    O210560   3.754   2.975   0.112 -0.0657  0.2010  0.9900
  711TMC3    C110561   3.414   3.647  15.046  0.3691  0.0396  0.0344
  711TMC3    C210562   3.436   3.564  15.150  0.5961  0.3220 -0.8072
  711TMC3    C310563   3.478   3.613  15.268 -0.2667  0.2594  0.6579
  711TMC3    C410564   3.425   3.785  15.056  0.4101 -0.0823 -0.3874
  711TMC3    C510565   3.460   3.837  15.179  0.6924 -0.4075  0.5261
  711TMC3    C610566   3.489   3.754  15.287 -0.3226  0.6784  0.3349
  711TMC3     C10567   3.401   3.591  14.916  0.0421  0.3195  0.0448
  711TMC3     O10568   3.338   3.644  14.824  0.6113  0.1190  0.2604
  711TMC3     H10569   3.413   3.458  15.145  0.1634  0.3243  1.2355
  711TMC3    H110570   3.415   3.855  14.974  0.0453 -0.4213 -0.6333
  711TMC3    H210571   3.524   3.793  15.382  1.5815 -1.0444  0.3525
  711TMC3    C710572   3.570   3.927  15.171 -0.5033 -0.1265  0.0129
  711TMC3    C810573   3.552   3.527  15.354 -0.4222  0.1769 -0.0613
  711TMC3    O110574   3.555   4.036  15.232 -0.1498  0.8567  0.5135
  711TMC3    O210575   3.520   3.408  15.360 -0.5354 -0.3092 -0.3117
  712MPD2     C10576   0.057   4.342  14.148 -0.3579 -0.1652 -0.6977
  712MPD2    C110577   4.696   4.413  14.079 -0.0637  0.0753  0.6293
  712MPD2    C210578   4.717   4.549  14.052 -0.7680 -0.7904  0.2996
  712MPD2    C310579   0.088   4.614  14.110  0.2763 -0.7110 -1.0535
  712MPD2    C410580   0.180   4.542  14.179  0.0011  0.5742 -0.1109
  712MPD2    C510581   0.164   4.408  14.198 -0.5908 -0.2470 -0.4291
  712MPD2     H10582   4.655   4.600  13.979 -0.5867 -0.5316  0.3256
  712MPD2    H110583   0.269   4.589  14.218  0.4076 -1.2870  1.2446
  712MPD2    H210584   0.052   4.238  14.177  1.8819 -0.2521 -0.6501
  712MPD2    H310585   0.242   4.359  14.255 -1.1420 -0.1899  0.3686
  712MPD2     N10586   0.100   0.018  14.106  0.5209 -0.4667  0.0606
  712MPD2    H510587   0.188   0.067  14.120 -0.4912  1.2024  0.6645
  712MPD2    N110588   4.581   4.343  14.034  0.1734  0.0306 -0.0578
  712MPD2    H710589   4.586   4.241  14.037 -0.3198  0.0156  0.3075
  713TMC3    C110590   0.058   0.228  14.023  0.1436  0.4118 -0.3461
  713TMC3    C210591   0.182   0.237  13.974 -0.0839  0.1511 -0.4313
  713TMC3    C310592   0.211   0.338  13.880 -0.4895 -0.5714 -0.7013
  713TMC3    C410593   4.701   0.318  13.986 -0.4931  0.0868  0.5757
  713TMC3    C510594   4.719   0.414  13.890  0.0738  0.3582  0.5273
  713TMC3    C610595   0.111   0.432  13.843  0.9436 -0.0944 -0.3896
  713TMC3     C10596   0.002   0.095  14.047 -0.7952  0.8036  0.6175
  713TMC3     O10597   4.617   0.079  14.037  0.3110 -0.3068  0.1900
  713TMC3     H10598   0.251   0.155  13.990  2.6610  3.0017  2.2124
  713TMC3    H110599   4.603   0.318  14.031  0.0066  0.6266  1.6452
  713TMC3    H210600   0.134   0.515  13.777  1.6937  0.8756  1.0908
  713TMC3    C710601   4.673   0.547  13.932  0.2938  0.7780  0.1561
  713TMC3    C810602   0.349   0.367  13.847  0.9033  0.3725  0.5553
  713TMC3    O110603   0.017   0.621  13.993  0.0700 -0.3472  0.6408
  713TMC3    O210604   0.426   0.318  13.927  0.3698  0.0576  0.4088
  714MPD2     C10605   2.822   4.004   1.396 -0.1062  0.7364  0.3076
  714MPD2    C110606   2.718   3.921   1.365 -0.6287  0.8800 -0.0565
  714MPD2    C210607   2.627   3.958   1.270  0.3379  0.2393 -0.6715
  714MPD2    C310608   2.641   4.080   1.204 -0.1444 -0.1046 -0.1977
  714MPD2    C410609   2.749   4.155   1.230 -0.6558 -0.3465 -0.1375
  714MPD2    C510610   2.834   4.121   1.330 -0.3328 -0.1672  0.0149
  714MPD2     H10611   2.542   3.895   1.249  0.1751  0.6278 -1.1663
  714MPD2    H110612   2.774   4.238   1.165  1.1169  1.1145  2.3929
  714MPD2    H210613   2.899   3.970   1.464  0.2531  1.2015  0.1340
  714MPD2    H310614   2.921   4.178   1.361  0.0586 -1.2948  0.9809
  714MPD2     N10615   2.550   4.122   1.107 -0.0011  0.4894  0.0521
  714MPD2    H510616   2.466   4.064   1.110 -0.4730  1.1407 -0.5159
  714MPD2    N110617   2.709   3.797   1.431 -0.0108 -0.3577  0.2443
  714MPD2    H710618   2.774   3.789   1.508  1.4336  1.9876 -0.7117
  715TMC3    C110619   2.663   3.577   1.489 -0.4344 -0.0066  0.3775
  715TMC3    C210620   2.690   3.455   1.425  0.0434  0.0951  0.5099
  715TMC3    C310621   2.743   3.349   1.490  0.4373  0.0058  0.1238
  715TMC3    C410622   2.700   3.588   1.626 -0.6665 -0.0964  0.2025
  715TMC3    C510623   2.744   3.468   1.684 -0.2346  0.7724  0.5253
  715TMC3    C610624   2.784   3.357   1.620  0.3715 -0.0217  0.6840
  715TMC3     C10625   2.637   3.688   1.392 -0.7584  0.3749 -0.0992
  715TMC3     O10626   2.594   3.663   1.283 -0.5665  0.3841 -0.1109
  715TMC3     H10627   2.658   3.446   1.322  0.9303  1.4868  0.1035
  715TMC3    H110628   2.689   3.679   1.683 -0.0763  0.9552 -1.3601
  715TMC3    H210629   2.830   3.278   1.678 -1.4108 -0.7051  1.1567
  715TMC3    C710630   2.811   3.485   1.811  0.5022 -0.1489 -0.8062
  715TMC3    C810631   2.801   3.248   1.400 -0.1616  0.2400  0.5218
  715TMC3    O110632   2.923   3.431   1.822  0.0162 -0.5082 -0.2746
  715TMC3    O210633   2.737   3.222   1.296  0.0971  0.3050 -0.3173
  716MPD2     C10634   1.378   1.807   9.282 -0.5812  0.0966  0.1915
  716MPD2    C110635   1.242   1.796   9.271 -0.2136 -0.3274 -0.2032
  716MPD2    C210636   1.185   1.691   9.199 -0.3102  0.0832 -0.1234
  716MPD2    C310637   1.265   1.589   9.153 -0.5596 -0.5492 -0.5723
  716MPD2    C410638   1.406   1.606   9.167 -0.0946  0.6535  0.0188
  716MPD2    C510639   1.460   1.701   9.243 -0.1900 -0.0046 -0.0847
  716MPD2     H10640   1.082   1.683   9.169  0.0340  1.3534 -1.6439
  716MPD2    H110641   1.474   1.529   9.131  1.5424  2.0303  0.1774
  716MPD2    H210642   1.427   1.895   9.323 -1.7350  1.5309 -1.4472
  716MPD2    H310643   1.565   1.690   9.266 -0.0497 -0.7080 -1.0585
  716MPD2     N10644   1.207   1.486   9.070  0.3152  0.0045  0.3317
  716MPD2    H510645   1.106   1.494   9.065  0.3643  1.0655  0.9866
  716MPD2    N110646   1.170   1.910   9.324  1.0559 -0.2613 -1.0234
  716MPD2    H710647   1.220   1.983   9.374 -2.2891  0.4041  1.3264
  717TMC3    C110648   1.200   1.303   8.919  0.3793  0.4711 -0.1575
  717TMC3    C210649   1.078   1.356   8.879  0.7747  0.2968  0.0010
  717TMC3    C310650   0.984   1.264   8.841  0.0889  0.7520  0.6526
  717TMC3    C410651   1.225   1.169   8.917  0.7922  0.2158 -0.3298
  717TMC3    C510652   1.130   1.083   8.878 -0.1509  0.0696  1.1473
  717TMC3    C610653   1.007   1.129   8.832  0.1860  0.2255  0.4729
  717TMC3     C10654   1.279   1.387   9.008 -0.4024  0.5583  0.2000
  717TMC3     O10655   1.392   1.346   9.018  0.5020 -0.8623  0.1729
  717TMC3     H10656   1.053   1.461   8.887 -0.5699  0.0118 -0.5977
  717TMC3    H110657   1.318   1.129   8.956  0.0271  2.6616  4.0129
  717TMC3    H210658   0.922   1.067   8.807  0.3473  0.3532 -0.4074
  717TMC3    C710659   1.146   0.944   8.868  0.2117  0.1034  0.7358
  717TMC3    C810660   0.846   1.313   8.872 -0.3698 -0.1767 -0.4933
  717TMC3    O110661   1.046   0.883   8.832  0.7430  0.2332  0.1792
  717TMC3    O210662   0.842   1.417   8.930 -0.4666  0.0552  0.0484
  718MPD2     C10663   1.047   0.407  11.994 -0.6630  0.8702 -0.4059
  718MPD2    C110664   1.051   0.282  12.043 -0.3150 -0.4500  0.3508
  718MPD2    C210665   0.967   0.242  12.145 -0.4955 -0.3752 -0.3943
  718MPD2    C310666   0.865   0.324  12.187 -0.1046  0.3358 -0.9826
  718MPD2    C410667   0.856   0.453  12.130 -0.2046 -0.4092 -0.3463
  718MPD2    C510668   0.948   0.489  12.035  0.5968  0.3963 -0.3369
  718MPD2     H10669   0.988   0.149  12.197  3.7253 -0.4386 -2.2044
  718MPD2    H110670   0.778   0.524  12.151 -1.8891 -1.8305 -1.7647
  718MPD2    H210671   1.118   0.455  11.928  0.6256 -0.1232  0.2606
  718MPD2    H310672   0.941   0.587  11.989 -1.7806  0.6683  0.6019
  718MPD2     N10673   0.792   0.280  12.299  0.2556  0.0113 -0.1674
  718MPD2    H510674   0.815   0.185  12.327 -2.0107 -0.3510  0.4960
  718MPD2    N110675   1.172   0.214  12.009  0.1180  0.0248 -0.6470
  718MPD2    H710676   1.237   0.256  11.943 -1.6237  1.2569 -1.6125
  719TMC3    C110677   1.340   0.047  12.043  0.1941 -0.1997  0.0278
  719TMC3    C210678   1.356   4.675  12.119  0.4140 -0.7628 -0.5906
  719TMC3    C310679   1.459   4.667  12.204  0.0999  0.1597  0.1187
  719TMC3    C410680   1.444   0.141  12.031  0.2202 -0.0010 -0.1823
  719TMC3    C510681   1.553   0.119  12.113  0.3450  0.0662 -0.0803
  719TMC3    C610682   1.560   0.014  12.201 -0.1511 -0.3505 -0.5841
  719TMC3     C10683   1.202   0.092  12.064 -0.3399 -0.1115  0.7333
  719TMC3     O10684   1.124   0.015  12.120 -0.6299 -0.0344 -0.3280
  719TMC3     H10685   1.283   4.595  12.119 -1.4532  0.9613 -0.4501
  719TMC3    H110686   1.430   0.234  11.977 -0.7431  0.1734  0.3680
  719TMC3    H210687   1.648   0.002  12.263  1.1352  0.2729 -2.2895
  719TMC3    C710688   1.655   0.215  12.115 -0.6454 -0.2764  0.3507
  719TMC3    C810689   1.440   4.593  12.331  0.0278  0.2246  0.3853
  719TMC3    O110690   1.663   0.277  12.009 -0.3150 -0.4636  0.0120
  719TMC3    O210691   1.531   4.591  12.410  0.2978 -0.5424  0.0598
  720MPD2     C10692   0.186   1.666  13.931  0.4344 -0.1177 -0.7150
  720MPD2    C110693   0.244   1.776  13.872  0.3954 -0.2406 -0.0424
  720MPD2    C210694   0.334   1.848  13.947 -0.1434  0.5123  0.3626
  720MPD2    C310695   0.383   1.806  14.069  0.4552 -0.1527 -0.4454
  720MPD2    C410696   0.329   1.685  14.115  1.0169 -0.2064 -0.4858
  720MPD2    C510697   0.233   1.620  14.045 -0.5237  0.2096 -0.2373
  720MPD2     H10698   0.377   1.940  13.909 -1.7587  0.2390 -2.0806
  720MPD2    H110699   0.357   1.639  14.209 -2.2200 -0.6695  0.2267
  720MPD2    H210700   0.111   1.601  13.886  1.7716 -1.5336 -0.8912
  720MPD2    H310701   0.185   1.531  14.084 -1.9448  1.4359  0.8520
  720MPD2     N10702   0.497   1.872  14.123 -0.7216 -0.0981 -0.0848
  720MPD2    H510703   0.540   1.946  14.068 -1.7555 -0.8324 -1.8896
  720MPD2    N110704   0.193   1.847  13.759 -0.2139  0.1510 -0.1930
  720MPD2    H710705   0.249   1.923  13.720 -0.9392  1.8643  2.1326
  721TMC3    C110706   0.663   1.915  14.285 -0.0188 -0.4623  0.7635
  721TMC3    C210707   0.689   1.933  14.422  0.2574 -0.0138  0.0348
  721TMC3    C310708   0.810   1.985  14.447 -0.3098  0.1183  0.1002
  721TMC3    C410709   0.750   1.941  14.185  0.2235 -0.2157  0.3296
  721TMC3    C510710   0.873   1.978  14.217  0.0228  0.1989 -0.2442
  721TMC3    C610711   0.904   2.004  14.350 -0.1732 -0.2591 -0.1864
  721TMC3     C10712   0.541   1.852  14.253 -0.3677  0.3711  0.8035
  721TMC3     O10713   0.484   1.797  14.349 -0.0401  0.4985 -1.2115
  721TMC3     H10714   0.623   1.892  14.498  0.2689 -1.2241 -0.6112
  721TMC3    H110715   0.728   1.912  14.083 -1.2478 -1.1260  0.8965
  721TMC3    H210716   1.001   2.039  14.383 -2.1492  3.1057  2.0208
  721TMC3    C710717   0.966   2.029  14.120  0.6583 -0.2419 -0.3258
  721TMC3    C810718   0.859   2.011  14.581  0.5015 -0.5624  1.0084
  721TMC3    O110719   1.085   2.021  14.153 -0.3198 -0.4111 -0.0141
  721TMC3    O210720   0.978   2.016  14.608  0.2443  0.5636  0.1116
  722MPD2     C10721   3.671   0.526  13.360 -0.4138  0.1811  0.3008
  722MPD2    C110722   3.707   0.643  13.301  0.2910 -0.5336 -0.2337
  722MPD2    C210723   3.662   0.667  13.172  0.5486 -0.1183 -0.8571
  722MPD2    C310724   3.592   0.573  13.104  0.7001 -0.6456 -0.0241
  722MPD2    C410725   3.563   0.454  13.164 -0.2764  0.4068  0.2119
  722MPD2    C510726   3.596   0.434  13.293  0.6323 -0.3154 -0.3585
  722MPD2     H10727   3.688   0.763  13.130  0.5352  0.6318  0.8670
  722MPD2    H110728   3.510   0.378  13.107 -1.3230 -1.0595  3.1470
  722MPD2    H210729   3.712   0.510  13.459  0.1255  0.5247  0.1301
  722MPD2    H310730   3.576   0.343  13.348  0.5829 -1.3190 -2.0090
  722MPD2     N10731   3.543   0.596  12.969  0.3442  0.0821 -0.1476
  722MPD2    H510732   3.552   0.694  12.944 -0.9995  0.6709  1.6924
  722MPD2    N110733   3.778   0.749  13.371  0.1504 -0.3083 -0.0459
  722MPD2    H710734   3.799   0.836  13.324 -1.0504 -0.1938 -0.3716
  723TMC3    C110735   3.466   0.553  12.741  0.1358  0.6445  0.2518
  723TMC3    C210736   3.463   0.466  12.635  0.2231  1.1959  0.1510
  723TMC3    C310737   3.431   0.525  12.516  0.2743 -0.2807 -0.1943
  723TMC3    C410738   3.420   0.681  12.738  0.5938  0.0253 -0.2870
  723TMC3    C510739   3.374   0.726  12.615 -0.4099 -0.2175 -0.0480
  723TMC3    C610740   3.394   0.654  12.503  0.3125 -0.4990 -0.2425
  723TMC3     C10741   3.506   0.500  12.873 -0.0298  0.7833 -0.0410
  723TMC3     O10742   3.521   0.379  12.873 -1.1349  0.2326 -0.0905
  723TMC3     H10743   3.482   0.360  12.645 -1.0191  0.9310 -0.3476
  723TMC3    H110744   3.424   0.754  12.818 -0.2187 -0.7411  0.4357
  723TMC3    H210745   3.360   0.692  12.407  3.1323 -1.7947 -1.7364
  723TMC3    C710746   3.297   0.845  12.607 -0.2385 -0.2303  0.5945
  723TMC3    C810747   3.399   0.443  12.403 -0.8948  0.3538 -0.3854
  723TMC3    O110748   3.282   0.898  12.496  0.4955 -0.3800  0.1147
  723TMC3    O210749   3.398   0.500  12.297  0.4579 -0.3749 -0.4648
  724TMC3    C110750   3.659   3.612  10.612  0.4144 -0.0499  0.1388
  724TMC3    C210751   3.662   3.657  10.478  0.6205  0.1576  0.4576
  724TMC3    C310752   3.752   3.760  10.447  0.7162 -0.2780  0.6085
  724TMC3    C410753   3.741   3.666  10.705 -0.1029 -0.2567  0.0052
  724TMC3    C510754   3.833   3.749  10.666  0.0219 -0.1002 -0.4767
  724TMC3    C610755   3.845   3.806  10.540 -0.4553  0.3241 -1.2110
  724TMC3     C10756   3.578   3.501  10.656 -0.0168 -0.2845 -0.2718
  724TMC3     O10757   3.583   3.467  10.775 -0.0940 -0.1973 -0.0558
  724TMC3     H10758   3.594   3.632  10.398  1.2533 -0.0878 -0.0109
  724TMC3    H110759   3.746   3.622  10.804 -0.2815  0.1579  0.1969
  724TMC3    H210760   3.925   3.876  10.520 -0.0961  0.7484  1.6514
  724TMC3    C710761   3.922   3.814  10.766  0.3516  0.1404 -0.4331
  724TMC3    C810762   3.734   3.822  10.311 -0.0134  0.3466  0.6271
  724TMC3    O110763   4.032   3.854  10.727  0.3135  0.2161  0.1114
  724TMC3    O210764   3.681   3.753  10.226 -0.2861 -0.4145  0.5727
  725TMC3    C110765   1.020   2.261  12.710  1.1842  0.3782 -0.5761
  725TMC3    C210766   0.891   2.262  12.660  0.1315 -0.1908  0.6139
  725TMC3    C310767   0.838   2.140  12.628  0.3396  0.1337  0.2367
  725TMC3    C410768   1.098   2.142  12.718 -0.5771  0.0258  0.1312
  725TMC3    C510769   1.034   2.027  12.678  0.0963  0.1578 -0.2382
  725TMC3    C610770   0.905   2.017  12.633 -0.8640 -0.0854 -0.6558
  725TMC3     C10771   1.070   2.392  12.774  1.0788 -0.5940 -0.0851
  725TMC3     O10772   1.008   2.493  12.772 -0.0841  0.1323  0.0379
  725TMC3     H10773   0.829   2.349  12.679  2.1984  1.2793  0.6144
  725TMC3    H110774   1.198   2.145  12.761 -0.9028 -3.8903  1.1034
  725TMC3    H210775   0.860   1.923  12.604 -0.4489 -0.9196  1.3820
  725TMC3    C710776   1.106   1.904  12.690  0.3474 -0.2198  0.6083
  725TMC3    C810777   0.699   2.145  12.586  0.1357  0.5620 -0.8970
  725TMC3    O110778   1.182   1.889  12.784 -0.3118 -0.4295  0.0716
  725TMC3    O210779   0.619   2.063  12.634 -0.6511  0.0749 -0.1354
  726MPD2     C10780   2.960   4.156  10.481 -0.1644  0.4661  0.4341
  726MPD2    C110781   2.876   4.228  10.394  0.0442 -0.5794 -0.0141
  726MPD2    C210782   2.746   4.189  10.376  0.1727 -0.1854  0.1791
  726MPD2    C310783   2.698   4.076  10.445  0.6011  0.0322 -0.3545
  726MPD2    C410784   2.785   4.003  10.523  0.2366  1.3574 -0.1340
  726MPD2    C510785   2.914   4.041  10.536 -0.2083 -0.0860  0.2584
  726MPD2     H10786   2.676   4.251  10.322 -0.1860 -0.0821  0.7704
  726MPD2    H110787   2.758   3.908  10.566  0.1362  1.3249 -0.2687
  726MPD2    H210788   3.064   4.181  10.495 -0.0925  0.8578 -0.7940
  726MPD2    H310789   2.988   3.984  10.592 -1.4765 -0.9612  1.0226
  726MPD2     N10790   2.564   4.032  10.430  0.3647 -0.3974  1.0717
  726MPD2    H510791   2.523   3.960  10.489 -3.3201 -1.0427 -2.2879
  726MPD2    N110792   2.924   4.343  10.316 -0.2730 -0.4554  0.1210
  726MPD2    H710793   2.848   4.388  10.266 -0.6319 -0.3150  0.7983
  727TMC3    C110794   3.053   4.532  10.263  0.3953  0.0105 -0.0201
  727TMC3    C210795   3.139   4.624  10.328  0.7624 -0.2734  0.6614
  727TMC3    C310796   3.116   0.020  10.300 -0.4785  0.6586 -0.2825
  727TMC3    C410797   2.938   4.575  10.190  0.4365 -0.3484 -0.3335
  727TMC3    C510798   2.926   4.710  10.176 -0.0583 -0.3732 -0.0110
  727TMC3    C610799   3.013   0.063  10.229  0.5570  0.6781 -0.0646
  727TMC3     C10800   3.049   4.399  10.322  0.8390  0.5137  0.5288
  727TMC3     O10801   3.150   4.360  10.376 -0.1160 -0.0061 -0.3797
  727TMC3     H10802   3.218   4.583  10.390  0.6354 -1.9700 -0.3182
  727TMC3    H110803   2.880   4.510  10.125 -1.6422  1.2050 -0.0580
  727TMC3    H210804   3.012   0.170  10.213 -0.7335  0.9894  2.0793
  727TMC3    C710805   2.795   0.021  10.142 -0.8242  0.2449  0.0565
  727TMC3    C810806   3.238   0.102  10.319  0.0588  0.0297  0.2868
  727TMC3    O110807   2.709   4.681  10.102  1.1074 -0.1079 -0.1896
  727TMC3    O210808   3.333   0.023  10.334 -0.4016 -0.3899  0.4063
  728TMC3    C110809   2.650   2.633  15.541  0.3165  1.0482  0.6165
  728TMC3    C210810   2.779   2.667  15.573 -0.1839 -0.1133 -0.0545
  728TMC3    C310811   2.864   2.672  15.467 -0.2094  0.1150  0.0578
  728TMC3    C410812   2.599   2.626  15.413 -0.0818 -0.1899  0.0155
  728TMC3    C510813   2.685   2.639  15.309  0.2038  0.0539  0.1209
  728TMC3    C610814   2.816   2.664  15.340  0.5006 -0.0938 -0.4975
  728TMC3     C10815   2.566   2.628  15.658  0.0103  0.3290  0.0538
  728TMC3     O10816   2.625   2.652  15.763 -0.3944  0.0398 -0.5459
  728TMC3     H10817   2.823   2.667  15.672  2.1510  0.2714 -1.0843
  728TMC3    H110818   2.498   2.590  15.395 -1.0657  1.9277  1.4077
  728TMC3    H210819   2.884   2.664  15.256 -0.3299 -0.7369 -1.1795
  728TMC3    C710820   2.636   2.620  15.177  0.0075  0.1884  0.4666
  728TMC3    C810821   3.001   2.699  15.495 -0.0418  0.3833 -0.4181
  728TMC3    O110822   2.527   2.565  15.163 -0.2638  0.4377  0.2318
  728TMC3    O210823   3.028   2.776  15.585  0.0788  0.1140 -0.5394
  729MPD2     C10824   0.022   4.213  17.076 -0.1354  0.0182  0.9746
  729MPD2    C110825   0.038   4.085  17.123 -0.5584  0.1847  0.6240
  729MPD2    C210826   0.055   4.067  17.257 -0.4313 -0.1550  0.2074
  729MPD2    C310827   0.076   4.179  17.339 -0.5020 -0.6367  0.0914
  729MPD2    C410828   0.083   4.308  17.290 -0.6480  0.9253 -0.4206
  729MPD2    C510829   0.049   4.318  17.157  0.0719 -1.0385  0.0433
  729MPD2     H10830   0.068   3.966  17.295  0.8523 -0.0817 -0.0395
  729MPD2    H110831   0.114   4.392  17.351  0.5559 -0.1027  0.3778
  729MPD2    H210832   0.021   4.229  16.969  1.2220 -0.7132  0.8513
  729MPD2    H310833   0.030   4.415  17.112 -1.4919 -1.5177 -0.3475
  729MPD2     N10834   0.116   4.161  17.474 -0.6251  0.0626 -0.3688
  729MPD2    H510835   0.143   4.249  17.518  0.0213  0.2486 -1.1352
  729MPD2    N110836   0.036   3.975  17.030 -0.4120 -0.0583 -0.7493
  729MPD2    H710837   4.735   3.992  16.937 -0.2268  1.1976 -0.6026
  730TMC3    C110838   0.260   4.056  17.627 -0.7710  0.3350  0.1964
  730TMC3    C210839   0.361   3.968  17.597 -0.3020  0.1795 -0.3931
  730TMC3    C310840   0.489   4.009  17.588 -0.0350  0.7485 -0.3552
  730TMC3    C410841   0.292   4.186  17.667 -0.2091 -0.5870 -0.5149
  730TMC3    C510842   0.423   4.225  17.649 -0.2587  0.8040  0.9048
  730TMC3    C610843   0.523   4.137  17.615  0.1517  0.5300 -0.5242
  730TMC3     C10844   0.146   4.039  17.539  0.5621  0.6245  0.0422
  730TMC3     O10845   0.095   3.936  17.520  0.9350  0.3639  0.0213
  730TMC3     H10846   0.317   3.883  17.546 -1.0902 -0.0089  0.5820
  730TMC3    H110847   0.219   4.266  17.664 -0.9540 -1.2364  0.0093
  730TMC3    H210848   0.617   4.189  17.602  0.2167  0.9353  1.5033
  730TMC3    C710849   0.437   4.323  17.542 -0.6520  0.7648  0.0483
  730TMC3    C810850   0.567   3.938  17.483 -0.1201  0.3827 -0.5589
  730TMC3    O110851   0.475   4.284  17.435 -0.5893 -0.2536 -0.8346
  730TMC3    O210852   0.550   3.817  17.488 -0.3770 -0.3685 -0.5167
  731MPD2     C10853   0.214   2.369  11.934  0.3713 -0.5730 -0.0819
  731MPD2    C110854   0.144   2.252  11.945  0.3783 -0.3438 -0.0051
  731MPD2    C210855   0.064   2.228  12.059  0.6550  0.4169  0.7475
  731MPD2    C310856   0.062   2.328  12.156 -0.2009 -0.3025  0.0063
  731MPD2    C410857   0.130   2.452  12.136 -0.5511 -0.2135  0.1840
  731MPD2    C510858   0.205   2.470  12.024 -0.6171  0.3812  0.7086
  731MPD2     H10859   0.001   2.141  12.077  0.4850 -0.2326 -3.0691
  731MPD2    H110860   0.126   2.542  12.196 -2.5982  0.2139 -0.5947
  731MPD2    H210861   0.281   2.384  11.850 -0.0318 -0.9919 -0.4725
  731MPD2    H310862   0.250   2.568  12.012 -2.2296  0.9550 -0.6839
  731MPD2     N10863   0.003   2.298  12.283  0.1073 -0.7780 -0.1904
  731MPD2    H510864   4.714   2.201  12.298  1.1166 -1.2627 -1.6288
  731MPD2    N110865   0.166   2.160  11.840 -0.7174 -0.2555  0.6191
  731MPD2    H710866   0.238   2.187  11.773 -0.1213 -1.9848  0.5798
  732TMC3    C110867   0.196   1.947  11.748  0.2149 -0.2554  0.4587
  732TMC3    C210868   0.152   1.817  11.745 -0.3670 -0.4718  0.2727
  732TMC3    C310869   0.230   1.738  11.660  0.0163  0.0749 -0.6413
  732TMC3    C410870   0.295   2.002  11.672 -0.9164 -0.3860  0.7522
  732TMC3    C510871   0.367   1.921  11.596 -0.1488  0.6728  0.0171
  732TMC3    C610872   0.341   1.786  11.594 -0.2623 -0.8327 -0.3054
  732TMC3     C10873   0.119   2.029  11.843 -0.0150  0.1283  0.6461
  732TMC3     O10874   0.042   1.972  11.920 -0.4527  0.3243  0.7552
  732TMC3     H10875   0.065   1.789  11.803 -1.6053 -1.6257 -2.1490
  732TMC3    H110876   0.311   2.108  11.658 -0.9222 -0.5227 -0.3281
  732TMC3    H210877   0.410   1.719  11.544 -1.2582 -1.7890 -0.4004
  732TMC3    C710878   0.492   1.982  11.547  0.1561  0.1624 -0.3081
  732TMC3    C810879   0.172   1.609  11.621  0.2000  0.8462 -0.5164
  732TMC3    O110880   0.492   2.103  11.530  0.0377 -0.1329  0.4536
  732TMC3    O210881   0.219   1.549  11.522  0.5331 -0.5475 -0.2111
  733TMC3    C110882   0.546   0.211  12.678 -0.3523 -0.2735  0.6345
  733TMC3    C210883   0.554   0.268  12.552 -0.2531  0.4155 -0.6857
  733TMC3    C310884   0.677   0.283  12.499  0.2746  0.7133 -0.3143
  733TMC3    C410885   0.655   0.157  12.750  0.2803 -0.0436 -0.3140
  733TMC3    C510886   0.775   0.164  12.680  0.2120  0.1901 -0.3774
  733TMC3    C610887   0.791   0.221  12.562  0.1126 -0.2922 -0.8130
  733TMC3     C10888   0.412   0.175  12.731 -0.3548 -0.1813 -0.4709
  733TMC3     O10889   0.326   0.169  12.650 -0.4620  0.1882 -0.2416
  733TMC3     H10890   0.461   0.309  12.512 -0.3419 -0.6792 -1.5796
  733TMC3    H110891   0.643   0.094  12.838  0.0113  0.2159 -0.1678
  733TMC3    H210892   0.893   0.229  12.526 -0.5677  1.3676 -2.4096
  733TMC3    C710893   0.882   0.076  12.722 -0.0933 -0.1717  0.0738
  733TMC3    C810894   0.691   0.340  12.366 -0.5910 -0.4348 -0.0174
  733TMC3    O110895   0.896   0.061  12.845  0.8885  0.0126 -0.2131
  733TMC3    O210896   0.615   0.426  12.324  0.8736  0.5716  0.6521
  734MPD2     C10897   2.620   2.125  12.192 -0.0678 -0.5178 -0.1308
  734MPD2    C110898   2.554   2.071  12.084 -0.1730  0.3709  0.0999
  734MPD2    C210899   2.564   2.140  11.963 -0.1379 -0.9841 -0.1985
  734MPD2    C310900   2.658   2.232  11.936 -0.4767 -0.0018  0.3042
  734MPD2    C410901   2.736   2.275  12.041  0.0981  0.2406 -0.9544
  734MPD2    C510902   2.713   2.225  12.168  0.5429  0.2366  0.3745
  734MPD2     H10903   2.507   2.105  11.877 -2.4553  1.8638  0.1516
  734MPD2    H110904   2.823   2.338  12.026  0.0009  1.1638  2.4231
  734MPD2    H210905   2.610   2.081  12.290 -0.3787 -1.0133 -0.3839
  734MPD2    H310906   2.778   2.251  12.249  1.4476 -1.9991  0.3740
  734MPD2     N10907   2.656   2.291  11.807 -0.2631 -0.7749  0.7990
  734MPD2    H510908   2.594   2.254  11.735  1.7743  1.0241 -1.8692
  734MPD2    N110909   2.472   1.957  12.102 -0.3689 -0.2417 -0.1162
  734MPD2    H710910   2.462   1.922  12.197 -1.3416  1.2616  0.3518
  735TMC3    C110911   2.371   1.754  12.031 -0.2858 -0.9055  0.1263
  735TMC3    C210912   2.294   1.712  11.930 -0.3827  0.2118 -0.0222
  735TMC3    C310913   2.321   1.599  11.860 -0.4867  0.6955  0.2022
  735TMC3    C410914   2.465   1.673  12.083  0.0058  0.5285  0.6498
  735TMC3    C510915   2.500   1.564  12.013  0.2420  0.9060  0.4912
  735TMC3    C610916   2.431   1.531  11.896  0.7754 -0.2760 -0.2597
  735TMC3     C10917   2.404   1.893  11.998 -0.2186 -0.3991 -0.0587
  735TMC3     O10918   2.382   1.921  11.879 -0.7177 -0.2844  0.6288
  735TMC3     H10919   2.215   1.775  11.891 -0.3744  0.9685  1.1993
  735TMC3    H110920   2.520   1.708  12.169 -0.3896 -0.9516  1.5019
  735TMC3    H210921   2.464   1.446  11.838  3.0482  0.6442 -0.3232
  735TMC3    C710922   2.638   1.515  12.033  0.2828 -0.3539 -0.1596
  735TMC3    C810923   2.314   1.613  11.714  0.0222  0.1069 -0.3148
  735TMC3    O110924   2.699   1.590  12.107  0.0245 -0.5781 -0.0833
  735TMC3    O210925   2.300   1.510  11.649  0.5091  0.3238 -0.5896
  736MPD2     C10926   2.796   1.197  11.900 -0.5495 -0.9323  0.3614
  736MPD2    C110927   2.787   1.321  11.968 -0.2185 -0.3388 -0.5721
  736MPD2    C210928   2.906   1.372  12.022  0.0242  0.0674 -0.1902
  736MPD2    C310929   3.024   1.312  12.022  0.1628 -0.5724 -0.3581
  736MPD2    C410930   3.032   1.187  11.962  0.8748 -0.3642 -0.1377
  736MPD2    C510931   2.924   1.139  11.901  0.3877  0.4315 -0.1547
  736MPD2     H10932   2.909   1.475  12.055 -0.8257  0.4488 -1.2743
  736MPD2    H110933   3.123   1.131  11.950 -0.2675 -2.0723 -0.7859
  736MPD2    H210934   2.711   1.149  11.852 -0.2449  0.2885 -1.4025
  736MPD2    H310935   2.940   1.044  11.850  1.0894  1.1628 -1.2981
  736MPD2     N10936   3.145   1.368  12.077  0.7413  0.3471  0.4699
  736MPD2    H510937   3.229   1.312  12.069  0.2107 -0.2762 -0.6447
  736MPD2    N110938   2.668   1.395  11.971 -0.4085 -0.0079  0.3428
  736MPD2    H710939   2.588   1.351  11.927 -0.2417 -1.4378  1.4586
  737TMC3    C110940   3.299   1.541  12.135 -0.0303  0.1298 -0.0671
  737TMC3    C210941   3.321   1.675  12.157 -0.0075 -0.3414 -0.8085
  737TMC3    C310942   3.442   1.726  12.118  0.1173  0.7867  0.3256
  737TMC3    C410943   3.401   1.463  12.088  0.4030 -0.7679 -0.1112
  737TMC3    C510944   3.522   1.516  12.064 -0.1930 -0.6594  0.0981
  737TMC3    C610945   3.547   1.651  12.074  0.4956 -0.4770  0.1996
  737TMC3     C10946   3.158   1.496  12.122 -0.0380  0.4852 -0.4047
  737TMC3     O10947   3.074   1.569  12.172 -0.1523 -0.7926 -0.5844
  737TMC3     H10948   3.242   1.732  12.205  0.9292 -0.5530  0.9926
  737TMC3    H110949   3.393   1.359  12.060 -2.3254 -0.5866  0.0292
  737TMC3    H210950   3.644   1.697  12.059  1.0730 -1.7152  0.1091
  737TMC3    C710951   3.632   1.424  12.032 -1.2779 -0.4664  0.5089
  737TMC3    C810952   3.450   1.869  12.095 -0.3430 -0.6902  0.9040
  737TMC3    O110953   3.622   1.311  12.069 -0.2303  0.3710 -0.2162
  737TMC3    O210954   3.380   1.928  12.178  0.0360 -0.1603  0.7362
  738MPD2     C10955   3.684   1.270  15.036 -0.4549 -0.3354  0.5550
  738MPD2    C110956   3.720   1.144  15.073 -0.2444  0.5614  0.1250
  738MPD2    C210957   3.841   1.134  15.135  0.7511 -0.9152 -0.4360
  738MPD2    C310958   3.929   1.237  15.149  0.3334  0.6463  0.1003
  738MPD2    C410959   3.902   1.361  15.091  0.3510  0.0185  1.3556
  738MPD2    C510960   3.777   1.374  15.044  0.2628 -0.2622  0.1551
  738MPD2     H10961   3.870   1.039  15.177  0.4109 -0.3437  1.0985
  738MPD2    H110962   3.980   1.435  15.082  0.9211 -0.8911 -1.1679
  738MPD2    H210963   3.597   1.292  14.976 -1.3320 -0.1564  1.9055
  738MPD2    H310964   3.769   1.467  14.988 -0.8480 -0.1552  0.4856
  738MPD2     N10965   4.055   1.228  15.199 -0.0835 -0.1392 -0.5123
  738MPD2    H510966   4.119   1.306  15.187 -0.5174  0.0297 -1.6913
  738MPD2    N110967   3.649   1.028  15.041 -0.6106 -0.1618  0.7808
  738MPD2    H710968   3.701   0.942  15.050 -0.9833 -0.3861  0.7593
  739TMC3    C110969   4.255   1.126  15.224  0.1694 -0.3630  0.6779
  739TMC3    C210970   4.297   1.196  15.114  0.9355  0.3227  0.1311
  739TMC3    C310971   4.412   1.151  15.056 -0.4422  0.5721  0.3788
  739TMC3    C410972   4.339   1.032  15.282 -0.0319  0.5648 -0.3890
  739TMC3    C510973   4.451   0.986  15.215 -0.3385 -0.1166  0.4768
  739TMC3    C610974   4.496   1.059  15.105  0.0024 -0.3831  0.4858
  739TMC3     C10975   4.112   1.124  15.260 -0.3669 -0.0669  1.0054
  739TMC3     O10976   4.057   1.024  15.309  0.0478  0.4046  0.8219
  739TMC3     H10977   4.234   1.261  15.054  0.3540  1.4004  1.9292
  739TMC3    H110978   4.308   0.999  15.381 -1.2514  0.1742 -0.8997
  739TMC3    H210979   4.580   1.025  15.046  0.8097 -0.0906  1.4682
  739TMC3    C710980   4.552   0.908  15.288  0.2720  0.1193  0.4822
  739TMC3    C810981   4.421   1.172  14.909 -0.8180 -0.6782 -0.1880
  739TMC3    O110982   4.524   0.890  15.407 -0.6893  0.0796  0.3934
  739TMC3    O210983   4.321   1.227  14.857 -0.2634 -0.5495  0.6579
  740TMC3    C110984   0.098   2.319  14.515 -0.5765 -0.0475 -0.2628
  740TMC3    C210985   0.160   2.234  14.606  0.2735  0.4157 -0.2417
  740TMC3    C310986   0.280   2.177  14.568  0.8053 -0.7167 -0.3935
  740TMC3    C410987   0.152   2.334  14.391  0.0154 -0.2502 -0.6610
  740TMC3    C510988   0.278   2.289  14.360 -0.6819 -0.2698  0.7981
  740TMC3    C610989   0.342   2.209  14.451  0.2485 -0.5321 -0.2026
  740TMC3     C10990   4.730   2.409  14.555 -0.3093  0.0571 -0.3054
  740TMC3     O10991   4.697   2.495  14.471 -0.0420  0.2940  0.0929
  740TMC3     H10992   0.143   2.231  14.713 -0.0877  1.6323 -0.2620
  740TMC3    H110993   0.103   2.392  14.314 -0.6729  0.3911  0.2597
  740TMC3    H210994   0.435   2.160  14.428  0.5606 -0.1085  0.1537
  740TMC3    C710995   0.320   2.261  14.228 -0.4000  0.7567  0.0517
  740TMC3    C810996   0.348   2.086  14.660 -0.3055 -0.0799  0.9860
  740TMC3    O110997   0.419   2.190  14.213  0.9548  0.2456 -0.2594
  740TMC3    O210998   0.461   2.043  14.624  0.1048 -0.2849 -0.2363
  741TMC3    C110999   4.312   1.764  14.341 -0.4747  0.2460  0.1623
  741TMC3    C211000   4.198   1.702  14.301  0.2747  0.1377  0.4987
  741TMC3    C311001   4.139   1.614  14.390 -0.6507 -0.5190 -0.3743
  741TMC3    C411002   4.387   1.724  14.451  0.0298  0.4225  0.5190
  741TMC3    C511003   4.323   1.637  14.532  0.0590  0.8654  0.4545
  741TMC3    C611004   4.201   1.581  14.509 -0.3457 -0.2672  0.0480
  741TMC3     C11005   4.384   1.826  14.230 -0.3411 -0.7148  0.0652
  741TMC3     O11006   4.502   1.798  14.212 -0.4285  0.5224 -0.1264
  741TMC3     H11007   4.154   1.727  14.205 -0.3827 -1.5089  0.3604
  741TMC3    H111008   4.481   1.774  14.473  0.4007 -0.0790  0.0759
  741TMC3    H211009   4.169   1.506  14.581  0.8822 -2.0305 -1.2317
  741TMC3    C711010   4.386   1.607  14.652  0.2664 -0.3197 -0.1678
  741TMC3    C811011   4.024   1.541  14.348 -0.0068  0.0380 -0.1014
  741TMC3    O111012   4.303   1.569  14.735 -0.0029 -0.5735 -0.1742
  741TMC3    O211013   3.979   1.578  14.241  0.4151  0.5813 -0.0197
  742TMC3    C111014   3.763   0.037  15.434 -1.2516  0.3009  0.0237
  742TMC3    C211015   3.682   0.053  15.327 -0.2005  0.5547 -0.4501
  742TMC3    C311016   3.740   0.084  15.200  0.1524 -0.4218 -0.7633
  742TMC3    C411017   3.900   0.050  15.428 -0.1550 -0.0033  0.5402
  742TMC3    C511018   3.950   0.084  15.304  0.2633 -0.0183  1.2026
  742TMC3    C611019   3.877   0.082  15.189  0.0616 -0.3844  0.3250
  742TMC3     C11020   3.705   0.041  15.564  0.1151 -0.1165  0.4539
  742TMC3     O11021   3.775   0.013  15.662  1.3784  0.2183  0.3905
  742TMC3     H11022   3.581   0.014  15.328 -0.0787  0.2940  1.9095
  742TMC3    H111023   3.958   0.040  15.519 -1.3238 -2.2681  1.0410
  742TMC3    H211024   3.933   0.108  15.100 -2.2093 -0.6206 -1.1680
  742TMC3    C711025   4.087   0.138  15.302 -0.1044  0.6521  1.0392
  742TMC3    C811026   3.666   0.045  15.084 -0.7030  0.5464 -0.0331
  742TMC3    O111027   4.152   0.124  15.194  0.2947  0.4396  0.0183
  742TMC3    O211028   3.730   0.054  14.982 -0.1102  0.0177  0.2256
  743MPD2     C11029   2.322   2.175   1.843  0.0869  0.4675 -0.2410
  743MPD2    C111030   2.296   2.082   1.751  0.0035 -0.3886 -0.4973
  743MPD2    C211031   2.402   2.005   1.701  0.8105 -0.4851  0.2262
  743MPD2    C311032   2.537   2.027   1.747  0.9114 -0.3932 -0.3914
  743MPD2    C411033   2.554   2.121   1.846 -0.0485 -0.1454 -0.6396
  743MPD2    C511034   2.443   2.197   1.895  0.5945  0.1659  0.5614
  743MPD2     H11035   2.388   1.930   1.625 -0.4070 -0.1175  0.0868
  743MPD2    H111036   2.651   2.155   1.880 -0.3156  2.8855 -2.8286
  743MPD2    H211037   2.241   2.238   1.879 -0.7738 -0.2532 -0.9306
  743MPD2    H311038   2.453   2.276   1.969  0.0738  0.3387  0.4493
  743MPD2     N11039   2.647   1.964   1.688  0.5403  0.3766 -0.1587
  743MPD2    H511040   2.641   1.912   1.601 -0.6309 -0.4968  0.4294
  743MPD2    N111041   2.169   2.072   1.698  0.3522 -0.0952 -0.9243
  743MPD2    H711042   2.113   2.150   1.730  0.2176  0.4259 -2.4024
  744TMC3    C111043   1.985   2.003   1.564  0.1590 -0.0730 -0.5938
  744TMC3    C211044   1.963   2.133   1.529 -0.1847  0.0344  0.7102
  744TMC3    C311045   1.855   2.165   1.459 -0.5283  0.4251 -0.3390
  744TMC3    C411046   1.905   1.906   1.512  0.0534 -0.0603  0.3029
  744TMC3    C511047   1.794   1.940   1.432 -0.1667  0.2457 -0.0324
  744TMC3    C611048   1.764   2.069   1.407 -0.5041 -0.3171  0.5207
  744TMC3     C11049   2.114   1.969   1.616 -0.6344 -0.3329  0.3864
  744TMC3     O11050   2.165   1.871   1.572  0.2791  0.4771  0.2306
  744TMC3     H11051   2.028   2.209   1.572 -1.9606  2.5235 -0.9703
  744TMC3    H111052   1.931   1.804   1.538 -2.4413 -0.7195  0.2756
  744TMC3    H211053   1.683   2.099   1.342  1.1003 -1.8551 -2.1740
  744TMC3    C711054   1.716   1.838   1.379 -0.0993  0.3373 -0.0204
  744TMC3    C811055   1.829   2.296   1.411 -0.0240  0.4493  0.1963
  744TMC3    O111056   1.607   1.881   1.334 -0.0993 -0.7015  0.6854
  744TMC3    O211057   1.741   2.307   1.323 -0.1539  0.5817  0.4988
  745TMC3    C111058   4.359   4.304  13.969 -0.1064 -0.0479  0.1235
  745TMC3    C211059   4.235   4.359  13.980 -0.7412 -0.1307  0.1011
  745TMC3    C311060   4.148   4.354  13.874  1.4849  0.1567 -0.0759
  745TMC3    C411061   4.390   4.227  13.857 -0.1331  0.0699 -0.3260
  745TMC3    C511062   4.291   4.221  13.759  0.2484  0.1073  0.3454
  745TMC3    C611063   4.169   4.286  13.762  0.1492  0.4870  0.2487
  745TMC3     C11064   4.459   4.403  13.998 -0.1444  0.4115  0.6073
  745TMC3     O11065   4.424   4.523  13.999  0.4508 -0.5222 -0.0945
  745TMC3     H11066   4.211   4.409  14.073  4.0643  0.3599  1.0932
  745TMC3    H111067   4.489   4.188  13.834  0.9498  1.6598  1.6353
  745TMC3    H211068   4.094   4.270  13.686  0.9398  1.2200 -0.6765
  745TMC3    C711069   4.325   4.128  13.646 -0.0390  0.6181 -0.1970
  745TMC3    C811070   4.076   4.480  13.855  0.6414 -0.8578  0.2975
  745TMC3    O111071   4.362   4.010  13.659  0.4031 -0.7037  0.8695
  745TMC3    O211072   3.999   4.477  13.760 -0.3174  0.8839 -0.1744
  746TMC3    C111073   2.285   1.633  10.695  0.6180  0.1185 -0.4360
  746TMC3    C211074   2.297   1.541  10.601  0.5496  0.4327 -0.4108
  746TMC3    C311075   2.201   1.448  10.594  0.6695 -0.1662  0.1218
  746TMC3    C411076   2.187   1.627  10.791 -0.2983 -0.5244 -0.1753
  746TMC3    C511077   2.114   1.517  10.796 -0.4134  0.6442  0.1267
  746TMC3    C611078   2.113   1.424  10.694 -0.8051  0.5262  0.1022
  746TMC3     C11079   2.280   1.761  10.635 -0.4141 -0.1253  0.3407
  746TMC3     O11080   2.239   1.774  10.521  0.0060 -0.3985  0.1156
  746TMC3     H11081   2.363   1.555  10.516 -0.0145 -0.2427 -0.9603
  746TMC3    H111082   2.160   1.714  10.850 -0.3513  0.3454 -1.4678
  746TMC3    H211083   2.041   1.344  10.687 -1.3608  1.0045  0.3845
  746TMC3    C711084   1.982   1.540  10.851 -0.3972  0.5109  0.5139
  746TMC3    C811085   2.129   1.435  10.469  0.1397 -0.4872  0.6261
  746TMC3    O111086   1.932   1.653  10.845  0.5437  0.0686 -0.3032
  746TMC3    O211087   2.047   1.349  10.462 -0.0415  0.2233  0.0975
  747TMC3    C111088   4.327   1.673  11.340  0.2133  1.1475  0.1964
  747TMC3    C211089   4.332   1.575  11.435  0.6744 -0.0605  0.6962
  747TMC3    C311090   4.270   1.591  11.559  0.5470 -0.3406 -0.2684
  747TMC3    C411091   4.244   1.780  11.354  0.0804  0.5596  0.6632
  747TMC3    C511092   4.197   1.797  11.481  0.2296 -0.3638 -0.2696
  747TMC3    C611093   4.195   1.709  11.584 -0.4389 -0.9970 -0.4545
  747TMC3     C11094   4.381   1.639  11.210  0.6446 -0.0008 -0.1287
  747TMC3     O11095   4.387   1.525  11.175 -0.4142 -0.6622 -0.2043
  747TMC3     H11096   4.398   1.492  11.413 -1.2051 -0.6514 -2.6609
  747TMC3    H111097   4.238   1.859  11.280 -0.9088 -0.4125 -0.2794
  747TMC3    H211098   4.148   1.736  11.678  0.9996 -0.1863  0.0260
  747TMC3    C711099   4.124   1.921  11.505 -1.0645 -0.5271  0.0396
  747TMC3    C811100   4.224   1.467  11.619 -0.0113  0.0066  0.0076
  747TMC3    O111101   4.010   1.912  11.543  0.8178  0.0677 -0.0501
  747TMC3    O211102   4.258   1.361  11.574  0.0934  0.0137 -0.3925
  748MPD2     C11103   1.663   2.172   1.750 -0.4314 -0.5369 -0.2208
  748MPD2    C111104   1.771   2.212   1.823 -0.1851  0.5892  0.3079
  748MPD2    C211105   1.818   2.343   1.813 -0.3034 -0.3470  0.0395
  748MPD2    C311106   1.742   2.441   1.748  0.5220  0.2714  0.9248
  748MPD2    C411107   1.629   2.401   1.675  1.0219  0.4936  0.5965
  748MPD2    C511108   1.597   2.268   1.677 -0.3899  0.0382 -1.0859
  748MPD2     H11109   1.911   2.375   1.859 -1.3481  1.6217  0.7959
  748MPD2    H111110   1.557   2.464   1.625  2.2213  1.5782  0.2176
  748MPD2    H211111   1.619   2.073   1.752 -2.8876  0.5697 -0.1691
  748MPD2    H311112   1.509   2.234   1.624 -0.9444 -1.1646  0.5880
  748MPD2     N11113   1.792   2.574   1.755 -0.2702  0.4359 -0.4120
  748MPD2    H511114   1.875   2.579   1.813  0.6708 -0.5744 -1.6531
  748MPD2    N111115   1.827   2.110   1.895 -0.1031  0.8020  0.4058
  748MPD2    H711116   1.783   2.018   1.893 -0.7205  1.0532  2.5475
  749TMC3    C111117   1.821   2.810   1.696 -1.2447  0.5282  0.6783
  749TMC3    C211118   1.943   2.810   1.753  0.2393 -0.4132  0.2062
  749TMC3    C311119   2.014   2.928   1.756  0.5236 -0.5117  0.2562
  749TMC3    C411120   1.774   2.922   1.627  0.1682 -0.1015 -0.1345
  749TMC3    C511121   1.866   3.029   1.616  0.3344  0.1343  0.2458
  749TMC3    C611122   1.977   3.039   1.687 -0.1942 -0.4103  0.3353
  749TMC3     C11123   1.744   2.685   1.691  1.1653  0.1773  0.3230
  749TMC3     O11124   1.640   2.701   1.624  0.4108 -0.0537 -0.5892
  749TMC3     H11125   1.975   2.728   1.817  0.0386 -1.2606 -0.7808
  749TMC3    H111126   1.674   2.923   1.584 -0.9296 -1.3532  2.3828
  749TMC3    H211127   2.043   3.125   1.688 -0.7303 -0.0191  2.0862
  749TMC3    C711128   1.849   3.127   1.505  0.2511  0.8913 -0.1240
  749TMC3    C811129   2.156   2.926   1.807  0.3008 -0.3006 -0.6905
  749TMC3    O111130   1.944   3.202   1.482 -0.4687 -0.7704 -0.0481
  749TMC3    O211131   2.203   3.028   1.855 -0.2067 -0.1390  0.6058
  750MPD2     C11132   1.643   3.746  11.421  0.4295 -0.0533 -0.0330
  750MPD2    C111133   1.625   3.654  11.515 -0.0125 -0.2184 -0.2650
  750MPD2    C211134   1.611   3.522  11.470  0.1608 -0.4722 -0.6417
  750MPD2    C311135   1.632   3.474  11.339 -0.9817  0.4237 -0.1938
  750MPD2    C411136   1.636   3.571  11.246 -0.3131 -0.5982  0.0993
  750MPD2    C511137   1.642   3.707  11.290  0.3611  0.1511  0.4341
  750MPD2     H11138   1.578   3.442  11.536 -1.7807 -1.4001 -2.7370
  750MPD2    H111139   1.630   3.551  11.139 -0.0990 -0.3557  0.0416
  750MPD2    H211140   1.662   3.850  11.444  3.2505 -0.4453 -0.5563
  750MPD2    H311141   1.635   3.773  11.204  0.6771  0.3986  0.5980
  750MPD2     N11142   1.642   3.337  11.307 -0.0766  0.5880  0.4066
  750MPD2    H511143   1.662   3.312  11.210  0.9965  0.0941  0.7516
  750MPD2    N111144   1.594   3.694  11.645  0.1833  0.0317  0.5637
  750MPD2    H711145   1.604   3.792  11.669 -2.8080  0.2720  0.7536
  751TMC3    C111146   1.661   3.100  11.331 -0.1772  0.5805  0.4338
  751TMC3    C211147   1.603   2.991  11.388 -0.1326  0.0107 -0.6013
  751TMC3    C311148   1.602   2.872  11.323 -0.0135  0.5310 -0.4288
  751TMC3    C411149   1.735   3.088  11.216 -0.2849  0.3342 -0.4960
  751TMC3    C511150   1.723   2.964  11.153 -0.0772  0.3490  0.8080
  751TMC3    C611151   1.650   2.858  11.199 -0.1642 -0.5777 -0.0894
  751TMC3     C11152   1.640   3.227  11.397 -0.4953 -0.1877 -0.2258
  751TMC3     O11153   1.595   3.215  11.507  0.3317 -0.4284 -0.2657
  751TMC3     H11154   1.567   2.994  11.490  1.1861 -1.1083 -0.1012
  751TMC3    H111155   1.813   3.157  11.186  1.1173 -0.8600  0.3865
  751TMC3    H211156   1.658   2.759  11.156  0.0198 -1.6554  2.4340
  751TMC3    C711157   1.761   2.964  11.016  0.7616 -0.2142 -0.0371
  751TMC3    C811158   1.519   2.761  11.364  0.5450 -0.1620  1.0344
  751TMC3    O111159   1.818   3.061  10.964  1.0597 -0.1463  0.6636
  751TMC3    O211160   1.549   2.648  11.328 -0.1057 -0.1531 -0.2355
  752TMC3    C111161   0.779   3.552  17.670 -0.5833  0.5573  0.3039
  752TMC3    C211162   0.788   3.488   0.049  0.1033  0.1556  0.0866
  752TMC3    C311163   0.814   3.570   0.152 -0.3338  0.0527  0.0481
  752TMC3    C411164   0.789   3.691  17.658  0.4169 -0.1811 -0.4917
  752TMC3    C511165   0.805   3.766   0.029  0.1433  0.2229  0.0595
  752TMC3    C611166   0.825   3.707   0.155 -0.0721 -0.1570 -0.0191
  752TMC3     C11167   0.739   3.466  17.562  0.5196  0.7305 -0.1047
  752TMC3     O11168   0.770   3.347  17.566 -0.3001 -0.4077 -0.0702
  752TMC3     H11169   0.774   3.380   0.049  0.5132  0.0987  2.1881
  752TMC3    H111170   0.781   3.746  17.565 -0.0788  0.2026 -0.2233
  752TMC3    H211171   0.841   3.773   0.239 -0.3373 -0.4462  0.2589
  752TMC3    C711172   0.827   3.910   0.007 -0.6268 -0.3920  0.0511
  752TMC3    C811173   0.861   3.503   0.275 -0.2420  0.1756 -0.1807
  752TMC3    O111174   0.767   3.976   0.091  0.5891  0.2788  0.3263
  752TMC3    O211175   0.827   3.391   0.294  0.6715 -0.0316 -0.6710
  753TMC3    C111176   2.695   4.393  13.190  0.3095 -0.1203  0.5715
  753TMC3    C211177   2.765   4.404  13.306 -0.1350 -0.1428 -0.0481
  753TMC3    C311178   2.786   4.293  13.383 -0.1766  0.0603  0.5140
  753TMC3    C411179   2.647   4.276  13.144 -0.3741 -0.1120 -0.0656
  753TMC3    C511180   2.680   4.162  13.216  0.2042  0.3379 -0.2066
  753TMC3    C611181   2.747   4.173  13.335  0.0608 -0.2325 -0.1387
  753TMC3     C11182   2.670   4.511  13.110 -0.0898 -0.2389  0.1905
  753TMC3     O11183   2.638   4.506  12.990  0.7196 -0.4798 -0.0461
  753TMC3     H11184   2.804   4.499  13.342 -1.1396  0.6817 -1.1520
  753TMC3    H111185   2.577   4.275  13.061  0.7873  1.5044 -1.0742
  753TMC3    H211186   2.784   4.087  13.389 -0.2777 -2.0057 -2.7559
  753TMC3    C711187   2.618   4.036  13.184 -0.5299  0.8331 -0.0769
  753TMC3    C811188   2.828   4.300  13.524 -0.1466 -0.3736 -0.0008
  753TMC3    O111189   2.621   3.950  13.269 -0.7575  0.0978  0.1583
  753TMC3    O211190   2.841   4.193  13.580  0.0724  0.4597 -0.2140
  754MPD2     C11191   1.666   3.738  12.982  0.0061  0.3047 -0.5830
  754MPD2    C111192   1.719   3.608  13.002  0.0353 -0.1103  0.7065
  754MPD2    C211193   1.630   3.500  13.014 -0.8478  0.0862 -0.0223
  754MPD2    C311194   1.495   3.521  13.034 -0.3186  0.2306  0.0217
  754MPD2    C411195   1.449   3.648  13.031 -0.1087  1.1186  0.5311
  754MPD2    C511196   1.533   3.752  13.007 -0.4829  0.1072  0.4758
  754MPD2     H11197   1.661   3.397  13.021 -2.0860 -0.2524  0.4424
  754MPD2    H111198   1.345   3.666  13.052 -0.2134  0.5784  0.4777
  754MPD2    H211199   1.735   3.821  12.977  1.7628 -1.1128  0.1464
  754MPD2    H311200   1.498   3.855  13.015  1.2346  0.8217 -1.3169
  754MPD2     N11201   1.403   3.417  13.059  0.5253 -0.4091  0.2842
  754MPD2    H511202   1.304   3.438  13.055  0.8955  1.3995  0.8497
  754MPD2    N111203   1.860   3.589  12.999  0.1412  0.7915 -0.2387
  754MPD2    H711204   1.910   3.670  12.963  0.7613  1.3143  1.7787
  755MPD2     C11205   0.686   3.594  13.435  0.1558 -0.3111  0.3949
  755MPD2    C111206   0.793   3.545  13.511  0.1035 -0.1838 -0.1917
  755MPD2    C211207   0.878   3.460  13.451 -0.4081 -0.6215 -0.2561
  755MPD2    C311208   0.862   3.417  13.320 -0.2261 -0.2412 -0.4372
  755MPD2    C411209   0.757   3.475  13.237  0.4922 -0.6382  0.7316
  755MPD2    C511210   0.673   3.564  13.301  0.4923  0.2998 -0.5684
  755MPD2     H11211   0.967   3.446  13.512 -1.0559 -0.7698  0.6526
  755MPD2    H111212   0.743   3.450  13.133 -1.7896  0.1357  0.8648
  755MPD2    H211213   0.622   3.665  13.485  0.9805  0.0156  0.9964
  755MPD2    H311214   0.602   3.615  13.238  0.0332  1.7032  1.0745
  755MPD2     N11215   0.953   3.327  13.269 -0.1011  0.0924  0.2446
  755MPD2    H511216   1.036   3.319  13.326  0.5592  0.4909 -0.6660
  755MPD2    N111217   0.810   3.571  13.648 -0.2521  0.1206 -0.0240
  755MPD2    H711218   0.876   3.505  13.689 -0.8549  0.7581  1.9912
  756MPD2     C11219   1.719   4.356   9.806  0.1916 -0.0033 -0.5533
  756MPD2    C111220   1.612   4.271   9.770  0.0836 -0.0166 -0.2143
  756MPD2    C211221   1.534   4.312   9.657 -0.2557 -0.1026 -0.9317
  756MPD2    C311222   1.559   4.430   9.599 -0.3301 -0.1236 -0.1323
  756MPD2    C411223   1.652   4.517   9.643  0.0568 -0.0578 -0.0041
  756MPD2    C511224   1.728   4.479   9.748  0.1043  0.5423 -0.0863
  756MPD2     H11225   1.448   4.250   9.635  1.3408 -1.8658 -2.1719
  756MPD2    H111226   1.682   4.607   9.590 -1.7961 -0.3614 -1.5476
  756MPD2    H211227   1.783   4.336   9.891 -0.8975 -2.2677 -0.2546
  756MPD2    H311228   1.799   4.544   9.798 -0.2141 -0.3143  1.4655
  756MPD2     N11229   1.481   4.464   9.485  0.3886 -0.4155  0.3460
  756MPD2    H511230   1.416   4.397   9.446  1.7613 -0.5404 -1.7140
  756MPD2    N111231   1.575   4.159   9.850 -0.1614  0.4382  0.9257
  756MPD2    H711232   1.486   4.117   9.828  0.8484 -2.1889  1.7790
  757MPD2     C11233   0.777   4.054   9.270 -0.2429 -0.5885 -0.1249
  757MPD2    C111234   0.896   4.024   9.338  0.1902  0.0655 -0.3059
  757MPD2    C211235   1.011   4.097   9.313 -0.1570  0.8521 -0.4000
  757MPD2    C311236   1.006   4.208   9.223  1.1944 -0.2954  0.1469
  757MPD2    C411237   0.887   4.239   9.164 -0.4215  0.3561  0.3578
  757MPD2    C511238   0.774   4.163   9.182 -1.0042 -0.2956 -0.3858
  757MPD2     H11239   1.107   4.075   9.357 -1.3418 -0.6608  1.4191
  757MPD2    H111240   0.876   4.331   9.107  0.5826  0.1887 -0.1038
  757MPD2    H211241   0.684   3.999   9.277 -0.2214 -0.8024 -1.4435
  757MPD2    H311242   0.680   4.196   9.139 -1.5623 -0.7937  0.4346
  757MPD2     N11243   1.123   4.285   9.199 -0.0451  0.0581 -0.0686
  757MPD2    H511244   1.206   4.265   9.254  1.0823  1.1156 -1.3855
  757MPD2    N111245   0.890   3.915   9.427  0.3213  0.0219  0.0562
  757MPD2    H711246   0.795   3.880   9.433  0.7478 -0.7396  2.2402
  758MPD2     C11247   1.551   3.013  15.887  0.0133  0.6789 -0.4067
  758MPD2    C111248   1.610   2.916  15.962 -0.7189  0.1572 -0.3509
  758MPD2    C211249   1.545   2.871  16.076  0.1766 -0.7498 -0.0761
  758MPD2    C311250   1.440   2.936  16.128 -0.3810  0.7086  0.2043
  758MPD2    C411251   1.383   3.040  16.056  0.3230 -0.0898 -0.4625
  758MPD2    C511252   1.443   3.073  15.938 -0.0775  0.4512  0.2287
  758MPD2     H11253   1.576   2.779  16.123  0.4577  0.0322  1.2688
  758MPD2    H111254   1.299   3.102  16.085  0.4038  0.4300 -1.3223
  758MPD2    H211255   1.588   3.047  15.791 -1.5914 -0.9003 -1.5889
  758MPD2    H311256   1.398   3.150  15.876  1.2257  0.2004 -1.0412
  758MPD2     N11257   1.387   2.926  16.256  0.1174  0.2791 -0.9474
  758MPD2    H511258   1.313   2.988  16.287 -0.5617 -0.6072 -0.7900
  758MPD2    N111259   1.734   2.867  15.919 -0.6655  0.7245 -0.2849
  758MPD2    H711260   1.785   2.919  15.849 -0.6710  1.7334  0.4662
  759MPD2     C11261   0.403   2.111  10.519  0.1252  0.1639  0.0417
  759MPD2    C111262   0.485   2.028  10.447  0.0100  0.2037 -0.9058
  759MPD2    C211263   0.562   2.087  10.352 -0.3018  0.6484  0.1180
  759MPD2    C311264   0.554   2.222  10.313 -0.8465  0.6337 -0.3018
  759MPD2    C411265   0.474   2.301  10.396  0.8819  0.3850  0.5129
  759MPD2    C511266   0.402   2.248  10.495  0.4643  0.2542  0.5531
  759MPD2     H11267   0.631   2.027  10.293 -2.1684 -0.2987 -1.1041
  759MPD2    H111268   0.460   2.408  10.387  0.5082  0.4720  2.2418
  759MPD2    H211269   0.341   2.073  10.599 -1.0053 -3.7118 -2.6640
  759MPD2    H311270   0.338   2.306  10.560  0.3473  0.0460  0.6250
  759MPD2     N11271   0.622   2.270  10.198 -1.1235  0.1692 -0.1178
  759MPD2    H511272   0.684   2.199  10.160 -3.9469 -2.1970 -0.3595
  759MPD2    N111273   0.496   1.886  10.465  0.2977 -0.1377  0.1494
  759MPD2    H711274   0.550   1.835  10.396 -0.5218 -0.5043 -0.2187
  760MPD2     C11275   4.551   3.432  12.211  0.2462  0.3314 -0.7712
  760MPD2    C111276   4.680   3.441  12.163  0.1727 -0.1120  0.8698
  760MPD2    C211277   0.013   3.328  12.130 -0.0710 -0.4471  0.1386
  760MPD2    C311278   4.686   3.210  12.161 -0.8012 -0.1499  0.2824
  760MPD2    C411279   4.557   3.198  12.204  0.3845 -0.0553  0.0362
  760MPD2    C511280   4.490   3.314  12.234  0.1755  0.1124 -0.5074
  760MPD2     H11281   0.113   3.342  12.090  0.3328 -1.2380  0.8754
  760MPD2    H111282   4.511   3.101  12.218  2.7189 -1.2260 -0.3820
  760MPD2    H211283   4.492   3.521  12.226 -1.6380 -1.1014  0.2871
  760MPD2    H311284   4.384   3.309  12.257  0.4102  1.3277  0.8029
  760MPD2     N11285   0.021   3.091  12.137 -0.0672  0.2484  0.7766
  760MPD2    H511286   4.717   3.006  12.177  0.3319 -0.1226  0.3877
  760MPD2    N111287   0.021   3.560  12.164  0.7254  0.8133  0.2325
  760MPD2    H711288   0.121   3.549  12.152  0.5802  0.6692 -0.8732
  761MPD2     C11289   1.039   2.607  11.340  0.2494  0.3184  0.0139
  761MPD2    C111290   1.147   2.580  11.261 -0.4359  0.0157 -0.1505
  761MPD2    C211291   1.270   2.633  11.296  0.3208  0.2917  0.2211
  761MPD2    C311292   1.283   2.730  11.388 -0.3320 -0.0021  0.0724
  761MPD2    C411293   1.176   2.769  11.462 -0.7818  0.5692 -0.2133
  761MPD2    C511294   1.051   2.708  11.440 -0.6852  0.1412  0.1829
  761MPD2     H11295   1.358   2.614  11.235  0.9718  0.1901  1.1895
  761MPD2    H111296   1.190   2.846  11.537  1.5571 -0.6060  0.5475
  761MPD2    H211297   0.945   2.554  11.326  0.9715 -0.3606 -2.2588
  761MPD2    H311298   0.963   2.726  11.500 -0.5609 -1.7909  0.9501
  761MPD2     N11299   1.397   2.805  11.407  0.1949  0.2276  0.4721
  761MPD2    H511300   1.398   2.879  11.477 -0.2860  1.6333 -0.9892
  761MPD2    N111301   1.134   2.501  11.140 -0.0353 -0.1437  0.4376
  761MPD2    H711302   1.047   2.449  11.135 -0.0691 -0.2348  1.9473
  762MPD2     C11303   1.334   2.635  10.380 -0.4268 -0.3697  0.1386
  762MPD2    C111304   1.364   2.509  10.427 -0.1051  0.3491  0.0996
  762MPD2    C211305   1.446   2.433  10.345 -0.0129 -0.8481  0.2783
  762MPD2    C311306   1.503   2.476  10.227 -0.4243  0.1996 -0.2625
  762MPD2    C411307   1.474   2.601  10.192 -0.2649 -0.8558 -0.0356
  762MPD2    C511308   1.389   2.679  10.268  0.8201 -0.0914  0.2120
  762MPD2     H11309   1.471   2.335  10.386 -1.3062 -1.3321 -0.0969
  762MPD2    H111310   1.519   2.645  10.103 -0.3128 -2.8914 -1.0618
  762MPD2    H211311   1.274   2.710  10.431  0.8150  0.9694 -0.3587
  762MPD2    H311312   1.376   2.778  10.228  2.0411 -0.6037 -1.4954
  762MPD2     N11313   1.595   2.389  10.160 -0.5868  0.1602 -0.0170
  762MPD2    H511314   1.590   2.292  10.190 -1.1645  0.5565  1.1394
  762MPD2    N111315   1.315   2.473  10.552 -0.6254 -0.8768  0.3562
  762MPD2    H711316   1.264   2.544  10.604 -0.9840 -0.2914 -0.8016
  763MPD2     C11317   3.933   3.073  16.247  0.1849 -0.6707 -0.5549
  763MPD2    C111318   3.820   3.151  16.214  0.5396  0.1920  0.5893
  763MPD2    C211319   3.810   3.277  16.274 -0.6658  0.0473  0.1585
  763MPD2    C311320   3.910   3.321  16.361 -0.2377  0.3319  0.4670
  763MPD2    C411321   4.027   3.250  16.371  0.7586 -0.1315 -0.1023
  763MPD2    C511322   4.035   3.123  16.323 -0.3136 -0.0764  0.3405
  763MPD2     H11323   3.726   3.339  16.248 -0.8503 -0.4498 -0.4363
  763MPD2    H111324   4.115   3.293  16.418 -0.8612 -1.3980  4.0629
  763MPD2    H211325   3.961   2.985  16.190  1.2673  0.2250 -1.4110
  763MPD2    H311326   4.132   3.075  16.321 -0.8099 -1.0890  0.3083
  763MPD2     N11327   3.916   3.450  16.417 -0.2328 -0.0773 -0.3320
  763MPD2    H511328   4.003   3.484  16.457 -0.1893 -1.9698  1.1593
  763MPD2    N111329   3.723   3.118  16.117 -0.1719 -0.1604  0.1047
  763MPD2    H711330   3.657   3.191  16.095 -0.6579 -0.6215  0.0285
  764MPD2     C11331   1.593   0.466  17.183  0.2073  0.2385 -0.0671
  764MPD2    C111332   1.578   0.328  17.159  0.6058 -0.4517 -0.3348
  764MPD2    C211333   1.634   0.227  17.235 -0.5158 -0.0592 -0.0075
  764MPD2    C311334   1.695   0.267  17.352  0.3455 -0.0617 -0.5319
  764MPD2    C411335   1.707   0.401  17.379  0.6903 -0.5967  0.1903
  764MPD2    C511336   1.652   0.500  17.301  0.5704 -0.2381  0.3065
  764MPD2     H11337   1.629   0.125  17.199 -1.8128  1.0622 -3.0161
  764MPD2    H111338   1.770   0.441  17.457 -1.1158 -0.9552  1.8529
  764MPD2    H211339   1.556   0.544  17.117  0.2112  0.4180  0.1402
  764MPD2    H311340   1.659   0.601  17.341  0.4636 -0.0073 -0.2536
  764MPD2     N11341   1.751   0.166  17.432 -0.6432 -0.4101  0.3081
  764MPD2    H511342   1.761   0.072  17.397  0.7214  1.1067 -3.3101
  764MPD2    N111343   1.516   0.281  17.042  0.3098 -0.3695 -0.5489
  764MPD2    H711344   1.519   0.180  17.031  1.1881  0.0533 -4.0829
  765MPD2     C11345   1.035   2.259  15.962 -0.5782 -0.6873 -0.6142
  765MPD2    C111346   1.113   2.365  15.917 -0.2205  0.1921 -0.0217
  765MPD2    C211347   1.245   2.334  15.884  0.0775  0.3481  0.0037
  765MPD2    C311348   1.300   2.204  15.900 -0.5534  0.2311  0.7041
  765MPD2    C411349   1.222   2.101  15.948  0.1725  0.6959 -0.3059
  765MPD2    C511350   1.092   2.131  15.971 -0.1048  0.6287 -0.2855
  765MPD2     H11351   1.313   2.409  15.846 -0.7036  1.7101  1.3239
  765MPD2    H111352   1.244   1.995  15.947 -1.3200  0.3789  0.8786
  765MPD2    H211353   0.929   2.275  15.977 -0.3330 -0.4182  0.8163
  765MPD2    H311354   1.024   2.050  15.999 -0.2245  0.7878 -0.1175
  765MPD2     N11355   1.439   2.198  15.863  0.5673 -0.3365 -0.4073
  765MPD2    H511356   1.485   2.276  15.817 -0.4520 -0.2469 -1.2720
  765MPD2    N111357   1.057   2.497  15.904 -0.0092  0.2045 -0.4909
  765MPD2    H711358   0.960   2.516  15.928  0.3443 -0.5360  1.4946
  766MPD2     C11359   0.688   2.685  15.377  0.0730  0.2688  0.7745
  766MPD2    C111360   0.810   2.642  15.421 -0.2071  0.0185 -0.1090
  766MPD2    C211361   0.887   2.564  15.339 -0.5392  0.4203  0.3101
  766MPD2    C311362   0.848   2.538  15.208  0.4017 -0.0819  0.3350
  766MPD2    C411363   0.725   2.582  15.168  0.1302 -0.1885  0.5022
  766MPD2    C511364   0.645   2.654  15.252 -0.0182 -0.1951  0.4529
  766MPD2     H11365   0.977   2.535  15.391 -0.3439  0.7211  0.1376
  766MPD2    H111366   0.684   2.565  15.069 -1.6040 -2.6088  1.6320
  766MPD2    H211367   0.615   2.734  15.440 -0.5244  0.4391 -0.0515
  766MPD2    H311368   0.549   2.685  15.212  0.7770 -1.7665 -2.6981
  766MPD2     N11369   0.931   2.480  15.116 -0.6693 -0.3616 -0.3087
  766MPD2    H511370   0.893   2.473  15.022  2.4790  0.5060 -1.6622
  766MPD2    N111371   0.855   2.685  15.551 -0.4321  0.3109  0.3553
  766MPD2    H711372   0.934   2.631  15.584  0.4939  0.2539 -1.9800
  767MPD2     C11373   0.592   2.862  15.000 -0.1089 -0.1705 -0.2830
  767MPD2    C111374   0.724   2.842  14.957  0.2703 -0.1610  0.0548
  767MPD2    C211375   0.748   2.767  14.845 -0.7210  0.3429 -0.1173
  767MPD2    C311376   0.650   2.698  14.787 -0.1425  0.0350  0.7992
  767MPD2    C411377   0.519   2.703  14.831 -0.3539 -0.2738 -0.1219
  767MPD2    C511378   0.496   2.788  14.941 -0.2689 -0.3498 -0.0789
  767MPD2     H11379   0.847   2.739  14.811 -1.4141 -0.7270 -1.2526
  767MPD2    H111380   0.433   2.665  14.778 -1.0756  0.1747  0.7140
  767MPD2    H211381   0.572   2.918  15.091  1.1207 -2.2228  1.2592
  767MPD2    H311382   0.393   2.803  14.972  0.6261 -0.1339  2.7831
  767MPD2     N11383   0.689   2.616  14.679 -0.0384  0.0278 -0.7304
  767MPD2    H511384   0.788   2.609  14.656 -0.5937 -0.4557 -3.0113
  767MPD2    N111385   0.834   2.901  15.036 -0.6247  0.1588 -0.3815
  767MPD2    H711386   0.813   2.973  15.104 -1.8853 -0.0259 -0.5733
  768MPD2     C11387   1.269   1.063  10.538  0.7492  0.3482  0.2277
  768MPD2    C111388   1.351   1.169  10.573 -0.1409 -0.4113  0.7635
  768MPD2    C211389   1.461   1.147  10.649  0.1169 -1.2622 -0.5872
  768MPD2    C311390   1.491   1.014  10.687 -0.7227 -0.1151 -0.1444
  768MPD2    C411391   1.401   0.913  10.656 -0.1242 -0.0026 -0.3763
  768MPD2    C511392   1.290   0.942  10.584 -1.0630  0.6397 -0.2318
  768MPD2     H11393   1.519   1.234  10.676 -1.8477 -0.7225  1.8898
  768MPD2    H111394   1.414   0.813  10.695  0.4363 -0.2982 -1.3076
  768MPD2    H211395   1.177   1.071  10.482  2.6866 -0.1578 -3.0307
  768MPD2    H311396   1.223   0.861  10.558  0.0133 -0.2845 -0.1328
  768MPD2     N11397   1.613   0.976  10.753  0.2397  0.1328  0.2872
  768MPD2    H511398   1.618   0.880  10.787 -0.6545 -0.2784 -0.7357
  768MPD2    N111399   1.327   1.298  10.525 -0.2770  0.2846  0.2981
  768MPD2    H711400   1.401   1.361  10.552  0.3056  0.4632 -1.7578
  769MPD2     C11401   1.848   4.474  14.925  0.2461 -0.3118  0.1332
  769MPD2    C111402   1.855   4.363  15.006  0.4794  0.3850 -0.0790
  769MPD2    C211403   1.918   4.384  15.129  0.4632 -0.0906  0.4419
  769MPD2    C311404   1.965   4.504  15.174  0.1446  0.1318  1.0095
  769MPD2    C411405   1.946   4.616  15.094 -0.2574 -0.1479 -0.5905
  769MPD2    C511406   1.888   4.603  14.972 -0.6519  0.5470 -0.1028
  769MPD2     H11407   1.942   4.297  15.189 -1.7198 -0.2629  1.0768
  769MPD2    H111408   1.975   4.717  15.121  1.1628 -0.0903 -2.3494
  769MPD2    H211409   1.806   4.465  14.826 -0.5763 -0.7447  0.5226
  769MPD2    H311410   1.877   4.688  14.906 -0.0953  2.1566  1.8707
  769MPD2     N11411   2.032   4.496  15.294  0.3290  0.1574 -0.4222
  769MPD2    H511412   2.034   4.407  15.344 -0.6961 -0.0671 -0.7751
  769MPD2    N111413   1.813   4.237  14.964  0.0576 -0.3579 -0.6069
  769MPD2    H711414   1.770   4.229  14.873 -1.5235 -1.3416  0.2341
  770MPD2     C11415   1.787   3.154  15.102 -0.1910 -0.2127  0.5048
  770MPD2    C111416   1.887   3.195  15.019 -0.7930  0.7542  0.2636
  770MPD2    C211417   1.898   3.324  14.982 -0.5541 -0.3460  0.1815
  770MPD2    C311418   1.807   3.414  15.033  0.1868 -0.0879  0.4028
  770MPD2    C411419   1.701   3.376  15.114  0.4246 -0.2934 -0.4917
  770MPD2    C511420   1.686   3.245  15.137 -0.7935 -0.2494 -0.7304
  770MPD2     H11421   1.986   3.358  14.927  0.4823 -0.2070  1.9217
  770MPD2    H111422   1.646   3.449  15.172 -0.3229 -0.9236 -0.4074
  770MPD2    H211423   1.776   3.051  15.135 -1.3060 -0.2187  0.1234
  770MPD2    H311424   1.603   3.214  15.199 -0.1302  0.2180  0.3939
  770MPD2     N11425   1.826   3.543  14.988 -1.0719 -0.2242 -0.2446
  770MPD2    H511426   1.902   3.555  14.922  0.3189 -0.3735  1.3355
  770MPD2    N111427   1.990   3.102  14.996 -0.5897 -0.2527  0.1494
  770MPD2    H711428   1.983   3.013  15.043 -0.3763 -0.2577  0.1707
  771MPD2     C11429   3.507   1.612  13.665  0.1279 -0.5780 -0.9470
  771MPD2    C111430   3.396   1.682  13.633  0.5925 -0.3319  0.0262
  771MPD2    C211431   3.298   1.617  13.567 -0.2824 -0.7645  0.3806
  771MPD2    C311432   3.310   1.479  13.555 -0.9132 -0.0830  0.4300
  771MPD2    C411433   3.428   1.418  13.582 -0.5237  0.8134  0.1855
  771MPD2    C511434   3.532   1.486  13.633  0.0702  0.1206 -0.0722
  771MPD2     H11435   3.210   1.675  13.541 -0.4805 -1.1565  0.1755
  771MPD2    H111436   3.444   1.310  13.584 -0.3016  0.8700  1.3383
  771MPD2    H211437   3.588   1.659  13.720 -0.4052 -0.7708 -0.0028
  771MPD2    H311438   3.628   1.437  13.644 -0.7868 -1.6992 -0.7276
  771MPD2     N11439   3.200   1.415  13.505  0.0053  0.3315 -0.2336
  771MPD2    H511440   3.109   1.460  13.508  1.5587  3.2794  2.2579
  771MPD2    N111441   3.378   1.818  13.663  0.0459 -0.4109 -0.7997
  771MPD2    H711442   3.291   1.858  13.630  0.3816 -0.0210 -1.2010
  772MPD2     C11443   2.823   2.200  13.832 -0.2926  0.2421 -0.2429
  772MPD2    C111444   2.892   2.107  13.761 -0.1842 -1.0262  0.2454
  772MPD2    C211445   2.835   1.993  13.712  0.8958  0.3303 -0.3913
  772MPD2    C311446   2.690   1.989  13.715  0.8239  0.1309 -0.9295
  772MPD2    C411447   2.619   2.097  13.768 -0.2360 -0.5610 -0.6635
  772MPD2    C511448   2.682   2.203  13.833 -0.2983 -0.0177 -0.1413
  772MPD2     H11449   2.901   1.920  13.666  0.5827 -1.6949  2.3606
  772MPD2    H111450   2.511   2.102  13.758  0.1032  0.8952 -3.3750
  772MPD2    H211451   2.865   2.283  13.888  0.8521 -0.6376  0.1917
  772MPD2    H311452   2.624   2.288  13.866  1.6789  2.1197 -2.2022
  772MPD2     N11453   2.608   1.885  13.661  0.3894  0.8694 -0.7265
  772MPD2    H511454   2.509   1.887  13.681  0.7063  1.4542  0.7932
  772MPD2    N111455   3.035   2.114  13.738  0.3586  0.7073  0.4194
  772MPD2    H711456   3.078   2.033  13.695  0.4252  0.3211  1.2199
  773MPD2     C11457   2.611   3.673   0.043 -0.0680  0.0659 -0.1719
  773MPD2    C111458   2.485   3.648   0.096  0.3575  0.4920 -0.2718
  773MPD2    C211459   2.454   3.514   0.123  0.0599 -0.0479  0.1159
  773MPD2    C311460   2.551   3.420   0.106 -0.5574  0.5598 -0.0992
  773MPD2    C411461   2.671   3.453   0.042 -0.7498 -0.3902 -0.4182
  773MPD2    C511462   2.705   3.579   0.016  0.2254  0.1825  1.0723
  773MPD2     H11463   2.359   3.487   0.167 -1.1259  1.9018 -1.2489
  773MPD2    H111464   2.744   3.376   0.020  0.9418  0.8277  0.9510
  773MPD2    H211465   2.637   3.772   0.006 -2.3090  0.5720 -0.3873
  773MPD2    H311466   2.797   3.611  17.708  0.0327 -1.2214 -0.2118
  773MPD2     N11467   2.537   3.290   0.156  0.1538 -0.1650 -0.0774
  773MPD2    H511468   2.611   3.222   0.140  1.4063  1.9211 -3.0921
  773MPD2    N111469   2.386   3.745   0.108 -0.5803 -0.4951  0.2843
  773MPD2    H711470   2.297   3.711   0.144 -0.0548 -0.6178  1.4790
  774MPD2     C11471   2.122   2.634  13.474 -0.2114  0.1316 -0.3800
  774MPD2    C111472   2.008   2.672  13.535  0.5634 -0.1125  0.3410
  774MPD2    C211473   1.966   2.801  13.519  0.3879 -0.1515  0.0328
  774MPD2    C311474   2.034   2.899  13.438  0.1034 -0.7222  0.3925
  774MPD2    C411475   2.156   2.860  13.382 -0.1357  0.4765 -0.1289
  774MPD2    C511476   2.189   2.730  13.395 -0.3524 -0.5509  0.1176
  774MPD2     H11477   1.870   2.837  13.555  0.8398 -0.0243  1.1229
  774MPD2    H111478   2.214   2.922  13.315  0.9892 -0.2318  0.1880
  774MPD2    H211479   2.156   2.531  13.470  1.0130  0.5051  0.4919
  774MPD2    H311480   2.273   2.695  13.336 -1.9971  2.1440 -3.8048
  774MPD2     N11481   1.971   3.025  13.409  0.7063  0.1692  0.1624
  774MPD2    H511482   1.874   3.028  13.440  0.6872  0.1193  0.1078
  774MPD2    N111483   1.926   2.571  13.594  0.1010  0.3134 -0.6806
  774MPD2    H711484   1.961   2.476  13.602 -1.3667 -0.3702 -2.2390
  775MPD2     C11485   2.568   4.105  15.219  0.5165  0.4921 -0.3246
  775MPD2    C111486   2.569   4.218  15.303 -0.1377  0.0556 -0.2034
  775MPD2    C211487   2.671   4.315  15.285 -0.3535  0.1777  0.7431
  775MPD2    C311488   2.757   4.305  15.177 -0.1384 -0.0094  0.7502
  775MPD2    C411489   2.753   4.198  15.097 -0.2281  0.3476  0.4817
  775MPD2    C511490   2.661   4.096  15.118 -0.3472 -0.7286 -0.6093
  775MPD2     H11491   2.674   4.400  15.352  0.8855  1.6291 -1.1824
  775MPD2    H111492   2.810   4.191  15.005 -1.1596 -1.9769  0.0914
  775MPD2    H211493   2.504   4.018  15.216 -0.6369  1.3788 -1.8365
  775MPD2    H311494   2.658   4.007  15.055  1.4332  0.1118 -1.8887
  775MPD2     N11495   2.856   4.395  15.146  0.4770  0.4524  0.2082
  775MPD2    H511496   2.927   4.374  15.076 -0.8892 -1.8171 -0.4988
  775MPD2    N111497   2.499   4.211  15.424 -0.4036  0.7071  0.3569
  775MPD2    H711498   2.448   4.124  15.434 -3.3894  2.4257 -0.2304
  776MPD2     C11499   1.987   4.213  12.048  0.5067  0.4239  0.3833
  776MPD2    C111500   1.897   4.168  11.954  0.4071  0.0180  0.4734
  776MPD2    C211501   1.862   4.246  11.844  0.1731 -1.5811  0.2926
  776MPD2    C311502   1.934   4.362  11.813 -0.2504  0.4434 -0.8013
  776MPD2    C411503   2.026   4.406  11.906  0.1786  0.7506  0.1920
  776MPD2    C511504   2.049   4.338  12.020 -0.5763 -0.2970  0.3196
  776MPD2     H11505   1.798   4.212  11.763 -0.5331  2.2074 -0.7549
  776MPD2    H111506   2.081   4.500  11.898 -0.1114  0.8221 -0.9163
  776MPD2    H211507   2.008   4.152  12.136 -0.1987  1.9556  1.6041
  776MPD2    H311508   2.104   4.390  12.098 -0.2744 -0.3202  0.1237
  776MPD2     N11509   1.920   4.436  11.690  0.3639  0.3843  0.2046
  776MPD2    H511510   2.005   4.489  11.671 -0.8673  0.9922 -3.5677
  776MPD2    N111511   1.846   4.036  11.972 -0.7197 -0.1728 -0.0344
  776MPD2    H711512   1.871   3.981  12.054 -3.4097 -0.8149  0.3322
  777MPD2     C11513   2.239   2.274   0.984 -0.3168 -0.0871 -0.4273
  777MPD2    C111514   2.333   2.190   1.032 -0.4092  0.0442  0.4540
  777MPD2    C211515   2.345   2.063   0.976  0.0541  0.1370 -0.4656
  777MPD2    C311516   2.268   2.030   0.860  0.4471  1.5147 -0.1615
  777MPD2    C411517   2.183   2.130   0.807  0.3144 -0.4483 -0.4774
  777MPD2    C511518   2.172   2.247   0.869 -0.0063  0.5826  0.3169
  777MPD2     H11519   2.410   1.986   1.016 -0.5186 -1.1877 -2.0817
  777MPD2    H111520   2.114   2.114   0.725 -2.8762  0.2257  2.0358
  777MPD2    H211521   2.222   2.373   1.026 -0.3970  0.1135 -0.9371
  777MPD2    H311522   2.088   2.304   0.830  0.0951  0.8467  0.4905
  777MPD2     N11523   2.271   1.895   0.819 -0.7641  0.1393 -0.0234
  777MPD2    H511524   2.328   1.832   0.873 -2.4546 -2.2832 -1.0754
  777MPD2    N111525   2.413   2.226   1.145  0.1839  0.2763  0.1513
  777MPD2    H711526   2.392   2.311   1.196 -2.4257  0.8874 -1.9994
  778MPD2     C11527   3.728   2.464  14.988  0.7536 -0.3372 -0.5765
  778MPD2    C111528   3.729   2.359  14.900 -0.3311  0.2573 -0.4398
  778MPD2    C211529   3.824   2.353  14.793  0.6108 -0.9202  0.2030
  778MPD2    C311530   3.915   2.463  14.776 -0.7034 -0.1608 -0.6050
  778MPD2    C411531   3.916   2.563  14.870 -0.0966 -0.0357  0.6398
  778MPD2    C511532   3.830   2.560  14.978  0.1335 -0.1705 -0.5918
  778MPD2     H11533   3.838   2.259  14.741  0.3453 -1.3566  0.9220
  778MPD2    H111534   3.992   2.640  14.878  0.0520 -0.0015 -1.1919
  778MPD2    H211535   3.654   2.485  15.064  0.4710 -0.6159 -0.7714
  778MPD2    H311536   3.848   2.639  15.051 -2.3930 -0.5016  0.3806
  778MPD2     N11537   4.013   2.444  14.671 -0.4324 -0.3693 -0.4855
  778MPD2    H511538   3.998   2.361  14.615 -1.0249  0.0312 -0.9279
  778MPD2    N111539   3.644   2.257  14.913 -0.5485 -0.5062 -0.3251
  778MPD2    H711540   3.657   2.187  14.840  1.4525  1.2333 -1.6618
  779MPD2     C11541   3.178   0.780  13.721 -0.0621  0.2836 -0.9176
  779MPD2    C111542   3.178   0.778  13.857  0.1315 -0.3820  0.2140
  779MPD2    C211543   3.221   0.893  13.924 -0.0306 -0.6654 -0.3287
  779MPD2    C311544   3.217   1.012  13.850  0.3511  0.6390 -0.1732
  779MPD2    C411545   3.210   1.015  13.716  0.2589 -0.1145  0.6636
  779MPD2    C511546   3.195   0.893  13.650 -0.4118  0.3354 -0.5055
  779MPD2     H11547   3.233   0.895  14.031  0.1418  1.1632 -0.3937
  779MPD2    H111548   3.228   1.105  13.658 -0.6468 -0.1323  0.3583
  779MPD2    H211549   3.165   0.690  13.663 -0.1067  0.0849 -0.5949
  779MPD2    H311550   3.211   0.895  13.543 -0.8274 -1.7940 -0.6121
  779MPD2     N11551   3.228   1.122  13.925 -0.6842  0.5931  0.3034
  779MPD2    H511552   3.264   1.115  14.020  0.6962  1.0426 -0.1813
  779MPD2    N111553   3.161   0.658  13.928 -0.0921  0.2094 -0.0583
  779MPD2    H711554   3.188   0.647  14.026  0.5441 -0.5486 -0.3238
  780MPD2     C11555   2.978   1.197   0.690  0.4377  0.1978  0.2689
  780MPD2    C111556   3.075   1.119   0.635 -0.9244  0.4127 -0.1247
  780MPD2    C211557   3.125   1.140   0.512  0.1062 -0.1475  0.4715
  780MPD2    C311558   3.072   1.247   0.435  0.3406  0.4035 -0.4493
  780MPD2    C411559   2.966   1.320   0.485 -0.0403  0.0926  0.4920
  780MPD2    C511560   2.920   1.289   0.609 -0.2481  0.5386  0.2405
  780MPD2     H11561   3.217   1.093   0.478  0.3688  1.1604 -0.5896
  780MPD2    H111562   2.917   1.391   0.419 -0.6034  0.0991  0.9207
  780MPD2    H211563   2.960   1.179   0.795  0.1627 -1.9789 -0.1519
  780MPD2    H311564   2.835   1.343   0.650 -0.1378  0.8364  0.0771
  780MPD2     N11565   3.133   1.275   0.310 -0.5281  0.2107 -0.0448
  780MPD2    H511566   3.212   1.217   0.286  1.6335  1.8813  3.0230
  780MPD2    N111567   3.132   1.023   0.726 -0.3325  0.1127 -1.0148
  780MPD2    H711568   3.101   1.039   0.821  2.2194  0.9269 -0.3158
  781MPD2     C11569   3.766   2.538  12.566 -0.6372  0.3634 -0.3368
  781MPD2    C111570   3.834   2.455  12.488  0.0620 -0.4446  0.0584
  781MPD2    C211571   3.804   2.443  12.355 -0.7736  0.2688  0.3146
  781MPD2    C311572   3.695   2.516  12.307  0.9977 -0.2918  0.3363
  781MPD2    C411573   3.621   2.597  12.385  0.1354  0.4103 -0.3298
  781MPD2    C511574   3.658   2.607  12.516  0.3175  0.0259  0.1339
  781MPD2     H11575   3.864   2.378  12.292  1.0272 -0.1623  2.4732
  781MPD2    H111576   3.537   2.655  12.348 -0.5612 -2.0259 -2.5576
  781MPD2    H211577   3.791   2.544  12.672  1.1630 -0.2992 -0.7279
  781MPD2    H311578   3.599   2.673  12.577 -0.2020  1.0760 -1.4969
  781MPD2     N11579   3.656   2.527  12.170 -0.4530  0.3945 -0.1428
  781MPD2    H511580   3.570   2.573  12.142 -0.4719 -0.5112 -1.6149
  781MPD2    N111581   3.936   2.374  12.556  0.2766 -0.0452 -0.0990
  781MPD2    H711582   3.952   2.399  12.653  0.6970 -2.0460  0.3479
  782MPD2     C11583   1.951   3.487   9.933 -0.2512 -0.2407 -0.0780
  782MPD2    C111584   2.012   3.453  10.054 -0.2461  0.6142 -0.3530
  782MPD2    C211585   2.039   3.551  10.146 -0.2657  0.5441 -0.1249
  782MPD2    C311586   2.024   3.685  10.116  0.2698 -1.1117 -0.1356
  782MPD2    C411587   1.974   3.724   9.992 -0.4521  0.2236  0.3835
  782MPD2    C511588   1.940   3.622   9.903 -0.4295 -0.1161  0.4949
  782MPD2     H11589   2.075   3.526  10.245  2.6115 -2.7768 -2.0185
  782MPD2    H111590   1.935   3.823   9.975  0.7348  1.0833  2.5512
  782MPD2    H211591   1.926   3.415   9.856  0.8880 -1.3215  0.5643
  782MPD2    H311592   1.882   3.653   9.817 -0.6477  1.8437  1.3375
  782MPD2     N11593   2.060   3.778  10.219 -0.3658  0.4838 -0.4006
  782MPD2    H511594   2.087   3.733  10.306 -4.0306 -0.2702  0.3782
  782MPD2    N111595   2.043   3.321  10.083 -0.2971 -0.3159 -0.0829
  782MPD2    H711596   1.992   3.251  10.030  0.6438 -1.5810  0.6546
  783MPD2     C11597   1.627   2.737  10.749  0.6050  0.2612 -0.3425
  783MPD2    C111598   1.715   2.839  10.799 -0.3689 -0.1771  0.2092
  783MPD2    C211599   1.801   2.898  10.714 -0.3076 -0.4358 -0.1400
  783MPD2    C311600   1.790   2.876  10.577 -0.3780  0.4449 -0.8468
  783MPD2    C411601   1.692   2.791  10.528  0.3217 -1.4842 -0.0940
  783MPD2    C511602   1.615   2.719  10.613 -0.7564  0.7526  0.4899
  783MPD2     H11603   1.886   2.953  10.753 -1.7839  1.1016  0.8701
  783MPD2    H111604   1.687   2.764  10.424 -1.4898 -0.9501 -0.1385
  783MPD2    H211605   1.559   2.681  10.811  0.7979  1.7355  1.1947
  783MPD2    H311606   1.544   2.648  10.571 -1.6393  2.2885 -0.6220
  783MPD2     N11607   1.898   2.929  10.496 -0.5942 -0.7343 -0.8925
  783MPD2    H511608   1.982   2.964  10.542 -2.0457 -1.1815  2.0942
  783MPD2    N111609   1.709   2.857  10.942  0.1058 -0.5159  0.1173
  783MPD2    H711610   1.647   2.796  10.995 -1.3384 -0.8828 -1.9995
  784MPD2     C11611   0.399   3.613   0.729 -0.6249 -0.1022 -0.6077
  784MPD2    C111612   0.343   3.644   0.850 -0.1861 -0.8121  0.2205
  784MPD2    C211613   0.217   3.697   0.850 -0.0198 -0.4294  0.1720
  784MPD2    C311614   0.135   3.718   0.743 -0.1821 -0.2877 -0.2861
  784MPD2    C411615   0.190   3.685   0.618 -0.2887  0.4070  0.1205
  784MPD2    C511616   0.322   3.638   0.615  0.5015  0.2374  0.0182
  784MPD2     H11617   0.175   3.717   0.948  0.0107  0.0704  0.0844
  784MPD2    H111618   0.134   3.701   0.526 -1.0669  0.0963  0.5421
  784MPD2    H211619   0.498   3.575   0.706 -1.3597 -2.9875  1.0305
  784MPD2    H311620   0.361   3.624   0.515 -2.0764 -0.2030 -0.9182
  784MPD2     N11621   4.732   3.748   0.760 -0.1787  0.0033  0.3450
  784MPD2    H511622   4.699   3.775   0.852  1.9233  1.1702  0.7664
  784MPD2    N111623   0.412   3.619   0.969  0.5921 -0.6375 -0.3466
  784MPD2    H711624   0.366   3.648   1.055  1.4709 -1.0465  0.2740
  785MPD2     C11625   4.430   2.548  11.550 -0.2481 -0.1509  0.0320
  785MPD2    C111626   4.467   2.644  11.460 -0.1202 -0.3149 -0.0957
  785MPD2    C211627   4.506   2.603  11.331 -0.4775 -0.0509  0.1454
  785MPD2    C311628   4.497   2.467  11.296 -0.3339 -0.7301 -0.2314
  785MPD2    C411629   4.463   2.370  11.389  0.1628  0.7732  0.1033
  785MPD2    C511630   4.423   2.416  11.517  0.0770  0.8029 -0.2925
  785MPD2     H11631   4.536   2.675  11.256 -2.6647 -0.8431 -1.4933
  785MPD2    H111632   4.471   2.262  11.377  0.2862  0.7289  0.5732
  785MPD2    H211633   4.394   2.579  11.648 -1.5355  1.3868 -0.9296
  785MPD2    H311634   4.413   2.348  11.601  1.0681  0.8820 -0.1153
  785MPD2     N11635   4.527   2.435  11.159  0.1920  0.0532 -0.3045
  785MPD2    H511636   4.549   2.517  11.103  0.2401  1.1734  1.3215
  785MPD2    N111637   4.459   2.781  11.492  0.1257  0.4545 -0.0581
  785MPD2    H711638   4.396   2.798  11.571 -2.0591 -0.0456 -1.6828
  786MPD2     C11639   3.269   4.629  14.811 -0.2946  0.7733  0.0714
  786MPD2    C111640   3.398   4.612  14.795  0.3917 -0.4823 -0.1594
  786MPD2    C211641   3.489   4.657  14.892  0.1735  1.2795 -0.8526
  786MPD2    C311642   3.439   4.732  14.993  0.7855 -0.4986  0.7436
  786MPD2    C411643   3.305   0.024  15.005 -0.9835  0.5301 -0.5067
  786MPD2    C511644   3.224   4.694  14.919  0.3164  0.1307  0.4907
  786MPD2     H11645   3.594   4.633  14.878 -0.0700  0.2227 -0.8441
  786MPD2    H111646   3.262   0.096  15.073  0.4374  1.6845 -0.8318
  786MPD2    H211647   3.194   4.599  14.739  1.3165 -3.8653  0.2750
  786MPD2    H311648   3.118   4.715  14.926  0.3319  0.3104  0.1930
  786MPD2     N11649   3.526   0.043  15.093 -0.0156 -0.2458  0.2829
  786MPD2    H511650   3.487   0.087  15.175 -1.3561 -3.4652  1.3821
  786MPD2    N111651   3.457   4.541  14.686  0.4821  0.6523 -0.6837
  786MPD2    H711652   3.557   4.525  14.676  0.1499 -1.7096 -0.1368
  787MPD2     C11653   3.964   4.258  14.814  0.1834  0.4279 -0.4470
  787MPD2    C111654   3.924   4.192  14.697  0.6022 -0.3039  0.4633
  787MPD2    C211655   3.980   4.066  14.671 -1.2424 -0.7219 -0.3162
  787MPD2    C311656   4.061   4.007  14.763  0.9562 -0.4194  1.4965
  787MPD2    C411657   4.109   4.072  14.879 -0.3500  0.2535  0.1165
  787MPD2    C511658   4.049   4.196  14.894 -0.1435  0.8311 -0.3844
  787MPD2     H11659   3.941   4.000  14.594 -1.3531 -1.4535  0.3660
  787MPD2    H111660   4.179   4.040  14.955  0.5932  2.1364  0.0571
  787MPD2    H211661   3.920   4.355  14.835 -1.2984  0.5178 -3.9079
  787MPD2    H311662   4.078   4.243  14.988  1.6264  1.2305 -1.1283
  787MPD2     N11663   4.109   3.882  14.727  0.3930  0.1578  0.4917
  787MPD2    H511664   4.068   3.838  14.645  0.5092 -0.2814  0.6720
  787MPD2    N111665   3.813   4.243  14.623  0.2732 -0.1765 -0.5765
  787MPD2    H711666   3.785   4.337  14.650 -0.9285 -0.6434 -0.1995
  788MPD2     C11667   1.109   3.636   1.137 -0.7906  0.8606 -0.2687
  788MPD2    C111668   1.024   3.577   1.051  0.2817  0.3379  0.2613
  788MPD2    C211669   0.917   3.650   1.004  0.1651  0.2064  0.5126
  788MPD2    C311670   0.897   3.784   1.043  0.4918  0.1295 -0.2201
  788MPD2    C411671   0.982   3.833   1.136  0.0980 -0.5983  0.2637
  788MPD2    C511672   1.088   3.766   1.181 -0.0995  0.2460 -0.6975
  788MPD2     H11673   0.853   3.609   0.927  0.1957  0.3251  0.4249
  788MPD2    H111674   0.975   3.936   1.169 -1.3239 -0.9256  1.0176
  788MPD2    H211675   1.202   3.589   1.167 -0.8717  0.1120 -1.2171
  788MPD2    H311676   1.170   3.823   1.223 -1.2309  1.0056  0.4959
  788MPD2     N11677   0.814   3.879   0.979  0.3263 -0.3374 -0.1607
  788MPD2    H511678   0.829   3.977   1.002  1.8452 -0.6041 -0.0273
  788MPD2    N111679   1.038   3.442   1.013 -0.4250  0.1941 -0.0152
  788MPD2    H711680   0.961   3.390   0.971  1.8820 -4.0118  0.9993
  789MPD2     C11681   1.617   2.489  16.757 -0.5156  0.3995  0.4139
  789MPD2    C111682   1.511   2.464  16.668 -0.3505  0.2664  0.0144
  789MPD2    C211683   1.391   2.531  16.675 -0.0628  0.3276  0.7001
  789MPD2    C311684   1.385   2.629  16.772  0.3758  0.6620 -0.0323
  789MPD2    C411685   1.486   2.653  16.870  0.0387 -0.2354  0.5131
  789MPD2    C511686   1.597   2.571  16.860  0.5576  0.0888 -0.3203
  789MPD2     H11687   1.321   2.508  16.595 -0.0250 -2.1220  1.3872
  789MPD2    H111688   1.464   2.732  16.941  0.9349  0.3745  0.0965
  789MPD2    H211689   1.703   2.424  16.764 -1.0509 -0.4722 -1.3179
  789MPD2    H311690   1.678   2.581  16.932  1.5398 -0.7071 -1.3203
  789MPD2     N11691   1.280   2.724  16.773  0.1000 -0.8799  0.0782
  789MPD2    H511692   1.271   2.783  16.854  1.6212  1.6112 -1.5670
  789MPD2    N111693   1.529   2.376  16.568 -0.6536 -0.2706 -0.1888
  789MPD2    H711694   1.456   2.374  16.498 -1.0431 -1.5723  0.2655
  790MPD2     C11695   2.382   4.302  13.406 -0.6872  0.0054  0.1801
  790MPD2    C111696   2.326   4.188  13.356  0.4264  0.4572 -0.2922
  790MPD2    C211697   2.256   4.192  13.242 -0.8010  0.5946  0.8384
  790MPD2    C311698   2.228   4.307  13.170  0.3173  0.1899 -0.1524
  790MPD2    C411699   2.285   4.424  13.228 -0.9766  0.2928 -0.1956
  790MPD2    C511700   2.346   4.427  13.349  0.6201  0.0014 -0.0820
  790MPD2     H11701   2.217   4.100  13.201 -2.1114  1.1974  0.7358
  790MPD2    H111702   2.278   4.526  13.190 -2.2527  0.0124 -0.7230
  790MPD2    H211703   2.439   4.299  13.497  0.4304  0.8551 -0.4982
  790MPD2    H311704   2.383   4.523  13.383  2.5995 -0.5483 -0.6688
  790MPD2     N11705   2.167   4.293  13.045 -0.0051 -0.8585  0.6406
  790MPD2    H511706   2.135   4.201  13.014  1.4637 -1.1387 -0.0489
  790MPD2    N111707   2.359   4.067  13.420 -0.0298  0.0007  0.0269
  790MPD2    H711708   2.418   4.071  13.502 -0.5249 -2.1240  0.4885
  791MPD2     C11709   1.485   4.256  12.601  0.1848 -0.0292 -0.1895
  791MPD2    C111710   1.584   4.174  12.645 -0.0434  0.1653 -0.0610
  791MPD2    C211711   1.558   4.043  12.685  0.4398  0.5026 -0.1651
  791MPD2    C311712   1.429   3.991  12.676 -0.1490 -0.2990 -0.5206
  791MPD2    C411713   1.332   4.076  12.627  0.3655  0.0143 -0.2006
  791MPD2    C511714   1.362   4.202  12.590  0.3032 -0.6382  0.4648
  791MPD2     H11715   1.641   3.985  12.723  0.9952  1.9963  0.9308
  791MPD2    H111716   1.237   4.027  12.608 -0.2057  0.8387  0.5041
  791MPD2    H211717   1.496   4.351  12.551  2.4839 -1.0167 -1.5428
  791MPD2    H311718   1.283   4.260  12.543  1.9619  0.6548 -0.7138
  791MPD2     N11719   1.411   3.858  12.720  0.5914 -0.0371  0.4300
  791MPD2    H511720   1.492   3.800  12.734  0.9151 -0.2432 -2.3214
  791MPD2    N111721   1.713   4.226  12.650 -0.1406  0.2501  0.0955
  791MPD2    H711722   1.720   4.323  12.620 -0.8705  0.5452  0.8780
  792MPD2     C11723   2.006   4.191  11.336 -0.0368  0.5936 -0.1986
  792MPD2    C111724   1.952   4.247  11.224  0.1005  0.4289  0.0414
  792MPD2    C211725   1.819   4.211  11.188 -0.5005  0.1490  0.0606
  792MPD2    C311726   1.740   4.136  11.281 -0.0773  0.4595  0.6126
  792MPD2    C411727   1.798   4.076  11.389  0.4419 -0.0365  0.3991
  792MPD2    C511728   1.930   4.108  11.421 -0.0314 -1.2917 -0.4597
  792MPD2     H11729   1.776   4.265  11.104 -1.2812  0.0441  0.3886
  792MPD2    H111730   1.743   4.022  11.465  0.7333 -2.0818 -0.8563
  792MPD2    H211731   2.107   4.221  11.360  0.6696 -2.3290  0.5073
  792MPD2    H311732   1.979   4.059  11.504  2.6500  0.6217 -0.9207
  792MPD2     N11733   1.603   4.119  11.259 -0.4449  0.0085  0.8250
  792MPD2    H511734   1.551   4.056  11.319  0.6590 -1.2957  0.3970
  792MPD2    N111735   2.039   4.330  11.146 -0.2178  0.1272  0.5956
  792MPD2    H711736   2.135   4.344  11.175 -0.5697 -0.1261  1.8859
  793MPD2     C11737   1.034   3.991  10.402 -0.7503 -0.6147  0.7250
  793MPD2    C111738   1.168   3.967  10.436  0.5614  0.3942  0.0327
  793MPD2    C211739   1.218   3.973  10.563 -0.0742  0.2059 -0.3440
  793MPD2    C311740   1.126   3.996  10.665 -0.1466 -0.0668 -0.3046
  793MPD2    C411741   0.995   4.018  10.639  0.2597 -0.7048 -0.2442
  793MPD2    C511742   0.949   4.016  10.509 -0.1101 -0.4580 -0.2156
  793MPD2     H11743   1.320   3.960  10.595 -0.1735 -2.2782 -1.0792
  793MPD2    H111744   0.924   4.037  10.719  0.1336  0.0351 -0.5324
  793MPD2    H211745   0.994   3.987  10.301 -0.6336 -0.5460  0.6763
  793MPD2    H311746   0.842   4.029  10.497  0.1212  0.2643 -1.5395
  793MPD2     N11747   1.185   4.008  10.794  0.1427  0.2891 -0.6836
  793MPD2    H511748   1.284   3.985  10.801 -0.2697 -1.3070  0.0287
  793MPD2    N111749   1.272   3.958  10.335  0.0801 -0.0019  0.1850
  793MPD2    H711750   1.364   3.924  10.360 -1.5316 -1.8254  3.6130
  794MPD2     C11751   2.070   4.325  17.390  0.0843  0.5653  0.1032
  794MPD2    C111752   2.058   4.189  17.402 -0.6900 -0.9219 -0.1998
  794MPD2    C211753   2.015   4.107  17.300  0.5577 -0.5401 -0.0163
  794MPD2    C311754   1.959   4.178  17.190 -0.4968 -0.1062  0.1318
  794MPD2    C411755   1.977   4.314  17.181 -0.8192  0.2313 -0.3898
  794MPD2    C511756   2.043   4.393  17.273 -0.0374 -0.2820  0.1432
  794MPD2     H11757   2.010   4.000  17.312  1.1063 -0.6811 -1.0682
  794MPD2    H111758   1.955   4.361  17.086 -3.8004  0.2609  0.3201
  794MPD2    H211759   2.108   4.386  17.471  1.8049 -1.2746  0.7000
  794MPD2    H311760   2.050   4.500  17.255  0.3488  0.1384  2.8228
  794MPD2     N11761   1.894   4.105  17.080 -0.2963 -0.1337 -0.5665
  794MPD2    H511762   1.842   4.150  17.005 -3.1187 -1.2034  0.7578
  794MPD2    N111763   2.092   4.120  17.527  0.2127  0.0193 -0.0302
  794MPD2    H711764   2.098   4.020  17.516 -1.7653 -0.4008  2.8053
  795MPD2     C11765   4.345   0.946  13.950  0.3837  1.1943 -0.1360
  795MPD2    C111766   4.295   0.845  13.868  0.1213 -0.4662  0.5576
  795MPD2    C211767   4.356   0.715  13.861  0.6768  0.2374  0.4678
  795MPD2    C311768   4.472   0.686  13.935 -0.6516 -0.9007 -0.8566
  795MPD2    C411769   4.523   0.793  14.011 -0.0256 -0.7964 -0.1723
  795MPD2    C511770   4.458   0.917  14.010 -0.5588 -0.5538  0.4113
  795MPD2     H11771   4.317   0.647  13.786 -1.3650  0.7003  1.0960
  795MPD2    H111772   4.616   0.786  14.066 -0.7571  1.9994  1.4472
  795MPD2    H211773   4.288   1.036  13.971 -0.1689  1.1276 -1.3261
  795MPD2    H311774   4.493   0.998  14.073  1.0929 -0.1684 -1.0056
  795MPD2     N11775   4.539   0.567  13.910  0.1330 -0.2194 -0.3110
  795MPD2    H511776   4.502   0.489  13.858 -1.9933 -1.0329  2.4198
  795MPD2    N111777   4.182   0.872  13.783 -0.0350 -0.1898 -0.1149
  795MPD2    H711778   4.152   0.797  13.722  0.3619 -0.2749 -0.2003
  796MPD2     C11779   4.030   2.293  15.821  0.2674  0.1436 -0.5920
  796MPD2    C111780   4.087   2.344  15.932  0.5781  0.2712  0.4773
  796MPD2    C211781   4.078   2.478  15.950 -0.1899 -0.6707 -0.2892
  796MPD2    C311782   4.028   2.560  15.856 -0.6652  0.2873  0.1250
  796MPD2    C411783   3.973   2.508  15.738 -0.3858  0.7394 -0.3317
  796MPD2    C511784   3.974   2.376  15.728 -0.2592 -0.5117  0.3190
  796MPD2     H11785   4.128   2.531  16.031  1.7163 -1.8648 -0.6770
  796MPD2    H111786   3.927   2.561  15.655 -1.0923  0.5692 -0.0500
  796MPD2    H211787   4.031   2.185  15.811 -0.6477 -0.1061  1.8115
  796MPD2    H311788   3.916   2.344  15.642  0.5636 -0.2023 -0.3478
  796MPD2     N11789   4.052   2.694  15.875  0.3873 -0.2693  0.3008
  796MPD2    H511790   4.100   2.722  15.960  0.8013  0.5335 -0.2014
  796MPD2    N111791   4.153   2.252  16.020  0.1277 -0.0519  0.8639
  796MPD2    H711792   4.162   2.158  15.982  1.5887  0.1055  0.8147
  797MPD2     C11793   0.242   2.759  17.541 -0.4252  0.2027 -0.3753
  797MPD2    C111794   0.364   2.738  17.482 -0.1510 -0.9642 -0.5257
  797MPD2    C211795   0.376   2.739  17.345  0.0161  0.6796  0.6207
  797MPD2    C311796   0.268   2.743  17.264  0.0349  0.1396  0.0377
  797MPD2    C411797   0.149   2.759  17.326 -0.7230 -0.2732  0.1081
  797MPD2    C511798   0.135   2.765  17.462 -0.5623 -0.3724 -0.3511
  797MPD2     H11799   0.466   2.720  17.287 -2.8990  0.0747 -3.6869
  797MPD2    H111800   0.053   2.764  17.275 -0.3244  2.0629 -0.4119
  797MPD2    H211801   0.230   2.756  17.648 -0.0577  0.1554 -0.3376
  797MPD2    H311802   0.040   2.771  17.514  0.1361 -0.6360  0.9459
  797MPD2     N11803   0.294   2.724  17.124  0.6641  0.1295 -0.7519
  797MPD2    H511804   0.386   2.737  17.083  1.1896 -0.1602  0.3206
  797MPD2    N111805   0.482   2.714  17.549 -0.6643 -0.8944 -0.4999
  797MPD2    H711806   0.556   2.685  17.486 -0.9529 -0.7386 -0.9071
  798MPD2     C11807   0.951   2.550  16.989 -0.0301  0.2359  0.0026
  798MPD2    C111808   0.828   2.605  17.027 -0.0829  0.1843 -0.0954
  798MPD2    C211809   0.807   2.629  17.162 -0.2992 -0.2174 -0.6127
  798MPD2    C311810   0.908   2.614  17.250  0.1366 -0.1996  0.2697
  798MPD2    C411811   1.032   2.576  17.214  0.2958  0.1594 -0.3550
  798MPD2    C511812   1.048   2.536  17.085  0.4294  0.1089  0.2711
  798MPD2     H11813   0.717   2.679  17.196  0.4398  0.3317  0.5380
  798MPD2    H111814   1.110   2.569  17.290 -1.8541 -1.1056  1.7304
  798MPD2    H211815   0.970   2.511  16.890  0.8607  0.2970  0.1501
  798MPD2    H311816   1.137   2.484  17.052 -0.2936 -1.5935  0.9987
  798MPD2     N11817   0.873   2.634  17.382  0.6190  0.0580  0.2531
  798MPD2    H511818   0.772   2.624  17.392  0.8026 -1.9330  0.1943
  798MPD2    N111819   0.724   2.616  16.926  0.4067 -0.4466  0.1520
  798MPD2    H711820   0.733   2.572  16.835 -1.1568  1.0702 -0.7386
  799MPD2     C11821   3.844   3.652  14.797 -0.4148  0.8240 -0.3133
  799MPD2    C111822   3.826   3.563  14.702  0.0585 -0.6228 -0.9439
  799MPD2    C211823   3.754   3.587  14.584  0.4468 -0.1419  0.1816
  799MPD2    C311824   3.700   3.713  14.569  0.1127  0.0917 -0.6649
  799MPD2    C411825   3.739   3.814  14.661  0.6323 -0.0403  0.1630
  799MPD2    C511826   3.804   3.781  14.778  0.3480  0.8169 -0.4752
  799MPD2     H11827   3.743   3.509  14.509 -1.9169 -0.3180  0.7337
  799MPD2    H111828   3.705   3.917  14.665 -1.2602 -0.6245 -1.1068
  799MPD2    H211829   3.903   3.630  14.886 -0.7863  3.3916  0.5580
  799MPD2    H311830   3.798   3.858  14.854 -2.0621 -1.7575  1.9462
  799MPD2     N11831   3.618   3.753  14.460  0.2206 -0.2732  0.2043
  799MPD2    H511832   3.586   3.849  14.458  0.4762 -0.2150 -1.6569
  799MPD2    N111833   3.897   3.435  14.710 -0.4681  0.3192  0.2478
  799MPD2    H711834   3.893   3.372  14.630 -1.1950  0.5629  0.0954
  800MPD2     C11835   3.967   0.226  13.984  1.1589  1.1686 -1.0924
  800MPD2    C111836   4.095   0.204  14.025 -0.7529 -0.4473  0.1661
  800MPD2    C211837   4.146   0.081  13.989 -0.0078  0.0712 -1.1328
  800MPD2    C311838   4.076   4.719  13.922  0.6748  1.2944  0.2324
  800MPD2    C411839   3.956   0.017  13.874  0.4573 -0.1568  0.0717
  800MPD2    C511840   3.905   0.139  13.901 -0.2683 -0.0449  0.1258
  800MPD2     H11841   4.245   0.050  14.020 -0.5879  0.2115  0.8836
  800MPD2    H111842   3.890   4.687  13.818 -2.0885  1.5038  1.0957
  800MPD2    H211843   3.905   0.314  14.003  3.3984  2.7457 -1.1294
  800MPD2    H311844   3.801   0.151  13.874 -0.1540  1.4014  0.3359
  800MPD2     N11845   4.130   4.584  13.919 -0.3899  0.0680 -0.4342
  800MPD2    H511846   4.224   4.571  13.957  0.1706  1.3323 -1.4141
  800MPD2    N111847   4.176   0.296  14.099  0.0103 -0.0445 -0.2166
  800MPD2    H711848   4.269   0.260  14.116  1.0294  3.6146  1.8594
  801MPD2     C11849   4.181   0.908  14.674  0.3623  0.8371  0.5492
  801MPD2    C111850   4.140   0.784  14.629 -0.0292  0.4374  0.3777
  801MPD2    C211851   4.044   0.712  14.696 -0.1447  0.3431 -0.2432
  801MPD2    C311852   3.989   0.764  14.816 -0.1977 -0.6675 -0.1014
  801MPD2    C411853   4.024   0.889  14.857 -0.0792  0.0820  0.2587
  801MPD2    C511854   4.125   0.953  14.788  0.6008  0.3827  0.5022
  801MPD2     H11855   4.010   0.615  14.661  1.5941 -0.7911  1.2323
  801MPD2    H111856   3.980   0.942  14.941  1.9684 -0.0089  1.3775
  801MPD2    H211857   4.259   0.967  14.627 -0.4489  1.1550 -0.3950
  801MPD2    H311858   4.152   1.057  14.806 -0.5611  0.6322  0.8105
  801MPD2     N11859   3.897   0.681  14.884  0.0521  0.2639  0.6695
  801MPD2    H511860   3.871   0.590  14.847 -0.3351  1.0258 -0.9353
  801MPD2    N111861   4.182   0.731  14.505  0.5368 -0.4429 -0.3047
  801MPD2    H711862   4.137   0.645  14.474 -1.6415  0.5983 -0.0631
  802MPD2     C11863   4.451   1.385   0.080  0.3727 -0.2793 -0.1630
  802MPD2    C111864   4.386   1.413  17.700  0.3451 -0.4464 -0.6681
  802MPD2    C211865   4.359   1.317  17.611 -0.3651 -0.0356  0.0226
  802MPD2    C311866   4.401   1.187  17.641  0.1534 -0.2294  0.6610
  802MPD2    C411867   4.478   1.158   0.011 -0.1639 -1.0090 -0.5686
  802MPD2    C511868   4.504   1.258   0.100  0.1075  0.3747 -1.0462
  802MPD2     H11869   4.311   1.351  17.521 -1.7165 -0.5656  0.5420
  802MPD2    H111870   4.516   1.060   0.036 -1.1679 -1.1510  0.4023
  802MPD2    H211871   4.465   1.472   0.143 -0.8739  0.1747 -0.5256
  802MPD2    H311872   4.556   1.245   0.194 -1.0247  0.3745 -0.4150
  802MPD2     N11873   4.369   1.081  17.552  0.1865 -0.0748  0.2646
  802MPD2    H511874   4.328   1.112  17.464 -0.9306 -0.3784  0.6698
  802MPD2    N111875   4.337   1.545  17.661 -0.5190 -0.2922  0.6695
  802MPD2    H711876   4.280   1.560  17.578  1.7752  3.0376 -0.3269
  803MPD2     C11877   0.030   3.966  12.392  0.3372  0.3072 -0.1641
  803MPD2    C111878   0.149   3.984  12.463 -0.4105  0.5424 -0.1885
  803MPD2    C211879   0.178   3.903  12.572 -0.3119 -0.2102 -0.6236
  803MPD2    C311880   0.112   3.780  12.590 -0.0486 -0.1770  0.3408
  803MPD2    C411881   4.728   3.757  12.520  0.4433  0.5109 -0.2476
  803MPD2    C511882   4.689   3.855  12.430  0.5526 -0.2804 -0.4812
  803MPD2     H11883   0.272   3.929  12.620 -0.0151 -3.1619  0.3801
  803MPD2    H111884   4.661   3.672  12.526 -1.0970  1.6592 -1.1535
  803MPD2    H211885   0.000   4.033  12.312  1.2667  0.2461 -0.5645
  803MPD2    H311886   4.602   3.840  12.367 -0.9722  3.4722  0.7350
  803MPD2     N11887   0.157   3.691  12.691 -0.3466  0.2366 -0.5930
  803MPD2    H511888   0.226   3.718  12.760  1.4906 -0.9231 -1.9693
  803MPD2    N111889   0.239   4.083  12.417  0.1102  0.1352 -0.1829
  803MPD2    H711890   0.328   4.076  12.465 -1.3441  0.4858  2.5788
  804MPD2     C11891   0.127   0.675  16.916 -0.1320 -0.1403  0.2681
  804MPD2    C111892   0.056   0.679  17.034  0.1023 -0.3458  0.4117
  804MPD2    C211893   0.043   0.803  17.097 -0.6509 -0.5602 -0.3343
  804MPD2    C311894   0.086   0.923  17.041  0.3320  0.6311 -0.4814
  804MPD2    C411895   0.146   0.920  16.923 -0.2854 -0.5224 -0.4748
  804MPD2    C511896   0.166   0.795  16.862  0.1521 -0.9057  0.5068
  804MPD2     H11897   0.005   0.792  17.198  0.9883  1.9153  0.5489
  804MPD2    H111898   0.180   1.009  16.871 -0.7766  0.4222  0.8424
  804MPD2    H211899   0.164   0.582  16.874 -0.2809  0.3175 -0.8473
  804MPD2    H311900   0.229   0.791  16.774 -1.7442  0.7989 -0.9421
  804MPD2     N11901   0.101   1.046  17.110  0.2545 -0.5166  0.6355
  804MPD2    H511902   0.154   1.123  17.070  0.3506 -1.6193 -1.3421
  804MPD2    N111903   0.010   0.562  17.096 -0.2313  0.3603 -0.1447
  804MPD2    H711904   4.690   0.568  17.181 -2.0072  0.7746 -1.3197
  805MPD2     C11905   3.795   3.382  15.441  0.2570 -0.2385 -0.1333
  805MPD2    C111906   3.780   3.519  15.444 -0.4623  0.3291  0.7713
  805MPD2    C211907   3.891   3.591  15.486  0.0569 -0.0168  0.2170
  805MPD2    C311908   4.001   3.535  15.539 -0.0530 -0.2532 -0.1163
  805MPD2    C411909   4.009   3.396  15.542 -0.4483  0.4048 -0.0928
  805MPD2    C511910   3.905   3.322  15.500 -0.4543 -0.0984 -0.0585
  805MPD2     H11911   3.870   3.698  15.492  0.2375  0.1353 -2.2065
  805MPD2    H111912   4.087   3.339  15.590 -0.1585 -0.3067 -1.3951
  805MPD2    H211913   3.727   3.311  15.396 -0.1477  1.0533 -1.5672
  805MPD2    H311914   3.909   3.215  15.519  0.3006 -0.1091 -0.2649
  805MPD2     N11915   4.104   3.619  15.588 -0.6688 -0.1194  0.0024
  805MPD2    H511916   4.084   3.718  15.579  1.0942  0.0859 -1.5486
  805MPD2    N111917   3.664   3.587  15.390  0.0534  0.3694 -0.3247
  805MPD2    H711918   3.666   3.688  15.388  0.4874  0.3755  0.4489
  806MPD2     C11919   4.321   3.343   0.114 -0.5079  0.4178 -0.0456
  806MPD2    C111920   4.241   3.397   0.213  0.1532  0.2166 -0.5928
  806MPD2    C211921   4.260   3.537   0.238  0.3962  0.1243 -0.4561
  806MPD2    C311922   4.350   3.614   0.171 -0.1400  0.3072 -1.2055
  806MPD2    C411923   4.429   3.551   0.078 -0.4386  0.3323 -0.5560
  806MPD2    C511924   4.413   3.417   0.049  0.2901  0.2717  0.0725
  806MPD2     H11925   4.199   3.591   0.311  2.4082  0.5900  0.8685
  806MPD2    H111926   4.510   3.600   0.025  1.3773  0.1921  2.0441
  806MPD2    H211927   4.323   3.238   0.088 -1.0844  0.5933 -0.8237
  806MPD2    H311928   4.471   3.368  17.712  0.1265  0.8906 -0.4372
  806MPD2     N11929   4.348   3.744   0.205  0.0026 -0.2781 -0.3397
  806MPD2    H511930   4.312   3.762   0.298  2.3081  1.1811  0.2808
  806MPD2    N111931   4.145   3.310   0.280 -0.3946  0.2108  0.1817
  806MPD2    H711932   4.123   3.220   0.240  2.2501 -0.3025 -0.1499
  807MPD2     C11933   4.207   2.740   0.601  0.3859 -0.2949 -0.2115
  807MPD2    C111934   4.125   2.802   0.689 -0.4787 -0.2174  0.3682
  807MPD2    C211935   4.123   2.768   0.824  0.2125 -0.8316  0.0067
  807MPD2    C311936   4.210   2.669   0.866  0.4354  0.8189 -0.2717
  807MPD2    C411937   4.299   2.607   0.781 -0.5182 -0.5648 -0.7390
  807MPD2    C511938   4.294   2.648   0.650 -0.3641  0.3775 -0.0199
  807MPD2     H11939   4.050   2.829   0.876 -0.3733 -1.0331 -0.5822
  807MPD2    H111940   4.369   2.530   0.811 -1.0154 -1.1508 -1.0757
  807MPD2    H211941   4.212   2.753   0.493  0.3328  0.7821 -0.0841
  807MPD2    H311942   4.359   2.596   0.581 -0.8963  1.2506 -1.1852
  807MPD2     N11943   4.197   2.630   1.004 -0.0822  0.0305 -0.3413
  807MPD2    H511944   4.139   2.692   1.061  1.2151 -0.6271  1.7064
  807MPD2    N111945   4.037   2.909   0.651  0.1339  0.1790 -0.0174
  807MPD2    H711946   3.999   2.963   0.728  0.2011 -1.1390  0.9322
  808MPD2     C11947   4.726   0.054  10.004  0.5629 -0.1140  0.2304
  808MPD2    C111948   4.624   0.141  10.051 -1.1295  0.3377  0.7299
  808MPD2    C211949   4.661   0.268  10.092  0.8526  0.1002 -0.5291
  808MPD2    C311950   0.053   0.308  10.061  0.1445 -0.6729 -0.7115
  808MPD2    C411951   0.148   0.223  10.007  0.3250 -0.3838  0.8088
  808MPD2    C511952   0.116   0.094   9.979 -0.6281 -0.3404 -0.2290
  808MPD2     H11953   4.593   0.339  10.139  1.8137  1.4687 -1.2176
  808MPD2    H111954   0.247   0.257   9.977  0.8138 -0.3492  2.4719
  808MPD2    H211955   4.698   4.688   9.978 -1.0823  0.6757 -1.0749
  808MPD2    H311956   0.186   0.034   9.921  1.4667 -0.3586  2.2874
  808MPD2     N11957   0.099   0.443  10.077  0.2077  0.6396  0.0400
  808MPD2    H511958   0.187   0.466  10.032 -0.3410  0.9043 -0.9058
  808MPD2    N111959   4.487   0.094  10.057  0.2264 -0.1897 -0.1391
  808MPD2    H711960   4.424   0.163  10.097 -0.4340 -1.0980  0.3887
  809MPD2     C11961   0.030   0.993   9.365 -0.0164  0.0494  0.1712
  809MPD2    C111962   0.136   0.907   9.386 -0.0612 -0.4840 -0.1615
  809MPD2    C211963   0.187   0.897   9.511 -0.5523  0.0821  0.4628
  809MPD2    C311964   0.132   0.970   9.616  0.7087  0.6660  0.8547
  809MPD2    C411965   0.039   1.067   9.585 -0.3775 -0.6338  0.3373
  809MPD2    C511966   4.729   1.079   9.463  0.0165  0.2269  0.6109
  809MPD2     H11967   0.263   0.821   9.530  0.1431  1.4216  3.0660
  809MPD2    H111968   4.733   1.133   9.660  0.6154 -0.2975  0.5873
  809MPD2    H211969   4.717   1.012   9.270  0.4549  0.2977 -0.0171
  809MPD2    H311970   4.653   1.151   9.435 -0.2221 -0.4275 -0.4133
  809MPD2     N11971   0.156   0.946   9.756  0.9567  0.1278  0.4262
  809MPD2    H511972   0.108   1.014   9.814 -0.8734  1.1732 -2.2745
  809MPD2    N111973   0.179   0.810   9.290  0.2410  0.2409  0.3372
  809MPD2    H711974   0.249   0.744   9.324 -0.2469  0.2537  1.3754
  810MPD2     C11975   3.618   4.254  10.932 -0.2338 -0.2368  0.1851
  810MPD2    C111976   3.658   4.276  10.801  0.9583  0.1951  0.4470
  810MPD2    C211977   3.719   4.398  10.772  0.4020  0.4148 -0.3792
  810MPD2    C311978   3.715   4.499  10.865 -0.3274  0.2959 -0.6011
  810MPD2    C411979   3.682   4.470  10.995  0.1882  0.0747 -0.2993
  810MPD2    C511980   3.634   4.350  11.032 -0.2775 -0.1497 -0.1616
  810MPD2     H11981   3.755   4.410  10.671  0.0535 -1.1929 -0.6916
  810MPD2    H111982   3.689   4.548  11.071  0.0345 -0.3482  0.1472
  810MPD2    H211983   3.579   4.155  10.954  0.3057 -0.9799 -2.1710
  810MPD2    H311984   3.612   4.320  11.134 -1.3283  1.0727 -0.0359
  810MPD2     N11985   3.772   4.626  10.834  0.0962 -0.0839 -0.1289
  810MPD2    H511986   3.776   4.693  10.910  1.2061 -0.7192  0.3834
  810MPD2    N111987   3.617   4.177  10.706  0.0868 -0.3477 -0.3268
  810MPD2    H711988   3.566   4.095  10.740 -1.0614  0.7631  0.6291
  811MPD2     C11989   3.075   4.204   9.985  0.1085  0.2892  0.3272
  811MPD2    C111990   3.205   4.234  10.029  0.1940  0.7308  0.4987
  811MPD2    C211991   3.250   4.365  10.002  0.3443  1.0688 -0.9030
  811MPD2    C311992   3.158   4.462   9.961 -0.4616 -0.1971  0.1746
  811MPD2    C411993   3.025   4.430   9.932  0.9285  0.2465 -0.1357
  811MPD2    C511994   2.989   4.295   9.928 -0.3894  0.6438  0.6120
  811MPD2     H11995   3.354   4.391  10.019 -0.0476  1.2305  1.3119
  811MPD2    H111996   2.949   4.505   9.914  0.9709  1.2979  3.9629
  811MPD2    H211997   3.025   4.112  10.013  0.5605  0.3352  1.2839
  811MPD2    H311998   2.889   4.263   9.899 -0.6495  0.1528  2.0893
  811MPD2     N11999   3.204   4.590   9.957 -0.3019 -0.5389  0.2055
  811MPD2    H512000   3.300   4.595   9.990 -0.3101  0.9666  0.0150
  811MPD2    N112001   3.283   4.141  10.102  0.3467  0.4912 -0.3529
  811MPD2    H712002   3.234   4.057  10.133  1.7602 -1.1515 -2.6050
  812MPD2     C12003   2.888   3.977  11.811  0.8383 -0.1805 -0.1500
  812MPD2    C112004   2.842   4.071  11.897 -0.0816 -0.4663  0.2522
  812MPD2    C212005   2.832   4.042  12.036 -0.5376 -0.4773 -0.3486
  812MPD2    C312006   2.867   3.914  12.087 -0.2683 -0.4959  0.3869
  812MPD2    C412007   2.917   3.827  11.993 -0.0485  0.4358  0.2852
  812MPD2    C512008   2.920   3.853  11.857 -0.2410 -0.4796  0.4335
  812MPD2     H12009   2.791   4.121  12.098  1.3122 -1.5703  2.2766
  812MPD2    H112010   2.958   3.730  12.017 -0.2021  0.1732 -0.5078
  812MPD2    H212011   2.913   4.013  11.712  0.7872  0.6229  0.1277
  812MPD2    H312012   2.978   3.788  11.792 -1.0966  0.9872 -1.8017
  812MPD2     N12013   2.850   3.884  12.220 -0.6993  0.0001  0.5191
  812MPD2    H512014   2.842   3.969  12.275  3.3611  1.1533 -0.6716
  812MPD2    N112015   2.804   4.193  11.838 -0.3371 -0.5717 -0.2858
  812MPD2    H712016   2.800   4.191  11.736  4.7046 -0.4021 -0.5188
  813MPD2     C12017   1.887   0.740  13.027  0.3040  1.0628  0.6142
  813MPD2    C112018   1.908   0.875  13.037 -0.1310  0.0486  0.0465
  813MPD2    C212019   1.806   0.956  13.078 -0.4082  0.4926 -0.6998
  813MPD2    C312020   1.676   0.907  13.114  0.3633 -0.4642  0.3162
  813MPD2    C412021   1.655   0.772  13.093 -0.0302  0.1994  0.3353
  813MPD2    C512022   1.758   0.695  13.054 -0.2272  0.3512 -0.0469
  813MPD2     H12023   1.829   1.060  13.098  0.2437 -0.2846  2.6444
  813MPD2    H112024   1.558   0.726  13.106 -0.0403 -0.2692 -1.3226
  813MPD2    H212025   1.963   0.672  12.990  1.6661  1.5572  2.5372
  813MPD2    H312026   1.741   0.590  13.034  0.0426  0.6188 -1.6596
  813MPD2     N12027   1.572   0.990  13.167  0.2305  0.7062  0.4544
  813MPD2    H512028   1.585   1.091  13.167 -1.5866  0.9390 -0.8672
  813MPD2    N112029   2.034   0.942  13.014 -0.7199  0.5333  0.1109
  813MPD2    H712030   2.045   1.038  13.045  0.8554  1.3697 -3.0912
  814MPD2     C12031   1.968   1.807  11.847 -0.4891  0.3160 -0.0038
  814MPD2    C112032   2.003   1.915  11.767  0.4281  0.0086 -0.0972
  814MPD2    C212033   2.050   2.033  11.827 -0.7032  0.1439 -0.2169
  814MPD2    C312034   2.054   2.039  11.967 -0.1586  0.0402  0.1795
  814MPD2    C412035   2.000   1.938  12.042  0.1075  0.1556 -0.0890
  814MPD2    C512036   1.959   1.819  11.980  0.0370  0.1204 -0.1939
  814MPD2     H12037   2.067   2.120  11.765  0.9008  0.1234  0.2086
  814MPD2    H112038   2.005   1.942  12.151 -0.4272 -0.0231 -0.0581
  814MPD2    H212039   1.929   1.718  11.798 -1.4361 -1.3492  3.8341
  814MPD2    H312040   1.928   1.731  12.036  2.2753 -0.1869  0.5591
  814MPD2     N12041   2.123   2.139  12.038  0.1680 -0.1650 -1.3221
  814MPD2    H512042   2.140   2.125  12.137 -1.3945  1.0508 -0.8926
  814MPD2    N112043   1.987   1.921  11.626  0.0250 -0.0019  0.5936
  814MPD2    H712044   1.998   2.011  11.579 -1.7781 -0.5385 -0.8706
  815MPD2     C12045   2.741   1.059  11.414 -0.0135  0.3752  0.4431
  815MPD2    C112046   2.714   0.925  11.384  0.8327  0.3348 -0.7737
  815MPD2    C212047   2.640   0.852  11.474  0.3820 -0.3994 -0.2724
  815MPD2    C312048   2.597   0.912  11.590  0.1340 -0.1799  0.1753
  815MPD2    C412049   2.618   1.043  11.614 -0.4099  0.5371  0.2017
  815MPD2    C512050   2.694   1.115  11.524  0.6464 -0.0310  0.2228
  815MPD2     H12051   2.614   0.749  11.455 -2.7205  0.5396 -1.0374
  815MPD2    H112052   2.579   1.094  11.702 -1.9099 -0.0117 -0.1419
  815MPD2    H212053   2.804   1.120  11.350  1.7029  0.0920  1.8428
  815MPD2    H312054   2.695   1.223  11.530  0.6110 -0.2214  3.8749
  815MPD2     N12055   2.513   0.833  11.669 -0.0409 -0.4036  1.0170
  815MPD2    H512056   2.502   0.741  11.627 -2.4792 -0.6082  2.0860
  815MPD2    N112057   2.753   0.884  11.261 -0.6944 -0.7962  0.1040
  815MPD2    H712058   2.809   0.941  11.198 -0.4114  0.7508  1.7763
  816MPD2     C12059   3.476   0.872  17.196 -0.5092  0.2171  0.0474
  816MPD2    C112060   3.361   0.810  17.152  0.5337 -0.3350  0.1037
  816MPD2    C212061   3.376   0.690  17.075 -0.2402  1.0564  0.8459
  816MPD2    C312062   3.499   0.647  17.039 -0.0149 -0.2467  0.6448
  816MPD2    C412063   3.615   0.706  17.083  0.1453 -0.3675  1.2197
  816MPD2    C512064   3.596   0.813  17.169 -0.5374  0.1638  0.5922
  816MPD2     H12065   3.289   0.634  17.043 -1.4282  0.9457  4.3317
  816MPD2    H112066   3.717   0.672  17.070  0.1602  0.1821 -0.1122
  816MPD2    H212067   3.467   0.975  17.229 -2.3079 -0.1795  0.7902
  816MPD2    H312068   3.682   0.865  17.208  1.1884 -0.9629 -1.7142
  816MPD2     N12069   3.496   0.526  16.966 -0.4742  0.0780 -0.2774
  816MPD2    H512070   3.407   0.483  16.945 -0.7976  0.5875  0.0400
  816MPD2    N112071   3.239   0.873  17.172  0.3988 -0.9892 -0.5156
  816MPD2    H712072   3.229   0.963  17.217 -0.8050 -0.2873 -2.1756
  817MPD2     C12073   2.183   2.136   9.736  0.2754  0.7900 -0.1030
  817MPD2    C112074   2.056   2.069   9.709 -0.0234  0.1104 -0.6243
  817MPD2    C212075   1.955   2.140   9.648  0.3389  0.7909  0.0876
  817MPD2    C312076   1.972   2.273   9.621  0.0597  0.1215  0.0516
  817MPD2    C412077   2.093   2.338   9.652  0.5118 -0.4717  0.2205
  817MPD2    C512078   2.193   2.266   9.713 -0.2370  0.2989 -0.1229
  817MPD2     H12079   1.862   2.088   9.626 -1.2733  2.9544  1.8009
  817MPD2    H112080   2.111   2.444   9.632 -0.5220 -0.4033 -0.3375
  817MPD2    H212081   2.264   2.093   9.794  1.2568  1.5896 -0.9002
  817MPD2    H312082   2.289   2.316   9.716  0.2165 -0.5469 -0.5587
  817MPD2     N12083   1.862   2.326   9.553 -0.8331  0.2062 -0.2775
  817MPD2    H512084   1.773   2.277   9.546 -0.8056  0.0011  0.7689
  817MPD2    N112085   2.029   1.934   9.751  0.2399  0.1947  0.2331
  817MPD2    H712086   1.933   1.901   9.759 -0.9027  3.8078  1.4867
  818MPD2     C12087   1.186   2.443  10.095 -0.3446 -0.0552 -0.1169
  818MPD2    C112088   1.124   2.345  10.159 -0.8327 -0.0834  0.0223
  818MPD2    C212089   1.154   2.214  10.124 -0.3363  0.5705 -0.0725
  818MPD2    C312090   1.249   2.187  10.027  0.2809  0.0877 -0.2893
  818MPD2    C412091   1.314   2.283   9.960 -0.0877  0.2687 -0.1406
  818MPD2    C512092   1.284   2.409  10.005  0.2868 -0.4370 -0.1841
  818MPD2     H12093   1.107   2.136  10.183 -1.1171  0.9902 -0.1459
  818MPD2    H112094   1.383   2.266   9.879 -2.2710 -2.0913 -1.5089
  818MPD2    H212095   1.158   2.546  10.112  0.3312  0.1025  0.0541
  818MPD2    H312096   1.330   2.488   9.946  2.1452 -2.6434 -1.6792
  818MPD2     N12097   1.286   2.053  10.020 -0.6128  0.5400 -0.8148
  818MPD2    H512098   1.230   1.987  10.073 -1.7633  0.6951 -1.8285
  818MPD2    N112099   1.018   2.362  10.256 -0.2702 -0.1608 -0.4508
  818MPD2    H712100   0.979   2.272  10.281  4.5017 -1.5292  2.2046
  819MPD2     C12101   4.610   3.661  15.655 -0.6271 -0.6159  0.1240
  819MPD2    C112102   4.613   3.556  15.569 -0.2301  0.1090  0.1474
  819MPD2    C212103   4.690   3.446  15.610  0.1264  0.3869 -0.3421
  819MPD2    C312104   0.024   3.451  15.726 -0.0914 -0.0451  0.8441
  819MPD2    C412105   0.014   3.557  15.807 -0.4892  0.1718 -0.1298
  819MPD2    C512106   4.673   3.666  15.773 -0.9480 -0.7085  0.1935
  819MPD2     H12107   4.704   3.362  15.544  0.1027  1.5579 -1.8382
  819MPD2    H112108   0.062   3.553  15.904  0.9834 -0.1905 -0.8838
  819MPD2    H212109   4.544   3.743  15.631  0.4708  0.6418  1.3505
  819MPD2    H312110   4.671   3.750  15.842  0.5820 -0.0497 -0.5617
  819MPD2     N12111   0.104   3.335  15.751 -0.2010  0.5194  1.0150
  819MPD2    H512112   0.105   3.256  15.687  2.0630  0.9216  0.5315
  819MPD2    N112113   4.548   3.568  15.439 -0.0230  0.5495 -0.0078
  819MPD2    H712114   4.512   3.660  15.412 -2.5515 -1.0655 -2.1336
  820MPD2     C12115   3.849   4.026  15.202 -0.0388  0.5280 -0.0065
  820MPD2    C112116   3.811   3.901  15.169  0.1798 -0.0805 -0.2569
  820MPD2    C212117   3.906   3.799  15.165 -0.1241  0.3369  0.1708
  820MPD2    C312118   4.031   3.819  15.225  0.0718  0.0936 -0.1680
  820MPD2    C412119   4.067   3.948  15.258  0.3075  0.1834  0.2881
  820MPD2    C512120   3.979   4.052  15.242  0.3956 -0.2361  0.5407
  820MPD2     H12121   3.878   3.705  15.118  1.9321 -0.0622 -0.2499
  820MPD2    H112122   4.170   3.972  15.282  0.4296 -0.8882  0.8141
  820MPD2    H212123   3.778   4.107  15.186 -0.8365  0.2670  2.2832
  820MPD2    H312124   4.015   4.152  15.261 -1.4064  0.5292 -0.0905
  820MPD2     N12125   4.128   3.719  15.226 -0.4476  0.0170  0.0700
  820MPD2    H512126   4.222   3.741  15.258 -0.0325 -1.6713  0.0146
  820MPD2    N112127   3.681   3.862  15.128  0.1730 -0.2648  0.0339
  820MPD2    H712128   3.663   3.766  15.101  0.0609 -0.6515  1.5135
  821MPD2     C12129   4.299   4.013  13.364 -0.2417  0.5914 -0.2306
  821MPD2    C112130   4.291   4.154  13.396 -0.1999  0.9246  0.7432
  821MPD2    C212131   4.308   4.251  13.302 -0.3280  0.2071 -0.1444
  821MPD2    C312132   4.344   4.216  13.176 -1.0447  0.3626 -0.6876
  821MPD2    C412133   4.355   4.082  13.143  0.2985 -0.0888  0.1727
  821MPD2    C512134   4.328   3.982  13.232 -1.1193  0.1896 -0.1715
  821MPD2     H12135   4.308   4.355  13.334 -2.4784  0.6810 -1.6823
  821MPD2    H112136   4.380   4.050  13.043  1.0033  4.8180 -1.2035
  821MPD2    H212137   4.285   3.931  13.434  2.3499 -0.9573 -1.5341
  821MPD2    H312138   4.337   3.878  13.203 -1.8283  0.5130 -1.5372
  821MPD2     N12139   4.386   4.306  13.081 -0.3763 -0.3465 -0.4563
  821MPD2    H512140   4.386   4.270  12.987 -3.2964  2.0468 -1.3564
  821MPD2    N112141   4.291   4.197  13.529  0.2560 -0.6593  0.2331
  821MPD2    H712142   4.278   4.296  13.547 -1.3598 -0.6334 -1.1190
  822MPD2     C12143   0.706   4.615  15.691 -0.0667  0.9130  0.4034
  822MPD2    C112144   0.628   4.609  15.809 -0.3198 -0.3312  0.3861
  822MPD2    C212145   0.568   4.726  15.848  0.1713  0.1501  0.7102
  822MPD2    C312146   0.596   0.108  15.787  0.0462 -0.4487  0.2870
  822MPD2    C412147   0.675   0.107  15.670 -0.4396 -0.0644  0.4822
  822MPD2    C512148   0.728   4.731  15.621 -0.9049  0.0815  0.1051
  822MPD2     H12149   0.503   4.730  15.934 -2.2724 -3.2388 -0.9758
  822MPD2    H112150   0.697   0.201  15.620 -0.4379 -0.9960 -1.2744
  822MPD2    H212151   0.752   4.520  15.664 -0.5754  0.7929 -0.0341
  822MPD2    H312152   0.789   4.731  15.532 -0.4127 -1.4594  0.4486
  822MPD2     N12153   0.535   0.222  15.844 -0.4123 -0.2360  0.1913
  822MPD2    H512154   0.455   0.215  15.906  0.7345  1.6229  1.9130
  822MPD2    N112155   0.612   4.500  15.894  0.2651 -0.5361  0.2006
  822MPD2    H712156   0.576   4.517  15.987 -0.2085 -1.3500  0.1676
  823MPD2     C12157   0.078   0.611  16.423  0.1343 -0.3077 -0.5868
  823MPD2    C112158   0.161   0.512  16.371  0.3112  0.4001 -0.4098
  823MPD2    C212159   0.180   0.394  16.438 -0.1071  0.1049  0.0040
  823MPD2    C312160   0.141   0.385  16.568 -0.1385 -0.2357  0.0436
  823MPD2    C412161   0.062   0.483  16.623 -0.0565  0.0347  0.0517
  823MPD2    C512162   0.036   0.591  16.549 -0.3280  0.5460  0.8081
  823MPD2     H12163   0.240   0.317  16.392  0.7460 -0.1481  1.5429
  823MPD2    H112164   0.026   0.488  16.726 -2.0609  1.0253 -0.6968
  823MPD2    H212165   0.050   0.707  16.382  1.6302  0.6050  0.5069
  823MPD2    H312166   4.712   0.668  16.596 -2.2165  1.1466 -2.5324
  823MPD2     N12167   0.174   0.274  16.651  0.4644 -0.3647 -0.1368
  823MPD2    H512168   0.132   0.280  16.743  2.5803  0.5240  0.7728
  823MPD2    N112169   0.221   0.538  16.238  0.1472  0.5030  0.5180
  823MPD2    H712170   0.211   0.630  16.195  0.7604  0.8846  1.1909
  824MPD2     C12171   0.846   3.703  16.037  0.3295  0.7051  0.8982
  824MPD2    C112172   0.843   3.821  15.963 -0.4268  0.2775  0.3291
  824MPD2    C212173   0.954   3.840  15.877 -0.1246 -0.2841  0.5324
  824MPD2    C312174   1.055   3.746  15.857  0.8572  0.1874 -0.3719
  824MPD2    C412175   1.043   3.622  15.922  0.9923  0.2159 -0.0161
  824MPD2    C512176   0.937   3.605  16.007 -0.0740  0.0107 -0.1961
  824MPD2     H12177   0.954   3.941  15.838  4.4254 -0.7846 -0.7318
  824MPD2    H112178   1.117   3.543  15.919  0.5439 -0.2276  0.6110
  824MPD2    H212179   0.769   3.683  16.111 -0.4595 -1.6060 -0.5498
  824MPD2    H312180   0.932   3.522  16.077  0.6023 -2.4132 -3.0344
  824MPD2     N12181   1.174   3.774  15.784  0.4683 -0.0400 -0.4637
  824MPD2    H512182   1.177   3.870  15.750  2.2192  0.0647 -0.0291
  824MPD2    N112183   0.756   3.927  15.978  0.5188  0.0970 -0.0859
  824MPD2    H712184   0.769   4.018  15.934  0.1223 -0.2051 -0.8255
  825MPD2     C12185   1.421   3.859  14.993 -0.3664 -0.4875  0.1806
  825MPD2    C112186   1.407   3.925  15.116  0.0904  0.0213  0.8950
  825MPD2    C212187   1.394   4.060  15.110  0.6386  0.1553  0.1892
  825MPD2    C312188   1.390   4.132  14.986 -0.4337 -0.9425 -1.1351
  825MPD2    C412189   1.399   4.064  14.865 -0.4772  0.4904  0.2350
  825MPD2    C512190   1.412   3.920  14.866  0.0245 -0.1324 -0.6400
  825MPD2     H12191   1.389   4.124  15.197 -0.8006  2.0560 -1.2766
  825MPD2    H112192   1.396   4.119  14.772 -2.7930 -0.7309 -0.4263
  825MPD2    H212193   1.460   3.758  15.000 -1.4808 -0.9491 -0.3462
  825MPD2    H312194   1.443   3.864  14.778  0.3628  0.4727 -0.9000
  825MPD2     N12195   1.383   4.275  14.990  0.1771 -0.1413 -0.5431
  825MPD2    H512196   1.363   4.316  14.899  0.0939 -2.2001 -1.4431
  825MPD2    N112197   1.420   3.849  15.236  0.1444 -0.9660 -0.0351
  825MPD2    H712198   1.449   3.753  15.221 -0.8944 -1.7969  3.2818
  826MPD2     C12199   0.711   4.121  13.670 -0.3284 -0.2275  0.3232
  826MPD2    C112200   0.733   4.148  13.530  0.3635 -0.4474 -0.3181
  826MPD2    C212201   0.706   4.275  13.484 -0.0222  0.3744  0.4663
  826MPD2    C312202   0.651   4.370  13.571 -0.1042 -0.2429  0.0173
  826MPD2    C412203   0.637   4.342  13.707  0.1932  0.2666 -1.2220
  826MPD2    C512204   0.664   4.216  13.749 -0.1924 -0.0307 -0.4519
  826MPD2     H12205   0.731   4.304  13.383 -0.3000 -0.2714  0.2122
  826MPD2    H112206   0.606   4.418  13.778  2.0717  0.3105 -0.4366
  826MPD2    H212207   0.726   4.021  13.709 -0.5057  0.1187  1.2573
  826MPD2    H312208   0.664   4.189  13.855 -0.0362 -0.1690 -0.4862
  826MPD2     N12209   0.611   4.502  13.532  0.2138  0.1738  0.2241
  826MPD2    H512210   0.559   4.549  13.605  0.6369 -0.9802  1.2780
  826MPD2    N112211   0.763   4.039  13.448 -0.0165  0.5212  0.0523
  826MPD2    H712212   0.774   3.950  13.494 -2.3700 -0.1704 -0.7473
  827MPD2     C12213   1.330   0.696   9.761  0.2322  0.6170  0.6034
  827MPD2    C112214   1.346   0.575   9.818 -0.6361 -0.2433 -0.3737
  827MPD2    C212215   1.260   0.472   9.768 -0.4668  0.4599 -0.0921
  827MPD2    C312216   1.160   0.494   9.671  0.3097  0.4294 -1.2753
  827MPD2    C412217   1.150   0.623   9.625 -0.1848  0.1625 -0.1175
  827MPD2    C512218   1.234   0.724   9.671 -0.2280 -0.8522 -0.1344
  827MPD2     H12219   1.265   0.375   9.816  1.3725  0.2360 -0.7044
  827MPD2    H112220   1.083   0.667   9.552  0.0759 -0.1625 -0.5590
  827MPD2    H212221   1.396   0.775   9.794 -0.0452  0.8572  0.5835
  827MPD2    H312222   1.229   0.823   9.627 -0.2083 -0.4629  0.7409
  827MPD2     N12223   1.079   0.389   9.636  0.3783  0.4042  0.3321
  827MPD2    H512224   1.100   0.293   9.663 -1.7347 -0.0442  0.3911
  827MPD2    N112225   1.440   0.561   9.921  0.2624 -1.0435 -0.3803
  827MPD2    H712226   1.488   0.649   9.938 -1.5601 -0.2975  0.9692
  828MPD2     C12227   4.617   0.562  12.020 -0.2091 -0.5983 -0.1557
  828MPD2    C112228   4.532   0.524  11.920 -0.2234 -0.9597 -0.4301
  828MPD2    C212229   4.573   0.539  11.793 -0.0017 -0.4964  0.2313
  828MPD2    C312230   4.697   0.593  11.764 -0.2437  0.2372 -0.1494
  828MPD2    C412231   0.043   0.636  11.866  0.5295 -0.5917  0.0182
  828MPD2    C512232   4.729   0.632  11.993  0.4453 -0.8131  0.2524
  828MPD2     H12233   4.505   0.512  11.712  0.0164 -0.8879  0.3451
  828MPD2    H112234   0.136   0.687  11.841 -1.2102  2.8174  0.4566
  828MPD2    H212235   4.597   0.551  12.126 -1.7465 -1.5167 -0.5467
  828MPD2    H312236   0.056   0.670  12.073 -1.0528  0.7116  0.6959
  828MPD2     N12237   0.017   0.587  11.635 -0.0066  0.9907 -0.0646
  828MPD2    H512238   0.118   0.597  11.632 -0.0522  1.5335  0.1268
  828MPD2    N112239   4.415   0.452  11.940  0.2151 -0.0187 -0.7180
  828MPD2    H712240   4.358   0.437  11.858 -0.6615  1.8778 -0.4460
  829MPD2     C12241   3.860   0.292  11.373  0.6863  0.9429 -0.2303
  829MPD2    C112242   3.790   0.240  11.483  0.0991 -0.1093  0.1219
  829MPD2    C212243   3.857   0.219  11.603 -1.2440  0.4983 -0.2220
  829MPD2    C312244   3.997   0.225  11.616  0.0309 -0.4290  0.1633
  829MPD2    C412245   4.066   0.253  11.501  0.2279 -0.1750 -0.2901
  829MPD2    C512246   3.996   0.287  11.390 -1.2829  1.0482 -0.7120
  829MPD2     H12247   3.798   0.200  11.692 -1.2555 -1.0441 -0.5579
  829MPD2    H112248   4.174   0.263  11.507 -0.1778  2.5173  2.1447
  829MPD2    H212249   3.817   0.332  11.282  0.4485  1.2230  0.0030
  829MPD2    H312250   4.052   0.323  11.305  0.0983 -2.6142 -1.3493
  829MPD2     N12251   4.066   0.198  11.737  0.1182  0.4590 -0.0141
  829MPD2    H512252   4.165   0.221  11.741  0.3372 -0.3026 -1.1701
  829MPD2    N112253   3.647   0.251  11.478 -0.0468 -0.0425  0.0751
  829MPD2    H712254   3.605   0.285  11.392  0.5519 -0.7534 -0.4992
  830MPD2     C12255   0.864   3.268  15.738  0.2034 -0.0489 -0.8966
  830MPD2    C112256   0.741   3.268  15.669 -0.3318  0.9221 -0.8627
  830MPD2    C212257   0.709   3.359  15.580  0.2576 -0.2664  0.0866
  830MPD2    C312258   0.802   3.453  15.552  0.1398  0.0816 -0.3550
  830MPD2    C412259   0.930   3.459  15.618 -0.2305  0.4048 -0.9618
  830MPD2    C512260   0.953   3.370  15.716 -0.2910  0.0699  0.4033
  830MPD2     H12261   0.611   3.355  15.534  0.0131 -1.4344  0.7159
  830MPD2    H112262   0.996   3.543  15.601  0.7305  0.3263  2.4378
  830MPD2    H212263   0.881   3.196  15.818 -1.7210 -1.0937 -1.4344
  830MPD2    H312264   1.035   3.387  15.785  1.4591 -1.7936 -1.2106
  830MPD2     N12265   0.785   3.544  15.442  0.6157 -0.2833  0.3998
  830MPD2    H512266   0.865   3.590  15.401 -0.0496  2.8358  2.5983
  830MPD2    N112267   0.647   3.174  15.721 -1.1449  0.2421 -0.6350
  830MPD2    H712268   0.669   3.125  15.807 -3.8536 -0.9351 -0.6480
  831MPD2     C12269   0.700   0.329  16.194 -0.5388 -0.5284 -0.2868
  831MPD2    C112270   0.724   0.207  16.135 -0.3484 -0.2949  0.0826
  831MPD2    C212271   0.644   0.097  16.165  0.3948 -0.5246 -0.3380
  831MPD2    C312272   0.532   0.110  16.252 -0.0673  0.0196  0.3248
  831MPD2    C412273   0.520   0.225  16.323 -0.1074 -0.3959  0.8098
  831MPD2    C512274   0.599   0.336  16.289  0.2707  0.1088  0.0863
  831MPD2     H12275   0.654   0.014  16.096 -1.5306 -0.8957 -0.1688
  831MPD2    H112276   0.433   0.230  16.389  0.6843 -0.3289  1.8498
  831MPD2    H212277   0.765   0.413  16.173 -0.3272 -0.7282 -0.4347
  831MPD2    H312278   0.590   0.436  16.329 -2.5813 -0.3483  0.5791
  831MPD2     N12279   0.423   0.019  16.260 -0.3712  0.0383  0.0808
  831MPD2    H512280   0.343   0.046  16.317  0.8096  2.2519  0.6876
  831MPD2    N112281   0.832   0.205  16.046  0.0295  0.1928  0.1122
  831MPD2    H712282   0.867   0.294  16.011 -0.5241 -1.0933 -3.6697
  832MPD2     C12283   4.175   1.481  16.959  0.6344  0.2633  0.5838
  832MPD2    C112284   4.189   1.591  16.882  0.3303  0.0505  0.0818
  832MPD2    C212285   4.089   1.622  16.794 -0.2245  0.2980  0.7192
  832MPD2    C312286   3.984   1.545  16.776  0.3156 -0.1933 -0.5152
  832MPD2    C412287   3.989   1.415  16.834  0.0843  0.1048 -0.1378
  832MPD2    C512288   4.070   1.394  16.939 -0.1582 -0.0468 -0.0576
  832MPD2     H12289   4.111   1.706  16.729 -0.2254  0.2966  0.7170
  832MPD2    H112290   3.925   1.330  16.813 -1.3503  1.3284 -0.6620
  832MPD2    H212291   4.252   1.457  17.032 -0.2122  0.6690  1.6179
  832MPD2    H312292   4.074   1.304  16.999  1.8482 -0.0836 -0.2554
  832MPD2     N12293   3.872   1.573  16.694  0.2210 -0.2129  0.3098
  832MPD2    H512294   3.800   1.502  16.683 -0.0628  0.0403  0.5247
  832MPD2    N112295   4.308   1.663  16.901  0.1701 -0.1186  0.0932
  832MPD2    H712296   4.376   1.619  16.963  0.9434  0.9826  0.0315
  833MPD2     C12297   0.582   2.697  12.627  0.0816  0.5625  0.2828
  833MPD2    C112298   0.561   2.800  12.542 -0.1471  0.3841 -0.3557
  833MPD2    C212299   0.655   2.803  12.435  0.2018 -0.3779  0.1782
  833MPD2    C312300   0.765   2.725  12.431  0.0002 -0.3891 -0.4655
  833MPD2    C412301   0.792   2.637  12.532 -0.0522 -0.7367 -0.5902
  833MPD2    C512302   0.696   2.615  12.627  0.2391  0.1906 -0.3038
  833MPD2     H12303   0.646   2.872  12.352 -2.9232  2.0578  2.5109
  833MPD2    H112304   0.878   2.574  12.548 -0.1763  0.0298  3.3046
  833MPD2    H212305   0.520   2.693  12.716 -0.0943  1.9866  0.2213
  833MPD2    H312306   0.712   2.542  12.705  5.0252  1.7838  0.1982
  833MPD2     N12307   0.856   2.753  12.332 -0.2236  0.2724 -0.9234
  833MPD2    H512308   0.841   2.830  12.268 -0.4949  0.2181 -0.9214
  833MPD2    N112309   0.455   2.894  12.566 -0.6181 -0.1109  0.1303
  833MPD2    H712310   0.391   2.864  12.638 -1.5541 -0.6100 -0.9061
  834MPD2     C12311   0.695   2.399  11.479  0.0265 -0.2314 -0.0757
  834MPD2    C112312   0.605   2.473  11.547  0.4238 -0.7781 -0.9960
  834MPD2    C212313   0.654   2.548  11.658 -0.5871 -0.3716  0.0699
  834MPD2    C312314   0.790   2.545  11.696 -0.3694 -0.2736  0.8321
  834MPD2    C412315   0.872   2.450  11.637 -0.6230  0.5383 -0.7878
  834MPD2    C512316   0.828   2.388  11.521 -0.3987  0.1385 -0.3357
  834MPD2     H12317   0.580   2.612  11.705 -0.5156  0.1352 -0.5040
  834MPD2    H112318   0.976   2.446  11.666 -1.3436 -1.0168  1.5781
  834MPD2    H212319   0.659   2.351  11.389  0.5870  0.4008 -0.6353
  834MPD2    H312320   0.892   2.322  11.463 -0.3780  0.6790 -0.9217
  834MPD2     N12321   0.834   2.626  11.805  0.5571 -0.6288  0.2202
  834MPD2    H512322   0.762   2.680  11.852  2.6822  1.7973  0.6804
  834MPD2    N112323   0.477   2.480  11.494  0.4801  0.8166 -0.4659
  834MPD2    H712324   0.466   2.449  11.398  0.7173  0.7227 -0.4621
  835MPD2     C12325   0.604   1.117  10.958  0.5140  0.4626  0.4465
  835MPD2    C112326   0.511   1.030  11.021 -0.7854 -1.0701 -0.1443
  835MPD2    C212327   0.556   0.965  11.131 -0.3507 -0.4674 -0.2426
  835MPD2    C312328   0.680   0.984  11.196 -0.2876  0.3750  0.2368
  835MPD2    C412329   0.760   1.074  11.137 -0.5850 -0.3000 -0.3641
  835MPD2    C512330   0.724   1.135  11.017 -0.5528  0.0114  0.0653
  835MPD2     H12331   0.493   0.889  11.176  0.5596 -1.6896 -1.0249
  835MPD2    H112332   0.861   1.085  11.174  0.2300  0.3845 -2.7907
  835MPD2    H212333   0.605   1.159  10.858  1.0009  0.6752  0.5376
  835MPD2    H312334   0.797   1.198  10.967 -0.3077  0.4018  0.9289
  835MPD2     N12335   0.725   0.892  11.298 -0.2802 -0.0123 -0.4244
  835MPD2    H512336   0.821   0.913  11.324 -0.5093  0.2650  0.1843
  835MPD2    N112337   0.382   0.995  10.969 -0.2136 -0.4974 -0.1142
  835MPD2    H712338   0.321   0.941  11.031 -0.5019 -2.0146 -1.7286
  836MPD2     C12339   0.624   0.218  11.951  0.5341 -0.5911  0.7114
  836MPD2    C112340   0.564   0.301  11.860  1.2736  0.3608 -0.1617
  836MPD2    C212341   0.425   0.308  11.866 -0.4236 -0.1757 -0.0771
  836MPD2    C312342   0.349   0.236  11.954  0.6653 -0.4154  0.0208
  836MPD2    C412343   0.421   0.165  12.049 -1.0336  0.1637  0.9705
  836MPD2    C512344   0.553   0.153  12.046 -0.0613 -0.6322 -0.2733
  836MPD2     H12345   0.381   0.360  11.782  0.1715 -0.6059 -0.6554
  836MPD2    H112346   0.372   0.112  12.129 -4.0209 -0.1888 -1.0968
  836MPD2    H212347   0.731   0.201  11.944  1.2271  2.0619  5.4250
  836MPD2    H312348   0.606   0.101  12.125 -0.8917 -2.2855 -0.7915
  836MPD2     N12349   0.212   0.219  11.951  0.0709 -0.4153  0.3489
  836MPD2    H512350   0.173   0.176  12.035 -1.5166  0.4011  0.0406
  836MPD2    N112351   0.637   0.378  11.765  0.7054 -0.3515 -0.2686
  836MPD2    H712352   0.731   0.343  11.755  0.5491 -0.7001 -0.5172
  837MPD2     C12353   3.859   0.217   9.950  0.0229  0.9648 -0.2941
  837MPD2    C112354   3.758   0.301   9.955  0.0236  0.5109  0.3953
  837MPD2    C212355   3.778   0.419  10.022  0.5510 -0.0348  0.0446
  837MPD2    C312356   3.900   0.459  10.065  0.2955  0.0975 -0.2344
  837MPD2    C412357   4.011   0.384  10.043  0.7697 -0.1816  0.0742
  837MPD2    C512358   3.989   0.261   9.992 -0.4615  0.1321  0.7140
  837MPD2     H12359   3.698   0.491  10.039 -0.4528 -1.0760 -0.2668
  837MPD2    H112360   4.106   0.412  10.085  0.6181 -0.3434  0.5219
  837MPD2    H212361   3.851   0.116   9.912 -2.1004  0.7889  0.6226
  837MPD2    H312362   4.076   0.198   9.982  1.2255  2.4502  0.7202
  837MPD2     N12363   3.897   0.582  10.137  0.1786  0.2809 -0.2566
  837MPD2    H512364   3.802   0.619  10.137 -0.3082 -0.9637  0.4913
  837MPD2    N112365   3.624   0.272   9.916  1.1302  0.1691 -0.1140
  837MPD2    H712366   3.562   0.352   9.917 -0.5279 -1.0851 -1.8195
  838MPD2     C12367   1.984   2.694  11.128 -0.4276  0.4752  0.4751
  838MPD2    C112368   2.002   2.801  11.203 -0.7184  0.1029 -0.3272
  838MPD2    C212369   1.981   2.791  11.343  0.1272 -0.4199  0.3831
  838MPD2    C312370   1.937   2.670  11.396  0.3990 -0.1248 -0.2934
  838MPD2    C412371   1.919   2.559  11.313  0.5738  0.3342 -0.6397
  838MPD2    C512372   1.953   2.574  11.179 -0.1199 -1.0168  0.1826
  838MPD2     H12373   2.001   2.881  11.400 -1.3741 -0.2721  0.6861
  838MPD2    H112374   1.886   2.462  11.349 -1.5583  0.5892 -1.9306
  838MPD2    H212375   2.003   2.691  11.021 -0.6094  2.3212  0.3949
  838MPD2    H312376   1.937   2.489  11.113  0.6105 -0.9900 -0.0296
  838MPD2     N12377   1.917   2.669  11.536 -0.4683 -0.9331 -0.3229
  838MPD2    H512378   1.923   2.758  11.584 -0.0302  0.5354 -3.0623
  838MPD2    N112379   2.042   2.913  11.140  1.1337 -0.6903  0.0422
  838MPD2    H712380   2.042   2.914  11.039  0.2288 -0.4987  0.0445
  839MPD2     C12381   2.044   2.451  10.801 -0.0751  0.2712  0.4988
  839MPD2    C112382   2.007   2.552  10.720  0.0986  0.2293 -0.3244
  839MPD2    C212383   2.080   2.665  10.728  0.6146 -0.1941 -0.6017
  839MPD2    C312384   2.194   2.685  10.810 -0.3453  0.1260 -0.1808
  839MPD2    C412385   2.235   2.570  10.878  0.2408  0.0743 -0.2287
  839MPD2    C512386   2.162   2.453  10.869  0.4579 -0.3874 -0.0580
  839MPD2     H12387   2.044   2.750  10.670 -2.4426  1.6157  3.9100
  839MPD2    H112388   2.323   2.577  10.942 -0.4794  0.7361  0.6805
  839MPD2    H212389   1.982   2.363  10.809  1.9094 -1.3950 -2.6868
  839MPD2    H312390   2.182   2.368  10.933 -0.4570  0.5796  1.5120
  839MPD2     N12391   2.256   2.810  10.836 -0.2886 -0.5751 -0.0826
  839MPD2    H512392   2.330   2.804  10.906  1.2401  1.5915 -1.5110
  839MPD2    N112393   1.900   2.544  10.631  0.4825  1.2872 -0.1323
  839MPD2    H712394   1.899   2.621  10.564 -0.2856  1.5574  0.1924
  840MPD2     C12395   1.831   0.988  10.020  0.0446 -0.0304  0.3081
  840MPD2    C112396   1.886   0.898  10.106  0.3673 -0.0404  0.5728
  840MPD2    C212397   2.004   0.924  10.174  0.6483 -0.0712  0.7791
  840MPD2    C312398   2.059   1.054  10.171 -0.3331 -0.4325 -0.2415
  840MPD2    C412399   2.006   1.145  10.080 -0.4018 -0.5139 -0.0182
  840MPD2    C512400   1.890   1.114  10.015 -0.2364  0.0017  0.2641
  840MPD2     H12401   2.059   0.853  10.235  0.0480 -1.3279 -0.1548
  840MPD2    H112402   2.047   1.246  10.081 -0.3329 -0.5491  0.7800
  840MPD2    H212403   1.743   0.957   9.964 -0.2862 -0.0496  0.8403
  840MPD2    H312404   1.848   1.184   9.944  1.3992 -0.0872 -0.7918
  840MPD2     N12405   2.158   1.095  10.252  0.1236  0.2952  0.0061
  840MPD2    H512406   2.193   1.189  10.237  0.6303  0.4946  2.4002
  840MPD2    N112407   1.819   0.774  10.109  0.1023 -0.0538 -0.7129
  840MPD2    H712408   1.730   0.773  10.061 -0.2208  1.7220 -0.1481
  841MPD2     C12409   2.460   0.877  14.087 -0.1256 -0.2371 -0.2332
  841MPD2    C112410   2.447   0.806  14.200  0.2080  0.6019 -0.2930
  841MPD2    C212411   2.474   0.876  14.311  0.8114  0.5289 -0.4916
  841MPD2    C312412   2.517   1.011  14.323 -0.5381  0.4954 -0.4277
  841MPD2    C412413   2.538   1.070  14.205 -0.2388 -0.5326 -0.1431
  841MPD2    C512414   2.501   1.003  14.092  0.2531 -0.0400 -0.0859
  841MPD2     H12415   2.440   0.814  14.394  0.6465 -0.6880 -1.4597
  841MPD2    H112416   2.588   1.165  14.189  1.6859 -0.7803  4.6978
  841MPD2    H212417   2.444   0.828  13.992 -0.6415 -3.3439  1.4238
  841MPD2    H312418   2.521   1.053  13.998  0.9713  1.1205  0.6866
  841MPD2     N12419   2.547   1.062  14.447  0.0088  0.7978  0.0413
  841MPD2    H512420   2.525   0.999  14.523  0.6758 -0.9262 -1.1851
  841MPD2    N112421   2.410   0.670  14.215 -0.2319  0.0742  0.0812
  841MPD2    H712422   2.416   0.619  14.302 -0.8110 -0.9141 -0.4515
  842MPD2     C12423   3.029   1.940  17.129  0.6559 -0.2814  0.1703
  842MPD2    C112424   2.924   1.859  17.090  0.0574  0.3718 -0.5200
  842MPD2    C212425   2.859   1.782  17.178 -0.1365 -0.6893  0.6251
  842MPD2    C312426   2.897   1.784  17.309 -0.6166 -0.4085 -0.6025
  842MPD2    C412427   3.003   1.864  17.342 -0.5610 -0.3020 -0.0340
  842MPD2    C512428   3.064   1.951  17.256 -0.3114 -0.4712  0.2349
  842MPD2     H12429   2.769   1.733  17.143 -0.3319 -1.8104  2.7053
  842MPD2    H112430   3.021   1.873  17.448 -0.8777 -1.4890  0.1211
  842MPD2    H212431   3.077   2.008  17.060 -0.5451 -1.1649 -1.5301
  842MPD2    H312432   3.141   2.023  17.283  1.1475 -1.0387 -2.4242
  842MPD2     N12433   2.821   1.724  17.413  0.2119  0.1093  0.2308
  842MPD2    H512434   2.853   1.743  17.507  1.1994  1.8555 -0.4552
  842MPD2    N112435   2.889   1.875  16.953  0.9343  0.1101  0.0087
  842MPD2    H712436   2.945   1.940  16.898  0.7639 -0.6808 -1.0955
  843MPD2     C12437   4.515   2.802  17.673  0.0431 -0.1885  0.1257
  843MPD2    C112438   4.619   2.737  17.741 -0.4507 -0.2224  0.5766
  843MPD2    C212439   4.729   2.808   0.045 -0.2253  0.1692 -0.2106
  843MPD2    C312440   0.005   2.940   0.021  0.2944 -0.3008 -0.0069
  843MPD2    C412441   4.640   3.010  17.698 -0.4142  0.8735 -0.0970
  843MPD2    C512442   4.534   2.936  17.651 -0.1476  0.6321  0.1419
  843MPD2     H12443   0.075   2.758   0.095 -0.2260 -0.1913 -0.5679
  843MPD2    H112444   4.639   3.117  17.682 -0.9302  0.6614 -1.4564
  843MPD2    H212445   4.426   2.753  17.638  0.7591 -2.3436  1.3413
  843MPD2    H312446   4.452   2.990  17.605 -1.1238 -1.2975 -0.3823
  843MPD2     N12447   0.112   3.026   0.058  0.1832 -0.2968  0.8875
  843MPD2    H512448   0.133   3.113   0.010  1.8342 -0.7379  0.8134
  843MPD2    N112449   4.600   2.597   0.005 -0.0322 -0.8981 -0.3383
  843MPD2    H712450   4.522   2.555  17.697  1.0892  0.2449 -3.0951
  844MPD2     C12451   3.841   0.691  16.106 -0.3212 -0.1686 -0.4924
  844MPD2    C112452   3.756   0.797  16.085 -0.2056 -0.1193  0.6479
  844MPD2    C212453   3.787   0.926  16.143 -0.0408  0.1708  0.2687
  844MPD2    C312454   3.906   0.931  16.221  0.2245  0.3385 -0.0771
  844MPD2    C412455   3.991   0.821  16.231  0.0670  0.7182 -0.3113
  844MPD2    C512456   3.963   0.703  16.166 -0.1077  0.3869  0.3769
  844MPD2     H12457   3.724   1.014  16.136  2.6474  1.9298 -2.0886
  844MPD2    H112458   4.074   0.825  16.300  0.1100 -0.8411 -0.2798
  844MPD2    H212459   3.821   0.595  16.059 -1.5476 -0.9296  1.5612
  844MPD2    H312460   4.021   0.612  16.177  1.1685  1.2580  0.9133
  844MPD2     N12461   3.958   1.042  16.279 -0.1366 -0.7241  0.0842
  844MPD2    H512462   4.052   1.033  16.317 -0.3281 -0.7692  0.5507
  844MPD2    N112463   3.643   0.790  16.005 -0.1875 -0.5476 -0.0448
  844MPD2    H712464   3.594   0.878  15.991 -0.0136 -0.6266 -1.1544
  845MPD2     C12465   3.932   2.065  16.226  0.5075  0.3207  0.1263
  845MPD2    C112466   4.026   2.043  16.325 -0.7727  0.5818  0.0039
  845MPD2    C212467   4.064   1.913  16.346 -0.6954 -0.6698  0.1827
  845MPD2    C312468   4.012   1.811  16.270 -0.3108 -0.6939 -0.0490
  845MPD2    C412469   3.927   1.840  16.165 -0.2605 -0.2016  0.4766
  845MPD2    C512470   3.880   1.967  16.148 -0.2620  0.5792 -0.1054
  845MPD2     H12471   4.128   1.883  16.429 -0.7028 -0.9814  0.0742
  845MPD2    H112472   3.884   1.768  16.097 -0.4726  0.0815  0.3087
  845MPD2    H212473   3.892   2.163  16.203  1.4801  0.4373 -1.0675
  845MPD2    H312474   3.814   1.988  16.064  0.0395 -1.8111 -0.9401
  845MPD2     N12475   4.036   1.667  16.283  0.7617 -0.1840 -0.6983
  845MPD2    H512476   3.996   1.604  16.215  0.3397 -1.5394  0.7997
  845MPD2    N112477   4.067   2.148  16.410 -0.1353 -0.2350 -0.1234
  845MPD2    H712478   4.018   2.237  16.408  0.1976 -0.1098 -2.4773
  846MPD2     C12479   0.283   2.276  13.717  0.4100  0.1160  0.5398
  846MPD2    C112480   0.230   2.393  13.766  0.7266 -0.1742 -0.3270
  846MPD2    C212481   0.219   2.418  13.905  0.1884  0.9059 -0.0586
  846MPD2    C312482   0.264   2.322  13.993 -0.4553 -0.2689 -0.2819
  846MPD2    C412483   0.314   2.203  13.942  0.9526 -0.0653 -0.1922
  846MPD2    C512484   0.320   2.185  13.810  0.1502 -0.7297  0.0845
  846MPD2     H12485   0.173   2.511  13.934 -3.1431 -1.6268  2.8416
  846MPD2    H112486   0.337   2.116  14.004 -0.1831  0.1222  0.4982
  846MPD2    H212487   0.306   2.253  13.613  1.8637 -0.4197  0.9775
  846MPD2    H312488   0.363   2.096  13.765  1.1740  0.2511 -0.8804
  846MPD2     N12489   0.260   2.336  14.133 -0.2951  0.6891 -0.3088
  846MPD2    H512490   0.203   2.410  14.171 -0.0518  0.8049 -0.1722
  846MPD2    N112491   0.197   2.495  13.674 -0.3614  0.2357 -0.2800
  846MPD2    H712492   0.179   2.586  13.715  2.5591  0.3394  0.7258
  847MPD2     C12493   0.632   3.836  14.408 -0.0182 -0.0896 -0.0788
  847MPD2    C112494   0.621   3.710  14.471 -0.1642 -0.7338 -0.1189
  847MPD2    C212495   0.741   3.660  14.524  0.3786  0.3774 -0.1065
  847MPD2    C312496   0.861   3.734  14.521 -0.2308 -0.0540  0.1629
  847MPD2    C412497   0.864   3.858  14.469  0.6862  0.1698 -0.1406
  847MPD2    C512498   0.753   3.903  14.401 -0.0926 -0.3426  0.0924
  847MPD2     H12499   0.731   3.558  14.559 -0.7775  0.7456  0.6228
  847MPD2    H112500   0.959   3.911  14.471  1.1167 -0.5417 -1.6460
  847MPD2    H212501   0.549   3.885  14.358  0.4706  1.0586  0.2409
  847MPD2    H312502   0.763   3.993  14.342  2.1065  0.2365  1.3440
  847MPD2     N12503   0.978   3.687  14.585  0.6333 -0.4109  0.3719
  847MPD2    H512504   1.052   3.756  14.592 -0.7589  1.1124  0.0318
  847MPD2    N112505   0.498   3.632  14.476 -0.2504 -0.5029  0.1093
  847MPD2    H712506   0.511   3.534  14.499  1.9966 -0.1177  0.4665
  848MPD2     C12507   3.465   2.021  16.055 -0.3000  0.3077 -0.0955
  848MPD2    C112508   3.506   2.052  16.186 -0.4669  0.5506 -0.5238
  848MPD2    C212509   3.477   2.176  16.237  0.4148  0.0060  0.2972
  848MPD2    C312510   3.408   2.270  16.165 -0.2048  0.6170 -1.2952
  848MPD2    C412511   3.393   2.248  16.030  0.2193 -0.0327 -0.4604
  848MPD2    C512512   3.428   2.126  15.974  0.8414  0.1059 -0.5913
  848MPD2     H12513   3.498   2.205  16.339 -0.3582 -0.4209  0.5788
  848MPD2    H112514   3.368   2.339  15.977 -1.3948 -1.0978 -1.4882
  848MPD2    H212515   3.471   1.919  16.018  0.5725  0.0552  0.7601
  848MPD2    H312516   3.403   2.108  15.870 -0.6450  0.6484 -0.3377
  848MPD2     N12517   3.360   2.387  16.226  0.1095  0.1765  0.4146
  848MPD2    H512518   3.302   2.451  16.172  1.0078  0.1279 -0.6054
  848MPD2    N112519   3.554   1.956  16.280 -0.1689 -0.8451  0.5275
  848MPD2    H712520   3.585   1.990  16.370 -0.6423 -0.7002  0.6371
  849MPD2     C12521   2.162   1.158  14.534  0.0116 -0.9053 -0.8746
  849MPD2    C112522   2.145   1.289  14.491 -0.0558 -0.2880  0.1856
  849MPD2    C212523   2.189   1.395  14.564  0.2367 -0.4343  0.1434
  849MPD2    C312524   2.263   1.365  14.679  0.6529  0.2420 -0.8443
  849MPD2    C412525   2.279   1.232  14.719 -0.2456 -0.6016 -0.3327
  849MPD2    C512526   2.228   1.125  14.650  0.4791  0.2682 -0.6070
  849MPD2     H12527   2.176   1.495  14.523 -0.3566  0.0849  1.5873
  849MPD2    H112528   2.343   1.215  14.804  0.0996  1.7245 -0.1301
  849MPD2    H212529   2.131   1.074  14.474 -1.4982 -1.6236  0.9389
  849MPD2    H312530   2.242   1.021  14.675  0.3917  0.9828  2.4192
  849MPD2     N12531   2.309   1.478  14.751 -0.0181 -0.5986 -0.1824
  849MPD2    H512532   2.288   1.567  14.708 -0.9349 -1.1222 -0.8216
  849MPD2    N112533   2.083   1.306  14.368 -0.0496  0.2692 -0.7025
  849MPD2    H712534   2.058   1.222  14.317  1.0832  0.2987 -1.3176
  850MPD2     C12535   4.697   4.478  14.653 -0.3347 -0.2032  0.5037
  850MPD2    C112536   0.013   4.552  14.756  0.1872 -0.0259  0.6896
  850MPD2    C212537   0.150   4.588  14.752 -0.8688  0.2206  0.5216
  850MPD2    C312538   0.238   4.537  14.660  0.7279  0.3000 -0.3389
  850MPD2    C412539   0.183   4.463  14.557 -0.4851  0.2244  0.4349
  850MPD2    C512540   0.047   4.445  14.553  0.3547 -1.0803 -0.7805
  850MPD2     H12541   0.184   4.662  14.823  0.9066  0.0584 -0.1616
  850MPD2    H112542   0.244   4.417  14.480 -1.2250 -0.9453  0.5600
  850MPD2    H212543   4.591   4.460  14.643  0.0982 -2.6125  0.3098
  850MPD2    H312544   0.005   4.376  14.481 -2.0478  0.2658 -0.6902
  850MPD2     N12545   0.378   4.545  14.671 -0.5972  0.3786  0.0801
  850MPD2    H512546   0.432   4.518  14.589 -2.2569 -0.1400 -0.8628
  850MPD2    N112547   4.660   4.588  14.863  0.3499 -0.1387  0.4822
  850MPD2    H712548   4.563   4.569  14.838  0.0297  1.7877  0.2256
  851MPD2     C12549   0.600   4.513  15.384 -0.6586 -0.1922 -0.3829
  851MPD2    C112550   0.493   4.434  15.342 -0.5958  0.1509  0.1543
  851MPD2    C212551   0.510   4.298  15.318 -0.0981  0.6574 -0.2930
  851MPD2    C312552   0.636   4.242  15.335 -0.1164 -0.2321 -0.5725
  851MPD2    C412553   0.747   4.323  15.364  0.4968  0.5784 -0.1201
  851MPD2    C512554   0.722   4.450  15.393 -0.2745  0.3514  0.0111
  851MPD2     H12555   0.431   4.234  15.280 -0.0839  0.0762  0.6513
  851MPD2    H112556   0.846   4.280  15.362  0.7536  1.0984  1.0048
  851MPD2    H212557   0.593   4.619  15.403 -0.4219 -0.2954  0.3207
  851MPD2    H312558   0.802   4.517  15.423 -1.2534  1.7911 -0.6476
  851MPD2     N12559   0.644   4.109  15.297  0.6586  0.3145 -0.4381
  851MPD2    H512560   0.557   4.061  15.272  0.4597  0.2121  0.4486
  851MPD2    N112561   0.379   4.505  15.315 -0.1139  0.3203 -0.4691
  851MPD2    H712562   0.373   4.598  15.356  1.5384  0.0644  0.3559
  852MPD2     C12563   0.190   2.572  10.565  0.4136  0.5864 -0.1747
  852MPD2    C112564   0.091   2.653  10.618  0.6946 -0.0822  0.2718
  852MPD2    C212565   0.102   2.792  10.608 -1.0674 -0.2160  0.1107
  852MPD2    C312566   0.216   2.848  10.548 -0.3218 -0.1643  0.7302
  852MPD2    C412567   0.300   2.768  10.476 -0.4030 -0.5460 -0.3045
  852MPD2    C512568   0.285   2.630  10.481  0.1726 -0.5955 -0.0799
  852MPD2     H12569   0.030   2.855  10.659 -0.2301  1.8681 -1.3081
  852MPD2    H112570   0.372   2.811  10.408 -0.5496  1.2999  0.6818
  852MPD2    H212571   0.183   2.464  10.559  2.5706  0.6476 -3.8107
  852MPD2    H312572   0.357   2.576  10.421 -0.0271 -0.9368 -0.0093
  852MPD2     N12573   0.231   2.985  10.550 -0.2095 -0.3800  0.0863
  852MPD2    H512574   0.156   3.042  10.589 -0.6927 -0.7803 -0.2474
  852MPD2    N112575   4.707   2.599  10.682 -0.2977 -0.4153  0.3502
  852MPD2    H712576   4.644   2.668  10.722  0.9171  0.3506  0.9142
  853MPD2     C12577   1.629   1.415  12.320  0.0713  0.7884 -0.2872
  853MPD2    C112578   1.570   1.532  12.278 -0.0264 -0.5243  0.1545
  853MPD2    C212579   1.540   1.550  12.146  0.5439  0.3604  0.8592
  853MPD2    C312580   1.591   1.461  12.056 -0.5228  0.6606 -0.2939
  853MPD2    C412581   1.640   1.335  12.091 -0.1336  0.2604  0.5183
  853MPD2    C512582   1.659   1.318  12.228  0.3011  0.2584 -0.3345
  853MPD2     H12583   1.484   1.637  12.115 -0.5407 -0.0102  1.7761
  853MPD2    H112584   1.666   1.257  12.020 -0.1177  1.5548 -0.9022
  853MPD2    H212585   1.641   1.395  12.426 -1.9858 -1.1384 -0.4103
  853MPD2    H312586   1.699   1.223  12.259  1.2555  0.2173 -1.6544
  853MPD2     N12587   1.586   1.484  11.917 -0.0311 -0.1700 -0.2076
  853MPD2    H512588   1.596   1.400  11.861  0.9457 -1.7405  2.3036
  853MPD2    N112589   1.543   1.630  12.369 -0.3173  0.0047  0.5903
  853MPD2    H712590   1.586   1.623  12.461  1.5141  1.4682 -0.1417
  854MPD2     C12591   3.889   2.085  12.911 -0.0094  0.6343 -0.1036
  854MPD2    C112592   3.846   1.986  12.822  0.2256 -0.0866 -0.0609
  854MPD2    C212593   3.855   1.853  12.867 -0.7946 -0.0720 -0.3367
  854MPD2    C312594   3.905   1.825  12.990 -0.9099 -0.3448 -0.1814
  854MPD2    C412595   3.936   1.925  13.079  0.1827  1.1852 -0.9060
  854MPD2    C512596   3.929   2.057  13.039  0.5320 -0.3534 -0.2520
  854MPD2     H12597   3.837   1.777  12.792 -0.0349  1.1595 -1.7805
  854MPD2    H112598   3.959   1.907  13.183 -1.9717 -0.4417 -0.7155
  854MPD2    H212599   3.897   2.189  12.880  0.7697  1.1408  1.8056
  854MPD2    H312600   3.952   2.132  13.113  0.4965 -0.8932  0.3110
  854MPD2     N12601   3.902   1.694  13.038 -0.2111 -0.1241  0.3139
  854MPD2    H512602   3.955   1.687  13.125 -0.3827  0.1012  0.4384
  854MPD2    N112603   3.796   2.028  12.698  0.4916  0.7027 -0.3072
  854MPD2    H712604   3.779   2.128  12.692  0.9095  0.7925  0.0857
  855MPD2     C12605   4.294   1.641  13.756 -0.9096  0.1216 -0.3555
  855MPD2    C112606   4.238   1.515  13.735 -0.4559 -0.9961 -0.0351
  855MPD2    C212607   4.198   1.479  13.604  0.3875  0.3484 -0.2162
  855MPD2    C312608   4.231   1.557  13.496  0.1102  0.3658 -0.8237
  855MPD2    C412609   4.287   1.680  13.516 -0.2448  0.5964 -0.7536
  855MPD2    C512610   4.322   1.718  13.642 -0.2422  0.2604 -0.2216
  855MPD2     H12611   4.141   1.389  13.586  1.9313 -0.1652 -2.4554
  855MPD2    H112612   4.299   1.743  13.429 -2.2238  2.5707  0.3891
  855MPD2    H212613   4.317   1.689  13.851  0.0749  0.3045 -0.6874
  855MPD2    H312614   4.364   1.817  13.656 -0.1216  0.3864 -1.4667
  855MPD2     N12615   4.187   1.517  13.370 -0.4560  0.1178 -0.0720
  855MPD2    H512616   4.186   1.588  13.297  0.7323  2.3364  2.0646
  855MPD2    N112617   4.212   1.427  13.840 -0.5482  0.7336 -0.1323
  855MPD2    H712618   4.168   1.336  13.824 -1.5444  1.2086 -0.0986
  856MPD2     C12619   1.772   2.675  13.989  0.3153 -0.5856 -0.0937
  856MPD2    C112620   1.772   2.793  13.914 -0.0759  0.0535  0.4814
  856MPD2    C212621   1.649   2.859  13.893 -0.2557  0.0229  0.6182
  856MPD2    C312622   1.529   2.802  13.934  0.7462  0.4753  0.0423
  856MPD2    C412623   1.531   2.675  13.989  0.5262 -0.1225  0.3485
  856MPD2    C512624   1.650   2.617  14.025  0.1863 -0.4721  0.0320
  856MPD2     H12625   1.644   2.948  13.832  2.4420 -0.1805  0.0920
  856MPD2    H112626   1.440   2.617  14.007 -0.4338  1.6475  1.1778
  856MPD2    H212627   1.865   2.623  14.007 -0.3132 -1.5425  0.3787
  856MPD2    H312628   1.667   2.522  14.073 -0.2381  0.3005  1.6966
  856MPD2     N12629   1.400   2.857  13.911  0.6102 -0.1014  0.2764
  856MPD2    H512630   1.329   2.784  13.917 -0.8972  1.6502  3.1459
  856MPD2    N112631   1.899   2.850  13.859  0.3083  0.1108  0.8668
  856MPD2    H712632   1.900   2.947  13.829 -0.8605  0.7189  2.8331
  857MPD2     C12633   3.178   0.002  12.226 -0.7875  0.0165 -0.3424
  857MPD2    C112634   3.175   0.004  12.366 -0.6197  0.1453 -0.2835
  857MPD2    C212635   3.222   0.113  12.432 -0.7112  0.6219  0.4082
  857MPD2    C312636   3.292   0.214  12.367 -0.4376  0.5260 -0.6220
  857MPD2    C412637   3.281   0.216  12.235  0.9640 -0.3397 -0.0950
  857MPD2    C512638   3.237   0.105  12.166 -0.1717  0.2792  0.5747
  857MPD2     H12639   3.224   0.113  12.540 -1.3647 -2.1263  0.4131
  857MPD2    H112640   3.325   0.296  12.177  0.6445  0.1257  0.3024
  857MPD2    H212641   3.143   4.655  12.166 -1.9606 -0.3326  0.8253
  857MPD2    H312642   3.227   0.108  12.058  0.5891 -0.0810  0.4985
  857MPD2     N12643   3.346   0.318  12.443  0.0229  0.7771 -0.2690
  857MPD2    H512644   3.323   0.305  12.541 -0.0344 -1.2064 -0.5389
  857MPD2    N112645   3.121   4.630  12.431 -0.6428  0.2406  0.0101
  857MPD2    H712646   3.074   4.568  12.365 -1.4652 -0.5765  1.3548
  858MPD2     C12647   4.141   3.595  17.006 -0.4207 -0.0233 -0.1630
  858MPD2    C112648   4.088   3.710  16.946 -0.5568 -0.8473  0.4583
  858MPD2    C212649   4.036   3.816  17.021  0.0663 -0.4413 -0.8738
  858MPD2    C312650   4.037   3.799  17.159  0.0127  0.9967 -1.0335
  858MPD2    C412651   4.070   3.680  17.222  0.5117  0.6699 -0.0366
  858MPD2    C512652   4.131   3.583  17.145  0.1493 -0.2861 -0.6930
  858MPD2     H12653   4.019   3.915  16.983  2.8077 -0.0336 -1.0624
  858MPD2    H112654   4.059   3.669  17.329  0.8139 -1.6011 -0.2389
  858MPD2    H212655   4.188   3.515  16.949  1.2116  0.8093  0.0164
  858MPD2    H312656   4.161   3.490  17.192 -0.1942 -0.2277 -0.3596
  858MPD2     N12657   3.998   3.899  17.249  0.3940  0.6954 -0.1154
  858MPD2    H512658   3.991   3.880  17.348 -1.4487  0.6521 -0.2644
  858MPD2    N112659   4.066   3.700  16.811  0.2733  0.5883 -0.6354
  858MPD2    H712660   4.091   3.619  16.756 -0.6697 -0.0259 -0.1667
  859MPD2     C12661   2.429   1.636  15.866 -0.3166  0.1197  0.0033
  859MPD2    C112662   2.452   1.577  15.743 -0.7266  0.6107 -0.4180
  859MPD2    C212663   2.432   1.444  15.723  0.1903 -0.3173 -1.1462
  859MPD2    C312664   2.403   1.365  15.837 -0.4091 -0.2638 -0.0157
  859MPD2    C412665   2.379   1.426  15.959  0.0190  0.1108 -0.2551
  859MPD2    C512666   2.391   1.556  15.971  0.0873  0.3330  0.9735
  859MPD2     H12667   2.455   1.401  15.626  2.5637 -1.8077  0.0760
  859MPD2    H112668   2.335   1.382  16.048 -3.1197  1.8664 -0.9418
  859MPD2    H212669   2.430   1.743  15.887  0.1055  0.2542 -0.6894
  859MPD2    H312670   2.363   1.603  16.064 -0.0833  2.5782 -0.2287
  859MPD2     N12671   2.391   1.222  15.828 -0.2696  0.1319 -1.1562
  859MPD2    H512672   2.356   1.167  15.906  0.0603  0.1278 -1.0138
  859MPD2    N112673   2.487   1.660  15.637  0.4545  0.3055 -0.1033
  859MPD2    H712674   2.524   1.749  15.671  1.1300  0.2726 -0.7349
  860MPD2     C12675   4.712   1.382  11.567  0.1755  1.0830  0.3031
  860MPD2    C112676   4.722   1.458  11.689 -0.2843 -0.1349  0.3726
  860MPD2    C212677   4.632   1.429  11.784  0.0166  0.0742  0.5203
  860MPD2    C312678   4.539   1.329  11.768  0.2644 -0.7094  0.6864
  860MPD2    C412679   4.541   1.249  11.658  0.1349  0.1141 -0.3126
  860MPD2    C512680   4.625   1.275  11.551 -0.1000 -0.5995  0.2433
  860MPD2     H12681   4.619   1.497  11.867 -3.1871  0.5436 -0.3665
  860MPD2    H112682   4.463   1.174  11.655  0.7400 -0.7297  4.2504
  860MPD2    H212683   0.032   1.416  11.480 -2.6274 -2.5204 -2.9160
  860MPD2    H312684   4.617   1.216  11.460  0.1638 -0.4016  0.0911
  860MPD2     N12685   4.441   1.322  11.868  0.2032  0.4822 -0.5359
  860MPD2    H512686   4.436   1.401  11.932 -0.2856 -0.2493  0.3397
  860MPD2    N112687   0.073   1.572  11.706 -0.6184  0.2230  0.2014
  860MPD2    H712688   0.077   1.620  11.796 -1.2692  0.5024  0.0786
  861MPD2     C12689   3.035   4.064  11.039 -0.9810 -0.4492 -0.7543
  861MPD2    C112690   3.088   4.195  11.006 -0.0804 -0.0453 -0.3453
  861MPD2    C212691   3.018   4.266  10.906 -0.0226 -0.1173  0.5234
  861MPD2    C312692   2.908   4.218  10.839  0.2601 -0.5806 -0.7992
  861MPD2    C412693   2.861   4.099  10.876 -0.0643  0.1719 -0.2296
  861MPD2    C512694   2.925   4.021  10.968  0.0370  0.2232 -0.6894
  861MPD2     H12695   3.057   4.364  10.880 -2.6500  1.0269  0.9205
  861MPD2    H112696   2.765   4.062  10.842  0.8456 -0.6142 -1.9490
  861MPD2    H212697   3.083   3.995  11.108  2.5823  0.5512 -2.2314
  861MPD2    H312698   2.875   3.930  10.998 -1.3978  0.2837 -2.8587
  861MPD2     N12699   2.842   4.291  10.738 -0.0731 -0.1646 -0.0359
  861MPD2    H512700   2.749   4.263  10.707 -0.1249  1.6063 -1.4818
  861MPD2    N112701   3.188   4.266  11.075 -0.0959  0.0571 -0.2194
  861MPD2    H712702   3.216   4.358  11.043 -0.3035  0.0064 -0.5515
  862MPD2     C12703   2.166   4.366  10.465  0.8791  0.0074 -0.2234
  862MPD2    C112704   2.256   4.352  10.573 -0.1116 -0.5594 -0.1237
  862MPD2    C212705   2.217   4.280  10.688 -0.0929 -0.3309  0.2128
  862MPD2    C312706   2.089   4.238  10.695  0.3718 -0.6301 -0.6521
  862MPD2    C412707   2.003   4.260  10.594 -0.1809 -0.5286 -0.3884
  862MPD2    C512708   2.034   4.328  10.476 -0.1656 -0.1522 -0.2319
  862MPD2     H12709   2.297   4.251  10.754 -0.0021  0.8663  0.6242
  862MPD2    H112710   1.900   4.230  10.607 -0.1856 -0.2136  0.2969
  862MPD2    H212711   2.208   4.403  10.372  2.5113 -2.8824 -0.6277
  862MPD2    H312712   1.968   4.338  10.390  3.1963 -2.2885 -3.0714
  862MPD2     N12713   2.040   4.153  10.796  0.1050  0.5031 -0.1401
  862MPD2    H512714   1.940   4.135  10.795  0.5688 -2.1533  0.2865
  862MPD2    N112715   2.395   4.384  10.565 -0.4066 -0.0206  0.4511
  862MPD2    H712716   2.451   4.363  10.646 -0.3096 -0.2097  0.3344
  863MPD2     C12717   2.032   2.790  16.629 -0.0766  0.4939  0.2411
  863MPD2    C112718   1.943   2.853  16.710 -0.1479  0.5525 -0.1737
  863MPD2    C212719   1.990   2.923  16.817  0.2794 -0.0744 -0.0764
  863MPD2    C312720   2.127   2.929  16.849  1.2768 -0.0433  0.2121
  863MPD2    C412721   2.208   2.861  16.766  0.2795  0.1407 -0.6181
  863MPD2    C512722   2.163   2.781  16.666  0.1559  0.1580  0.0485
  863MPD2     H12723   1.921   2.991  16.866  2.6498  2.3959 -0.1718
  863MPD2    H112724   2.312   2.867  16.797 -0.9133 -0.6071  3.5060
  863MPD2    H212725   2.013   2.749  16.530  0.2606 -2.4885  1.4110
  863MPD2    H312726   2.225   2.727  16.595  1.0985  0.7180  0.4527
  863MPD2     N12727   2.172   3.005  16.962  0.6121 -1.0170  1.0431
  863MPD2    H512728   2.272   3.007  16.980  1.1003 -0.2502 -1.6771
  863MPD2    N112729   1.810   2.859  16.669 -0.0075 -0.0147  0.1171
  863MPD2    H712730   1.793   2.819  16.577  2.3605  0.6057 -0.5754
  864MPD2     C12731   2.544   4.047  17.041  0.2174 -0.5382  0.5685
  864MPD2    C112732   2.603   3.982  16.936 -0.6794  0.3112  0.1391
  864MPD2    C212733   2.709   4.047  16.869 -0.0066 -0.3380  0.5417
  864MPD2    C312734   2.730   4.180  16.898  0.0893  0.3584  0.6008
  864MPD2    C412735   2.666   4.242  16.995  0.1088 -0.1760 -0.1089
  864MPD2    C512736   2.583   4.170  17.075  0.1915  0.5912 -0.6757
  864MPD2     H12737   2.741   4.008  16.773  0.9006  1.8838 -0.0620
  864MPD2    H112738   2.683   4.346  17.018  3.2796 -1.2834  2.5741
  864MPD2    H212739   2.469   4.001  17.106 -0.7483  1.7474  1.0602
  864MPD2    H312740   2.534   4.203  17.166  0.1436  0.1301 -0.5342
  864MPD2     N12741   2.830   4.248  16.825 -0.6443 -0.2598  0.3778
  864MPD2    H512742   2.885   4.189  16.763 -0.3974  0.5275 -0.1502
  864MPD2    N112743   2.545   3.859  16.892 -0.1978 -0.8418 -0.6607
  864MPD2    H712744   2.470   3.818  16.947 -0.7881 -0.8913 -1.5035
  865MPD2     C12745   2.863   4.624  15.869  0.0905  0.8462  0.5894
  865MPD2    C112746   2.781   4.545  15.947  0.6414 -0.3194 -0.2233
  865MPD2    C212747   2.818   4.521  16.080  0.2617  0.2932  0.0312
  865MPD2    C312748   2.937   4.576  16.130  0.0672  0.2087  0.9149
  865MPD2    C412749   3.027   4.641  16.042  1.0165 -0.5613  0.7650
  865MPD2    C512750   2.987   4.669  15.913  0.2085 -1.1675 -0.2016
  865MPD2     H12751   2.751   4.458  16.137  1.8401 -1.0698  0.3569
  865MPD2    H112752   3.124   4.676  16.076  0.2995  2.0710  0.0552
  865MPD2    H212753   2.824   4.648  15.771 -0.7381  0.9141  0.9354
  865MPD2    H312754   3.054   4.706  15.836  1.0662  1.1253  1.6556
  865MPD2     N12755   2.989   4.559  16.264  0.0934  0.3364 -0.7317
  865MPD2    H512756   3.083   4.588  16.288 -1.1528  2.1436  1.9527
  865MPD2    N112757   2.675   4.479  15.886  0.3371 -0.3833  0.0415
  865MPD2    H712758   2.665   4.484  15.785 -0.8862  1.3253  0.2467
  866MPD2     C12759   3.966   0.466  10.981 -0.3460  0.2538 -0.2893
  866MPD2    C112760   3.927   0.333  10.986  0.1712 -0.3707  0.5055
  866MPD2    C212761   3.800   0.301  10.931  0.4352 -0.4323 -0.0521
  866MPD2    C312762   3.722   0.396  10.868 -0.9611 -0.6000  0.3542
  866MPD2    C412763   3.760   0.525  10.869  0.6618 -0.0426 -0.7898
  866MPD2    C512764   3.885   0.559  10.916 -0.4636  0.0963 -0.4877
  866MPD2     H12765   3.759   0.201  10.938 -0.5836  0.1060  1.7066
  866MPD2    H112766   3.701   0.608  10.831 -0.2268 -0.3403 -0.0413
  866MPD2    H212767   4.070   0.495  10.995 -0.9810  1.8112  1.2695
  866MPD2    H312768   3.934   0.653  10.894  0.1213 -0.8878 -3.3069
  866MPD2     N12769   3.599   0.365  10.806 -0.1588  0.5683  0.0119
  866MPD2    H512770   3.546   0.442  10.768 -0.8926  0.2547  0.3925
  866MPD2    N112771   4.019   0.243  11.046 -0.0542 -0.3489  0.2266
  866MPD2    H712772   4.105   0.282  11.084  0.8912  0.4168 -2.7001
  867MPD2     C12773   1.202   4.182  16.619 -0.3834 -0.1352 -0.2643
  867MPD2    C112774   1.318   4.222  16.687  0.7257  0.2896  0.8210
  867MPD2    C212775   1.349   4.360  16.697 -0.6626 -0.9917  0.3650
  867MPD2    C312776   1.260   4.455  16.639 -0.4146 -0.3917  0.8023
  867MPD2    C412777   1.152   4.415  16.563 -0.4238  0.4778  0.4068
  867MPD2    C512778   1.120   4.273  16.556 -0.0398  0.6430  0.4864
  867MPD2     H12779   1.432   4.395  16.756  0.7165  1.5606 -3.0600
  867MPD2    H112780   1.096   4.494  16.516 -0.0604  0.6362  0.2368
  867MPD2    H212781   1.188   4.075  16.627 -0.2007 -0.3525 -2.7586
  867MPD2    H312782   1.026   4.254  16.505  0.5196  2.4826 -1.2395
  867MPD2     N12783   1.276   4.596  16.662  0.2803  0.0901  0.1076
  867MPD2    H512784   1.221   4.659  16.603  0.1165 -0.4169 -0.2800
  867MPD2    N112785   1.398   4.125  16.748  0.6856  0.2560  0.0780
  867MPD2    H712786   1.366   4.029  16.740 -0.0852  0.5684 -0.5789
  868MPD2     C12787   2.836   3.220  13.250  0.1529  0.4827  0.3473
  868MPD2    C112788   2.933   3.189  13.341  0.3624  0.0384  0.1038
  868MPD2    C212789   2.909   3.181  13.478 -0.2231 -0.1490  0.2685
  868MPD2    C312790   2.784   3.202  13.526 -0.0021 -0.0014 -0.1935
  868MPD2    C412791   2.684   3.228  13.430  0.6193 -0.6910 -0.5962
  868MPD2    C512792   2.711   3.242  13.294  0.5928  0.1384 -0.1839
  868MPD2     H12793   2.992   3.140  13.535 -0.2137 -0.1115  0.2814
  868MPD2    H112794   2.583   3.248  13.462  1.2167  0.0801  0.8047
  868MPD2    H212795   2.853   3.216  13.143  2.7050 -0.5794  0.7919
  868MPD2    H312796   2.635   3.250  13.216  1.7521  0.1666 -1.3089
  868MPD2     N12797   2.769   3.197  13.664  0.1953 -0.9121 -0.3388
  868MPD2    H512798   2.841   3.153  13.722  0.9406 -0.2430 -0.7577
  868MPD2    N112799   3.053   3.157  13.279 -0.0480  0.0159 -0.0652
  868MPD2    H712800   3.048   3.143  13.179  1.5924 -1.7635  0.1049
  869MPD2     C12801   4.483   0.947   0.284  0.3826  0.2273  0.2105
  869MPD2    C112802   4.376   1.010   0.344 -0.4223 -0.1926 -0.0871
  869MPD2    C212803   4.399   1.106   0.445  0.0351 -0.1561 -0.2839
  869MPD2    C312804   4.529   1.147   0.465 -0.0405  0.3248  0.0938
  869MPD2    C412805   4.633   1.080   0.406  0.1114 -0.2455 -0.0120
  869MPD2    C512806   4.609   0.984   0.312 -0.1450 -0.3780  0.2713
  869MPD2     H12807   4.318   1.129   0.513  0.1218  1.1401 -0.6122
  869MPD2    H112808   4.735   1.116   0.416  0.5966 -2.8221  4.4217
  869MPD2    H212809   4.458   0.880   0.203 -0.1650  3.2252 -2.0669
  869MPD2    H312810   4.687   0.932   0.259  1.5332  1.5344  0.8773
  869MPD2     N12811   4.561   1.243   0.561 -0.3715 -0.0704  0.0674
  869MPD2    H512812   4.660   1.268   0.567 -0.3546  0.0511 -0.8376
  869MPD2    N112813   4.241   0.982   0.302 -0.4101 -0.1035 -0.1425
  869MPD2    H712814   4.228   0.917   0.225  0.4386  1.0182 -1.2089
  870MPD2     C12815   3.709   4.411   1.407 -0.0342 -0.6996 -0.5773
  870MPD2    C112816   3.839   4.459   1.394 -0.2115  0.4016 -0.7766
  870MPD2    C212817   3.858   4.588   1.363 -0.3762  0.0692 -0.5830
  870MPD2    C312818   3.749   4.665   1.330  0.2337  0.6037  0.1729
  870MPD2    C412819   3.620   4.615   1.336 -0.2719  0.2304  0.2276
  870MPD2    C512820   3.599   4.482   1.376  0.4990  0.4217 -0.4637
  870MPD2     H12821   3.957   4.625   1.339  0.2251  0.2701  2.2083
  870MPD2    H112822   3.533   4.678   1.325 -0.3196 -0.0895 -1.3033
  870MPD2    H212823   3.695   4.305   1.423  0.6871 -0.6749  0.2419
  870MPD2    H312824   3.500   4.450   1.405  0.6784 -0.6902 -1.1210
  870MPD2     N12825   3.771   0.062   1.282 -0.2136  0.2568 -0.5830
  870MPD2    H512826   3.863   0.094   1.253  0.2710 -1.1002 -0.5200
  870MPD2    N112827   3.941   4.368   1.411 -0.2710  0.0537  0.5346
  870MPD2    H712828   3.914   4.270   1.411  0.3982 -0.1237 -4.0193
  871MPD2     C12829   0.374   4.249  16.400 -0.3925 -0.1822  0.5762
  871MPD2    C112830   0.330   4.272  16.527 -0.4674 -0.7536  0.2158
  871MPD2    C212831   0.288   4.156  16.595 -0.4189  0.0372  0.3187
  871MPD2    C312832   0.299   4.032  16.545  0.1503  0.1846 -0.6864
  871MPD2    C412833   0.357   4.017  16.419 -0.0964 -1.1544 -0.3489
  871MPD2    C512834   0.384   4.126  16.342  0.2698 -0.9971 -0.3220
  871MPD2     H12835   0.239   4.170  16.691 -0.8467 -1.4104  0.3111
  871MPD2    H112836   0.368   3.916  16.381  3.7966 -0.0623 -2.1344
  871MPD2    H212837   0.405   4.340  16.349 -2.9107  0.8992  0.9931
  871MPD2    H312838   0.417   4.121  16.239  1.5878  1.3755 -0.0287
  871MPD2     N12839   0.247   3.931  16.624 -0.1143  0.1540  0.6296
  871MPD2    H512840   0.207   3.963  16.711 -0.6222  0.4646  0.2785
  871MPD2    N112841   0.337   4.400  16.587 -0.3281  0.4807  0.2858
  871MPD2    H712842   0.392   4.468  16.536 -0.5293  0.0531 -0.5102
  872MPD2     C12843   1.116   2.306  13.712 -0.4279  0.1072 -0.3989
  872MPD2    C112844   1.196   2.238  13.799  0.9910  0.0555 -0.4964
  872MPD2    C212845   1.134   2.166  13.897  0.0260 -0.4546 -0.1575
  872MPD2    C312846   0.994   2.156  13.901  0.0751 -0.0573 -0.1243
  872MPD2    C412847   0.917   2.219  13.812  0.9140 -0.3264 -0.8689
  872MPD2    C512848   0.976   2.300  13.719  0.4658 -0.2434 -0.9043
  872MPD2     H12849   1.202   2.113  13.964 -0.3785  2.0830  2.2543
  872MPD2    H112850   0.811   2.195  13.812  0.8004  0.1947 -1.7799
  872MPD2    H212851   1.146   2.375  13.635  2.3168 -0.2559  0.3438
  872MPD2    H312852   0.919   2.345  13.639 -0.8698 -0.1927  0.0780
  872MPD2     N12853   0.916   2.094  14.006  0.5928 -0.2644 -0.4765
  872MPD2    H512854   0.816   2.099  13.991  0.6358  2.5733  0.1555
  872MPD2    N112855   1.338   2.259  13.800  0.8707  0.7269 -0.3477
  872MPD2    H712856   1.382   2.211  13.878  0.2671 -1.0685 -1.1025
  873MPD2     C12857   2.492   2.509   0.973  0.2729 -0.2478  0.2048
  873MPD2    C112858   2.613   2.463   1.006  0.5878  0.1408 -0.1470
  873MPD2    C212859   2.675   2.376   0.927  0.4243 -0.8541  0.2488
  873MPD2    C312860   2.629   2.348   0.801 -0.2238  0.5017 -0.4284
  873MPD2    C412861   2.518   2.409   0.750 -0.4084  0.4526 -0.0327
  873MPD2    C512862   2.445   2.482   0.845  0.4965  0.2868 -0.2385
  873MPD2     H12863   2.763   2.319   0.956 -0.6222 -2.0519  1.0759
  873MPD2    H112864   2.475   2.398   0.651  1.0816  1.6532 -0.8219
  873MPD2    H212865   2.435   2.573   1.040  1.7158 -0.3459  1.5346
  873MPD2    H312866   2.351   2.529   0.816  0.1157 -0.6483 -0.5017
  873MPD2     N12867   2.689   2.243   0.726  0.5605  0.4725 -0.0264
  873MPD2    H512868   2.769   2.191   0.762  1.9247  1.1251 -2.0504
  873MPD2    N112869   2.666   2.505   1.128 -0.2452  0.8328  0.1993
  873MPD2    H712870   2.599   2.557   1.183  0.9979  1.4898  1.0921
  874MPD2     C12871   2.594   2.358  16.270  0.4012 -0.4395  0.2603
  874MPD2    C112872   2.689   2.312  16.364  0.7133 -0.1033 -0.2673
  874MPD2    C212873   2.800   2.394  16.376  0.8442 -0.1177 -0.0353
  874MPD2    C312874   2.826   2.502  16.291  0.2207 -0.4557  0.2163
  874MPD2    C412875   2.740   2.528  16.184  0.0920 -0.3033 -0.3680
  874MPD2    C512876   2.622   2.464  16.183  0.2351  0.1487  0.0513
  874MPD2     H12877   2.878   2.373  16.448 -0.1378 -1.6065  0.6026
  874MPD2    H112878   2.749   2.608  16.111  1.4066  0.2368  0.3730
  874MPD2    H212879   2.493   2.320  16.259  0.0709  0.3250  0.6517
  874MPD2    H312880   2.545   2.492  16.112  1.7781  2.2345 -0.7774
  874MPD2     N12881   2.942   2.581  16.316  0.4460 -0.8037  0.0275
  874MPD2    H512882   2.973   2.641  16.241 -3.9477  2.4249  0.7667
  874MPD2    N112883   2.668   2.192  16.441 -0.1301  0.4379 -0.2575
  874MPD2    H712884   2.587   2.136  16.417  0.2345 -0.7539  1.3589
  875MPD2     C12885   2.887   0.404  14.544 -0.5499  0.2121  0.0392
  875MPD2    C112886   2.998   0.456  14.486 -0.0288 -0.5564  0.4132
  875MPD2    C212887   3.089   0.531  14.565 -0.3357  1.0524 -0.0707
  875MPD2    C312888   3.059   0.574  14.696  0.5272  0.9206  0.8139
  875MPD2    C412889   2.944   0.520  14.749  0.2203  0.2952  0.0771
  875MPD2    C512890   2.864   0.446  14.668  0.2350  0.5192  0.0413
  875MPD2     H12891   3.183   0.557  14.518  0.2706  0.0075  0.5414
  875MPD2    H112892   2.923   0.514  14.855  0.5479 -0.3953  0.1077
  875MPD2    H212893   2.805   0.355  14.492  0.5932 -1.7196  0.0274
  875MPD2    H312894   2.784   0.399  14.724  0.2965  0.7680  0.3354
  875MPD2     N12895   3.132   0.654  14.773  0.8284 -0.0729  0.4207
  875MPD2    H512896   3.087   0.696  14.853  0.4551  0.9064 -0.3103
  875MPD2    N112897   3.035   0.423  14.353  0.3514 -0.0643 -0.6678
  875MPD2    H712898   3.124   0.455  14.316  0.9830 -1.9091 -0.7304
  876MPD2     C12899   3.092   1.973  16.433 -0.8540  0.3960 -0.4051
  876MPD2    C112900   2.989   1.956  16.342 -0.5855  0.4800 -0.4870
  876MPD2    C212901   2.936   1.830  16.322  0.6013  0.2712 -0.7229
  876MPD2    C312902   2.960   1.732  16.419 -0.2326 -0.3741  0.1757
  876MPD2    C412903   3.045   1.753  16.520 -0.2951  0.1180  0.0102
  876MPD2    C512904   3.116   1.873  16.521 -0.5645 -0.3758  0.2831
  876MPD2     H12905   2.864   1.803  16.246  0.1757  2.0079 -0.9390
  876MPD2    H112906   3.057   1.678  16.598  0.3835  0.7197  0.4922
  876MPD2    H212907   3.151   2.063  16.441  1.9128 -1.3897 -1.0030
  876MPD2    H312908   3.180   1.891  16.606 -1.8511 -0.7183  1.3309
  876MPD2     N12909   2.912   1.604  16.398 -0.2989  0.6817  0.1683
  876MPD2    H512910   2.862   1.585  16.311  0.4852 -1.0163  0.0881
  876MPD2    N112911   2.954   2.066  16.260 -0.1570 -0.4606 -0.4837
  876MPD2    H712912   3.014   2.147  16.260 -0.4410 -0.2484  0.3607
  877MPD2     C12913   2.538   2.256  15.516  0.2523 -0.2704  0.4803
  877MPD2    C112914   2.672   2.290  15.526 -0.4502 -0.5325 -0.3491
  877MPD2    C212915   2.752   2.291  15.415 -0.3768 -0.5583  0.0723
  877MPD2    C312916   2.698   2.292  15.286  0.6246  0.6592 -0.2217
  877MPD2    C412917   2.557   2.275  15.283  0.3861  0.9052  0.2750
  877MPD2    C512918   2.481   2.250  15.397 -0.1295  0.5031  0.2924
  877MPD2     H12919   2.860   2.300  15.422 -0.4038 -1.6548  1.7406
  877MPD2    H112920   2.508   2.275  15.186  1.1528  0.9314 -0.1110
  877MPD2    H212921   2.472   2.260  15.602 -2.5507 -0.8752 -1.6445
  877MPD2    H312922   2.374   2.232  15.394 -0.1384  0.9613 -2.3391
  877MPD2     N12923   2.772   2.305  15.169  0.0662 -0.3822  0.4929
  877MPD2    H512924   2.720   2.297  15.082 -1.1024  0.0233  1.1450
  877MPD2    N112925   2.741   2.290  15.646  0.0748 -0.6026 -0.1683
  877MPD2    H712926   2.842   2.288  15.635  0.0156  1.4580 -1.1702
  878MPD2     C12927   2.387   0.882  13.591  0.0366  0.0755  0.5451
  878MPD2    C112928   2.375   1.007  13.529  0.5149  0.2721 -0.6854
  878MPD2    C212929   2.329   1.111  13.612  0.3699 -0.0464  0.6567
  878MPD2    C312930   2.272   1.085  13.731  0.1133  0.2217  0.4260
  878MPD2    C412931   2.291   0.961  13.791 -0.2289 -0.1302 -0.1710
  878MPD2    C512932   2.351   0.864  13.718  0.0562  0.4192 -0.0099
  878MPD2     H12933   2.327   1.213  13.575  0.8257  0.5185  2.2024
  878MPD2    H112934   2.277   0.944  13.897 -0.3728  0.4268 -0.1005
  878MPD2    H212935   2.419   0.794  13.538 -0.2113 -0.3070  1.0351
  878MPD2    H312936   2.371   0.763  13.752  2.7662  0.8051 -0.4694
  878MPD2     N12937   2.212   1.193  13.802 -0.2430  0.3416 -0.0855
  878MPD2    H512938   2.199   1.285  13.762  1.5236  0.7983  0.3803
  878MPD2    N112939   2.413   1.020  13.390 -0.2807  0.4031 -0.3915
  878MPD2    H712940   2.451   0.943  13.336 -0.3743 -0.1146  0.2918
  879MPD2     C12941   3.310   2.459  16.843 -0.7255 -0.0545 -0.5233
  879MPD2    C112942   3.239   2.473  16.959 -0.1328 -0.5888 -0.2839
  879MPD2    C212943   3.101   2.444  16.960 -0.0629  0.4059 -0.8327
  879MPD2    C312944   3.042   2.388  16.845  0.0502 -0.3657  0.1860
  879MPD2    C412945   3.114   2.378  16.727 -0.1765  0.8734 -0.5968
  879MPD2    C512946   3.248   2.407  16.726  0.7871  0.1473 -0.3160
  879MPD2     H12947   3.038   2.470  17.044  1.5374 -0.0397  0.5228
  879MPD2    H112948   3.075   2.349  16.630 -0.2435  0.1062 -0.3470
  879MPD2    H212949   3.416   2.479  16.833 -0.9352  1.0032 -0.6370
  879MPD2    H312950   3.301   2.396  16.632  0.6855 -1.1961 -0.2110
  879MPD2     N12951   2.902   2.364  16.834 -0.1264 -0.7822 -0.9858
  879MPD2    H512952   2.873   2.328  16.743  1.1634 -0.0890 -1.6888
  879MPD2    N112953   3.302   2.526  17.072  0.1412  0.6738  0.7450
  879MPD2    H712954   3.400   2.551  17.066  0.7601 -2.1205 -0.9184
  880MPD2     C12955   4.019   4.251   0.353 -0.2908  0.7483 -0.3845
  880MPD2    C112956   4.109   4.292   0.448  0.1722  0.1959  0.2409
  880MPD2    C212957   4.158   4.196   0.534  0.4573 -0.0415  0.3206
  880MPD2    C312958   4.118   4.067   0.517  0.1638 -0.2773  0.1110
  880MPD2    C412959   4.039   4.022   0.416 -0.8636  0.3093 -0.5557
  880MPD2    C512960   3.985   4.121   0.336  0.1702 -0.0611 -0.3587
  880MPD2     H12961   4.220   4.221   0.619 -0.5346  0.0118  1.0368
  880MPD2    H112962   4.025   3.917   0.391  3.0991 -0.0897 -1.1043
  880MPD2    H212963   3.974   4.325   0.289 -0.4369  0.0383 -1.1037
  880MPD2    H312964   3.920   4.105   0.251 -1.4941 -1.9103  1.2388
  880MPD2     N12965   4.176   3.961   0.604  0.2217 -0.1213  0.4043
  880MPD2    H512966   4.221   3.985   0.692  0.4387  0.4264  0.1511
  880MPD2    N112967   4.148   4.427   0.472  0.5158 -0.8301  0.2242
  880MPD2    H712968   4.219   4.438   0.544 -0.1905 -1.1150  0.9568
  881MPD2     C12969   4.524   0.540  17.682  1.2606 -0.5402  0.0719
  881MPD2    C112970   4.551   0.407  17.667  0.2755  0.0163 -0.2333
  881MPD2    C212971   4.520   0.324   0.026  0.7199  0.7297  0.4819
  881MPD2    C312972   4.477   0.375   0.145  0.0345 -0.7753  0.2839
  881MPD2    C412973   4.478   0.511   0.166  0.1085 -0.2597 -0.4110
  881MPD2    C512974   4.510   0.594   0.060 -0.7499 -0.3514 -0.6374
  881MPD2     H12975   4.522   0.215   0.020  3.5295  0.7487  1.2003
  881MPD2    H112976   4.450   0.558   0.260 -1.0019  1.1545 -1.4420
  881MPD2    H212977   4.565   0.611  17.611  2.4910  0.6930  1.9890
  881MPD2    H312978   4.498   0.702   0.065  1.8869 -0.0669 -0.6511
  881MPD2     N12979   4.423   0.291   0.252 -0.1555  0.0619  0.2448
  881MPD2    H512980   4.379   0.345   0.326  0.3076 -0.2252  0.7310
  881MPD2    N112981   4.585   0.365  17.534  0.3752  0.2145  0.1463
  881MPD2    H712982   4.585   0.442  17.468 -0.4475  0.3978  0.3535
  882MPD2     C12983   2.822   2.361  14.321 -0.2692  0.2152 -0.4313
  882MPD2    C112984   2.762   2.364  14.447  0.0824  0.1403  0.6001
  882MPD2    C212985   2.626   2.368  14.456  0.0929 -0.2953 -0.0544
  882MPD2    C312986   2.542   2.348  14.345 -0.3753  0.1039  0.0238
  882MPD2    C412987   2.605   2.346  14.224 -0.1743 -0.3452  0.4665
  882MPD2    C512988   2.740   2.363  14.206 -0.0345  0.0022  0.0266
  882MPD2     H12989   2.578   2.396  14.549 -2.0336 -1.5658 -0.7696
  882MPD2    H112990   2.542   2.336  14.136  0.3924 -0.2330  0.0540
  882MPD2    H212991   2.928   2.353  14.301 -0.3415  0.0969 -0.7686
  882MPD2    H312992   2.788   2.365  14.109 -1.9098  1.4669 -0.8467
  882MPD2     N12993   2.402   2.328  14.348 -0.8008  0.2159  0.2345
  882MPD2    H512994   2.372   2.319  14.252  2.4173  3.9260 -1.1441
  882MPD2    N112995   2.846   2.369  14.560  0.7111  0.3927  0.1509
  882MPD2    H712996   2.946   2.360  14.546  0.9208 -0.0310  1.8571
  883MPD2     C12997   0.067   1.340  16.045  0.1294  0.4533  0.1116
  883MPD2    C112998   0.169   1.414  15.985  0.6126  1.0559 -0.2898
  883MPD2    C212999   0.280   1.447  16.057 -0.7152  0.0035  0.0902
  883MPD2    C313000   0.288   1.406  16.190 -0.0194 -0.3139  0.2801
  883MPD2    C413001   0.181   1.343  16.249  0.2952  0.3786 -0.1793
  883MPD2    C513002   0.074   1.299  16.172 -0.2109  0.1999  0.4026
  883MPD2     H13003   0.358   1.501  16.005  0.6383 -3.5380 -1.5161
  883MPD2    H113004   0.179   1.292  16.345 -2.3263 -0.9926 -0.9665
  883MPD2    H213005   4.717   1.296  15.996  1.8045 -1.0578 -1.5023
  883MPD2    H313006   0.004   1.225  16.208  0.4872 -0.2221  0.9003
  883MPD2     N13007   0.403   1.442  16.269  0.4520  0.0944 -0.3155
  883MPD2    H513008   0.479   1.491  16.223 -0.8828  0.2002 -2.4218
  883MPD2    N113009   0.172   1.458  15.856 -0.0408  1.0325 -0.3625
  883MPD2    H713010   0.247   1.516  15.821  1.2422  0.2886  1.1232
  884MPD2     C13011   1.867   2.708  15.307 -1.1003 -0.0304  0.6671
  884MPD2    C113012   1.851   2.743  15.172 -0.0342 -0.2588 -0.7621
  884MPD2    C213013   1.722   2.787  15.132 -0.5483 -0.2398 -0.4105
  884MPD2    C313014   1.615   2.788  15.218  0.0048 -0.6206  0.6976
  884MPD2    C413015   1.640   2.744  15.347 -0.1248 -0.4953 -0.4305
  884MPD2    C513016   1.760   2.699  15.388  0.7525 -0.3230 -0.0424
  884MPD2     H13017   1.711   2.808  15.026  0.7191  0.3096 -0.4274
  884MPD2    H113018   1.565   2.746  15.425  0.5620 -0.0692  0.2174
  884MPD2    H213019   1.960   2.676  15.351 -2.0518 -1.9157  1.3117
  884MPD2    H313020   1.777   2.660  15.488 -1.1856 -2.1163 -0.4062
  884MPD2     N13021   1.490   2.846  15.173  0.5429 -0.3120 -0.2735
  884MPD2    H513022   1.499   2.908  15.093  0.9388  1.4294  1.0919
  884MPD2    N113023   1.958   2.748  15.075  0.2775  0.3545  0.2124
  884MPD2    H713024   1.925   2.754  14.980  1.2479  1.6502 -0.0471
  885MPD2     C13025   4.720   3.689   0.181  0.2966  0.5130  0.1625
  885MPD2    C113026   0.013   3.554   0.197 -0.0809  0.9138 -0.1245
  885MPD2    C213027   0.031   3.475   0.087  0.4648  0.2311  0.8710
  885MPD2    C313028   0.028   3.537  17.700 -0.0638 -0.6366 -0.4549
  885MPD2    C413029   0.007   3.673  17.687 -0.1131  0.2341  0.8697
  885MPD2    C513030   4.719   3.748   0.059  0.0820  0.1203  0.9331
  885MPD2     H13031   0.067   3.372   0.090  0.3977  0.1370 -1.8082
  885MPD2    H113032   0.009   3.723  17.591  0.2531 -0.4943  0.4952
  885MPD2    H213033   4.698   3.750   0.267 -0.4840  0.5948 -0.0930
  885MPD2    H313034   4.695   3.851   0.038  1.3072  0.2232  0.0143
  885MPD2     N13035   0.053   3.474  17.577 -0.0134  0.5184 -0.4572
  885MPD2    H513036   0.049   3.536  17.497 -2.3173  0.3215 -0.4983
  885MPD2    N113037   0.027   3.497   0.330 -0.5998 -0.3783  0.6396
  885MPD2    H713038   0.029   3.561   0.408 -0.1462 -3.0164  2.7999
  886MPD2     C13039   1.262   1.270  15.219 -0.2091  0.0640 -0.2944
  886MPD2    C113040   1.334   1.326  15.325 -0.8134  0.2689  0.4525
  886MPD2    C213041   1.354   1.465  15.328  0.3548 -0.0083 -0.6154
  886MPD2    C313042   1.312   1.550  15.218 -0.2821  0.6058 -0.1625
  886MPD2    C413043   1.228   1.485  15.126  0.1821 -0.3821  0.9270
  886MPD2    C513044   1.202   1.350  15.130  0.6689 -0.0251 -0.3255
  886MPD2     H13045   1.406   1.502  15.416 -0.7029 -0.3001  0.1394
  886MPD2    H113046   1.170   1.530  15.046 -0.6304 -2.9147  0.0955
  886MPD2    H213047   1.233   1.166  15.216 -0.8449  0.2772 -1.4443
  886MPD2    H313048   1.134   1.306  15.058 -1.6483 -0.8148  2.3701
  886MPD2     N13049   1.343   1.687  15.200 -0.0068  0.1384  0.1615
  886MPD2    H513050   1.315   1.731  15.113  0.8809  0.2151 -0.0791
  886MPD2    N113051   1.411   1.247  15.409  0.9482 -0.3731 -0.1653
  886MPD2    H713052   1.472   1.299  15.470  0.2369  0.4398 -0.1433
  887MPD2     C13053   1.996   1.420  15.750 -0.2393  1.0778  1.0424
  887MPD2    C113054   1.871   1.441  15.696 -0.4844 -0.9357  0.1557
  887MPD2    C213055   1.822   1.569  15.700 -0.0157 -0.1872  0.0681
  887MPD2    C313056   1.901   1.671  15.740 -0.6633 -0.2713  0.0786
  887MPD2    C413057   2.031   1.647  15.770 -0.4982 -0.1031  0.3759
  887MPD2    C513058   2.081   1.525  15.775  0.4511  0.3825  0.2389
  887MPD2     H13059   1.717   1.578  15.675  0.1571 -0.4614 -0.7699
  887MPD2    H113060   2.102   1.727  15.791  1.1006 -1.7225  1.1756
  887MPD2    H213061   2.036   1.322  15.770 -0.2389  0.6466 -1.0645
  887MPD2    H313062   2.188   1.519  15.793  0.5234  0.8558 -0.0240
  887MPD2     N13063   1.856   1.801  15.732 -0.1967  0.3379 -0.5062
  887MPD2    H513064   1.763   1.815  15.694 -0.4162  1.4826  0.4540
  887MPD2    N113065   1.791   1.334  15.652 -0.0485 -0.2201  0.5708
  887MPD2    H713066   1.713   1.362  15.593 -0.0407 -1.4694 -0.0160
  888MPD2     C13067   3.593   1.625  14.879  0.2594  0.5328  0.6432
  888MPD2    C113068   3.572   1.642  15.023 -0.0184  0.9416 -0.1067
  888MPD2    C213069   3.645   1.738  15.091 -0.2250  0.5121 -0.7384
  888MPD2    C313070   3.730   1.819  15.017  0.3377 -0.1472 -0.4359
  888MPD2    C413071   3.754   1.798  14.881 -0.5243 -0.0721  0.0363
  888MPD2    C513072   3.683   1.704  14.817  0.0395 -0.2876  0.0167
  888MPD2     H13073   3.624   1.751  15.197 -0.4289  0.1384 -0.7342
  888MPD2    H113074   3.824   1.855  14.821 -0.0730 -0.8571 -0.1862
  888MPD2    H213075   3.552   1.541  14.824  0.0803  1.6125 -0.8584
  888MPD2    H313076   3.707   1.691  14.712 -1.3765  0.7753 -0.4277
  888MPD2     N13077   3.798   1.926  15.082 -0.1913  0.5922 -0.3087
  888MPD2    H513078   3.788   1.934  15.182  0.6748 -1.0694 -0.0897
  888MPD2    N113079   3.484   1.553  15.092 -0.2298  0.0738 -0.3984
  888MPD2    H713080   3.484   1.570  15.192  2.9936  2.2912 -0.8004
  889MPD2     C13081   3.096   1.063  12.657  0.0160  0.2730 -0.6951
  889MPD2    C113082   3.163   0.992  12.753 -0.4623  0.2167  0.3378
  889MPD2    C213083   3.116   1.002  12.882  0.2366 -0.6647  0.0566
  889MPD2    C313084   3.021   1.100  12.912 -0.4550 -0.1676 -0.0897
  889MPD2    C413085   2.960   1.177  12.815  0.6479 -0.4679 -0.4664
  889MPD2    C513086   3.001   1.156  12.686  0.3989  0.2675 -0.0379
  889MPD2     H13087   3.173   0.959  12.963 -0.3491  0.1893  0.9186
  889MPD2    H113088   2.872   1.240  12.821  0.8469 -0.2714  0.4212
  889MPD2    H213089   3.104   1.037  12.552 -1.6504  0.9880 -0.9881
  889MPD2    H313090   2.972   1.214  12.599  1.7901  1.7913  0.5277
  889MPD2     N13091   2.998   1.121  13.046  0.7485  0.3047 -0.1674
  889MPD2    H513092   3.051   1.059  13.106 -0.2895  1.4883  1.9422
  889MPD2    N113093   3.242   0.880  12.729  0.4162 -0.4188  0.3059
  889MPD2    H713094   3.249   0.813  12.806 -0.5436 -1.8558 -0.8440
  890MPD2     C13095   2.605   2.734  14.684  1.1665  0.3677  0.0980
  890MPD2    C113096   2.716   2.796  14.735 -0.3727 -0.7164  1.0752
  890MPD2    C213097   2.758   2.768  14.867 -0.5543  0.4537  0.0384
  890MPD2    C313098   2.682   2.684  14.944 -0.5642  0.8114 -0.2961
  890MPD2    C413099   2.574   2.614  14.896  0.3126 -0.1068  0.1472
  890MPD2    C513100   2.545   2.636  14.761  0.0926  0.1148  0.4810
  890MPD2     H13101   2.841   2.824  14.909 -0.8069  0.4060  0.5903
  890MPD2    H113102   2.524   2.535  14.950 -1.5109 -0.1246 -1.5784
  890MPD2    H213103   2.568   2.748  14.584  0.6478 -0.5107  0.1701
  890MPD2    H313104   2.470   2.565  14.729  0.3467  0.9721 -1.9956
  890MPD2     N13105   2.720   2.683  15.086  0.4620  0.2794  0.1280
  890MPD2    H513106   2.794   2.743  15.122 -0.0446  1.9521 -1.6157
  890MPD2    N113107   2.793   2.884  14.657  0.1076 -0.7943 -0.2089
  890MPD2    H713108   2.872   2.933  14.698 -1.0402 -0.3691  1.4717
  891MPD2     C13109   1.057   1.308  16.338  0.2839  0.3584 -0.1875
  891MPD2    C113110   0.964   1.243  16.415 -0.3060  0.1346 -0.1547
  891MPD2    C213111   0.990   1.198  16.541  0.1237  0.1858  0.4845
  891MPD2    C313112   1.128   1.193  16.578  0.5806  0.4968 -0.2895
  891MPD2    C413113   1.224   1.256  16.499  0.4141  0.0713 -0.0506
  891MPD2    C513114   1.183   1.318  16.380 -0.6397  0.2371 -0.0165
  891MPD2     H13115   0.915   1.152  16.604  1.0208  0.1458  1.5286
  891MPD2    H113116   1.327   1.267  16.531  0.7041  2.3310 -1.7348
  891MPD2    H213117   1.028   1.360  16.248 -3.1495  0.5755  1.0199
  891MPD2    H313118   1.255   1.371  16.318  0.9836 -0.7320  1.0302
  891MPD2     N13119   1.150   1.134  16.703 -0.3710 -0.1374  0.4623
  891MPD2    H513120   1.071   1.092  16.750  0.6215  0.0768  2.3000
  891MPD2    N113121   0.838   1.229  16.354  0.3564 -0.0916 -0.1573
  891MPD2    H713122   0.833   1.246  16.254 -1.0304  1.1569  0.1263
  892MPD2     C13123   1.747   2.393  15.144  0.1068  0.7548  0.0101
  892MPD2    C113124   1.682   2.427  15.029  0.1079 -0.2592 -0.8281
  892MPD2    C213125   1.745   2.411  14.907  0.1435  0.1486  0.0179
  892MPD2    C313126   1.882   2.371  14.896 -0.5034  0.5064 -0.7624
  892MPD2    C413127   1.948   2.377  15.015 -0.1123  0.5418  0.5422
  892MPD2    C513128   1.883   2.379  15.135 -0.4710  0.1992  0.7384
  892MPD2     H13129   1.693   2.435  14.815  0.7406  0.3167 -0.2761
  892MPD2    H113130   2.055   2.366  15.003  0.0978  0.5406  2.3050
  892MPD2    H213131   1.699   2.416  15.238 -0.6179  1.4631 -0.5230
  892MPD2    H313132   1.944   2.384  15.225 -0.7367  1.9481  0.8242
  892MPD2     N13133   1.952   2.353  14.770 -0.3407  0.2479 -0.4074
  892MPD2    H513134   2.053   2.350  14.781 -0.3868 -0.2639 -0.1195
  892MPD2    N113135   1.549   2.460  15.034  0.2424 -0.5450 -0.1120
  892MPD2    H713136   1.491   2.424  15.109 -0.2529  0.3128 -0.0934
  893MPD2     C13137   3.139   1.257   1.617  1.0695  0.0576 -0.1837
  893MPD2    C113138   3.115   1.246   1.486 -0.6327 -0.2090 -0.5434
  893MPD2    C213139   2.998   1.290   1.422  0.9166  0.5278  0.4051
  893MPD2    C313140   2.903   1.361   1.494 -0.1387 -1.0500 -0.7863
  893MPD2    C413141   2.932   1.370   1.633  0.1697 -0.0976 -0.0748
  893MPD2    C513142   3.047   1.314   1.693  0.5541  0.2998  0.2480
  893MPD2     H13143   2.987   1.266   1.317 -1.8941 -1.0318  1.0449
  893MPD2    H113144   2.874   1.434   1.700  0.7299  1.4744 -1.1005
  893MPD2    H213145   3.227   1.216   1.664  0.3586 -0.5916  0.5960
  893MPD2    H313146   3.068   1.319   1.800  1.9215 -2.0394  0.0948
  893MPD2     N13147   2.784   1.415   1.440 -0.0423 -0.2807  0.1595
  893MPD2    H513148   2.713   1.455   1.501  0.5234  2.2067 -0.7910
  893MPD2    N113149   3.218   1.180   1.415  0.5517 -0.2704  0.5554
  893MPD2    H713150   3.302   1.147   1.460  1.3784 -0.2210 -0.9544
  894MPD2     C13151   1.687   4.120   1.243 -0.1140 -0.3594 -0.0262
  894MPD2    C113152   1.800   4.042   1.264 -0.2763 -0.3597  0.5573
  894MPD2    C213153   1.923   4.081   1.212  0.6066  0.6358  1.1672
  894MPD2    C313154   1.937   4.198   1.137 -0.3134  0.0039  0.3926
  894MPD2    C413155   1.824   4.278   1.132 -0.2457 -0.5545  0.1131
  894MPD2    C513156   1.704   4.234   1.175 -0.3900 -0.1643 -0.1104
  894MPD2     H13157   2.006   4.011   1.215 -0.9198 -1.1760  0.5226
  894MPD2    H113158   1.821   4.361   1.062  0.7135 -1.1253 -0.6074
  894MPD2    H213159   1.592   4.088   1.286  1.5706 -0.6920  3.4395
  894MPD2    H313160   1.614   4.289   1.152 -1.7303 -0.9468  3.3905
  894MPD2     N13161   2.057   4.225   1.067  0.2648  0.5087  0.4231
  894MPD2    H513162   2.138   4.167   1.089  0.5081 -1.0222 -4.4848
  894MPD2    N113163   1.786   3.914   1.319  0.0101 -0.2492 -0.4191
  894MPD2    H713164   1.873   3.862   1.332 -0.8369 -1.2026  1.3919
  895MPD2     C13165   0.794   1.631  13.517  0.0453 -0.0796  0.4672
  895MPD2    C113166   0.737   1.626  13.390 -0.3640 -0.1564  0.3486
  895MPD2    C213167   0.727   1.508  13.322 -0.1003  0.4598  0.1727
  895MPD2    C313168   0.753   1.391  13.381 -0.1957  0.1274  0.5094
  895MPD2    C413169   0.806   1.387  13.509 -0.4188 -0.8787 -0.7764
  895MPD2    C513170   0.830   1.507  13.573  0.0339 -0.5133 -0.5040
  895MPD2     H13171   0.642   1.513  13.254 -0.5313 -1.2028  0.5840
  895MPD2    H113172   0.834   1.298  13.564  2.9345  1.5649  1.5388
  895MPD2    H213173   0.797   1.712  13.588 -0.6124 -0.2350  0.6747
  895MPD2    H313174   0.881   1.514  13.669  1.6977  1.7826 -1.5605
  895MPD2     N13175   0.722   1.270  13.317  0.0505 -0.3073 -0.1077
  895MPD2    H513176   0.727   1.191  13.381 -0.7944 -0.7191 -0.5464
  895MPD2    N113177   0.678   1.738  13.328 -0.4727 -0.1352 -1.1410
  895MPD2    H713178   0.619   1.720  13.248 -1.1338 -2.6240 -0.1104
  896MPD2     C13179   3.642   3.430   0.317  0.4332  0.3919  0.4239
  896MPD2    C113180   3.577   3.535   0.357 -0.8518  0.5855  0.2810
  896MPD2    C213181   3.440   3.534   0.373 -0.9032 -0.4499  0.0782
  896MPD2    C313182   3.369   3.420   0.377 -0.3823 -0.0419 -0.1598
  896MPD2    C413183   3.442   3.308   0.348  0.1053  0.4818  0.1206
  896MPD2    C513184   3.578   3.309   0.320  0.0956 -0.4460  0.0858
  896MPD2     H13185   3.391   3.626   0.404 -1.6200 -0.8032 -0.0149
  896MPD2    H113186   3.396   3.210   0.356  0.4228  0.1294 -2.2076
  896MPD2    H213187   3.748   3.436   0.295  0.4571  0.2637  0.5007
  896MPD2    H313188   3.623   3.213   0.298 -0.3145 -1.3028  2.9329
  896MPD2     N13189   3.239   3.421   0.427  0.2351 -0.0170 -0.4633
  896MPD2    H513190   3.208   3.513   0.458 -1.0111  0.1467 -2.1697
  896MPD2    N113191   3.651   3.655   0.362  0.2858  0.6526 -0.6111
  896MPD2    H713192   3.753   3.656   0.362  0.3061 -0.9738 -0.4228
  897MPD2     C13193   4.063   0.796  10.560  0.6633  0.0475 -0.2177
  897MPD2    C113194   4.049   0.930  10.563 -0.6253 -0.3327 -0.7476
  897MPD2    C213195   3.926   0.988  10.602  0.6255 -0.4718 -0.3016
  897MPD2    C313196   3.810   0.916  10.619  0.8723  0.2662 -0.2767
  897MPD2    C413197   3.824   0.776  10.613 -0.5753  0.0762  0.3141
  897MPD2    C513198   3.949   0.721  10.584  0.1291  0.7687  0.2532
  897MPD2     H13199   3.908   1.095  10.593  2.3040 -0.3929 -2.6165
  897MPD2    H113200   3.739   0.708  10.616 -2.2877  2.1310 -1.2590
  897MPD2    H213201   4.157   0.746  10.539  0.4099  0.2919 -1.9310
  897MPD2    H313202   3.967   0.614  10.587 -0.4936  0.6604  0.0536
  897MPD2     N13203   3.699   0.986  10.640 -0.1861 -0.5010 -0.3530
  897MPD2    H513204   3.695   1.085  10.616  3.6391 -0.6052 -1.4690
  897MPD2    N113205   4.164   1.006  10.533 -0.4038 -0.3715 -0.1644
  897MPD2    H713206   4.236   0.955  10.483 -0.1020  1.1241 -1.2570
  898MPD2     C13207   0.682   1.901   0.144 -0.1720 -0.0926  0.3657
  898MPD2    C113208   0.785   1.864   0.238  0.4295  0.3904  0.3215
  898MPD2    C213209   0.902   1.938   0.244  0.2488 -0.4960 -0.4032
  898MPD2    C313210   0.919   2.040   0.152 -0.3573 -0.5685  0.9509
  898MPD2    C413211   0.820   2.073   0.058  0.4542  0.1056  0.7864
  898MPD2    C513212   0.702   2.004   0.062 -0.0820 -0.9426 -0.5983
  898MPD2     H13213   0.975   1.922   0.321  1.5799  1.1610 -1.3222
  898MPD2    H113214   0.830   2.150  17.724 -2.0988  0.4962  0.8549
  898MPD2    H213215   0.589   1.845   0.149 -0.3165  0.2746  1.9417
  898MPD2    H313216   0.624   2.031  17.733  0.6202  1.7840 -0.3160
  898MPD2     N13217   1.040   2.117   0.156 -0.1458 -0.1240 -0.3878
  898MPD2    H513218   1.098   2.104   0.239  1.8398 -1.6644 -2.0222
  898MPD2    N113219   0.777   1.765   0.334  0.1422 -0.2174  0.2452
  898MPD2    H713220   0.864   1.743   0.380  0.1810 -0.6221 -0.0175
  899MPD2     C13221   2.159   2.807  17.608 -0.3803  1.0186 -0.1248
  899MPD2    C113222   2.157   2.945  17.620  0.0298 -0.5059  0.6754
  899MPD2    C213223   2.104   3.002  17.740 -0.1898  0.4914 -0.4589
  899MPD2    C313224   2.052   2.927   0.100 -0.2190  0.2757 -0.3015
  899MPD2    C413225   2.053   2.793   0.089 -0.4184 -0.8941 -0.0190
  899MPD2    C513226   2.116   2.733  17.715  0.4248 -0.0140  1.2326
  899MPD2     H13227   2.097   3.110   0.011  0.2054  0.6158 -1.3053
  899MPD2    H113228   2.022   2.729   0.170 -0.0788 -1.0931 -0.0426
  899MPD2    H213229   2.200   2.752  17.524 -0.0336  0.5286  0.3622
  899MPD2    H313230   2.123   2.626  17.699 -3.2892 -0.3220  1.5699
  899MPD2     N13231   1.998   2.972   0.226 -0.6766  0.6716  0.2132
  899MPD2    H513232   1.963   2.897   0.285 -2.1000 -0.2328 -1.7339
  899MPD2    N113233   2.211   3.015  17.513  0.6468 -0.1380 -0.5091
  899MPD2    H713234   2.233   2.964  17.428  1.3209  0.6252 -0.7955
  900MPD2     C13235   1.936   3.668  12.653 -0.4217 -0.4544 -0.3324
  900MPD2    C113236   1.858   3.554  12.630 -0.2070 -0.1609  0.2159
  900MPD2    C213237   1.748   3.573  12.547 -0.1614 -0.0809  0.2205
  900MPD2    C313238   1.720   3.702  12.491 -0.6361 -0.1719  0.0031
  900MPD2    C413239   1.803   3.809  12.516 -0.3455  0.4974  0.0825
  900MPD2    C513240   1.919   3.787  12.594  0.1042  0.4637 -0.1321
  900MPD2     H13241   1.675   3.494  12.534  0.0310 -0.6126  2.3116
  900MPD2    H113242   1.776   3.909  12.485  1.0636  0.3049 -1.7877
  900MPD2    H213243   2.024   3.655  12.716  0.4756 -0.0741 -1.4968
  900MPD2    H313244   1.994   3.862  12.618  1.3495 -0.2336 -1.8882
  900MPD2     N13245   1.598   3.722  12.422  0.4373 -0.2309 -0.4954
  900MPD2    H513246   1.533   3.644  12.420  0.2332 -0.0666 -0.3089
  900MPD2    N113247   1.883   3.427  12.686 -0.1196 -0.0675 -0.6194
  900MPD2    H713248   1.969   3.408  12.736  0.1894  3.2875  0.0930
  901MPD2     C13249   1.729   2.538  13.224  0.9834 -0.1959  0.5651
  901MPD2    C113250   1.769   2.522  13.090 -0.3530 -0.7349  0.3479
  901MPD2    C213251   1.789   2.634  13.015  0.2398 -0.2977 -0.0367
  901MPD2    C313252   1.791   2.755  13.079 -0.1470  0.8965 -0.5166
  901MPD2    C413253   1.748   2.775  13.209 -0.4448  0.3505 -0.1121
  901MPD2    C513254   1.718   2.667  13.282  0.6360 -0.3511 -0.1639
  901MPD2     H13255   1.816   2.630  12.910  0.3269 -0.2375 -0.0173
  901MPD2    H113256   1.740   2.870  13.261  1.6022 -0.1348  1.0995
  901MPD2    H213257   1.697   2.460  13.291 -1.9395  1.3127  0.8877
  901MPD2    H313258   1.680   2.680  13.382 -0.9553 -0.7613 -0.7186
  901MPD2     N13259   1.822   2.871  13.000 -0.4064  0.2142  0.0672
  901MPD2    H513260   1.851   2.858  12.904 -1.1142  0.9030 -0.2417
  901MPD2    N113261   1.765   2.391  13.040  0.4527  0.1082 -0.3618
  901MPD2    H713262   1.734   2.316  13.101  0.8993  0.5954  0.4597
  902MPD2     C13263   1.171   1.622  12.626  0.0873  0.0564  0.4460
  902MPD2    C113264   1.154   1.718  12.529 -0.0595 -0.3900  0.7176
  902MPD2    C213265   1.160   1.689  12.396  0.8049  0.2493  0.2474
  902MPD2    C313266   1.176   1.566  12.361 -0.7886 -0.0060  0.2643
  902MPD2    C413267   1.195   1.464  12.454 -0.1648  0.2674  0.3823
  902MPD2    C513268   1.187   1.491  12.585  0.1189 -0.1002 -0.3238
  902MPD2     H13269   1.136   1.772  12.330 -2.3239  0.1585  1.2464
  902MPD2    H113270   1.209   1.361  12.422 -1.8084 -0.0498  0.6937
  902MPD2    H213271   1.161   1.643  12.732 -0.9460  1.8104 -0.0008
  902MPD2    H313272   1.205   1.416  12.662  3.2969 -1.0323 -1.9749
  902MPD2     N13273   1.157   1.526  12.225  0.2336 -1.4248  0.2848
  902MPD2    H513274   1.186   1.432  12.200  0.1745 -0.8754 -1.8023
  902MPD2    N113275   1.104   1.843  12.565 -0.4944 -0.4395  1.3680
  902MPD2    H713276   1.071   1.905  12.493 -1.1960 -0.4362  1.6854
  903MPD2     C13277   1.008   1.955  11.496  0.7017 -0.2401 -0.5321
  903MPD2    C113278   0.965   1.847  11.571  0.8634 -0.0123  0.0563
  903MPD2    C213279   0.833   1.823  11.576  1.3526 -0.1213 -1.0025
  903MPD2    C313280   0.738   1.915  11.527  0.0887  0.7369  0.5234
  903MPD2    C413281   0.776   2.023  11.451 -0.2663 -0.1302  0.2027
  903MPD2    C513282   0.918   2.039  11.438 -0.4434  0.0369 -0.4396
  903MPD2     H13283   0.796   1.758  11.654  1.6536  0.2041 -0.5894
  903MPD2    H113284   0.712   2.100  11.410  0.0340  0.5278  0.9647
  903MPD2    H213285   1.115   1.971  11.489  0.9105 -0.8964  1.1059
  903MPD2    H313286   0.959   2.128  11.390  0.8095 -1.0374 -1.3528
  903MPD2     N13287   0.599   1.892  11.553  0.1873 -0.7474 -0.4476
  903MPD2    H513288   0.580   1.806  11.604  1.3138  0.5795  2.2267
  903MPD2    N113289   1.056   1.769  11.643  0.6432 -0.1955 -0.4872
  903MPD2    H713290   1.140   1.817  11.674  0.5516 -1.1598  1.2765
  904MPD2     C13291   0.539   0.929  14.250  0.0823  0.4687 -0.2963
  904MPD2    C113292   0.611   1.028  14.187 -0.3555  0.3048 -0.2976
  904MPD2    C213293   0.738   1.064  14.228  0.2599 -0.2734  0.4611
  904MPD2    C313294   0.799   1.008  14.335 -0.4884  0.9627  0.4445
  904MPD2    C413295   0.733   0.905  14.393 -0.6298  0.1486 -0.2185
  904MPD2    C513296   0.608   0.867  14.353  0.3114  0.3768  0.1202
  904MPD2     H13297   0.795   1.145  14.183  0.1756 -1.5014 -1.8639
  904MPD2    H113298   0.774   0.840  14.470 -0.5991  1.2234  0.6684
  904MPD2    H213299   0.451   0.876  14.214  0.2135 -0.4390  0.7393
  904MPD2    H313300   0.578   0.772  14.396 -2.0085  0.3699 -1.5008
  904MPD2     N13301   0.933   1.047  14.362 -0.0144  0.3359  0.0092
  904MPD2    H513302   0.973   1.112  14.295  1.9443 -2.2121 -1.3363
  904MPD2    N113303   0.557   1.091  14.079  0.3348 -0.4318 -0.1497
  904MPD2    H713304   0.607   1.170  14.039 -0.8496  0.8373  0.8722
  905MPD2     C13305   0.217   1.407  13.292  0.4488 -0.0833  0.0339
  905MPD2    C113306   0.258   1.286  13.340 -0.4337  0.1296 -0.1873
  905MPD2    C213307   0.286   1.180  13.253 -0.5706  0.1856 -0.4156
  905MPD2    C313308   0.255   1.192  13.116 -0.6174  0.4207  0.1485
  905MPD2    C413309   0.186   1.304  13.076  0.1934 -0.1761 -0.2953
  905MPD2    C513310   0.173   1.409  13.163  0.2858  0.4165 -0.1795
  905MPD2     H13311   0.339   1.094  13.294 -1.0719  0.6508  1.2083
  905MPD2    H113312   0.144   1.306  12.976  3.2433  1.2704 -1.5562
  905MPD2    H213313   0.211   1.486  13.367  0.0591  0.6460 -0.7614
  905MPD2    H313314   0.109   1.488  13.125  0.2789 -0.3963 -1.8762
  905MPD2     N13315   0.268   1.083  13.024 -0.1870 -0.0879 -0.3559
  905MPD2    H513316   0.204   1.091  12.946  0.4247  1.3146 -0.7246
  905MPD2    N113317   0.295   1.282  13.471 -0.7970 -0.8038  0.2061
  905MPD2    H713318   0.271   1.366  13.523  3.1491 -0.5589  1.6862
  906MPD2     C13319   2.484   1.054  11.035 -1.0031 -0.2982 -0.1025
  906MPD2    C113320   2.410   0.983  10.935 -0.5145  0.0085  0.7395
  906MPD2    C213321   2.372   0.850  10.950  0.7384  0.1439 -0.0127
  906MPD2    C313322   2.384   0.789  11.070  0.3063  0.7558  0.0900
  906MPD2    C413323   2.438   0.862  11.173 -0.0525  0.4214  1.0504
  906MPD2    C513324   2.490   0.990  11.154 -0.0423  0.2040 -0.5955
  906MPD2     H13325   2.311   0.806  10.873 -0.6069 -0.5477  1.4424
  906MPD2    H113326   2.450   0.829  11.276 -0.2367 -1.8273  0.3369
  906MPD2    H213327   2.527   1.154  11.037 -0.2492 -0.6132 -0.3430
  906MPD2    H313328   2.539   1.049  11.231 -0.1286  0.3025 -0.6157
  906MPD2     N13329   2.347   0.654  11.083  0.4409 -0.3871  0.5612
  906MPD2    H513330   2.308   0.612  11.000  1.2683 -0.7205  0.3394
  906MPD2    N113331   2.385   1.045  10.812  0.2418 -0.3397 -0.4873
  906MPD2    H713332   2.347   0.988  10.737  1.0230  0.8941 -1.8227
  907MPD2     C13333   1.862   0.146  15.311  0.1261  0.3592  0.4592
  907MPD2    C113334   1.757   0.068  15.354 -1.0742  0.0768 -0.7450
  907MPD2    C213335   1.750   0.018  15.482 -0.3863 -0.3967 -0.1447
  907MPD2    C313336   1.843   0.049  15.579  0.3095  0.7753 -0.1379
  907MPD2    C413337   1.944   0.134  15.540  0.5615  0.0658  0.4054
  907MPD2    C513338   1.949   0.174  15.410 -0.0538  0.2672  0.1086
  907MPD2     H13339   1.675   4.680  15.507  0.2063 -0.9526 -0.0336
  907MPD2    H113340   2.032   0.152  15.601  0.5987  1.6349 -0.1239
  907MPD2    H213341   1.880   0.165  15.206  1.9994  1.0207  0.9112
  907MPD2    H313342   2.040   0.225  15.382 -0.3143  0.2227 -0.8255
  907MPD2     N13343   1.831   4.733  15.711 -0.8869 -0.3759  0.4524
  907MPD2    H513344   1.750   4.676  15.732 -0.5265 -0.6604  1.0913
  907MPD2    N113345   1.668   0.008  15.266  0.2127 -0.3379 -0.7700
  907MPD2    H713346   1.602   4.679  15.306 -0.4290 -0.7982 -2.5647
  908MPD2     C13347   4.502   1.002   9.769  0.4063 -0.2224 -0.0652
  908MPD2    C113348   4.514   0.899   9.859  0.3133  0.5789  0.2876
  908MPD2    C213349   4.506   0.930   9.996  0.1726 -0.4171  0.3179
  908MPD2    C313350   4.506   1.063  10.037 -0.7402  0.1756  0.4073
  908MPD2    C413351   4.503   1.165   9.947 -0.4941 -0.1046 -0.0946
  908MPD2    C513352   4.491   1.136   9.812  0.4115 -0.3383  0.4372
  908MPD2     H13353   4.522   0.849  10.067  0.7101  0.5923  1.3382
  908MPD2    H113354   4.490   1.271   9.968 -1.2890  0.4361 -3.2718
  908MPD2    H213355   4.516   0.980   9.664  0.0178  0.9331 -0.3641
  908MPD2    H313356   4.510   1.216   9.742  1.1979 -1.1515 -0.2630
  908MPD2     N13357   4.499   1.081  10.179  0.5632  0.2386 -0.3370
  908MPD2    H513358   4.490   0.998  10.236 -0.6666  2.2390  2.4166
  908MPD2    N113359   4.540   0.774   9.804 -0.4881  0.0558 -0.4628
  908MPD2    H713360   4.563   0.766   9.705  0.3274 -1.4364 -0.1475
  909MPD2     C13361   4.277   3.454  11.988  0.8901 -0.7012 -0.3121
  909MPD2    C113362   4.284   3.594  11.982 -0.5515 -0.2186  0.2314
  909MPD2    C213363   4.183   3.671  12.044 -0.6451  0.9486 -0.9032
  909MPD2    C313364   4.072   3.610  12.093  0.1233  0.0647  0.6103
  909MPD2    C413365   4.065   3.470  12.093  0.4902 -0.0396  0.7087
  909MPD2    C513366   4.169   3.393  12.042 -0.2181  0.3641  0.6883
  909MPD2     H13367   4.191   3.779  12.039 -1.1871  1.0652  0.7659
  909MPD2    H113368   3.979   3.429  12.144  1.7266 -1.0931  1.9387
  909MPD2    H213369   4.353   3.386  11.952 -0.0013 -0.7959 -2.0261
  909MPD2    H313370   4.172   3.285  12.042  2.1208  0.4300  0.0317
  909MPD2     N13371   3.964   3.694  12.140  0.1281 -0.5266  0.7029
  909MPD2    H513372   3.964   3.789  12.103 -1.2801 -1.2769 -1.2299
  909MPD2    N113373   4.385   3.669  11.920 -0.5327 -0.2082  0.4353
  909MPD2    H713374   4.380   3.770  11.924 -1.5147 -0.2334 -0.2570
  910MPD2     C13375   1.321   0.866  15.912 -0.3007 -0.0771 -0.6879
  910MPD2    C113376   1.332   0.747  15.848  0.0512 -0.0800  0.0111
  910MPD2    C213377   1.273   0.732  15.719  0.0225  0.0112  1.5183
  910MPD2    C313378   1.205   0.844  15.663 -0.4063 -0.3339  0.1101
  910MPD2    C413379   1.184   0.957  15.738 -0.1377 -0.4900  0.7998
  910MPD2    C513380   1.250   0.970  15.858 -0.0162  0.0511 -0.1206
  910MPD2     H13381   1.287   0.648  15.653  0.6833  0.9157  0.5098
  910MPD2    H113382   1.125   1.036  15.693 -1.4057 -1.4390  0.8054
  910MPD2    H213383   1.372   0.894  16.003  0.3774 -1.1953 -0.7256
  910MPD2    H313384   1.250   1.063  15.913 -0.4420 -0.8067  1.3105
  910MPD2     N13385   1.150   0.839  15.540  0.1031 -0.3565 -0.1022
  910MPD2    H513386   1.086   0.914  15.516 -0.3666 -1.1696 -1.3949
  910MPD2    N113387   1.418   0.645  15.898 -0.1553  0.1677 -0.8242
  910MPD2    H713388   1.434   0.565  15.837  1.5265 -0.0716 -0.0744
  911MPD2     C13389   3.823   1.042  15.811 -0.0356  0.4207  0.0687
  911MPD2    C113390   3.908   1.116  15.887  0.5949  0.8591  0.9473
  911MPD2    C213391   3.867   1.246  15.925 -0.5784  0.5341 -0.6580
  911MPD2    C313392   3.736   1.281  15.915 -0.0813  0.0701  0.1900
  911MPD2    C413393   3.654   1.202  15.845 -0.0656  0.0107 -0.6600
  911MPD2    C513394   3.696   1.079  15.795 -0.0511  0.3687 -0.1665
  911MPD2     H13395   3.927   1.301  15.997 -3.2729  0.7262  1.4263
  911MPD2    H113396   3.553   1.230  15.816 -0.3406 -1.4866 -1.1284
  911MPD2    H213397   3.848   0.951  15.757  0.4294  0.3048  0.4826
  911MPD2    H313398   3.633   1.014  15.736 -3.0656  3.6968 -0.6081
  911MPD2     N13399   3.682   1.400  15.959  0.3262 -0.7657  0.2071
  911MPD2    H513400   3.582   1.410  15.944  1.0117  0.0354 -3.7632
  911MPD2    N113401   4.035   1.052  15.920 -0.1307  0.0133  0.0406
  911MPD2    H713402   4.032   0.958  15.881  0.7973  0.1464 -0.3406
  912MPD2     C13403   3.194   1.336  15.543  0.8097  0.5975 -0.0973
  912MPD2    C113404   3.270   1.334  15.659  0.3649  0.0752 -0.3449
  912MPD2    C213405   3.292   1.211  15.714 -0.6209 -0.0439  0.0312
  912MPD2    C313406   3.222   1.099  15.678  0.2915  0.3481  0.1093
  912MPD2    C413407   3.134   1.107  15.575  0.0168  0.1206 -0.4196
  912MPD2    C513408   3.121   1.225  15.499  0.9994 -0.9972  0.7627
  912MPD2     H13409   3.364   1.201  15.795  0.8813 -1.3012 -1.4645
  912MPD2    H113410   3.073   1.026  15.538 -2.0297  0.6351  1.9294
  912MPD2    H213411   3.191   1.429  15.487  2.0591 -0.0107 -1.1841
  912MPD2    H313412   3.054   1.234  15.415  2.0841 -1.8362 -0.1825
  912MPD2     N13413   3.267   0.982  15.739  0.3669 -0.4333  0.0823
  912MPD2    H513414   3.333   0.987  15.816  0.5113 -1.0548  0.0021
  912MPD2    N113415   3.337   1.453  15.702  0.2906 -0.0943 -0.1126
  912MPD2    H713416   3.335   1.524  15.630 -0.8892  0.1882  0.2080
  913MPD2     C13417   4.418   2.187  10.577 -0.0504  0.3233  0.5282
  913MPD2    C113418   4.441   2.307  10.501 -0.2071  0.2458 -0.2778
  913MPD2    C213419   4.345   2.402  10.500  0.4582  0.4422 -0.8012
  913MPD2    C313420   4.229   2.386  10.574  0.9869 -0.1490  0.5715
  913MPD2    C413421   4.210   2.268  10.642  0.0573 -0.0050 -0.5445
  913MPD2    C513422   4.297   2.167  10.640  0.2661 -0.3919 -0.1173
  913MPD2     H13423   4.359   2.494  10.444 -3.4086  2.7657  2.0595
  913MPD2    H113424   4.117   2.250  10.693  1.4489  0.2326  2.0572
  913MPD2    H213425   4.481   2.098  10.569 -0.2422  0.1633  0.7733
  913MPD2    H313426   4.281   2.081  10.704 -1.8051 -1.1127 -1.6156
  913MPD2     N13427   4.133   2.483  10.588 -0.4256  0.1179  1.0449
  913MPD2    H513428   4.040   2.460  10.621 -2.2145  2.6208 -2.2057
  913MPD2    N113429   4.559   2.306  10.432 -0.3626 -0.2624  0.0465
  913MPD2    H713430   4.613   2.221  10.423 -0.7838 -0.4548 -0.6148
  914MPD2     C13431   1.715   2.141  12.062 -0.2726 -0.2082  0.2510
  914MPD2    C113432   1.785   2.242  12.126 -0.4080 -0.0900  0.1114
  914MPD2    C213433   1.812   2.232  12.258  0.0163  0.0915 -0.3657
  914MPD2    C313434   1.776   2.118  12.326  0.7875  0.9164 -0.8700
  914MPD2    C413435   1.711   2.015  12.258  0.1528 -0.4014 -0.1434
  914MPD2    C513436   1.683   2.027  12.128 -0.2164 -0.4615 -0.1711
  914MPD2     H13437   1.866   2.313  12.305 -2.1621  0.6174  1.2609
  914MPD2    H113438   1.687   1.923  12.309 -0.5611 -1.5424 -2.5296
  914MPD2    H213439   1.702   2.156  11.956 -0.1684  1.1743  0.4262
  914MPD2    H313440   1.640   1.944  12.074 -1.6726 -0.6714  1.2882
  914MPD2     N13441   1.796   2.120  12.465  0.1999  0.4086 -0.0524
  914MPD2    H513442   1.837   2.204  12.505  1.0899  1.5098 -3.2965
  914MPD2    N113443   1.828   2.352  12.047  0.5333 -0.5155 -0.1755
  914MPD2    H713444   1.805   2.348  11.948  0.3138  0.4617 -0.1660
  915MPD2     C13445   0.349   2.713  15.617  0.7777  0.3951  0.6211
  915MPD2    C113446   0.213   2.737  15.606  0.0699  0.4045  0.4530
  915MPD2    C213447   0.144   2.769  15.721 -0.4688 -0.5617 -1.0653
  915MPD2    C313448   0.206   2.767  15.842 -0.2480  0.4674  0.0037
  915MPD2    C413449   0.343   2.755  15.850 -0.3938 -0.2408  0.7657
  915MPD2    C513450   0.414   2.726  15.736 -0.7957 -0.3284  0.8404
  915MPD2     H13451   0.036   2.772  15.719 -0.5396 -1.4685  1.1336
  915MPD2    H113452   0.395   2.774  15.943  1.4108  0.1329 -0.3203
  915MPD2    H213453   0.410   2.692  15.530  1.0025 -1.8217  1.3197
  915MPD2    H313454   0.521   2.709  15.741 -1.0368 -1.7400  1.1648
  915MPD2     N13455   0.132   2.801  15.960  0.1882 -0.3397  0.7173
  915MPD2    H513456   0.042   2.847  15.956  1.6130  2.4686  0.6514
  915MPD2    N113457   0.146   2.715  15.482 -0.3263  0.0833 -0.1418
  915MPD2    H713458   0.048   2.743  15.479 -0.3464  0.5482  3.9461
  916MPD2     C13459   2.779   1.434  15.823  0.3804 -0.4868 -0.4660
  916MPD2    C113460   2.799   1.313  15.899 -0.0892 -0.1569  0.0185
  916MPD2    C213461   2.804   1.193  15.824 -1.0353 -0.1623 -0.1190
  916MPD2    C313462   2.790   1.189  15.688  0.2454  0.1770  0.7030
  916MPD2    C413463   2.747   1.306  15.622 -0.6639  0.1240  0.3948
  916MPD2    C513464   2.753   1.423  15.688 -0.5875 -0.7457  0.1402
  916MPD2     H13465   2.816   1.092  15.862  2.3034  0.0529 -0.5329
  916MPD2    H113466   2.725   1.307  15.516  2.5845 -0.9610 -0.2951
  916MPD2    H213467   2.757   1.526  15.876  2.9691 -0.3860  0.4151
  916MPD2    H313468   2.722   1.516  15.641 -1.7809  0.2621  2.9025
  916MPD2     N13469   2.805   1.064  15.619  0.0739  0.0682  0.0878
  916MPD2    H513470   2.847   0.992  15.676 -2.8723 -0.7541  1.2483
  916MPD2    N113471   2.797   1.321  16.037 -0.1345 -0.0173 -0.0398
  916MPD2    H713472   2.777   1.405  16.089 -3.2186  0.1407 -1.4771
  917MPD2     C13473   2.666   3.178  11.394 -0.6371  0.0326  0.5020
  917MPD2    C113474   2.568   3.187  11.496  0.1821 -0.1036 -0.3030
  917MPD2    C213475   2.604   3.268  11.605  0.9670 -0.0671 -0.0214
  917MPD2    C313476   2.713   3.354  11.603  0.2193 -0.0516 -0.3498
  917MPD2    C413477   2.797   3.341  11.496 -0.1112 -0.1904 -0.7106
  917MPD2    C513478   2.778   3.259  11.394 -0.4643 -0.2645 -0.3939
  917MPD2     H13479   2.531   3.273  11.685  0.5063  0.7525 -0.4976
  917MPD2    H113480   2.886   3.403  11.496 -0.6495  0.6077  2.3098
  917MPD2    H213481   2.653   3.116  11.306  0.1151  0.2496  0.2379
  917MPD2    H313482   2.849   3.261  11.311 -1.0451 -1.8525 -0.9185
  917MPD2     N13483   2.757   3.445  11.702  0.2743  1.0523  0.2842
  917MPD2    H513484   2.833   3.505  11.673  1.5169  0.5305  2.4327
  917MPD2    N113485   2.445   3.117  11.498  0.3130 -0.1924  0.4223
  917MPD2    H713486   2.392   3.136  11.583  0.3876 -0.8180  0.6103
  918MPD2     C13487   2.432   3.064  12.246  0.3730 -0.6951 -0.0134
  918MPD2    C113488   2.493   3.118  12.130 -0.6201  0.3658  0.0329
  918MPD2    C213489   2.443   3.093  12.005 -0.4895 -0.3117 -0.3805
  918MPD2    C313490   2.345   2.996  11.990  0.2554 -0.1610  0.1122
  918MPD2    C413491   2.295   2.940  12.106  0.9797  0.5974 -0.1308
  918MPD2    C513492   2.334   2.971  12.231 -0.1655  0.2215 -0.9198
  918MPD2     H13493   2.489   3.146  11.924 -1.4486  0.8406 -0.1712
  918MPD2    H113494   2.209   2.875  12.093  1.1454 -0.1223  2.5053
  918MPD2    H213495   2.471   3.076  12.346  0.3716  0.4797 -0.1554
  918MPD2    H313496   2.296   2.911  12.313  4.2299 -0.9496  0.2288
  918MPD2     N13497   2.310   2.958  11.862  0.4433  0.2057 -0.3596
  918MPD2    H513498   2.363   3.001  11.788  0.6504 -0.2179 -0.4576
  918MPD2    N113499   2.615   3.197  12.133  0.2093  0.1681 -0.1772
  918MPD2    H713500   2.646   3.225  12.040 -0.5245  2.1019  0.1781
  919MPD2     C13501   3.430   2.140  11.997 -0.4643  0.5353 -0.9533
  919MPD2    C113502   3.476   2.040  11.916 -0.6393 -0.6556  0.5520
  919MPD2    C213503   3.487   2.063  11.777  0.2935 -0.1008 -0.1597
  919MPD2    C313504   3.466   2.188  11.719 -0.6386 -0.0780  0.2980
  919MPD2    C413505   3.423   2.287  11.813  0.1374  0.4028  0.2593
  919MPD2    C513506   3.403   2.259  11.937  0.4879  0.0388  0.7551
  919MPD2     H13507   3.510   1.987  11.703 -1.3839 -0.3978 -0.3617
  919MPD2    H113508   3.409   2.389  11.780 -0.7309  0.3434  0.4511
  919MPD2    H213509   3.415   2.131  12.104  0.9090  1.1887 -0.7065
  919MPD2    H313510   3.373   2.335  12.008  1.9495  0.4558  0.9177
  919MPD2     N13511   3.480   2.200  11.579  0.2669 -0.3505 -0.0570
  919MPD2    H513512   3.519   2.117  11.536  1.1454  0.7989 -1.4630
  919MPD2    N113513   3.484   1.908  11.965  0.0330  0.6079  0.4911
  919MPD2    H713514   3.526   1.839  11.903  0.1945  2.1231 -1.0992
  920MPD2     C13515   3.262   2.598  10.668  0.3322  1.0617  0.5164
  920MPD2    C113516   3.165   2.553  10.757 -0.4336 -0.1686 -0.1499
  920MPD2    C213517   3.207   2.526  10.880 -0.0500  0.3276  0.2958
  920MPD2    C313518   3.321   2.579  10.933  0.4356  0.0252 -0.0511
  920MPD2    C413519   3.400   2.651  10.848 -0.0859 -0.6113 -0.1769
  920MPD2    C513520   3.373   2.655  10.714 -0.2853 -0.3158  0.1850
  920MPD2     H13521   3.139   2.492  10.957  0.5618 -1.9939 -0.1933
  920MPD2    H113522   3.480   2.713  10.887 -1.3517  2.7679 -2.9838
  920MPD2    H213523   3.232   2.619  10.566 -0.5854  0.4672  0.6660
  920MPD2    H313524   3.450   2.690  10.645 -0.2638  0.3732  0.5602
  920MPD2     N13525   3.370   2.533  11.059  0.1815 -0.0070 -0.0634
  920MPD2    H513526   3.324   2.455  11.104 -0.1688  0.3202  0.1505
  920MPD2    N113527   3.038   2.501  10.727 -0.4366 -0.2190 -0.4904
  920MPD2    H713528   2.999   2.444  10.801 -0.2419  2.3942  1.6201
  921MPD2     C13529   0.060   1.109  16.644 -0.4003  0.3122 -0.0292
  921MPD2    C113530   0.088   1.055  16.519  0.4225  0.3515  0.5005
  921MPD2    C213531   4.715   1.006  16.444  0.6365 -0.6857  0.4782
  921MPD2    C313532   4.589   0.993  16.500 -0.7944  0.4467 -0.7868
  921MPD2    C413533   4.561   1.036  16.629  0.0534  0.2191 -0.5716
  921MPD2    C513534   4.663   1.098  16.704 -0.8242  0.6712 -0.5063
  921MPD2     H13535   4.734   0.974  16.341  2.9813  0.5105  0.5358
  921MPD2    H113536   4.460   1.022  16.665  1.6532 -0.1787  3.6985
  921MPD2    H213537   0.142   1.146  16.705  0.3887 -1.2634 -0.1356
  921MPD2    H313538   4.640   1.144  16.800 -0.5953 -0.1880 -0.0396
  921MPD2     N13539   4.477   0.956  16.419 -0.2495  0.1912  0.1085
  921MPD2    H513540   4.392   0.932  16.470 -1.2195  1.8692 -0.7068
  921MPD2    N113541   0.226   1.052  16.498 -0.2712  0.3133  0.6159
  921MPD2    H713542   0.293   1.093  16.563  0.4237 -1.5286  1.0393
  922MPD2     C13543   0.840   3.908  17.057 -0.4250  0.8528 -0.1763
  922MPD2    C113544   0.835   4.038  17.097  0.2414  0.4066  0.0410
  922MPD2    C213545   0.764   4.070  17.208  0.1421  0.2296  0.2955
  922MPD2    C313546   0.698   3.974  17.281  0.5713  0.5586  0.0953
  922MPD2    C413547   0.694   3.847  17.242  0.0762  0.0057  1.1778
  922MPD2    C513548   0.774   3.815  17.133 -0.0854  0.1720  0.3521
  922MPD2     H13549   0.750   4.176  17.226 -0.1030  0.5029 -1.4699
  922MPD2    H113550   0.639   3.769  17.293  0.1276 -1.0210 -0.3236
  922MPD2    H213551   0.895   3.871  16.971 -1.0352 -1.1442  0.2921
  922MPD2    H313552   0.778   3.708  17.113 -0.2599 -0.0726  1.6809
  922MPD2     N13553   0.626   4.018  17.397 -0.1387 -0.7395  0.5555
  922MPD2    H513554   0.625   4.119  17.411 -1.2196 -0.9430  1.9141
  922MPD2    N113555   0.896   4.143  17.026 -0.3650  0.3176 -1.2491
  922MPD2    H713556   0.880   4.240  17.050 -2.5703 -0.7176  1.5851
  923MPD2     C13557   0.334   1.331   8.883 -0.8410  0.3171  0.6452
  923MPD2    C113558   0.429   1.396   8.962 -0.1279 -0.2365  0.0154
  923MPD2    C213559   0.564   1.364   8.944 -0.4229 -0.4074 -0.3313
  923MPD2    C313560   0.607   1.278   8.843  0.4066 -0.3211 -0.6973
  923MPD2    C413561   0.510   1.217   8.762 -0.0009 -0.8623 -0.0821
  923MPD2    C513562   0.377   1.251   8.777  0.4699  0.2980 -0.0748
  923MPD2     H13563   0.635   1.403   9.017  0.5470  0.3150 -1.6640
  923MPD2    H113564   0.547   1.144   8.691 -0.3073 -1.2215  0.1250
  923MPD2    H213565   0.227   1.339   8.892 -0.9564 -2.9523  2.2968
  923MPD2    H313566   0.298   1.205   8.719 -0.0550 -0.3444  1.1502
  923MPD2     N13567   0.743   1.236   8.819  0.1558 -0.1828 -0.1014
  923MPD2    H513568   0.768   1.159   8.758  0.5974 -0.5535  0.5483
  923MPD2    N113569   0.381   1.463   9.077 -0.6261 -0.3449  0.4350
  923MPD2    H713570   0.283   1.445   9.097 -0.2673 -0.9912  1.6098
  924MPD2     C13571   1.616   3.890  15.937  0.9026 -0.5336  0.0672
  924MPD2    C113572   1.661   3.943  16.054  0.6286 -0.1289  0.4417
  924MPD2    C213573   1.722   4.067  16.054 -0.4911  0.0865  1.0480
  924MPD2    C313574   1.722   4.144  15.939  0.2689 -0.1957  0.1802
  924MPD2    C413575   1.672   4.091  15.824  0.0280  0.5383  0.0699
  924MPD2    C513576   1.620   3.964  15.823 -0.8835  0.5692  0.0742
  924MPD2     H13577   1.779   4.092  16.143  1.3265  2.2246 -0.7168
  924MPD2    H113578   1.680   4.148  15.732 -0.1159 -0.8309 -0.8007
  924MPD2    H213579   1.560   3.797  15.944 -0.8370  0.5872  1.1231
  924MPD2    H313580   1.580   3.927  15.729  1.5246  0.8449 -1.0538
  924MPD2     N13581   1.775   4.275  15.939  0.0926 -0.1795 -0.2816
  924MPD2    H513582   1.783   4.328  15.853 -0.9167  1.5724  0.6782
  924MPD2    N113583   1.649   3.870  16.178  0.2210  0.2664  0.1909
  924MPD2    H713584   1.611   3.776  16.184 -0.7751  0.7148  0.8098
  925MPD2     C13585   0.871   2.113  14.862  0.4804 -0.3504 -0.1483
  925MPD2    C113586   0.772   2.141  14.771  0.2520  0.4942 -0.6286
  925MPD2    C213587   0.660   2.212  14.814 -0.0955  0.1743 -0.4908
  925MPD2    C313588   0.650   2.270  14.944  0.0468  0.7241  0.2053
  925MPD2    C413589   0.748   2.241  15.033  0.2649 -0.8838  0.3102
  925MPD2    C513590   0.860   2.165  14.985  0.5043  0.0370 -0.5582
  925MPD2     H13591   0.587   2.229  14.736 -1.9426 -1.4689  0.8614
  925MPD2    H113592   0.741   2.256  15.140 -1.5396 -0.6778  0.1681
  925MPD2    H213593   0.956   2.049  14.840  0.8976 -0.1656  0.9340
  925MPD2    H313594   0.926   2.119  15.058  0.3436  2.5602  1.1684
  925MPD2     N13595   0.543   2.346  14.988 -0.2469  0.0386  0.2178
  925MPD2    H513596   0.544   2.368  15.087  1.6390 -1.0747  0.4444
  925MPD2    N113597   0.759   2.072  14.644  0.4755 -0.0785 -0.1438
  925MPD2    H713598   0.675   2.079  14.589  0.9458 -1.3065 -1.0174
  926MPD2     C13599   3.658   0.101  13.522  0.1058 -0.5303  0.8337
  926MPD2    C113600   3.724   0.216  13.574  0.2793 -0.3520  0.0552
  926MPD2    C213601   3.827   0.271  13.500  0.0705  0.2918 -0.3265
  926MPD2    C313602   3.867   0.217  13.376 -0.1764 -0.6311 -0.3061
  926MPD2    C413603   3.792   0.118  13.321 -0.2242 -0.3670 -0.7252
  926MPD2    C513604   3.697   0.057  13.401  0.7205  0.6255 -0.5279
  926MPD2     H13605   3.865   0.365  13.538  1.3101  0.4015 -1.8633
  926MPD2    H113606   3.824   0.067  13.231  2.7544  0.8594 -0.3776
  926MPD2    H213607   3.579   0.046  13.572 -0.6580  2.0660  2.4680
  926MPD2    H313608   3.650   4.704  13.360 -0.0835  1.5983 -1.7439
  926MPD2     N13609   3.956   0.292  13.290 -0.7075  0.9045 -0.4672
  926MPD2    H513610   3.953   0.260  13.193  1.5992 -1.0476  0.0957
  926MPD2    N113611   3.679   0.273  13.694 -0.2484 -0.2267  0.3456
  926MPD2    H713612   3.737   0.347  13.733 -1.1585 -0.4708  2.1480
  927MPD2     C13613   3.602   2.695  17.563 -0.5231  0.3366  0.3172
  927MPD2    C113614   3.677   2.771  17.650  0.0666 -0.1145 -0.0608
  927MPD2    C213615   3.800   2.824  17.608  0.3193  0.5368  0.3351
  927MPD2    C313616   3.850   2.782  17.485  0.0071 -0.8013  0.4958
  927MPD2    C413617   3.764   2.726  17.393 -0.4068 -0.3254  0.3972
  927MPD2    C513618   3.641   2.681  17.431  0.6642  0.0951 -0.1709
  927MPD2     H13619   3.859   2.877  17.681 -0.4443 -0.8425  1.9767
  927MPD2    H113620   3.796   2.699  17.293 -2.5183 -3.7194  0.6140
  927MPD2    H213621   3.503   2.663  17.590 -0.0987 -1.1959  0.0374
  927MPD2    H313622   3.577   2.631  17.360 -1.6483  1.4298  0.9794
  927MPD2     N13623   3.987   2.819  17.458  0.1534 -0.2639 -0.3208
  927MPD2    H513624   4.039   2.864  17.533 -1.5552  0.8129  0.2387
  927MPD2    N113625   3.617   2.808   0.034 -0.0034  0.1007 -0.4270
  927MPD2    H713626   3.539   2.747   0.056 -0.9582  1.4910  0.0479
  928MPD2     C13627   1.627   1.616   1.198  0.3437 -0.7027  0.6443
  928MPD2    C113628   1.755   1.636   1.249  0.2540 -0.2986 -0.8606
  928MPD2    C213629   1.857   1.572   1.189 -0.2507 -0.1937 -0.5380
  928MPD2    C313630   1.835   1.510   1.068 -0.1028  0.4049 -0.3518
  928MPD2    C413631   1.708   1.484   1.020  0.7360 -0.1014 -0.2606
  928MPD2    C513632   1.605   1.544   1.089  0.5415 -0.2707  0.3500
  928MPD2     H13633   1.957   1.597   1.221 -0.0307 -1.8723  0.0455
  928MPD2    H113634   1.689   1.421   0.934  2.5756 -1.9480  0.6988
  928MPD2    H213635   1.539   1.649   1.253 -0.5457  0.6530 -1.6007
  928MPD2    H313636   1.502   1.528   1.058 -0.2559  1.0959  2.2442
  928MPD2     N13637   1.949   1.478   0.987  0.7204  0.1390  0.2108
  928MPD2    H513638   1.926   1.429   0.901 -1.4180 -0.2906  1.0187
  928MPD2    N113639   1.796   1.735   1.345 -0.2668  0.2043 -1.1267
  928MPD2    H713640   1.896   1.750   1.351 -0.6843  3.0161 -1.4003
  929MPD2     C13641   1.745   1.498  10.571  0.1900  0.4035  0.3988
  929MPD2    C113642   1.704   1.423  10.468  0.4049 -0.2577 -0.3315
  929MPD2    C213643   1.621   1.490  10.376 -0.1239  0.6277 -0.3691
  929MPD2    C313644   1.602   1.628  10.378 -0.0070 -0.0905  0.1728
  929MPD2    C413645   1.660   1.702  10.472  0.1004 -0.5036 -0.5394
  929MPD2    C513646   1.737   1.632  10.566  0.3685  0.0965 -0.0610
  929MPD2     H13647   1.586   1.437  10.289  0.5914 -0.8724  0.2528
  929MPD2    H113648   1.656   1.811  10.473 -1.9149 -0.5855  0.4200
  929MPD2    H213649   1.799   1.449  10.651  0.2603 -0.3834 -0.1267
  929MPD2    H313650   1.793   1.691  10.638  1.9132 -0.6035 -0.6958
  929MPD2     N13651   1.526   1.694  10.273 -0.1811 -0.4193  0.6373
  929MPD2    H513652   1.538   1.790  10.245  0.3776 -0.6811 -0.0036
  929MPD2    N113653   1.730   1.282  10.463 -0.1061  0.0657 -0.5246
  929MPD2    H713654   1.771   1.239  10.545  1.3371  2.0846 -0.1724
  930MPD2     C13655   3.615   3.045  14.264 -0.3645  0.1715 -0.4376
  930MPD2    C113656   3.733   3.104  14.236 -0.6370 -0.3962  0.4534
  930MPD2    C213657   3.798   3.068  14.117 -0.0592  0.1049  0.6893
  930MPD2    C313658   3.735   2.985  14.026  0.2982  0.0432  0.3406
  930MPD2    C413659   3.608   2.937  14.052  0.8782  0.5160  0.3603
  930MPD2    C513660   3.554   2.957  14.175  0.3254  0.7701 -0.2802
  930MPD2     H13661   3.898   3.107  14.102  0.2490 -1.0811 -0.3497
  930MPD2    H113662   3.565   2.869  13.979  3.8610 -2.0468  0.9703
  930MPD2    H213663   3.568   3.080  14.355  1.5381  4.1423 -0.9663
  930MPD2    H313664   3.457   2.918  14.202 -0.0645  1.7519 -0.2755
  930MPD2     N13665   3.785   2.959  13.898  0.7564 -1.1878  0.2628
  930MPD2    H513666   3.721   2.905  13.841 -0.8552 -0.8925  1.7991
  930MPD2    N113667   3.793   3.194  14.335  0.9364  0.1068 -0.2143
  930MPD2    H713668   3.742   3.191  14.423 -1.3526  1.8166 -1.4841
  931MPD2     C13669   4.027   2.471   0.486  0.8189 -0.4136 -0.6811
  931MPD2    C113670   3.931   2.529   0.566 -0.0502  0.4716  0.1834
  931MPD2    C213671   3.920   2.490   0.699  0.4631 -0.4947  0.4416
  931MPD2    C313672   3.992   2.381   0.745 -0.6130  0.5628 -0.0390
  931MPD2    C413673   4.093   2.335   0.659 -0.1247 -0.3620 -0.4076
  931MPD2    C513674   4.114   2.383   0.539 -0.0809  0.9025  1.1185
  931MPD2     H13675   3.848   2.543   0.760 -1.2526 -2.1473 -0.1434
  931MPD2    H113676   4.162   2.256   0.686  0.1919 -0.2650 -0.9368
  931MPD2    H213677   4.030   2.498   0.381  1.8527 -1.9122 -1.0339
  931MPD2    H313678   4.184   2.339   0.469 -1.3037 -0.4932  0.7494
  931MPD2     N13679   3.978   2.323   0.873 -0.3059 -0.1015  0.2503
  931MPD2    H513680   4.038   2.241   0.883  0.4764  0.6371  1.6935
  931MPD2    N113681   3.862   2.646   0.516 -0.0896 -0.5123 -0.3452
  931MPD2    H713682   3.899   2.681   0.429 -1.3727 -1.8738 -1.4379
  932MPD2     C13683   4.678   1.976  11.462  0.8997  0.2808  0.4616
  932MPD2    C113684   0.057   2.006  11.387  0.2304  0.3790 -0.2955
  932MPD2    C213685   0.109   1.904  11.303  0.7396 -0.0038 -0.0622
  932MPD2    C313686   0.067   1.773  11.316  0.3878  0.0888 -0.1902
  932MPD2    C413687   4.684   1.750  11.385  0.3296  0.2651 -0.0589
  932MPD2    C513688   4.630   1.847  11.461  0.3537  0.2401 -0.0326
  932MPD2     H13689   0.187   1.929  11.233 -1.5943  0.4386 -2.4945
  932MPD2    H113690   4.644   1.649  11.389  0.1895  0.3385  0.4000
  932MPD2    H213691   4.652   2.043  11.543  0.8473  1.6644 -0.7012
  932MPD2    H313692   4.555   1.815  11.532 -1.0633  1.5121 -0.9481
  932MPD2     N13693   0.137   1.660  11.266  0.2839  0.4749  0.6577
  932MPD2    H513694   0.094   1.569  11.275 -0.8904  1.2513  2.7867
  932MPD2    N113695   0.106   2.137  11.371  0.3167  0.2092  0.1613
  932MPD2    H713696   0.190   2.149  11.316 -1.0540  3.9754 -1.1181
  933MPD2     C13697   2.030   2.598   1.465  0.4289 -0.1919  0.2873
  933MPD2    C113698   1.921   2.522   1.430 -0.3669  0.4079  0.5018
  933MPD2    C213699   1.818   2.588   1.359  0.1898 -0.1831 -0.9162
  933MPD2    C313700   1.835   2.720   1.326 -0.1408  0.4814  0.6300
  933MPD2    C413701   1.939   2.794   1.380  0.2754  0.6376 -0.1772
  933MPD2    C513702   2.035   2.733   1.448  0.5111 -0.2289  0.1029
  933MPD2     H13703   1.723   2.542   1.334  0.5189 -1.3715  0.0209
  933MPD2    H113704   1.947   2.899   1.355 -1.7412  0.6802 -0.5714
  933MPD2    H213705   2.124   2.554   1.496  0.2817 -0.4255  0.4048
  933MPD2    H313706   2.124   2.784   1.481 -0.4085  0.4061  1.6063
  933MPD2     N13707   1.736   2.777   1.244  0.5639 -0.6543  0.3156
  933MPD2    H513708   1.649   2.729   1.227  1.0656 -1.3111 -0.4134
  933MPD2    N113709   1.924   2.387   1.457  0.1114 -0.5811  0.4892
  933MPD2    H713710   1.993   2.364   1.528  2.0782  0.7921 -0.9652
  934MPD2     C13711   2.803   3.578   2.309 -0.6581  0.8971  0.7222
  934MPD2    C113712   2.902   3.534   2.226  0.4371  0.0176 -0.5185
  934MPD2    C213713   2.893   3.540   2.092 -0.0703 -0.1440 -0.3493
  934MPD2    C313714   2.770   3.580   2.039 -0.0874 -0.1471 -0.1023
  934MPD2    C413715   2.673   3.633   2.120  0.3685 -0.6766  0.8382
  934MPD2    C513716   2.687   3.628   2.255  0.5289 -0.5612  0.3039
  934MPD2     H13717   2.963   3.484   2.031 -1.1731 -0.1793 -1.5748
  934MPD2    H113718   2.580   3.671   2.080 -0.5328 -2.8153  0.9415
  934MPD2    H213719   2.815   3.571   2.416 -0.2922 -2.1833  0.4682
  934MPD2    H313720   2.620   3.685   2.318  0.9245  1.0502 -0.7343
  934MPD2     N13721   2.740   3.560   1.899  0.6272  0.2009 -0.5685
  934MPD2    H513722   2.645   3.578   1.867  0.0959 -1.5941 -0.0288
  934MPD2    N113723   3.022   3.478   2.274 -0.6573 -0.0220  0.5452
  934MPD2    H713724   3.093   3.462   2.204  0.0343 -2.0140  1.7265
  935MPD2     C13725   3.112   2.881   1.230 -0.2067  0.0501 -0.3919
  935MPD2    C113726   2.989   2.921   1.185 -0.2616  0.5961 -0.0072
  935MPD2    C213727   2.923   3.015   1.253  0.0769 -0.2269  0.0894
  935MPD2    C313728   2.976   3.082   1.367 -0.1922 -0.0613  0.7553
  935MPD2    C413729   3.105   3.047   1.403  0.7801 -0.4075 -0.4758
  935MPD2    C513730   3.172   2.944   1.338  0.6953  0.0450  0.1446
  935MPD2     H13731   2.827   3.043   1.213  0.1418  1.8854  1.4232
  935MPD2    H113732   3.160   3.102   1.479 -0.0633  0.3613 -0.4170
  935MPD2    H213733   3.162   2.795   1.187 -0.4572  0.2768 -1.1443
  935MPD2    H313734   3.266   2.908   1.379 -0.1001 -2.2432 -0.0676
  935MPD2     N13735   2.915   3.189   1.440 -0.6796  0.8055 -0.4292
  935MPD2    H513736   2.955   3.221   1.528 -0.1148  1.3953 -0.8977
  935MPD2    N113737   2.918   2.869   1.070 -0.2056  0.6038 -0.2709
  935MPD2    H713738   2.825   2.909   1.060 -0.2465 -0.1781 -3.0169
  936MPD2     C13739   1.133   4.644  12.734 -0.2759  0.5306  0.2547
  936MPD2    C113740   1.071   4.692  12.621 -0.7529 -0.3533 -0.2088
  936MPD2    C213741   1.123   4.658  12.497  0.4343  0.2539 -0.1526
  936MPD2    C313742   1.248   4.602  12.491 -0.1802 -0.4482 -0.0260
  936MPD2    C413743   1.310   4.551  12.605  0.0336 -0.6108  0.1160
  936MPD2    C513744   1.249   4.571  12.724  0.5999 -0.3003  0.8043
  936MPD2     H13745   1.073   4.706  12.414 -0.6156  1.6405  1.2661
  936MPD2    H113746   1.401   4.494  12.595 -0.8597 -1.9847 -0.2316
  936MPD2    H213747   1.093   4.663  12.832 -1.2420 -0.4005  0.0386
  936MPD2    H313748   1.303   4.526  12.807  2.6514 -0.2136 -0.4710
  936MPD2     N13749   1.312   4.609  12.360  0.7280 -0.3793  0.0557
  936MPD2    H513750   1.255   4.650  12.287 -0.7185  0.6684  1.7752
  936MPD2    N113751   0.956   0.035  12.615 -0.2675  0.1624 -0.1328
  936MPD2    H713752   0.903   0.038  12.529  0.1575 -1.4799 -0.4626
  937MPD2     C13753   3.831   1.283  11.875 -0.3417  0.2954 -0.3755
  937MPD2    C113754   3.843   1.412  11.909 -0.9102  0.3591  0.2427
  937MPD2    C213755   3.949   1.479  11.853 -0.5282  0.5417 -0.5386
  937MPD2    C313756   4.043   1.416  11.774  0.2507  0.8066  0.3104
  937MPD2    C413757   4.037   1.279  11.757 -0.6234 -0.8865  0.7528
  937MPD2    C513758   3.925   1.217  11.796 -0.5836  0.2828  0.3136
  937MPD2     H13759   3.954   1.585  11.873 -3.0746  0.2976  1.3746
  937MPD2    H113760   4.111   1.221  11.702  1.2700  0.9335  1.3738
  937MPD2    H213761   3.743   1.227  11.904 -0.3447 -1.1880 -3.2605
  937MPD2    H313762   3.915   1.109  11.783  0.1779  0.3030 -0.4060
  937MPD2     N13763   4.144   1.490  11.725  0.1225  0.8373  0.7686
  937MPD2    H513764   4.135   1.586  11.757 -0.4656  0.4234  1.8588
  937MPD2    N113765   3.729   1.485  11.955  0.1800  0.1235  0.0081
  937MPD2    H713766   3.731   1.584  11.937 -0.1900  0.5147  2.0939
  938MPD2     C13767   1.580   3.421   1.172 -0.3517  0.1936 -0.1320
  938MPD2    C113768   1.713   3.424   1.207  0.4873  0.3335 -0.2017
  938MPD2    C213769   1.760   3.329   1.302 -0.0917  0.5693 -0.2945
  938MPD2    C313770   1.683   3.237   1.365 -0.0989 -0.3793 -0.3927
  938MPD2    C413771   1.547   3.236   1.324 -0.2190  0.5376 -0.4686
  938MPD2    C513772   1.511   3.318   1.226 -0.5404  0.3275 -0.6498
  938MPD2     H13773   1.866   3.341   1.319  0.1050 -0.1720 -1.0371
  938MPD2    H113774   1.470   3.168   1.358  0.0407  1.1787  1.3566
  938MPD2    H213775   1.538   3.487   1.098  1.4865  0.5131 -0.9101
  938MPD2    H313776   1.409   3.311   1.189  0.4236 -2.6381 -2.7664
  938MPD2     N13777   1.722   3.141   1.465 -0.2891  0.3890 -0.6724
  938MPD2    H513778   1.639   3.091   1.496 -2.0594  1.9416 -2.8652
  938MPD2    N113779   1.804   3.521   1.145 -1.2537  0.3997 -0.7655
  938MPD2    H713780   1.904   3.518   1.164 -1.4818  1.7806  0.6669
  939MPD2     C13781   3.516   3.831   0.904  0.5478  0.9487 -0.2709
  939MPD2    C113782   3.490   3.967   0.860 -0.1072 -0.2715  0.3364
  939MPD2    C213783   3.400   3.988   0.752  0.1505 -0.4681 -0.2084
  939MPD2    C313784   3.334   3.878   0.698 -0.4431 -0.9880  0.7510
  939MPD2    C413785   3.348   3.747   0.746 -0.3295 -0.1533  0.1017
  939MPD2    C513786   3.440   3.731   0.848  1.0742 -0.1326  0.0777
  939MPD2     H13787   3.369   4.090   0.733 -1.8448 -0.7374  1.6790
  939MPD2    H113788   3.288   3.663   0.713 -0.5176 -0.3890  1.0557
  939MPD2    H213789   3.589   3.814   0.982  0.0384 -1.0539 -0.2252
  939MPD2    H313790   3.463   3.634   0.890  1.5008  0.0012  0.1519
  939MPD2     N13791   3.242   3.906   0.594 -0.0979  0.2396 -0.1350
  939MPD2    H513792   3.241   4.001   0.558  1.3974 -0.0590 -0.9672
  939MPD2    N113793   3.559   4.076   0.922 -0.3905 -0.0311  0.2944
  939MPD2    H713794   3.602   4.058   1.012  0.9327  1.9200  0.0478
  940MPD2     C13795   2.325   0.166  12.994  0.0453  0.3815 -0.0328
  940MPD2    C113796   2.213   0.093  12.969 -0.3356 -0.2785  0.0742
  940MPD2    C213797   2.187   0.086  12.829  0.6306 -0.1627 -0.5176
  940MPD2    C313798   2.258   0.149  12.728  0.3100 -0.6315 -0.2356
  940MPD2    C413799   2.370   0.219  12.765  0.5133 -0.3217 -0.2439
  940MPD2    C513800   2.399   0.224  12.898 -0.4353  0.1778  0.9965
  940MPD2     H13801   2.102   0.024  12.801  0.3755 -1.2295  2.5763
  940MPD2    H113802   2.435   0.272  12.697  1.3121  0.1720  0.9015
  940MPD2    H213803   2.361   0.169  13.096 -0.6180 -2.0108  0.2459
  940MPD2    H313804   2.495   0.272  12.912  0.6128 -0.8810 -2.4097
  940MPD2     N13805   2.217   0.161  12.594 -0.2612  0.4114 -0.9501
  940MPD2    H513806   2.270   0.220  12.531 -1.7664  2.9263  0.1711
  940MPD2    N113807   2.119   0.043  13.065  0.0709  0.4922 -0.6521
  940MPD2    H713808   2.034   0.011  13.020  1.0766 -2.4599 -0.5051
  941MPD2     C13809   0.457   4.051   9.844  0.3149 -0.1946 -0.1022
  941MPD2    C113810   0.565   4.067   9.933 -0.3664  1.3426  0.1735
  941MPD2    C213811   0.543   4.035  10.061  0.2743 -1.0432  0.2757
  941MPD2    C313812   0.417   3.988  10.106  0.2000 -0.3162  0.4061
  941MPD2    C413813   0.309   3.993  10.020 -0.1741  0.6443  0.6960
  941MPD2    C513814   0.329   4.026   9.890  0.3499 -0.0637 -0.4693
  941MPD2     H13815   0.633   4.039  10.121  0.0241  1.2434  0.4983
  941MPD2    H113816   0.218   3.953  10.063 -1.5407  0.8481 -2.0613
  941MPD2    H213817   0.464   4.063   9.737  0.4156 -1.1603 -0.2109
  941MPD2    H313818   0.240   4.035   9.829 -0.1716 -2.0304  0.0034
  941MPD2     N13819   0.397   3.933  10.236  0.5710  0.4001 -0.7941
  941MPD2    H513820   0.305   3.899  10.262  0.2570  0.5833 -1.6693
  941MPD2    N113821   0.697   4.103   9.889 -0.0473 -0.2384  0.2555
  941MPD2    H713822   0.774   4.107   9.955 -0.2355 -1.5218  0.5600
  942MPD2     C13823   0.255   1.462   9.789 -0.7699  0.6742 -0.4504
  942MPD2    C113824   0.172   1.453   9.680 -0.4023  0.0201 -0.1524
  942MPD2    C213825   0.226   1.375   9.571  0.0996  0.1612  0.1122
  942MPD2    C313826   0.356   1.318   9.574  0.0925  0.2236  0.3779
  942MPD2    C413827   0.435   1.336   9.686  0.1918 -0.2154 -0.3281
  942MPD2    C513828   0.380   1.396   9.795 -0.1027  0.5290 -0.2454
  942MPD2     H13829   0.177   1.382   9.475 -2.8057  1.8075  1.7178
  942MPD2    H113830   0.538   1.305   9.693  0.7750  1.4130 -1.5858
  942MPD2    H213831   0.235   1.514   9.882 -0.8817 -2.3825  1.2183
  942MPD2    H313832   0.437   1.400   9.887 -1.6170 -0.8401  0.7425
  942MPD2     N13833   0.419   1.257   9.464 -0.3912 -0.0208  0.8147
  942MPD2    H513834   0.513   1.225   9.482  0.2434  2.3898  1.8560
  942MPD2    N113835   0.046   1.515   9.678 -0.0820  0.7226  0.8084
  942MPD2    H713836   4.722   1.488   9.601  1.6662  0.0171 -0.2835
  943MPD2     C13837   4.389   4.251  10.139 -0.3864  0.2378  0.2710
  943MPD2    C113838   4.325   4.186  10.239 -0.3700  0.3647  0.1970
  943MPD2    C213839   4.283   4.251  10.353  0.0679  0.1556  0.1216
  943MPD2    C313840   4.322   4.383  10.363  0.2265 -0.6242  0.0037
  943MPD2    C413841   4.394   4.447  10.267 -0.5522 -0.3783 -0.5503
  943MPD2    C513842   4.422   4.384  10.155 -0.0182  0.2560  0.6412
  943MPD2     H13843   4.220   4.207  10.429  1.9711  0.2159  1.7300
  943MPD2    H113844   4.434   4.548  10.273 -0.2470 -0.6110  1.2008
  943MPD2    H213845   4.422   4.197  10.051  1.3678  1.2998  0.2564
  943MPD2    H313846   4.487   4.433  10.083 -0.2803 -0.4620 -0.0900
  943MPD2     N13847   4.289   4.459  10.476 -0.1625 -0.4181 -0.4860
  943MPD2    H513848   4.319   4.557  10.476 -1.1636 -0.1218  1.4529
  943MPD2    N113849   4.306   4.047  10.214 -0.1311  0.0358 -0.1365
  943MPD2    H713850   4.357   4.014  10.133 -0.2432  0.0783 -0.2236
  944MPD2     C13851   3.949   3.062  10.909  0.1249 -0.3145 -0.4654
  944MPD2    C113852   3.934   3.199  10.887 -0.0339 -0.5064 -0.3590
  944MPD2    C213853   3.815   3.253  10.928  0.1840  0.7047  0.2903
  944MPD2    C313854   3.706   3.179  10.977  0.1995 -0.5765 -0.0821
  944MPD2    C413855   3.722   3.038  10.993 -0.3936  0.2055  0.2144
  944MPD2    C513856   3.843   2.990  10.958  0.9775  0.0316  0.3928
  944MPD2     H13857   3.796   3.359  10.918 -1.0014  0.3797 -0.9861
  944MPD2    H113858   3.642   2.971  11.024 -0.1907 -0.9138 -1.7284
  944MPD2    H213859   4.037   2.999  10.905  1.3955  1.5468 -1.4052
  944MPD2    H313860   3.864   2.884  10.969 -1.0184 -0.5759 -1.6482
  944MPD2     N13861   3.589   3.245  11.024 -0.1903  0.3703  0.2395
  944MPD2    H513862   3.599   3.345  11.013 -0.5081  0.2017 -1.6757
  944MPD2    N113863   4.046   3.266  10.834  0.4204 -0.9340 -0.6695
  944MPD2    H713864   4.128   3.212  10.807 -0.1279 -1.3319 -1.5493
    1TMC1    C113865   2.670   4.649  14.341 -0.2750  0.0430 -0.0763
    1TMC1    C213866   2.634   4.515  14.365  0.6608 -0.2074 -0.0224
    1TMC1    C313867   2.704   4.446  14.461 -0.3383 -0.0729  0.0764
    1TMC1    C413868   2.787   4.700  14.391 -0.1585 -0.5389 -0.2398
    1TMC1    C513869   2.860   4.623  14.472 -0.3639  0.8819  0.1380
    1TMC1    C613870   2.817   4.496  14.513  0.0267 -0.0740  0.0726
    1TMC1     C13871   2.606   4.704  14.223 -0.0191 -0.2452  0.0369
    1TMC1     O13872   2.523   4.628  14.173 -0.0923 -0.3526  1.0607
    1TMC1     H13873   2.544   4.472  14.322 -0.1854  0.4460  1.0725
    1TMC1    H113874   2.816   0.069  14.382 -1.3807 -0.2306 -0.5261
    1TMC1    H213875   2.886   4.440  14.574 -0.2235 -1.0551 -0.5440
    1TMC1    C713876   2.976   4.673  14.537  0.7470 -0.5456  0.1585
    1TMC1    C813877   2.677   4.315  14.496 -0.5286  0.3297  0.7064
    1TMC1    O113878   2.989   4.677  14.657 -0.2899  0.0388  0.0256
    1TMC1    O213879   2.753   4.249  14.563 -0.5681 -0.0495 -0.0380
    1TMC1    O313880   3.034   0.022  14.444 -0.1621  0.5096  0.3527
    1TMC1    H313881   3.019   0.001  14.349  0.4434  0.6857  0.2186
    1TMC1    O513882   2.544   4.304  14.508 -0.1726 -0.4288 -0.2297
    1TMC1    H513883   2.501   4.384  14.470 -1.1262 -0.9793 -0.3016
    2MPD2     C13884   2.569   0.277  13.826 -0.0593  0.4694 -0.0033
    2MPD2    C113885   2.658   0.329  13.919  0.2608 -0.1892  0.3501
    2MPD2    C213886   2.695   0.260  14.028  0.9322  0.0481 -0.0414
    2MPD2    C313887   2.642   0.135  14.050  0.0114 -0.7137 -0.0722
    2MPD2    C413888   2.552   0.075  13.956 -0.0404  0.2703  0.3752
    2MPD2    C513889   2.525   0.149  13.844  0.0124  0.3671 -0.6207
    2MPD2     H13890   2.764   0.306  14.098  0.5489  1.0893 -0.3363
    2MPD2    H113891   2.504   4.713  13.960 -0.9173  0.6929  0.0411
    2MPD2    H213892   2.542   0.325  13.732 -0.1470 -0.7719 -0.6148
    2MPD2    H313893   2.460   0.104  13.770  0.9638 -1.1596 -0.5240
    2MPD2     N13894   2.669   0.076  14.177  0.1211 -0.1794 -0.8743
    2MPD2    H513895   2.726   0.127  14.243  1.2169 -2.0530 -0.3769
    2MPD2    N113896   2.716   0.460  13.882  0.1980 -0.0920 -0.3621
    2MPD2    H713897   2.666   0.501  13.804  3.7195  0.3362 -2.4035
    3TMC2    C113898   2.796   0.676  13.890  0.0686  0.3960 -0.2462
    3TMC2    C213899   2.823   0.790  13.964 -0.1418  0.1687 -0.0226
    3TMC2    C313900   2.853   0.907  13.903 -0.2107 -1.0658 -0.4972
    3TMC2    C413901   2.790   0.692  13.753 -0.0498  0.6426 -0.0583
    3TMC2    C513902   2.825   0.806  13.696  0.1868  0.3487  0.1526
    3TMC2    C613903   2.868   0.917  13.764 -0.1412  0.2116  0.0887
    3TMC2     C13904   2.769   0.549  13.965 -0.1369 -0.5022 -0.8410
    3TMC2     O13905   2.790   0.538  14.085 -0.2104  0.2398  0.4359
    3TMC2     H13906   2.797   0.779  14.069 -0.3723  0.2176 -0.0761
    3TMC2    H113907   2.762   0.616  13.681  0.1991  1.3648 -0.9161
    3TMC2    H213908   2.884   1.011  13.713  3.2028 -0.5856 -0.3322
    3TMC2    C713909   2.809   0.832  13.552 -0.0541 -0.0381 -0.2534
    3TMC2    C813910   2.862   1.019  13.987 -0.3107 -0.2065 -0.6099
    3TMC2    O113911   2.863   0.934  13.507 -0.1370 -0.3876 -0.3199
    3TMC2    O213912   2.861   1.007  14.108 -0.2367 -0.3667 -0.1616
    3TMC2    O513913   2.811   1.118  13.917  0.2240  0.0025 -0.3185
    3TMC2    H513914   2.778   1.097  13.827 -1.5579 -0.5788  0.4803
    4TMC2    C113915   2.008   0.343  13.166  0.2252  0.5798 -0.3395
    4TMC2    C213916   1.983   0.372  13.042 -0.2728  0.4770 -0.1771
    4TMC2    C313917   2.075   0.436  12.972  0.0185 -0.0856  0.1810
    4TMC2    C413918   2.124   0.376  13.221  0.2314 -0.1634 -0.4758
    4TMC2    C513919   2.213   0.446  13.153  0.7946 -0.0953  0.3482
    4TMC2    C613920   2.195   0.469  13.018 -0.4887  0.7787  0.5200
    4TMC2     C13921   1.897   0.309  13.255 -0.5399  0.4129  0.7017
    4TMC2     O13922   1.924   0.276  13.370  0.3573  0.0656 -0.1671
    4TMC2     H13923   1.905   0.320  12.988  1.4909  1.0999 -3.3211
    4TMC2    H113924   2.135   0.368  13.329 -2.2011  0.3662 -0.1924
    4TMC2    H213925   2.274   0.519  12.962  1.0033 -0.2690  1.7140
    4TMC2    C713926   2.314   0.518  13.237 -0.3374  0.2011  0.1477
    4TMC2    C813927   2.043   0.442  12.832  0.6097  0.8078 -0.1445
    4TMC2    O113928   2.308   0.520  13.356  0.2340 -0.6327  0.3269
    4TMC2    O213929   1.980   0.366  12.760 -0.1914  0.8526  0.1371
    4TMC2    O513930   2.114   0.544  12.786  0.3455 -0.5988 -0.2843
    4TMC2    H513931   2.165   0.585  12.859 -0.7342  1.2890 -0.5971
    5MPD2     C13932   1.418   0.438  13.406  0.0067  0.3129 -0.3199
    5MPD2    C113933   1.434   0.458  13.271  0.2191  0.2414 -0.1372
    5MPD2    C213934   1.544   0.415  13.206 -0.9407  0.0248  0.1761
    5MPD2    C313935   1.655   0.364  13.274  0.4067 -0.3558  0.3561
    5MPD2    C413936   1.640   0.345  13.413  0.4048 -0.0122 -0.2361
    5MPD2    C513937   1.521   0.378  13.474 -0.8196 -0.2342 -0.4206
    5MPD2     H13938   1.572   0.430  13.102  0.5004  4.3077  1.1914
    5MPD2    H113939   1.715   0.300  13.477  1.2018 -0.5605 -1.5560
    5MPD2    H213940   1.334   0.472  13.465 -1.5860 -1.0962 -1.7723
    5MPD2    H313941   1.507   0.365  13.581  0.3812 -2.5035 -0.5320
    5MPD2     N13942   1.774   0.348  13.198 -0.3454  0.6494 -0.0495
    5MPD2    H513943   1.771   0.382  13.102  1.0722  1.2536  0.1157
    5MPD2    N113944   1.330   0.528  13.206  0.1447  0.7266  0.1542
    5MPD2    H713945   1.258   0.574  13.260 -0.2045 -1.9537  1.9594
    6MPD1     C13946   0.728   2.386  12.943  0.0159  0.5218  0.0242
    6MPD1    C113947   0.842   2.354  13.007  0.2126 -0.7488  0.3219
    6MPD1    C213948   0.865   2.222  13.032 -0.0491 -0.5020 -0.1738
    6MPD1    C313949   0.781   2.121  12.992  0.5057 -0.6577  0.5188
    6MPD1    C413950   0.659   2.158  12.939  0.6557 -0.6641 -0.5001
    6MPD1    C513951   0.634   2.289  12.913 -0.8482  0.2577  0.0069
    6MPD1     H13952   0.958   2.211  13.086 -0.3589  1.7455  0.8482
    6MPD1    H113953   0.583   2.086  12.911  0.5928 -1.7340  2.3879
    6MPD1    H213954   0.703   2.490  12.925 -0.3415  0.4238 -0.0408
    6MPD1    H313955   0.535   2.313  12.877 -0.1363  0.8733 -1.5710
    6MPD1     N13956   0.810   1.985  13.004 -0.3316 -0.0680  0.1740
    6MPD1    H513957   0.740   1.919  12.973 -0.7985  0.9754 -0.9886
    6MPD1    N113958   0.921   2.465  13.057 -0.4556  0.5813  0.3175
    6MPD1    H613959   1.019   2.438  13.057 -0.4339  0.6734 -1.0736
    6MPD1    H713960   0.909   2.555  13.011  0.1020  0.2393 -0.5004
    7MPD2     C13961   1.115   1.316  13.474  0.3592 -0.2368  0.1883
    7MPD2    C113962   1.089   1.296  13.340  0.2206  0.3684  0.0676
    7MPD2    C213963   1.088   1.169  13.282 -0.4983  0.6457 -0.2141
    7MPD2    C313964   1.094   1.060  13.365 -0.4800  0.1052  0.4283
    7MPD2    C413965   1.090   1.076  13.505 -0.1567  0.5408  0.1979
    7MPD2    C513966   1.113   1.202  13.556 -0.5152  0.6116 -0.0536
    7MPD2     H13967   1.089   1.162  13.173  0.9906 -2.7898  0.0333
    7MPD2    H113968   1.079   0.991  13.571 -0.4177  0.6500  0.2956
    7MPD2    H213969   1.136   1.415  13.513  0.2736  0.4971 -1.6209
    7MPD2    H313970   1.117   1.217  13.663 -3.3763  0.0027  0.1316
    7MPD2     N13971   1.081   0.935  13.317  0.5813 -0.1825  0.9344
    7MPD2    H513972   1.104   0.852  13.372 -0.1613 -1.7007 -1.0376
    7MPD2    N113973   1.075   1.400  13.251 -0.2854 -0.4138 -0.6396
    7MPD2    H713974   1.053   1.364  13.159  1.4440 -2.0843 -0.3935
    8TMC3    C113975   1.027   0.778  13.146 -0.4449  0.5629  0.7593
    8TMC3    C213976   1.152   0.718  13.162 -0.5971 -0.3223 -0.5331
    8TMC3    C313977   1.191   0.640  13.055  0.9418 -0.3626 -0.3146
    8TMC3    C413978   0.961   0.768  13.030  0.0152  0.8213  0.1806
    8TMC3    C513979   1.021   0.711  12.927 -0.1231 -0.0601 -0.4359
    8TMC3    C613980   1.136   0.639  12.933 -0.0754 -1.4808  0.0405
    8TMC3     C13981   1.013   0.917  13.198 -0.0869  0.1005 -0.3421
    8TMC3     O13982   0.944   0.988  13.122 -0.3495  0.5466 -0.5090
    8TMC3     H13983   1.205   0.736  13.255 -0.2548  0.9028 -0.9665
    8TMC3    H113984   0.858   0.803  13.021 -0.2759  0.7626  3.0978
    8TMC3    H213985   1.172   0.595  12.841 -0.0918 -0.6595 -0.3514
    8TMC3    C713986   1.014   0.810  12.817  0.6308  0.3519  0.4511
    8TMC3    C813987   1.314   0.560  13.073 -0.5017 -1.4191  0.4673
    8TMC3    O113988   1.069   0.781  12.712 -0.4804  0.1304  0.5640
    8TMC3    O213989   1.371   0.515  12.976 -0.1100 -0.0361 -0.2026
    9TMC3    C113990   0.919   1.794  13.064 -0.0921  0.1887  0.2259
    9TMC3    C213991   0.898   1.726  12.947 -0.5744  0.3271 -0.5995
    9TMC3    C313992   0.912   1.593  12.944  0.3374 -0.2938 -0.6438
    9TMC3    C413993   0.990   1.735  13.166 -0.8305 -0.0957 -0.5930
    9TMC3    C513994   1.029   1.606  13.154 -0.1788 -0.1833  0.2370
    9TMC3    C613995   0.984   1.534  13.046 -0.3954 -0.5907  0.2467
    9TMC3     C13996   0.917   1.935  13.070 -0.3465 -0.0076 -0.1548
    9TMC3     O13997   1.006   1.996  13.123 -0.8996  0.1011 -0.2483
    9TMC3     H13998   0.845   1.774  12.865 -1.0677  1.5268  0.4215
    9TMC3    H113999   1.005   1.790  13.258  0.6097  1.6423 -1.8636
    9TMC3    H214000   1.035   1.442  13.017  0.5555 -0.0979  0.3651
    9TMC3    C714001   1.086   1.536  13.270 -0.0578 -0.2628  0.1070
    9TMC3    C814002   0.873   1.518  12.827  0.1217 -0.0372  0.3649
    9TMC3    O114003   1.099   1.595  13.380  0.1998 -0.5549 -0.2781
    9TMC3    O214004   0.867   1.568  12.712 -0.0442 -0.0046  0.2032
   10MPD2     C14005   0.941   1.055  12.653  0.1786  0.0963  0.2692
   10MPD2    C114006   0.928   1.043  12.789  0.2286 -1.1329 -0.1769
   10MPD2    C214007   0.886   1.157  12.857 -0.2985  0.0786  0.1762
   10MPD2    C314008   0.890   1.276  12.791 -1.0345 -0.3169  0.3634
   10MPD2    C414009   0.913   1.290  12.657 -1.0941 -0.0948 -0.5424
   10MPD2    C514010   0.936   1.173  12.591 -0.3047 -0.2055 -0.3785
   10MPD2     H14011   0.869   1.157  12.963 -2.6802  2.1117 -0.2207
   10MPD2    H114012   0.909   1.379  12.596 -2.3328 -1.0332 -1.8313
   10MPD2    H214013   0.961   0.975  12.584  0.4251  0.0850  0.3532
   10MPD2    H314014   0.925   1.169  12.483  1.5530  0.2748 -0.5898
   10MPD2     N14015   0.861   1.394  12.868 -0.0106  0.1341  0.5835
   10MPD2    H514016   0.836   1.377  12.965 -0.5582  0.1599  0.4488
   10MPD2    N114017   0.957   0.929  12.859  0.3997  0.4098  0.5203
   10MPD2    H714018   0.946   0.935  12.960  0.2858 -1.5204  0.6390
   11MPD2     C14019   2.720   0.849  13.273  1.0553  0.2694  0.3926
   11MPD2    C114020   2.660   0.763  13.369 -0.5467 -0.3351 -0.7520
   11MPD2    C214021   2.556   0.674  13.329  0.0583  0.6581  0.4920
   11MPD2    C314022   2.496   0.683  13.205  0.5702  0.2468 -0.4312
   11MPD2    C414023   2.556   0.778  13.112  0.5651 -0.3862 -0.2395
   11MPD2    C514024   2.662   0.860  13.151 -0.9444  0.2935 -0.5381
   11MPD2     H14025   2.527   0.602  13.404 -0.1183  0.0637 -0.1429
   11MPD2    H114026   2.523   0.787  13.009 -1.8872  1.5358  0.7253
   11MPD2    H214027   2.809   0.907  13.295  1.8948  0.3286 -3.1477
   11MPD2    H314028   2.684   0.941  13.083 -1.0602  1.5879  0.9529
   11MPD2     N14029   2.395   0.605  13.156 -0.2113 -0.2166  0.3961
   11MPD2    H514030   2.385   0.600  13.055 -0.0081 -0.8362  0.4041
   11MPD2    N114031   2.707   0.754  13.497  0.1614 -0.5797  0.2999
   11MPD2    H714032   2.666   0.687  13.560  0.3297  1.6886  2.8302
    1MPD1     C14033   1.186   1.531  16.738  0.0861 -0.8356 -0.2411
    1MPD1    C114034   1.194   1.503  16.873  0.7142 -0.1090  0.4019
    1MPD1    C214035   1.313   1.442  16.923  0.5592 -0.6021 -0.1578
    1MPD1    C314036   1.424   1.423  16.844 -0.0604 -0.0009 -0.0339
    1MPD1    C414037   1.407   1.451  16.710  0.3073  0.3033  0.6304
    1MPD1    C514038   1.294   1.512  16.663  0.0103  0.1959 -0.0300
    1MPD1     H14039   1.318   1.416  17.029 -2.1929  0.3917  0.2173
    1MPD1    H114040   1.487   1.436  16.638  1.2373  0.6029  1.6056
    1MPD1    H214041   1.097   1.578  16.697 -0.4382 -1.5475  0.0805
    1MPD1    H314042   1.290   1.553  16.563  0.8667  0.0155 -0.1435
    1MPD1     N14043   1.552   1.371  16.892  0.7023  0.4512  0.0239
    1MPD1    H514044   1.623   1.350  16.824 -0.2163  0.0570 -0.8155
    1MPD1    N114045   1.089   1.551  16.954 -0.7395  0.5299  0.0990
    1MPD1    H614046   1.086   1.502  17.043  1.5449 -1.8638 -1.1160
    1MPD1    H714047   1.003   1.535  16.901  0.9074 -0.3230 -2.3494
    2MPD1     C14048   1.837   1.261   0.097 -0.9280 -0.5038  0.3676
    2MPD1    C114049   1.762   1.361   0.036  0.4137  0.7035 -0.0012
    2MPD1    C214050   1.788   1.383  17.643  0.8239  1.0262 -0.3678
    2MPD1    C314051   1.860   1.295  17.570  0.4921  0.5793  0.2963
    2MPD1    C414052   1.919   1.184  17.626  0.2046 -0.8166 -0.0231
    2MPD1    C514053   1.904   1.169   0.018  0.5393 -0.0099  0.2101
    2MPD1     H14054   1.754   1.468  17.585 -0.9201  0.3702 -0.3040
    2MPD1    H114055   1.962   1.102  17.569  0.3329 -0.4007 -0.5311
    2MPD1    H214056   1.851   1.251   0.204 -1.7731 -1.9706  0.3361
    2MPD1    H314057   1.952   1.084   0.066  0.0958 -0.3909 -0.0220
    2MPD1     N14058   1.859   1.317  17.427  0.1451 -0.3515 -0.4347
    2MPD1    H514059   1.809   1.401  17.399  1.7776  1.0144  0.6930
    2MPD1    N114060   1.707   1.460   0.113  0.1487 -0.3832  0.4255
    2MPD1    H614061   1.669   1.425   0.200  0.9994 -0.4535  0.7721
    2MPD1    H714062   1.639   1.512   0.059  0.3686  0.0747  0.5895
    3TMC3    C114063   1.894   1.282  17.201  0.0837 -0.5652 -0.3498
    3TMC3    C214064   1.961   1.207  17.115  0.0314  0.4962 -0.1767
    3TMC3    C314065   1.907   1.188  16.988 -0.1618 -0.0267 -0.2138
    3TMC3    C414066   1.772   1.332  17.165  0.7666 -0.5410  0.1030
    3TMC3    C514067   1.723   1.318  17.039  0.2281  0.8726 -0.6021
    3TMC3    C614068   1.795   1.245  16.947  0.5944  0.2170  0.9473
    3TMC3     C14069   1.931   1.247  17.336 -0.4590 -0.2435  0.5027
    3TMC3     O14070   2.003   1.149  17.356 -0.5587  0.7132  0.0905
    3TMC3     H14071   2.052   1.154  17.140  0.2726  0.9329 -0.1372
    3TMC3    H114072   1.718   1.390  17.240  1.7564  1.6183 -0.8459
    3TMC3    H214073   1.760   1.235  16.845 -0.9015 -0.5799  1.5423
    3TMC3    C714074   1.582   1.354  17.022 -0.5368 -0.3877 -0.1157
    3TMC3    C814075   1.988   1.121  16.897 -0.1813 -0.5092  0.8942
    3TMC3    O114076   1.519   1.373  17.124  0.3807  0.8782  0.6790
    3TMC3    O214077   2.103   1.087  16.929 -0.0868 -0.1524 -0.3533
    4MPD1     C14078   2.111   0.929  16.429  0.1018  0.0676 -0.6157
    4MPD1    C114079   1.980   0.968  16.430 -1.0138  0.2671  0.1971
    4MPD1    C214080   1.925   1.016  16.550  1.0880  0.0646  0.4565
    4MPD1    C314081   1.998   1.030  16.660  0.2274 -0.4311 -0.1481
    4MPD1    C414082   2.136   0.997  16.653  0.0626  0.2892  0.3345
    4MPD1    C514083   2.179   0.942  16.540 -0.4484  1.2744  1.2071
    4MPD1     H14084   1.821   1.048  16.548  0.2515 -2.5667  0.3439
    4MPD1    H114085   2.201   1.023  16.736 -0.4510 -1.8176  1.3939
    4MPD1    H214086   2.174   0.900  16.346  1.2243  2.6464 -0.6581
    4MPD1    H314087   2.284   0.917  16.525 -0.5047  2.1521 -0.6524
    4MPD1     N14088   1.934   1.090  16.774 -0.6037 -0.7781 -0.0346
    4MPD1    H514089   1.833   1.096  16.764 -0.7481 -2.3482  0.5010
    4MPD1    N114090   1.908   0.961  16.307 -0.4005 -0.5877  0.4862
    4MPD1    H614091   1.807   0.970  16.299 -0.2329  1.8843  1.1168
    4MPD1    H714092   1.928   0.873  16.261  1.0724  0.1062 -0.1944
    1TCq1    O114093   2.288   0.963  11.473 -0.1150  0.5216  0.3809
    1TCq1    C114094   2.237   1.047  11.564  0.2301  0.5364 -0.3914
    1TCq1    O214095   2.291   1.145  11.612 -0.5231  0.0023  0.1452
    1TCq1    C214096   2.100   1.006  11.588  0.4659 -0.1031 -0.1492
    1TCq1    C314097   2.045   1.018  11.716  0.3367 -0.1137  0.0183
    1TCq1    C414098   1.913   1.023  11.726  0.8602  0.1744 -0.7790
    1TCq1    C514099   1.838   1.013  11.613 -0.3077 -0.2743  0.5336
    1TCq1    C614100   1.887   0.993  11.489  0.2351 -0.1743 -0.8644
    1TCq1    C714101   2.021   0.975  11.477  0.5147  0.2148 -0.1228
    1TCq1    C814102   1.795   0.964  11.379 -0.1516  0.1050 -0.3883
    1TCq1    O414103   1.839   0.987  11.267  0.4328 -0.1020  0.0671
    1TCq1    C914104   1.847   1.079  11.846 -1.0369 -0.4477  0.5306
    1TCq1    O514105   1.719   1.067  11.853  0.1427  0.3302  0.0156
    1TCq1    O614106   1.912   1.155  11.922 -0.5787  0.0662  0.5191
    1TCq1    H114107   2.237   0.891  11.431  0.2132 -0.0076  0.8991
    1TCq1    H214108   2.112   1.061  11.790 -0.5399  2.3012 -0.5776
    1TCq1    H314109   1.736   1.047  11.625 -0.0717  0.2303  1.1202
    1TCq1    H414110   2.060   0.955  11.378  1.4531 -0.4136  0.3670
    2MPD1     C14111   1.341   0.792  11.213  0.2359  0.7339  0.5210
    2MPD1    C114112   1.359   0.741  11.337 -0.3435  0.0404 -0.4128
    2MPD1    C214113   1.475   0.775  11.401 -0.0354  0.1493 -0.0890
    2MPD1    C314114   1.569   0.866  11.353  0.4119  0.4492 -0.0151
    2MPD1    C414115   1.537   0.930  11.233  0.3446  0.1306 -0.8065
    2MPD1    C514116   1.424   0.891  11.165  0.4069 -0.1123  0.1185
    2MPD1     H14117   1.497   0.728  11.496 -0.5556  1.4696  0.6828
    2MPD1    H114118   1.593   1.011  11.188 -1.3693  0.3662 -2.5311
    2MPD1    H214119   1.260   0.760  11.147  1.4418  0.9496 -1.0570
    2MPD1    H314120   1.398   0.946  11.076  0.9854  0.0917  0.0697
    2MPD1     N14121   1.684   0.895  11.427  0.6258 -0.1710  0.0089
    2MPD1    H514122   1.693   0.846  11.515 -1.7835  0.0878  0.3724
    2MPD1    N114123   1.285   0.635  11.382  0.0523 -0.3290  0.1482
    2MPD1    H614124   1.200   0.622  11.327  0.1448 -0.8757  0.1403
    2MPD1    H714125   1.277   0.616  11.482 -0.5757 -3.2661 -0.4477
    1TMC1    C114126   0.169   4.378   0.590 -0.7694 -0.2112  0.5200
    1TMC1    C214127   0.162   4.286   0.686  0.0546  0.0137 -0.3527
    1TMC1    C314128   0.118   4.157   0.655 -0.8244 -0.1041  0.0293
    1TMC1    C414129   0.145   4.338   0.456 -1.1602 -0.5116 -0.3918
    1TMC1    C514130   0.114   4.208   0.423  0.3473  0.7678 -0.5440
    1TMC1    C614131   0.097   4.115   0.525 -0.3513 -0.6266 -0.1421
    1TMC1     C14132   0.174   4.527   0.613  0.2020  0.5815  0.4710
    1TMC1     O14133   0.152   4.599   0.518  0.7827 -0.6646  0.3549
    1TMC1     H14134   0.179   4.302   0.792  0.8280  1.3105 -0.6791
    1TMC1    H114135   0.139   4.419   0.384  0.8286 -0.5012 -0.5486
    1TMC1    H214136   0.072   4.012   0.502  0.6891 -0.3096 -2.6625
    1TMC1    C714137   0.093   4.161   0.285 -0.6750 -0.4407 -0.6549
    1TMC1    C814138   0.070   4.070   0.762 -0.1191 -0.0516  0.7371
    1TMC1    O114139   0.018   4.070   0.249 -0.1537 -0.2032  0.3703
    1TMC1    O214140   0.122   4.064   0.874  0.9481  0.0702  0.1662
    1TMC1    O314141   0.196   4.216   0.212 -0.5060  1.0995 -0.2728
    1TMC1    H314142   0.259   4.259   0.273  0.9704 -1.2589 -0.1243
    1TMC1    O514143   4.689   4.021   0.726  0.2516  0.2140  0.3654
    1TMC1    H514144   4.649   4.074   0.653 -0.5696  2.9986  2.7999
    2MPD1     C14145   0.131   0.196   0.929 -0.3823 -0.2075  0.5396
    2MPD1    C114146   0.130   0.077   1.009  1.2202  0.2681 -0.0171
    2MPD1    C214147   0.155   4.696   0.939  0.2374 -0.6523 -0.5419
    2MPD1    C314148   0.168   4.688   0.800 -0.4863  0.1874  0.2085
    2MPD1    C414149   0.158   0.067   0.726  0.6280  0.4284 -0.3558
    2MPD1    C514150   0.142   0.190   0.794 -0.2680  0.7163  0.2955
    2MPD1     H14151   0.159   4.601   0.991 -0.0980 -0.4702 -0.1887
    2MPD1    H114152   0.172   0.063   0.619  1.6198  0.8654 -0.2326
    2MPD1    H214153   0.112   0.293   0.974 -0.2338  1.4106 -2.9446
    2MPD1    H314154   0.122   0.279   0.736  1.5261  0.6047 -0.5079
    2MPD1     N14155   0.176   4.556   0.746 -0.4952  0.0019  0.4183
    2MPD1    H514156   0.169   4.483   0.816  1.3750  0.3252  0.9441
    2MPD1    N114157   0.135   0.086   1.149 -0.4687  0.2232  0.8668
    2MPD1    H614158   0.101   0.002   1.195 -1.9900  0.1549 -0.3652
    2MPD1    H714159   0.092   0.171   1.184  0.6074  0.4023  1.7632
    1MPD1     C14160   2.707   1.700  11.725  0.4428  0.6398 -0.1462
    1MPD1    C114161   2.808   1.718  11.814 -0.2378 -0.3490 -0.7350
    1MPD1    C214162   2.927   1.651  11.802  0.4054  0.9251  0.4864
    1MPD1    C314163   2.923   1.538  11.722  0.1250 -0.1253 -0.8112
    1MPD1    C414164   2.821   1.504  11.642  0.0520 -0.0815 -0.4415
    1MPD1    C514165   2.705   1.582  11.657  0.5961 -0.0376 -0.7083
    1MPD1     H14166   3.016   1.673  11.858  1.0918  0.2278 -0.3222
    1MPD1    H114167   2.822   1.410  11.588 -1.8643 -0.3984  0.0843
    1MPD1    H214168   2.624   1.769  11.715 -0.1344  0.1158  0.9531
    1MPD1    H314169   2.617   1.557  11.599  0.7952 -4.1730  0.8138
    1MPD1     N14170   3.049   1.472  11.728  0.5090 -0.3244  0.1977
    1MPD1    H514171   3.113   1.523  11.788  1.0203  1.2311 -1.6623
    1MPD1    N114172   2.804   1.837  11.891 -0.3456 -0.9282  0.4900
    1MPD1    H614173   2.713   1.868  11.924 -0.1731 -0.2790  0.3650
    1MPD1    H714174   2.863   1.833  11.974  0.5228 -0.2995 -0.0868
    2MPD1     C14175   4.247   1.877  10.430 -0.1385  0.0491  0.2464
    2MPD1    C114176   4.164   1.987  10.434  0.0418 -0.2035 -0.6636
    2MPD1    C214177   4.056   1.983  10.517  0.4062  0.0587  0.1596
    2MPD1    C314178   4.043   1.884  10.615  0.9520  0.3515  0.5589
    2MPD1    C414179   4.138   1.781  10.618  0.1929 -0.3953  0.4495
    2MPD1    C514180   4.235   1.775  10.522  0.1299  0.2018 -0.2003
    2MPD1     H14181   3.988   2.067  10.520 -1.0456 -1.1770  1.8123
    2MPD1    H114182   4.130   1.698  10.687  0.4204  0.8025  1.9050
    2MPD1    H214183   4.324   1.866  10.356 -0.1382  4.2424 -0.3722
    2MPD1    H314184   4.293   1.685  10.505 -2.1313 -1.5039  1.1836
    2MPD1     N14185   3.931   1.876  10.706 -0.0461 -0.4671  0.1151
    2MPD1    H514186   3.923   1.793  10.763 -0.0591 -0.3514  0.2821
    2MPD1    N114187   4.171   2.087  10.335  0.5361  0.0957  0.3825
    2MPD1    H614188   4.268   2.108  10.312  0.4670  0.0834  0.0754
    2MPD1    H714189   4.145   2.174  10.381 -1.2480 -0.5896  0.6397
    3MPD1     C14190   3.125   2.265  11.303  0.1232 -0.0953 -0.2759
    3MPD1    C114191   3.182   2.155  11.361  0.1699 -0.9915  0.4145
    3MPD1    C214192   3.254   2.069  11.280 -0.5353 -1.0453 -0.1722
    3MPD1    C314193   3.284   2.102  11.147  0.6959  0.1289  0.4772
    3MPD1    C414194   3.232   2.225  11.101  0.2608 -0.3754  0.0229
    3MPD1    C514195   3.148   2.294  11.178 -0.6671  0.1510  0.3425
    3MPD1     H14196   3.287   1.974  11.320 -0.8501 -0.4067  1.5969
    3MPD1    H114197   3.248   2.262  11.000 -0.1895 -0.4261 -0.0648
    3MPD1    H214198   3.067   2.331  11.366 -0.9475 -0.6704 -0.6675
    3MPD1    H314199   3.101   2.384  11.140  0.7138  0.5802 -0.3248
    3MPD1     N14200   3.367   2.017  11.074  0.2974  0.4049  0.5082
    3MPD1    H514201   3.387   1.922  11.104  1.4614  0.4983 -0.0147
    3MPD1    N114202   3.154   2.129  11.494 -0.3289 -0.4788 -0.7921
    3MPD1    H614203   3.147   2.221  11.538  1.4000 -0.7043 -0.0425
    3MPD1    H714204   3.229   2.079  11.541 -0.5415  1.3448  1.5034
    4MPD2     C14205   3.777   1.524  11.484  1.3285  0.2933  0.1732
    4MPD2    C114206   3.729   1.393  11.483 -0.1086 -0.2578 -0.2192
    4MPD2    C214207   3.805   1.294  11.429 -0.0645  0.4703  0.1827
    4MPD2    C314208   3.921   1.334  11.363 -0.0231 -0.3427  0.4729
    4MPD2    C414209   3.964   1.464  11.357  0.8081  0.4109  0.0418
    4MPD2    C514210   3.890   1.562  11.413  0.0854 -0.3224 -0.5466
    4MPD2     H14211   3.771   1.191  11.433  1.2347  0.0671  0.7097
    4MPD2    H114212   4.053   1.489  11.301 -0.6375  0.6745 -2.1079
    4MPD2    H214213   3.739   1.593  11.560  1.8967  0.9546 -0.1422
    4MPD2    H314214   3.931   1.662  11.422 -0.8510  0.0398 -0.3707
    4MPD2     N14215   3.993   1.230  11.297 -0.3529  0.1987  0.6146
    4MPD2    H514216   4.072   1.263  11.242 -0.6408 -0.4077 -0.1572
    4MPD2    N114217   3.619   1.348  11.558  0.0607  0.1346  0.7405
    4MPD2    H714218   3.599   1.249  11.546 -1.0483  0.2566  1.5103
    5TMC3    C114219   3.447   1.333  11.724 -0.5691  0.9266  0.2359
    5TMC3    C214220   3.322   1.385  11.725 -0.6268  0.0797 -0.7214
    5TMC3    C314221   3.216   1.304  11.688 -0.0754 -0.2044  0.1887
    5TMC3    C414222   3.461   1.197  11.702  0.1873  0.8649 -0.3769
    5TMC3    C514223   3.360   1.122  11.664  0.5565 -0.4365 -0.5100
    5TMC3    C614224   3.234   1.173  11.650  0.3953  0.5614 -0.0487
    5TMC3     C14225   3.544   1.418  11.651  0.3500  0.3961 -0.2360
    5TMC3     O14226   3.547   1.539  11.674  0.2463  0.2530 -0.6762
    5TMC3     H14227   3.299   1.490  11.733 -1.3635  0.0804 -2.9767
    5TMC3    H114228   3.557   1.146  11.700 -0.9270 -1.1896 -0.8752
    5TMC3    H214229   3.149   1.113  11.620  0.3594  1.7584 -2.3973
    5TMC3    C714230   3.398   1.027  11.560  0.3073 -0.2727 -0.0076
    5TMC3    C814231   3.088   1.363  11.650  0.2665 -0.1199  0.2505
    5TMC3    O114232   3.476   1.084  11.486  0.2597 -0.1209  0.6931
    5TMC3    O214233   3.024   1.308  11.562 -0.0337  0.4853  0.2182
    6TMC3    C114234   3.710   1.915  10.784  0.2170  0.1676  0.1301
    6TMC3    C214235   3.620   2.007  10.832  0.3144  0.2547 -0.2347
    6TMC3    C314236   3.524   1.954  10.910  0.0070  0.0535  0.5057
    6TMC3    C414237   3.689   1.779  10.792 -0.0266  0.5313 -0.3594
    6TMC3    C514238   3.580   1.738  10.862  0.3236 -0.1947 -0.6804
    6TMC3    C614239   3.495   1.823  10.925 -0.3877  0.3261  0.6208
    6TMC3     C14240   3.829   1.968  10.721  0.2178 -0.3684 -0.7727
    6TMC3     O14241   3.828   2.087  10.682  0.4885 -0.6378  0.2299
    6TMC3     H14242   3.646   2.112  10.837 -1.8032  0.7821 -0.6992
    6TMC3    H114243   3.753   1.701  10.751 -0.0025  0.5568 -0.3702
    6TMC3    H214244   3.410   1.788  10.983 -1.3499  4.3737  1.6419
    6TMC3    C714245   3.559   1.596  10.870  0.5240  0.5153  0.1098
    6TMC3    C814246   3.416   2.047  10.946 -0.2185 -1.0214 -0.2729
    6TMC3    O114247   3.623   1.527  10.787 -0.2113  0.4139  0.0991
    6TMC3    O214248   3.428   2.160  10.893  0.4372  0.9843  0.6558
    7MPD2     C14249   3.680   0.611  11.505  0.1379 -0.4919 -0.2016
    7MPD2    C114250   3.654   0.717  11.420 -0.2736 -0.1536 -0.3248
    7MPD2    C214251   3.547   0.805  11.443  0.0553  0.6692  0.1551
    7MPD2    C314252   3.474   0.793  11.559  0.1035 -0.4151 -0.3599
    7MPD2    C414253   3.490   0.682  11.638  0.3386 -0.0590 -0.9672
    7MPD2    C514254   3.597   0.597  11.614 -0.5330 -0.5294 -0.1356
    7MPD2     H14255   3.522   0.884  11.373 -0.1286 -1.1659 -1.8516
    7MPD2    H114256   3.444   0.682  11.736  2.3933 -0.3970 -0.0077
    7MPD2    H214257   3.768   0.550  11.485 -0.5358 -1.6103  0.2153
    7MPD2    H314258   3.613   0.517  11.685 -0.4728 -1.5803 -1.3418
    7MPD2     N14259   3.397   0.899  11.610  0.2192 -0.5662 -0.1057
    7MPD2    H514260   3.343   0.885  11.695  0.3947 -1.1602 -0.0921
    7MPD2    N114261   3.742   0.727  11.320 -0.2355  0.7586  0.2248
    7MPD2    H714262   3.822   0.664  11.328 -1.1051 -0.4669 -0.5393
    8TMC3    C114263   3.872   0.831  11.153  0.2854 -1.0462 -0.7166
    8TMC3    C214264   3.848   0.888  11.028  0.3330  0.2086 -0.6803
    8TMC3    C314265   3.910   1.005  10.998  0.0961 -0.0399  0.1939
    8TMC3    C414266   3.970   0.879  11.232  0.8910  0.1613  0.0053
    8TMC3    C514267   4.018   1.007  11.210 -0.4496  0.0084  0.0511
    8TMC3    C614268   4.003   1.058  11.089  0.0740  0.1130 -0.3157
    8TMC3     C14269   3.736   0.820  11.217 -0.2004 -0.1377  0.2957
    8TMC3     O14270   3.645   0.890  11.180 -0.7231 -0.3463  0.1088
    8TMC3     H14271   3.760   0.861  10.970  0.7334 -2.6291 -0.0070
    8TMC3    H114272   3.991   0.837  11.330  1.0877  2.2151  0.8384
    8TMC3    H214273   4.048   1.152  11.057 -0.0090  1.3722  3.3046
    8TMC3    C714274   3.982   1.093  11.320  0.4699 -0.3594 -0.4012
    8TMC3    C814275   3.827   1.113  10.949  0.6370  0.8441 -0.3443
    8TMC3    O114276   3.926   1.038  11.414 -0.2035 -0.2039  0.4249
    8TMC3    O214277   3.866   1.203  10.875 -0.0462  0.5665  0.2932
    9MPD2     C14278   3.524   1.180  11.165 -0.5007  0.5686  0.1395
    9MPD2    C114279   3.609   1.201  11.059  0.3341 -0.3627  0.0751
    9MPD2    C214280   3.605   1.326  10.998  0.5018  0.1914  0.4852
    9MPD2    C314281   3.514   1.424  11.041 -0.5183  0.4331 -0.5167
    9MPD2    C414282   3.423   1.396  11.140 -0.8785  0.2944  0.3598
    9MPD2    C514283   3.439   1.280  11.202 -0.1362  0.4359  0.3797
    9MPD2     H14284   3.670   1.348  10.915 -2.5176  0.0193 -1.9563
    9MPD2    H114285   3.378   1.481  11.190  0.0617  0.7785  0.3858
    9MPD2    H214286   3.531   1.090  11.226 -0.8530 -0.0929 -0.7935
    9MPD2    H314287   3.398   1.272  11.302 -2.9722  0.8774 -0.7355
    9MPD2     N14288   3.507   1.557  10.987 -0.3167 -0.8745  0.5829
    9MPD2    H514289   3.473   1.633  11.045 -1.4630 -1.3488  0.5296
    9MPD2    N114290   3.707   1.100  11.030 -0.0085  0.2022  0.0817
    9MPD2    H714291   3.699   1.022  11.094 -0.5388  0.0817 -0.1289
    1MPD1     C14292   3.625   1.004  16.834  0.5716  0.1082 -0.1077
    1MPD1    C114293   3.624   0.938  16.708  0.0631 -0.7275  0.1544
    1MPD1    C214294   3.508   0.873  16.670 -0.8209 -0.8318  0.2437
    1MPD1    C314295   3.403   0.872  16.758 -0.1247  0.3629  0.9199
    1MPD1    C414296   3.408   0.940  16.874 -0.2970 -0.6346 -0.5135
    1MPD1    C514297   3.515   1.004  16.912  0.2947 -0.1357 -0.4009
    1MPD1     H14298   3.501   0.825  16.573  0.1911 -2.6305  1.0730
    1MPD1    H114299   3.324   0.945  16.942 -0.4020 -0.8844 -0.6237
    1MPD1    H214300   3.713   1.053  16.877 -1.2548  4.9323 -1.8866
    1MPD1    H314301   3.524   1.066  17.001  0.9340 -0.7333 -0.0424
    1MPD1     N14302   3.279   0.813  16.733 -0.2475  0.0801 -0.0536
    1MPD1    H514303   3.213   0.815  16.809 -0.1262 -0.2882  0.0635
    1MPD1    N114304   3.725   0.963  16.610  0.3704 -0.5752 -0.4886
    1MPD1    H614305   3.810   0.969  16.666 -0.5440  2.6073  0.5882
    1MPD1    H714306   3.731   0.873  16.563 -0.9891 -0.8739 -0.0715
    2TMC2    C114307   2.961   0.537  16.534 -0.3638  0.0030 -0.0436
    2TMC2    C214308   2.953   0.472  16.656 -0.2917  0.1354 -0.2432
    2TMC2    C314309   3.030   0.517  16.764 -0.0516 -0.0857  0.1488
    2TMC2    C414310   3.043   0.646  16.525  0.5552 -0.3898 -0.2830
    2TMC2    C514311   3.109   0.689  16.637 -0.0076 -0.7559  0.2666
    2TMC2    C614312   3.100   0.631  16.762  0.5411  0.0217  0.3751
    2TMC2     C14313   2.874   0.506  16.421 -0.4100 -0.0874 -0.0060
    2TMC2     O14314   2.869   0.596  16.339  0.0890 -0.0580 -0.2500
    2TMC2     H14315   2.898   0.381  16.679 -2.7610  1.8669  0.7706
    2TMC2    H114316   3.051   0.688  16.426  2.0355  0.6772  0.2856
    2TMC2    H214317   3.157   0.657  16.850  0.3450 -0.6165  0.6980
    2TMC2    C714318   3.228   0.772  16.617  0.7981 -0.3047 -0.2338
    2TMC2    C814319   3.069   0.423  16.876 -0.8124  0.2774  0.2048
    2TMC2    O114320   3.266   0.787  16.500 -0.0079 -0.6791 -0.2218
    2TMC2    O214321   3.187   0.420  16.919  0.4351 -0.5508  0.0907
    2TMC2    O514322   2.982   0.316  16.879  0.1049  0.2418  0.0247
    2TMC2    H514323   2.891   0.334  16.848 -0.1971 -1.1226  0.1027
    3MPD1     C14324   2.515   0.244  16.161  0.1811 -0.7888  0.2169
    3MPD1    C114325   2.596   0.158  16.232  0.2620 -0.4705 -0.7467
    3MPD1    C214326   2.685   0.207  16.317 -0.2579  0.5393  0.4930
    3MPD1    C314327   2.703   0.349  16.334 -0.2910 -0.1802  0.6161
    3MPD1    C414328   2.644   0.431  16.245 -0.2755 -0.2670  0.2590
    3MPD1    C514329   2.546   0.380  16.165 -0.4631 -0.7792 -0.3835
    3MPD1     H14330   2.741   0.143  16.384  0.2223 -1.5504 -1.9101
    3MPD1    H114331   2.654   0.538  16.260  0.2275 -0.3518  0.5058
    3MPD1    H214332   2.431   0.213  16.101  0.2744 -2.2409  0.8355
    3MPD1    H314333   2.476   0.448  16.119  0.2450 -0.4486 -0.9697
    3MPD1     N14334   2.804   0.389  16.428  0.3507  0.0411  0.0217
    3MPD1    H514335   2.829   0.326  16.504 -1.3015 -1.2568 -0.5182
    3MPD1    N114336   2.569   0.018  16.225 -0.2689  0.0117  0.2560
    3MPD1    H614337   2.527   4.728  16.136 -0.4330  0.7967  0.1116
    3MPD1    H714338   2.659   4.705  16.224 -0.7073 -0.8003 -0.9106
    1TMC1    C114339   0.811   4.157  12.830 -0.2092  0.5767 -0.5931
    1TMC1    C214340   0.732   4.189  12.939  0.3361 -0.2423  0.3539
    1TMC1    C314341   0.597   4.165  12.931 -0.8037  0.0324 -0.3041
    1TMC1    C414342   0.761   4.082  12.727 -0.0685 -0.5375  0.0295
    1TMC1    C514343   0.633   4.053  12.731 -0.4525 -0.1920  0.0565
    1TMC1    C614344   0.545   4.096  12.827 -0.0952 -0.1356  0.6438
    1TMC1     C14345   0.952   4.152  12.846  0.1281 -0.7931  0.0984
    1TMC1     O14346   1.012   4.148  12.740  0.0372  0.4341  0.0458
    1TMC1     H14347   0.776   4.253  13.014 -2.3939 -1.1388  2.7414
    1TMC1    H114348   0.831   4.043  12.654  3.4357  0.8160  2.6664
    1TMC1    H214349   0.439   4.078  12.809  0.3180 -0.5849 -1.3507
    1TMC1    C714350   0.584   3.990  12.615 -0.1426 -0.3939 -0.7494
    1TMC1    C814351   0.497   4.223  13.016 -0.3338  0.1734  0.1881
    1TMC1    O114352   0.490   4.037  12.553  0.4937  0.2499 -0.3145
    1TMC1    O214353   0.381   4.231  12.971 -0.2039  0.4588 -0.6291
    1TMC1    O314354   0.662   3.887  12.574  0.0899  0.3623  0.0033
    1TMC1    H314355   0.747   3.858  12.615 -0.9051 -1.3877  0.8369
    1TMC1    O514356   0.547   4.267  13.129 -0.4314 -0.0194 -0.6314
    1TMC1    H514357   0.639   4.234  13.141 -0.1116  0.9937 -0.2707
    2MPD2     C14358   1.234   4.175  12.930 -0.1145 -0.0386 -0.6870
    2MPD2    C114359   1.130   4.156  13.014 -0.0175  0.5755 -0.3774
    2MPD2    C214360   1.157   4.126  13.143  0.1346 -0.4149  0.4619
    2MPD2    C314361   1.287   4.101  13.190  0.4322  0.2324 -0.5752
    2MPD2    C414362   1.397   4.118  13.099  0.0930  0.1235  0.1259
    2MPD2    C514363   1.364   4.157  12.968  0.0674 -0.2531  0.6630
    2MPD2     H14364   1.069   4.104  13.203 -0.2149  0.1562  0.1668
    2MPD2    H114365   1.503   4.106  13.118  0.2655  1.6481  0.1616
    2MPD2    H214366   1.211   4.203  12.828  0.6856 -3.1959 -1.7242
    2MPD2    H314367   1.442   4.169  12.894 -1.2078  0.5736 -0.5494
    2MPD2     N14368   1.313   4.076  13.326 -0.4005  0.2314  0.4158
    2MPD2    H514369   1.240   4.099  13.392  1.2577  1.6396  1.7488
    2MPD2    N114370   0.996   4.151  12.977 -0.5634  0.3520 -0.6205
    2MPD2    H714371   0.926   4.153  13.050  1.3080 -2.2508  1.2361
    3TCq1    O114372   1.548   3.719  13.791 -0.1784 -0.4079  0.4821
    3TCq1    C114373   1.433   3.788  13.779 -0.3291  0.1235 -0.4626
    3TCq1    O214374   1.359   3.802  13.878 -0.5765  0.0004 -0.3683
    3TCq1    C214375   1.464   3.910  13.702  0.2543  0.1530  0.7995
    3TCq1    C314376   1.442   4.024  13.776 -0.5764 -0.4054 -0.3990
    3TCq1    C414377   1.439   4.142  13.710 -0.3356 -0.2105  0.8000
    3TCq1    C514378   1.430   4.142  13.574 -0.3880  0.5966 -0.8766
    3TCq1    C614379   1.450   4.020  13.508  0.6027  0.0363  0.7356
    3TCq1    C714380   1.474   3.899  13.570 -0.1289 -0.0096 -0.3307
    3TCq1    C814381   1.435   4.022  13.362 -0.1974  0.2081 -0.1788
    3TCq1    O414382   1.521   3.963  13.297 -0.8489 -0.0501 -0.4487
    3TCq1    C914383   1.415   4.267  13.779  0.0151 -0.0525 -0.0844
    3TCq1    O514384   1.390   4.369  13.703 -0.1806  0.4877 -0.1549
    3TCq1    O614385   1.460   4.271  13.897  0.1382  0.0950  0.5100
    3TCq1    H114386   1.604   3.740  13.713 -0.0795 -0.0450  0.6531
    3TCq1    H214387   1.450   4.022  13.885  0.5538  2.0885 -0.4610
    3TCq1    H314388   1.430   4.234  13.517  1.9990  1.8978  1.1988
    3TCq1    H414389   1.473   3.803  13.520 -0.3437 -0.1174 -0.1196
    1MPD2     C14390   1.009   0.730  14.791 -0.4513  0.1518  0.7610
    1MPD2    C114391   0.876   0.739  14.815  0.1221  0.1359 -0.2010
    1MPD2    C214392   0.818   0.616  14.859  0.6256 -0.3707 -0.4707
    1MPD2    C314393   0.890   0.491  14.854  1.0850 -0.0927  0.1311
    1MPD2    C414394   1.023   0.495  14.835  0.1684 -0.1294  0.1854
    1MPD2    C514395   1.085   0.615  14.809 -0.4471 -0.4615  0.7207
    1MPD2     H14396   0.712   0.618  14.882  0.5936 -1.4196 -0.5490
    1MPD2    H114397   1.089   0.413  14.861 -0.8423 -0.5089  1.5350
    1MPD2    H214398   1.056   0.824  14.762 -1.7046  1.2195  2.2216
    1MPD2    H314399   1.193   0.614  14.799 -0.3799 -1.3587  1.4592
    1MPD2     N14400   0.822   0.367  14.872  0.1347 -0.0402  0.3995
    1MPD2    H514401   0.870   0.284  14.905  0.1131  0.8306  2.6856
    1MPD2    N114402   0.812   0.863  14.794  0.5922 -0.6224 -0.7142
    1MPD2    H714403   0.864   0.932  14.741 -0.9966  1.0513 -0.1215
    2TMC3    C114404   0.623   1.014  14.814 -0.7508  0.3945  0.3578
    2TMC3    C214405   0.490   1.018  14.843  0.1100 -0.0906 -0.0808
    2TMC3    C314406   0.398   1.063  14.748 -0.7453  0.2462 -0.2414
    2TMC3    C414407   0.670   1.070  14.699 -0.1159  0.3277  0.2156
    2TMC3    C514408   0.578   1.134  14.615 -0.5036  0.5399  1.4678
    2TMC3    C614409   0.441   1.118  14.632  0.1198 -0.0454  0.5247
    2TMC3     C14410   0.681   0.885  14.848  0.3731 -0.3383 -0.3381
    2TMC3     O14411   0.624   0.830  14.942  0.0116 -0.5501 -1.1093
    2TMC3     H14412   0.458   0.984  14.941  1.6565  0.9196  0.7770
    2TMC3    H114413   0.775   1.077  14.673  0.0443 -0.6981  0.5848
    2TMC3    H214414   0.367   1.158  14.564 -0.1542  0.5794  1.1864
    2TMC3    C714415   0.624   1.238  14.523 -0.1318 -0.6742  0.5905
    2TMC3    C814416   0.280   0.973  14.742  0.2002 -1.0896  0.9439
    2TMC3    O114417   0.525   1.275  14.462 -0.4202 -0.2556  0.4380
    2TMC3    O214418   0.203   0.988  14.653  0.3282  0.2158 -0.1839
    3TCq1    O114419   1.527   2.026  14.373 -0.1876 -0.0244  0.9912
    3TCq1    C114420   1.553   1.977  14.499  0.3775  0.7400 -0.0825
    3TCq1    O214421   1.664   1.967  14.544 -0.1852 -0.4593  0.8341
    3TCq1    C214422   1.439   1.913  14.557  0.4719  0.6014 -0.3116
    3TCq1    C314423   1.447   1.877  14.690 -0.0381 -0.4382 -0.1438
    3TCq1    C414424   1.334   1.830  14.748  0.0436  0.1174 -0.4291
    3TCq1    C514425   1.217   1.812  14.688  0.3424 -0.0816 -0.6476
    3TCq1    C614426   1.223   1.824  14.546  0.1172  0.7721  0.0979
    3TCq1    C714427   1.333   1.877  14.479 -0.2924  0.0265 -0.3291
    3TCq1    C814428   1.119   1.762  14.467 -0.3862  0.4695 -0.0755
    3TCq1    O414429   1.150   1.760  14.345 -0.3251  0.2859  0.3133
    3TCq1    C914430   1.338   1.794  14.889 -0.6065 -0.4614 -0.1412
    3TCq1    O514431   1.235   1.737  14.936 -0.7369 -0.1727  0.0325
    3TCq1    O614432   1.454   1.771  14.925  0.1072 -0.8350  0.0237
    3TCq1    H114433   1.433   2.044  14.349  0.4437 -0.5709 -1.7790
    3TCq1    H214434   1.543   1.874  14.741 -0.8607  0.1991  1.4504
    3TCq1    H314435   1.127   1.774  14.737 -0.1080 -1.8020 -2.8366
    3TCq1    H414436   1.339   1.863  14.372  2.1557  1.1072 -0.3514
    4MPD2     C14437   0.893   1.633  14.341  0.3286 -0.3523  0.1909
    4MPD2    C114438   0.939   1.601  14.468  0.2731 -0.4118  0.5588
    4MPD2    C214439   0.886   1.492  14.538 -0.1936 -0.2668 -0.5226
    4MPD2    C314440   0.782   1.418  14.483 -0.0525 -0.9697  0.2040
    4MPD2    C414441   0.736   1.453  14.356  0.6478 -0.3961 -0.3485
    4MPD2    C514442   0.791   1.561  14.291 -0.0381 -0.0046 -0.5681
    4MPD2     H14443   0.927   1.469  14.635  1.0887  1.2273 -0.7276
    4MPD2    H114444   0.668   1.392  14.297 -0.3295 -0.6742  1.0638
    4MPD2    H214445   0.920   1.720  14.282  1.7947 -0.2805  0.9833
    4MPD2    H314446   0.742   1.589  14.198 -0.6548  0.0346 -0.2319
    4MPD2     N14447   0.735   1.308  14.556  0.1541 -0.1633  0.6291
    4MPD2    H514448   0.779   1.285  14.645  1.2028 -3.1477 -0.6720
    4MPD2    N114449   1.027   1.685  14.532 -0.3881 -0.1526 -0.3594
    4MPD2    H714450   1.044   1.663  14.630  0.3782  0.5015 -0.3427
    5TMC2    C114451   0.392   0.174  14.894  0.2988  0.4668 -0.4262
    5TMC2    C214452   0.399   0.139  15.026 -0.8243 -0.2217 -0.2733
    5TMC2    C314453   0.523   0.142  15.083  0.5817  0.5628  1.2108
    5TMC2    C414454   0.501   0.224  14.824 -0.2057 -0.4030  0.1838
    5TMC2    C514455   0.625   0.231  14.884  0.0949 -0.1300 -0.0713
    5TMC2    C614456   0.630   0.196  15.012  0.2108 -0.0273  0.1981
    5TMC2     C14457   0.270   0.246  14.854  0.3156 -0.0556  0.5703
    5TMC2     O14458   0.166   0.186  14.830  0.2292 -0.1033  0.3182
    5TMC2     H14459   0.300   0.112  15.063  0.6363 -4.4766  0.5912
    5TMC2    H114460   0.487   0.251  14.720 -1.7320  0.5485  0.6247
    5TMC2    H214461   0.729   0.184  15.055  0.2263  1.7951  0.6641
    5TMC2    C714462   0.684   0.356  14.857  0.3636 -0.4912 -0.5851
    5TMC2    C814463   0.526   0.149  15.228  0.2407 -0.3518 -0.3018
    5TMC2    O114464   0.601   0.432  14.805  0.0311 -0.3859  0.2403
    5TMC2    O214465   0.429   0.162  15.301 -0.0200  0.2825 -0.2818
    5TMC2    O514466   0.645   0.112  15.276  0.4261 -0.0866 -0.3381
    5TMC2    H514467   0.711   0.083  15.209  1.5114  2.8921 -0.5153
    6MPD2     C14468   0.124   0.715  14.699  0.3329  0.4220  0.3210
    6MPD2    C114469   0.248   0.730  14.770 -0.2947 -0.1586  0.4610
    6MPD2    C214470   0.296   0.613  14.817  0.3557  0.4755 -0.0507
    6MPD2    C314471   0.240   0.489  14.792 -0.0276 -0.8661 -0.7674
    6MPD2    C414472   0.124   0.480  14.720 -0.4644 -0.1196 -0.6323
    6MPD2    C514473   0.069   0.597  14.672 -0.7034  0.7593 -0.3591
    6MPD2     H14474   0.388   0.597  14.872  1.4437 -0.7177 -2.2149
    6MPD2    H114475   0.070   0.387  14.703 -2.3510  0.7152  0.8489
    6MPD2    H214476   0.069   0.802  14.664  2.0135 -0.2441 -4.0250
    6MPD2    H314477   4.715   0.590  14.611  0.3094 -2.0214 -1.4970
    6MPD2     N14478   0.308   0.380  14.847 -0.1388 -0.2855  0.0280
    6MPD2    H514479   0.395   0.395  14.897 -2.1626  0.7785  3.2551
    6MPD2    N114480   0.310   0.853  14.800 -0.5410  0.0096 -0.2885
    6MPD2    H714481   0.406   0.846  14.834 -0.5883  1.0865  0.0862
  945NH4     N114482   0.179   2.923  10.141  0.5657 -0.1150 -0.3385
  945NH4     H214483   0.161   2.965  10.047 -1.0138  0.6510  0.3085
  945NH4     H314484   0.201   2.823  10.124  1.9078 -0.2675  2.2837
  945NH4     H414485   0.091   2.923  10.196  1.7390  1.1204  1.5134
  945NH4     H514486   0.261   2.977  10.177  0.4433 -0.0026 -0.2277
  946SOD     NA14487   1.498   1.181   7.346  0.0485  0.5145  0.3867
  947SOD     NA14488   1.617   0.790  12.228  0.1443 -0.4874  0.1188
  948SOD     NA14489   2.469   1.282  15.128 -0.5172 -0.4886  0.2607
  949SOD     NA14490   2.867   0.851  16.093  0.1875 -0.4534  0.3332
  950SOD     NA14491   2.290   2.651   2.259  0.0820  0.3753 -0.3318
  951SOD     NA14492   1.783   2.896  17.115  0.1074 -0.0245  0.2259
  952SOD     NA14493   0.382   1.861  12.355  0.0185 -0.1488  0.1762
  953SOL     OW14494   1.524   3.573   7.362 -0.3853  0.5523  0.2424
  953SOL    HW114495   1.579   3.502   7.396 -1.2831 -1.0608 -1.6809
  953SOL    HW214496   1.579   3.641   7.402  0.4165  0.3196 -0.4679
  954SOL     OW14497   4.299   3.402   2.678  0.1183  0.0678  0.2719
  954SOL    HW114498   4.379   3.413   2.626 -0.0410  0.7276  0.1662
  954SOL    HW214499   4.284   3.311   2.652 -0.6522  0.2017  0.2455
  955SOL     OW14500   3.313   1.394   1.919  0.6196  0.3285 -0.4026
  955SOL    HW114501   3.230   1.373   1.961  0.0825  3.1082 -0.0800
  955SOL    HW214502   3.301   1.462   1.854  0.2154 -0.6319 -1.3381
  956SOL     OW14503   0.275   1.290  11.582 -0.3350  0.0549 -0.3887
  956SOL    HW114504   0.256   1.381  11.560  2.6741  0.9119  0.4829
  956SOL    HW214505   0.252   1.291  11.675 -0.5305  1.4984 -0.4519
  957SOL     OW14506   2.065   2.149  10.894 -0.2874  0.0148 -0.4519
  957SOL    HW114507   2.110   2.071  10.926 -0.4582  0.3037  0.4865
  957SOL    HW214508   2.114   2.174  10.815 -0.1236 -0.9733 -0.6641
  958SOL     OW14509   3.768   0.621   7.330  0.0480 -0.2963  0.2391
  958SOL    HW114510   3.817   0.616   7.412  1.1459  4.1640 -0.1389
  958SOL    HW214511   3.823   0.566   7.274 -0.7408 -1.1662  0.3248
  959SOL     OW14512   2.624   1.411   7.287 -0.5250 -0.0003 -0.1713
  959SOL    HW114513   2.718   1.401   7.301 -0.8125 -0.1011  1.7016
  959SOL    HW214514   2.615   1.503   7.265  0.0885  0.3707  1.0971
  960SOL     OW14515   3.295   0.850   0.098 -0.6104 -0.1226 -0.1060
  960SOL    HW114516   3.317   0.937   0.132 -1.5377 -0.4371  1.3288
  960SOL    HW214517   3.333   0.852   0.010  0.3806 -0.5410  0.3066
  961SOL     OW14518   2.669   0.061   6.615  0.0200 -0.1091 -0.1935
  961SOL    HW114519   2.623   0.142   6.594 -0.7166  0.0179  1.8733
  961SOL    HW214520   2.633   0.033   6.699  3.0919 -0.4643  0.9914
  962SOL     OW14521   2.632   2.231   4.066  0.2861  0.1419  0.1649
  962SOL    HW114522   2.722   2.264   4.062  0.5359 -0.3331  2.0275
  962SOL    HW214523   2.578   2.307   4.089 -2.1180 -1.2503 -0.9209
  963SOL     OW14524   1.724   1.576  17.367  0.0836 -0.2718  0.3005
  963SOL    HW114525   1.725   1.630  17.446  0.3721 -0.1160  0.1901
  963SOL    HW214526   1.666   1.631  17.314  1.7228  0.6279 -0.5445
  964SOL     OW14527   1.478   0.620   3.020  0.1552  0.2536  0.0766
  964SOL    HW114528   1.476   0.609   3.115 -0.1493  0.3408  0.0812
  964SOL    HW214529   1.383   0.630   3.012  0.2384 -0.2644 -1.5299
  965SOL     OW14530   4.431   4.060   7.918  0.1735  0.5767 -0.2264
  965SOL    HW114531   4.445   4.027   8.006 -0.0088 -0.7075 -0.6796
  965SOL    HW214532   4.335   4.059   7.914  0.1453 -0.1941  0.6870
  966SOL     OW14533   1.278   1.213   7.223 -0.0159  0.3841  0.7587
  966SOL    HW114534   1.237   1.145   7.170  0.6226  1.1543 -0.7293
  966SOL    HW214535   1.203   1.241   7.274 -0.5814  1.0973 -0.4619
  967SOL     OW14536   1.868   2.041   9.353 -0.1005 -0.4112 -0.1028
  967SOL    HW114537   1.955   2.030   9.315 -0.6405 -4.1077 -0.2943
  967SOL    HW214538   1.834   2.118   9.307 -0.8973 -0.2631  0.7367
  968SOL     OW14539   0.800   3.995   5.134  0.1740  0.2348  0.4847
  968SOL    HW114540   0.811   4.061   5.066  0.9133  0.6837  1.0460
  968SOL    HW214541   0.793   4.058   5.205  0.9189 -0.9106  1.5803
  969SOL     OW14542   1.115   4.545  13.078 -0.1082 -0.0096 -0.2376
  969SOL    HW114543   1.199   4.500  13.088  0.2313  0.8415  0.7778
  969SOL    HW214544   1.053   4.499  13.135 -0.6535  1.4366  0.3535
  970SOL     OW14545   3.480   1.573   6.281  0.1610  0.4527 -0.2846
  970SOL    HW114546   3.428   1.654   6.278 -2.7088 -1.3801  0.0017
  970SOL    HW214547   3.565   1.613   6.266  0.0369  0.9270  0.2482
  971SOL     OW14548   2.433   4.703   5.083  0.1238 -0.2612 -0.2841
  971SOL    HW114549   2.367   0.033   5.106  1.2622  0.1997  1.6604
  971SOL    HW214550   2.392   4.671   5.003 -2.1596  2.8964 -0.3654
  972SOL     OW14551   1.516   2.923  12.817 -0.0097  0.1996  0.2489
  972SOL    HW114552   1.476   2.837  12.808 -2.3654  1.4196 -0.8041
  972SOL    HW214553   1.582   2.899  12.883  0.6214  1.3061  0.0255
  973SOL     OW14554   0.594   2.412  11.913 -0.5261 -0.0272  0.2626
  973SOL    HW114555   0.547   2.429  11.832 -1.0091 -1.3391  0.2581
  973SOL    HW214556   0.665   2.357  11.878  0.2740  0.2948  1.3686
  974SOL     OW14557   1.890   3.366   9.347  0.3994  0.6896 -0.1252
  974SOL    HW114558   1.940   3.408   9.417 -0.7656 -1.1918  1.8122
  974SOL    HW214559   1.935   3.397   9.268 -0.0473 -0.4341 -0.8264
  975SOL     OW14560   1.593   1.863   7.116  0.2834  0.1923 -0.1851
  975SOL    HW114561   1.510   1.851   7.072  1.0482 -0.1793 -1.5119
  975SOL    HW214562   1.655   1.826   7.053 -0.5550  0.5087 -1.1920
  976SOL     OW14563   3.324   0.764   9.147  0.3471 -0.2682  0.2766
  976SOL    HW114564   3.284   0.847   9.123 -0.5475 -1.9208 -4.0405
  976SOL    HW214565   3.411   0.773   9.108 -0.4703  0.5943 -1.3386
  977SOL     OW14566   4.105   4.258  12.833 -0.8180 -0.3150 -0.0660
  977SOL    HW114567   4.157   4.279  12.755 -1.7471 -1.4859 -1.0025
  977SOL    HW214568   4.097   4.164  12.820  1.1206 -0.6258  0.8971
  978SOL     OW14569   4.586   0.621  12.386  0.1934 -0.2696 -0.3748
  978SOL    HW114570   4.629   0.655  12.465 -1.2412  1.5802 -0.4118
  978SOL    HW214571   4.507   0.673  12.378  0.6103  1.0319  3.6847
  979SOL     OW14572   1.830   2.040   5.823 -0.4385 -0.1679  0.4509
  979SOL    HW114573   1.861   2.101   5.889  1.5029 -0.6657 -0.0153
  979SOL    HW214574   1.765   1.986   5.868 -1.0952 -0.5917 -0.9826
  980SOL     OW14575   1.578   2.204  17.115  0.4877 -0.2653 -0.4050
  980SOL    HW114576   1.639   2.271  17.083  1.3763 -0.3209  1.1963
  980SOL    HW214577   1.635   2.143  17.162  2.2780  2.1884  0.6000
  981SOL     OW14578   2.612   2.928   3.780  0.2688  0.5221  0.0914
  981SOL    HW114579   2.606   2.969   3.694  2.6739  0.5097 -0.0732
  981SOL    HW214580   2.536   2.967   3.823 -0.0048 -0.1240  0.1956
  982SOL     OW14581   1.866   4.434   8.151 -0.7578 -0.2753 -0.5803
  982SOL    HW114582   1.950   4.402   8.116 -0.8630  0.8962 -1.9106
  982SOL    HW214583   1.851   4.513   8.099  1.1551 -0.0654 -0.8160
  983SOL     OW14584   3.125   4.555   5.474  0.2190  0.1290  0.3626
  983SOL    HW114585   3.040   4.510   5.474  0.2659  0.0270 -0.7992
  983SOL    HW214586   3.112   4.624   5.539  1.1673  0.1591  0.5210
  984SOL     OW14587   1.537   2.273   3.864  0.2184 -0.0875  0.2324
  984SOL    HW114588   1.604   2.325   3.821  0.9716 -0.6749  0.7008
  984SOL    HW214589   1.517   2.202   3.803 -1.7168 -0.5012  1.3425
  985SOL     OW14590   1.393   1.689   8.291  0.3160 -0.1332  0.1151
  985SOL    HW114591   1.308   1.647   8.278  1.2251 -0.8879 -3.6278
  985SOL    HW214592   1.451   1.614   8.277 -0.8977 -0.6134 -2.3423
  986SOL     OW14593   4.556   3.586   1.884 -0.2003  0.0485  0.7451
  986SOL    HW114594   4.526   3.560   1.797  0.8449  0.1231  0.3647
  986SOL    HW214595   4.547   3.681   1.888  0.1523  0.0408  1.5859
  987SOL     OW14596   1.387   4.506   7.135  0.2643 -0.2113  0.0458
  987SOL    HW114597   1.323   4.548   7.193  0.4076  1.1001 -0.7427
  987SOL    HW214598   1.331   4.507   7.057 -0.8319 -0.0222  0.8276
  988SOL     OW14599   0.970   1.796  16.615 -0.1199  0.1965 -0.4999
  988SOL    HW114600   1.058   1.814  16.647 -0.5152  0.9972  0.1496
  988SOL    HW214601   0.936   1.885  16.603 -0.7634  0.0672  0.3700
  989SOL     OW14602   3.936   0.412   6.863  0.2933  0.3478  0.0142
  989SOL    HW114603   3.915   0.503   6.841 -2.1694 -0.2545 -0.0963
  989SOL    HW214604   3.918   0.416   6.957 -1.6622  1.6632 -0.4164
  990SOL     OW14605   4.625   2.492   7.310  0.2273  0.4471 -0.8782
  990SOL    HW114606   4.677   2.461   7.235  0.3687  0.3922 -0.7586
  990SOL    HW214607   4.533   2.483   7.285  0.1454 -0.5951 -0.1484
  991SOL     OW14608   4.368   0.146   3.606 -0.0853  0.6613  0.3242
  991SOL    HW114609   4.436   0.157   3.539 -0.9357 -0.4390 -0.6975
  991SOL    HW214610   4.287   0.140   3.557 -0.6698  0.2030  1.3406
  992SOL     OW14611   0.694   2.879   7.774  0.1437  0.3190  0.3274
  992SOL    HW114612   0.664   2.951   7.718  3.4889 -0.0197 -1.9102
  992SOL    HW214613   0.707   2.808   7.712 -1.9831  0.7845 -0.6422
  993SOL     OW14614   0.863   2.103  10.262 -0.3288  0.3090  0.2783
  993SOL    HW114615   0.847   2.109  10.356 -1.7928 -1.8181  0.1530
  993SOL    HW214616   0.875   2.010  10.245  0.9726  0.9841 -2.4580
  994SOL     OW14617   0.572   1.009   1.285  0.2127 -0.3713  0.0416
  994SOL    HW114618   0.653   0.986   1.240 -1.0177  0.1418 -2.4104
  994SOL    HW214619   0.565   1.102   1.261  0.7715 -0.3007  0.1386
  995SOL     OW14620   3.308   2.226   5.326  0.1338 -0.1125  0.1711
  995SOL    HW114621   3.312   2.320   5.310  2.3595 -0.0800  0.8672
  995SOL    HW214622   3.387   2.191   5.284  1.1719  1.2721  0.9540
  996SOL     OW14623   3.753   4.143   7.417 -0.0916  0.2342 -0.3738
  996SOL    HW114624   3.810   4.079   7.459  0.4494  0.3277 -0.9592
  996SOL    HW214625   3.794   4.226   7.442 -1.4648  0.9562 -0.5105
  997SOL     OW14626   3.104   2.395   6.209  0.0048  0.2068 -0.2583
  997SOL    HW114627   3.153   2.322   6.172  1.3072 -0.4605  2.7328
  997SOL    HW214628   3.123   2.378   6.302  0.7927 -0.1494 -0.4901
  998SOL     OW14629   4.184   4.014   4.834  0.4442 -0.4742 -0.1773
  998SOL    HW114630   4.261   3.975   4.792  0.0956 -3.1631  1.6813
  998SOL    HW214631   4.157   3.959   4.908  1.3535 -1.1410 -0.3407
  999SOL     OW14632   2.200   2.741   2.476 -0.0450  0.3515 -0.1872
  999SOL    HW114633   2.230   2.818   2.524  0.3622 -0.3272  0.6453
  999SOL    HW214634   2.124   2.771   2.426  0.8579  3.1365  0.1046
 1000SOL     OW14635   3.345   4.675   3.714  0.2096 -0.3663 -0.3419
 1000SOL    HW114636   3.282   4.603   3.709 -0.0124 -0.1161 -1.1418
 1000SOL    HW214637   3.298   0.020   3.695  0.3761 -0.3444 -0.6718
 1001SOL     OW14638   3.769   2.329  17.123  0.0990  0.5664  0.3970
 1001SOL    HW114639   3.812   2.282  17.052  0.3321  1.4419 -0.0362
 1001SOL    HW214640   3.834   2.381  17.169  1.8207 -0.4896 -0.8630
 1002SOL     OW14641   1.115   2.923   7.834  0.3091  0.3256 -0.1951
 1002SOL    HW114642   1.135   2.850   7.893 -0.3505  1.0949  0.9827
 1002SOL    HW214643   1.157   2.893   7.754  0.1101  1.4386 -0.7156
 1003SOL     OW14644   1.771   2.994   5.451 -0.3069 -0.1290 -0.0684
 1003SOL    HW114645   1.860   3.016   5.422  0.4890 -0.8094  1.9337
 1003SOL    HW214646   1.792   2.932   5.520 -0.8267 -0.8656 -0.5751
 1004SOL     OW14647   2.572   0.078   2.298  0.5066 -0.5235  0.3014
 1004SOL    HW114648   2.535   0.038   2.219 -0.5127  1.4975 -0.2480
 1004SOL    HW214649   2.588   0.167   2.268  2.7524 -1.1893 -0.4363
 1005SOL     OW14650   1.545   0.454   6.959 -0.0753 -0.0146 -0.0146
 1005SOL    HW114651   1.469   0.397   6.952  0.1333 -0.2809 -0.0833
 1005SOL    HW214652   1.502   0.540   6.960 -0.8031 -0.3815  1.6007
 1006SOL     OW14653   3.982   0.114  16.448  0.0609  0.1741 -0.5943
 1006SOL    HW114654   4.050   0.063  16.404  0.4820 -0.3449  0.6558
 1006SOL    HW214655   3.947   0.056  16.516 -0.1515 -0.0295 -0.8782
 1007SOL     OW14656   3.364   2.816   0.926 -0.2383  0.5045 -0.0597
 1007SOL    HW114657   3.361   2.726   0.894 -0.2244  0.5347 -0.1449
 1007SOL    HW214658   3.270   2.830   0.934 -0.4580 -0.6428 -0.5523
 1008SOL     OW14659   1.932   0.535   4.331  0.2540  0.0303 -0.0274
 1008SOL    HW114660   1.890   0.601   4.387 -3.2566 -1.3368 -1.0571
 1008SOL    HW214661   1.902   0.561   4.244 -0.0670  0.7775  0.3018
 1009SOL     OW14662   3.197   4.687   6.729  0.4720  0.0301 -0.0212
 1009SOL    HW114663   3.188   4.726   6.815 -0.3068 -0.2843  0.0419
 1009SOL    HW214664   3.111   4.703   6.690  0.4906 -0.1830 -0.1502
 1010SOL     OW14665   3.740   0.053   3.743  0.3712 -0.0395  0.3727
 1010SOL    HW114666   3.831   0.029   3.759  0.4067 -1.7599 -2.5643
 1010SOL    HW214667   3.709   0.062   3.833  1.0455  0.2828  0.5760
 1011SOL     OW14668   1.580   0.625  12.065 -0.4340  0.1217 -0.2377
 1011SOL    HW114669   1.625   0.544  12.084 -0.8478 -0.1255 -0.3096
 1011SOL    HW214670   1.492   0.615  12.101  0.1714 -1.1366  0.8531
 1012SOL     OW14671   1.175   0.988   4.150 -0.3943 -0.1266  0.0274
 1012SOL    HW114672   1.249   1.002   4.092  0.0876 -0.7315  0.4906
 1012SOL    HW214673   1.112   0.976   4.079  0.9576 -3.2000 -0.6696
 1013SOL     OW14674   2.956   4.202   2.052 -0.3030 -0.6888  0.4205
 1013SOL    HW114675   2.930   4.294   2.049  2.6327  0.1049 -1.3744
 1013SOL    HW214676   2.979   4.187   1.960  2.0998  3.3471  0.3976
 1014SOL     OW14677   3.663   2.853  10.230  0.4602  0.3853  0.4567
 1014SOL    HW114678   3.635   2.807  10.309 -2.0109 -1.1515 -1.2937
 1014SOL    HW214679   3.599   2.924  10.225 -0.1879 -0.1497  1.0231
 1015SOL     OW14680   3.986   4.472  15.338 -0.2511  0.1161  0.3940
 1015SOL    HW114681   3.898   4.460  15.303 -0.5145  1.6112  0.5138
 1015SOL    HW214682   4.039   4.458  15.259 -1.0186 -0.6725  0.0254
 1016SOL     OW14683   0.607   4.127  10.867 -0.3507 -0.4149  0.4525
 1016SOL    HW114684   0.545   4.151  10.936  0.0496  1.3797  0.1781
 1016SOL    HW214685   0.561   4.165  10.792 -1.6423 -0.3916  1.2537
 1017SOL     OW14686   3.890   2.033   2.894  0.0416  0.3558 -0.8289
 1017SOL    HW114687   3.894   2.001   2.985  2.2350 -0.1243 -1.1019
 1017SOL    HW214688   3.881   2.128   2.903 -2.0346  0.0615  0.4034
 1018SOL     OW14689   4.691   3.604   9.835 -0.1660 -0.2541 -0.5418
 1018SOL    HW114690   4.636   3.587   9.911 -0.7240 -0.9141 -1.0904
 1018SOL    HW214691   4.630   3.660   9.787  1.6294  0.0769 -2.4497
 1019SOL     OW14692   0.304   0.607   3.297 -0.5474 -0.3716 -0.3567
 1019SOL    HW114693   0.362   0.547   3.251  0.0087 -1.3462  1.6220
 1019SOL    HW214694   0.342   0.681   3.250 -0.7536 -0.3866 -0.5478
 1020SOL     OW14695   3.120   4.549   8.110  0.5940  0.2841 -0.3116
 1020SOL    HW114696   3.120   4.574   8.203 -1.0025 -0.1255 -0.1963
 1020SOL    HW214697   3.064   4.621   8.079 -0.1459  1.0346  2.7247
 1021SOL     OW14698   1.979   0.607   8.028 -0.3947  0.3654  0.0571
 1021SOL    HW114699   1.986   0.589   8.122 -0.7156 -0.9315 -0.1748
 1021SOL    HW214700   1.900   0.559   8.004 -0.5113  0.8249 -0.4668
 1022SOL     OW14701   0.990   0.534  16.489  0.2566  0.3388 -0.4301
 1022SOL    HW114702   0.964   0.442  16.483 -0.6102  0.5042  0.9141
 1022SOL    HW214703   1.085   0.526  16.491  0.3117  0.5084 -2.3829
 1023SOL     OW14704   2.597   1.076   8.184 -0.4236  0.6364  0.3083
 1023SOL    HW114705   2.645   0.997   8.161 -1.4876 -0.0834  0.5454
 1023SOL    HW214706   2.507   1.049   8.164  0.1847 -1.8738  0.9857
 1024SOL     OW14707   2.199   1.444   6.159  0.4519 -0.7402  0.1007
 1024SOL    HW114708   2.170   1.422   6.071  0.3505 -1.5442  0.3288
 1024SOL    HW214709   2.197   1.540   6.160 -2.6226 -0.7952 -0.0969
 1025SOL     OW14710   0.084   3.158  16.816  0.1912  0.2948  0.2279
 1025SOL    HW114711   0.046   3.090  16.872 -0.2051 -1.8713 -2.6309
 1025SOL    HW214712   0.050   3.239  16.855 -0.8315  0.9576 -2.0281
 1026SOL     OW14713   1.669   3.881   4.968 -0.9587  0.3410 -0.0513
 1026SOL    HW114714   1.583   3.857   4.933 -0.9111 -0.3040  0.2675
 1026SOL    HW214715   1.667   3.832   5.051 -0.7418 -0.4093 -0.4827
 1027SOL     OW14716   0.751   2.546  16.664 -0.5175  0.1376  0.2162
 1027SOL    HW114717   0.689   2.502  16.606 -1.3622  2.1051 -0.3654
 1027SOL    HW214718   0.836   2.517  16.629 -0.3098 -0.0437  0.8653
 1028SOL     OW14719   2.435   3.725   8.251  0.2669  0.0702  0.5993
 1028SOL    HW114720   2.351   3.681   8.262 -0.3059  0.7718 -1.0534
 1028SOL    HW214721   2.471   3.707   8.339  0.5465 -1.3923  0.1958
 1029SOL     OW14722   0.069   4.032   5.555  0.2326 -0.2549  0.0345
 1029SOL    HW114723   0.007   4.030   5.482  3.0721  1.1504 -2.4160
 1029SOL    HW214724   0.025   3.978   5.621 -1.2045  0.2930 -0.4752
 1030SOL     OW14725   2.216   3.905  14.340  0.2583 -0.1734  0.1199
 1030SOL    HW114726   2.175   3.961  14.274 -1.1242 -1.5634 -0.2119
 1030SOL    HW214727   2.299   3.948  14.361  1.1964 -1.4000 -1.0296
 1031SOL     OW14728   2.559   1.916   4.605  1.0497  0.0624  0.2482
 1031SOL    HW114729   2.482   1.887   4.556 -0.3349  2.8056  0.7968
 1031SOL    HW214730   2.620   1.937   4.534 -0.5236 -0.0433 -1.1153
 1032SOL     OW14731   0.995   4.321   7.459 -0.8385 -0.3082  0.3014
 1032SOL    HW114732   1.003   4.270   7.540  0.3713 -3.5773 -1.8915
 1032SOL    HW214733   0.919   4.371   7.490  0.0967  0.9074  0.6327
 1033SOL     OW14734   1.816   3.100   7.860 -0.2953  0.2105 -0.2673
 1033SOL    HW114735   1.868   3.022   7.840  1.0997  1.1615 -0.3100
 1033SOL    HW214736   1.874   3.175   7.846  0.8897 -0.1159  3.0722
 1034SOL     OW14737   2.868   1.635   2.414  0.7041  0.1180  0.8571
 1034SOL    HW114738   2.909   1.567   2.467  0.1518 -0.1145  0.9748
 1034SOL    HW214739   2.792   1.589   2.379  0.1755  0.8732  1.0345
 1035SOL     OW14740   4.333   1.226   6.018 -0.5412 -0.1138  0.1578
 1035SOL    HW114741   4.358   1.318   6.012 -2.7999  0.5142  0.1712
 1035SOL    HW214742   4.240   1.235   6.038 -0.9821 -1.4413 -1.3197
 1036SOL     OW14743   4.356   2.568  14.052 -0.3441  0.6471 -0.3724
 1036SOL    HW114744   4.314   2.654  14.046  1.7869  1.8792  2.2047
 1036SOL    HW214745   4.316   2.534  13.972 -0.7212 -0.5931  0.3472
 1037SOL     OW14746   1.671   1.863   1.929 -0.3957  0.3629  0.5299
 1037SOL    HW114747   1.732   1.798   1.964  0.4315  0.7783 -0.1657
 1037SOL    HW214748   1.675   1.921   2.005  0.6235  0.1502  0.6335
 1038SOL     OW14749   2.377   3.876   3.801  0.0425 -0.1656 -0.2502
 1038SOL    HW114750   2.308   3.832   3.751 -1.5952  1.0455  0.9371
 1038SOL    HW214751   2.348   3.966   3.785 -0.6270  0.3809  4.0529
 1039SOL     OW14752   2.106   0.739   1.245  0.0581  0.5924  0.4000
 1039SOL    HW114753   2.108   0.757   1.339  1.6851 -0.0032  0.4905
 1039SOL    HW214754   2.200   0.746   1.225 -0.5353 -1.0870 -3.0182
 1040SOL     OW14755   3.267   4.500   1.274 -0.2737  0.0990  0.2602
 1040SOL    HW114756   3.217   4.444   1.215  1.2605 -1.1647  0.1466
 1040SOL    HW214757   3.330   4.526   1.206 -1.1486  1.4213 -0.0511
 1041SOL     OW14758   0.121   0.119  16.108  0.2759  0.1429  0.1649
 1041SOL    HW114759   0.122   0.150  16.018  2.5893  1.3723  0.6155
 1041SOL    HW214760   0.182   0.177  16.153  0.2704  0.4138 -0.1827
 1042SOL     OW14761   2.999   0.181   7.219  0.1816 -0.0269 -0.6472
 1042SOL    HW114762   2.909   0.173   7.186  0.1226  0.3397 -0.5718
 1042SOL    HW214763   3.028   0.258   7.171 -1.5570  0.1262 -1.4498
 1043SOL     OW14764   0.467   1.596   2.909  0.1384  0.1751  0.3026
 1043SOL    HW114765   0.422   1.644   2.979 -1.6618 -1.5786  0.3426
 1043SOL    HW214766   0.425   1.511   2.918 -0.3503  0.6435  2.5052
 1044SOL     OW14767   3.962   3.618   4.296 -0.7328 -0.0757  0.2497
 1044SOL    HW114768   4.008   3.693   4.257  0.9044 -0.7485  0.8952
 1044SOL    HW214769   3.871   3.648   4.291 -0.2760  1.2467 -0.2996
 1045SOL     OW14770   3.881   2.478   7.805  0.7011 -0.6979  0.0139
 1045SOL    HW114771   3.824   2.490   7.729  1.3296  0.3947 -0.2854
 1045SOL    HW214772   3.844   2.539   7.869  2.8410  1.3611 -0.6850
 1046SOL     OW14773   1.736   1.428  15.027 -0.1768  0.2681  0.2095
 1046SOL    HW114774   1.791   1.429  14.949 -0.6009  0.4992 -0.0854
 1046SOL    HW214775   1.648   1.438  14.989  0.7060 -2.5381 -2.5915
 1047SOL     OW14776   4.028   3.460   9.431 -0.5738 -0.8536 -0.1908
 1047SOL    HW114777   3.941   3.421   9.441 -0.0891 -2.4423 -2.0150
 1047SOL    HW214778   4.016   3.529   9.366 -1.8064  0.1122  1.0783
 1048SOL     OW14779   3.717   0.551   6.184 -0.3218  0.2770  0.3069
 1048SOL    HW114780   3.687   0.503   6.261 -1.8930  0.9065  0.1033
 1048SOL    HW214781   3.799   0.505   6.168 -1.4133 -1.6278  0.2803
 1049SOL     OW14782   0.282   2.876   7.840 -0.0042 -0.2356 -0.0685
 1049SOL    HW114783   0.334   2.890   7.761  0.4513 -1.2711  0.0515
 1049SOL    HW214784   0.196   2.846   7.810  0.9536 -1.2576 -1.7282
 1050SOL     OW14785   0.389   1.739  12.009 -0.2238 -0.3151  0.3973
 1050SOL    HW114786   0.377   1.814  12.067  0.1261  1.4285 -1.8005
 1050SOL    HW214787   0.447   1.777  11.943 -0.3950 -1.0223 -0.1696
 1051SOL     OW14788   1.163   3.793   4.271  0.8636 -0.5375  0.5052
 1051SOL    HW114789   1.088   3.817   4.216 -0.1137 -0.1092  2.0095
 1051SOL    HW214790   1.227   3.851   4.229 -0.1426  0.0890 -0.1809
 1052SOL     OW14791   1.500   4.398  15.423 -0.3363  0.7216  0.4346
 1052SOL    HW114792   1.502   4.355  15.338  1.3532 -1.9637  1.8425
 1052SOL    HW214793   1.464   4.484  15.402 -1.6666 -0.0088 -0.2269
 1053SOL     OW14794   1.644   1.126   5.533  0.4285  0.2190  0.2121
 1053SOL    HW114795   1.706   1.136   5.606  0.2497  1.2354  0.2211
 1053SOL    HW214796   1.604   1.043   5.560 -0.5903  0.1788 -1.4388
 1054SOL     OW14797   4.297   3.345   9.239  0.1133  0.1038 -1.2777
 1054SOL    HW114798   4.205   3.318   9.247 -0.0330  1.0225  0.1501
 1054SOL    HW214799   4.330   3.267   9.284 -0.9736  0.2676 -0.1969
 1055SOL     OW14800   4.073   2.181   5.152  0.0850 -0.6799 -0.4146
 1055SOL    HW114801   4.024   2.099   5.143 -0.7858 -0.1741 -0.2579
 1055SOL    HW214802   4.163   2.148   5.160 -0.3029 -1.3550  1.1640
 1056SOL     OW14803   2.310   3.112   2.102 -0.1637 -0.5385  0.3393
 1056SOL    HW114804   2.319   3.207   2.111  2.5827 -0.6016 -1.9337
 1056SOL    HW214805   2.283   3.099   2.011 -2.7958  1.8985  0.7570
 1057SOL     OW14806   0.911   3.279  14.527  0.0480  0.3161 -0.1564
 1057SOL    HW114807   0.912   3.335  14.605 -0.2862  2.0824 -1.4365
 1057SOL    HW214808   1.002   3.267  14.501  0.3924 -0.1867  1.2500
 1058SOL     OW14809   2.154   2.780   7.275  0.1782 -0.1737 -0.2657
 1058SOL    HW114810   2.081   2.814   7.223 -0.8759 -1.6354  0.2768
 1058SOL    HW214811   2.218   2.769   7.205  0.5320 -1.4078  0.2675
 1059SOL     OW14812   1.492   1.175   2.723 -0.4792 -0.4882  0.2951
 1059SOL    HW114813   1.491   1.103   2.785 -1.2653  0.7177  1.6878
 1059SOL    HW214814   1.426   1.237   2.755 -0.1894 -2.1134  3.9710
 1060SOL     OW14815   1.984   3.645   2.253 -0.6862  0.9456  0.0310
 1060SOL    HW114816   1.899   3.638   2.296 -1.0915 -0.5646 -1.0152
 1060SOL    HW214817   1.973   3.712   2.185  2.0019  0.8785 -0.5046
 1061SOL     OW14818   2.750   1.779  13.026  0.4085  0.8070 -0.0337
 1061SOL    HW114819   2.786   1.693  13.045  0.8300  1.0090  0.0723
 1061SOL    HW214820   2.702   1.817  13.100 -2.2293 -0.7558 -0.9316
 1062SOL     OW14821   0.782   2.102  17.453 -0.5103  0.3547  0.2345
 1062SOL    HW114822   0.718   2.097  17.382 -0.4951 -2.5176  0.4205
 1062SOL    HW214823   0.860   2.085  17.400  0.5612 -0.7815  2.1839
 1063SOL     OW14824   4.718   3.304  10.285 -0.0794  0.0972  0.3640
 1063SOL    HW114825   4.692   3.289  10.376  0.6454 -0.5639  0.4622
 1063SOL    HW214826   4.690   3.394  10.268 -1.3196 -0.4524 -0.5235
 1064SOL     OW14827   3.979   3.256   3.595 -0.5255  0.1259  0.0065
 1064SOL    HW114828   3.995   3.346   3.623 -1.8896  0.2940  0.2518
 1064SOL    HW214829   3.983   3.219   3.683  0.3123  0.5088  0.1320
 1065SOL     OW14830   3.693   1.182   5.965  0.1783 -0.2344 -0.2722
 1065SOL    HW114831   3.734   1.242   5.903 -0.9847 -1.2047 -2.0105
 1065SOL    HW214832   3.652   1.239   6.029  0.2218 -1.8780  1.2211
 1066SOL     OW14833   1.380   0.669   6.961 -0.3066  0.2712 -0.2163
 1066SOL    HW114834   1.317   0.603   6.933  0.2246 -0.5887  0.6120
 1066SOL    HW214835   1.321   0.740   6.986 -3.5493 -2.7126  0.6909
 1067SOL     OW14836   0.912   0.506   5.362  0.3656 -0.3858  0.0088
 1067SOL    HW114837   0.838   0.455   5.394 -0.2903  1.9626  2.2379
 1067SOL    HW214838   0.938   0.569   5.430  0.9060 -1.7367  1.0555
 1068SOL     OW14839   4.322   3.085   0.573 -0.0217  0.1182 -0.3333
 1068SOL    HW114840   4.371   3.014   0.530  2.1377 -0.0963  2.4225
 1068SOL    HW214841   4.319   3.047   0.661  0.3343 -0.6342 -0.6422
 1069SOL     OW14842   1.292   3.763   1.572 -0.0453  0.7883 -0.3350
 1069SOL    HW114843   1.287   3.839   1.515 -0.9363  0.0008 -1.3180
 1069SOL    HW214844   1.368   3.779   1.627 -0.9524 -0.1624  1.2320
 1070SOL     OW14845   0.217   2.681   6.918 -0.2757  0.4767  0.0963
 1070SOL    HW114846   0.140   2.641   6.877  1.1225 -4.1867  2.0203
 1070SOL    HW214847   0.287   2.622   6.888  1.0684  2.5736 -0.9574
 1071SOL     OW14848   4.632   0.194   4.927  0.4307  0.0324 -0.3111
 1071SOL    HW114849   4.694   0.175   4.857 -1.7270  1.3056 -2.5732
 1071SOL    HW214850   4.560   0.219   4.869 -0.8339 -0.6787  0.9598
 1072SOL     OW14851   2.489   2.126  13.465  0.1192 -0.3381 -0.3963
 1072SOL    HW114852   2.398   2.103  13.486 -0.1669  0.1512 -1.0982
 1072SOL    HW214853   2.499   2.216  13.498 -1.6559 -1.5165  3.3949
 1073SOL     OW14854   2.725   3.809  14.782 -0.0481  0.0476 -0.0989
 1073SOL    HW114855   2.783   3.733  14.792 -1.2112 -0.8078  0.1810
 1073SOL    HW214856   2.653   3.775  14.729  1.6626 -2.6034 -0.7342
 1074SOL     OW14857   2.183   0.691  15.263 -0.1202  0.2059 -0.1751
 1074SOL    HW114858   2.183   0.601  15.231 -0.7894 -0.7081  2.3358
 1074SOL    HW214859   2.175   0.680  15.358 -1.6557  1.8586 -0.1046
 1075SOL     OW14860   2.825   2.348   6.189 -0.8995  0.7047 -0.2753
 1075SOL    HW114861   2.799   2.357   6.098 -1.8638 -0.1943 -0.0927
 1075SOL    HW214862   2.907   2.397   6.190  0.9031 -2.3355  0.4106
 1076SOL     OW14863   3.353   4.300  16.997  0.1336 -0.1838 -0.6674
 1076SOL    HW114864   3.423   4.318  17.060 -0.5877  0.6963 -0.1251
 1076SOL    HW214865   3.355   4.204  16.998 -1.1823 -0.2085 -2.5320
 1077SOL     OW14866   3.055   2.243   1.849 -0.2513  0.0951  0.1434
 1077SOL    HW114867   3.026   2.269   1.762  1.3471  0.0872 -0.4050
 1077SOL    HW214868   3.089   2.156   1.831 -2.4053 -0.3836 -1.5194
 1078SOL     OW14869   2.021   2.631   4.077  0.1772  0.5950  0.1684
 1078SOL    HW114870   1.953   2.587   4.028  0.2510 -0.6655  1.1896
 1078SOL    HW214871   1.994   2.627   4.169 -2.5310  0.0258 -0.6729
 1079SOL     OW14872   3.298   3.901   8.361  0.4958 -0.4108  0.5050
 1079SOL    HW114873   3.236   3.895   8.434 -2.3982 -0.3285 -1.9442
 1079SOL    HW214874   3.288   3.816   8.318 -0.0051 -0.3127  0.4248
 1080SOL     OW14875   2.892   3.285   1.081 -0.2783 -0.1418 -0.2287
 1080SOL    HW114876   2.828   3.271   1.012  0.2398  0.1629 -0.7670
 1080SOL    HW214877   2.838   3.246   1.150  2.9625 -2.9031  0.7047
 1081SOL     OW14878   2.958   3.632  16.242 -1.0707  0.5693  0.0648
 1081SOL    HW114879   2.933   3.720  16.271  3.2446  1.9265 -0.3262
 1081SOL    HW214880   3.033   3.654  16.185 -0.2093 -2.7378 -0.0662
 1082SOL     OW14881   3.664   0.867   5.843  0.2612 -0.3661  0.5247
 1082SOL    HW114882   3.714   0.898   5.918  0.8970 -0.5999  0.1940
 1082SOL    HW214883   3.639   0.779   5.872  2.2728 -0.3107  2.4732
 1083SOL     OW14884   1.264   4.380  10.727 -0.1279  0.2374 -0.0248
 1083SOL    HW114885   1.179   4.423  10.733  0.8298  2.4970 -3.2962
 1083SOL    HW214886   1.318   4.408  10.801  1.5520 -0.6460 -0.9172
 1084SOL     OW14887   0.713   0.596   5.945  0.2034 -0.2039 -0.5859
 1084SOL    HW114888   0.704   0.613   6.039  2.4233 -0.6622 -0.2896
 1084SOL    HW214889   0.739   0.681   5.910  1.8088 -0.8754 -1.0271
 1085SOL     OW14890   3.440   1.416   7.149  0.4582 -0.4739  0.0209
 1085SOL    HW114891   3.531   1.403   7.175  0.1492  4.6943  3.7869
 1085SOL    HW214892   3.390   1.355   7.203  0.2282 -0.2256  0.0872
 1086SOL     OW14893   1.262   0.123  15.282 -0.2596  0.3740  0.3882
 1086SOL    HW114894   1.267   0.209  15.323 -1.1809 -1.2015  3.7848
 1086SOL    HW214895   1.199   0.138  15.211  0.3087  1.6268  0.1446
 1087SOL     OW14896   0.113   3.850   2.366 -0.4609 -0.3469  0.1485
 1087SOL    HW114897   0.114   3.757   2.345  1.4526  0.7070 -4.4573
 1087SOL    HW214898   0.165   3.884   2.293 -0.1273 -0.6236  0.2554
 1088SOL     OW14899   4.596   0.612   5.376  0.1456  0.6584  0.1066
 1088SOL    HW114900   4.629   0.525   5.397  0.9275  0.7235 -0.8707
 1088SOL    HW214901   4.680   0.657   5.369  0.6563 -0.3482 -0.2477
 1089SOL     OW14902   1.214   4.012   5.520  0.2272  0.0414  0.2153
 1089SOL    HW114903   1.270   4.063   5.579 -0.2143 -0.4019  1.0201
 1089SOL    HW214904   1.274   4.007   5.446 -0.6890 -1.6176 -0.4097
 1090SOL     OW14905   0.682   2.342  17.631  0.0956 -0.9759 -0.1043
 1090SOL    HW114906   0.727   2.326  17.714  1.0683  0.2013 -0.4072
 1090SOL    HW214907   0.742   2.282  17.587  1.0288 -1.5198  1.8872
 1091SOL     OW14908   3.497   1.011   2.254 -0.2518  0.2783 -0.2954
 1091SOL    HW114909   3.573   1.058   2.287 -0.0862 -2.3587  3.1415
 1091SOL    HW214910   3.457   0.990   2.339  1.4308 -1.2813  0.1199
 1092SOL     OW14911   2.047   0.640   8.589  0.4755 -0.1999 -0.5435
 1092SOL    HW114912   1.965   0.591   8.595  0.3954 -0.0316 -0.2501
 1092SOL    HW214913   2.015   0.721   8.629 -0.2850  0.0972 -1.7550
 1093SOL     OW14914   2.240   3.603  12.552 -0.1018 -0.5017 -0.0895
 1093SOL    HW114915   2.253   3.535  12.619  2.0294 -1.7199 -1.7583
 1093SOL    HW214916   2.244   3.546  12.476 -1.4278  1.5075 -1.6713
 1094SOL     OW14917   3.019   0.753   2.554 -0.5903 -0.0541  0.2230
 1094SOL    HW114918   2.935   0.795   2.574  0.1305  1.6056 -0.2416
 1094SOL    HW214919   3.080   0.820   2.585 -1.2752  0.3767  0.6370
 1095SOL     OW14920   2.028   2.111   3.728  0.0070  0.2953 -0.2342
 1095SOL    HW114921   2.035   2.205   3.709 -0.2541  0.0898 -1.3547
 1095SOL    HW214922   2.118   2.078   3.725  0.0508  0.4311 -0.3868
 1096SOL     OW14923   4.188   2.533   1.811 -0.5941 -0.2726 -0.3575
 1096SOL    HW114924   4.246   2.594   1.857 -1.6190 -0.6491  1.4487
 1096SOL    HW214925   4.236   2.450   1.803  2.0550  1.2040  0.3667
 1097SOL     OW14926   1.028   1.762   8.915 -0.1912 -0.2092  0.6985
 1097SOL    HW114927   1.119   1.772   8.886 -0.8737  1.8236 -0.7351
 1097SOL    HW214928   1.028   1.816   8.994  0.7647 -0.8242  1.1175
 1098SOL     OW14929   2.058   0.563  15.470  0.2974 -0.1999  0.1716
 1098SOL    HW114930   2.095   0.505  15.535 -0.1300 -0.5282  0.1202
 1098SOL    HW214931   2.085   0.646  15.509 -2.6525  0.8899 -0.0446
 1099SOL     OW14932   4.042   0.077   6.572  0.3620  0.7796 -0.2176
 1099SOL    HW114933   4.042   4.717   6.569  1.4602  0.7914 -0.6017
 1099SOL    HW214934   4.032   0.078   6.668 -0.2790  0.1702 -0.2772
 1100SOL     OW14935   0.381   0.514   9.999  0.2986 -0.1460 -0.5922
 1100SOL    HW114936   0.408   0.597  10.038 -3.1951 -0.3191  2.2498
 1100SOL    HW214937   0.441   0.457  10.047 -0.2944  1.6182  2.2703
 1101SOL     OW14938   1.754   3.922   7.735  0.8761 -0.5562  0.0664
 1101SOL    HW114939   1.842   3.929   7.772  0.6953 -1.0675  0.5820
 1101SOL    HW214940   1.715   3.998   7.778  0.3112 -0.4375 -0.6455
 1102SOL     OW14941   2.962   1.789   7.215 -0.1001 -0.0241  0.1316
 1102SOL    HW114942   3.053   1.818   7.212 -0.4658  1.0403 -0.5513
 1102SOL    HW214943   2.930   1.820   7.130 -0.3436 -1.3269 -0.2486
 1103SOL     OW14944   1.937   2.187   9.115  0.0751  0.4181 -0.1638
 1103SOL    HW114945   1.944   2.268   9.165 -2.3048 -0.0196  0.8570
 1103SOL    HW214946   2.017   2.143   9.146 -0.8638 -0.2900  1.2789
 1104SOL     OW14947   2.016   1.895   3.554 -0.2166 -0.0223 -0.1793
 1104SOL    HW114948   2.097   1.844   3.561 -0.8946 -1.0172  0.4987
 1104SOL    HW214949   2.005   1.941   3.637  2.4360 -1.6820  1.0763
 1105SOL     OW14950   0.969   2.544   6.601 -0.2940  0.0740 -0.1756
 1105SOL    HW114951   1.034   2.590   6.654 -0.7824 -2.4628  2.5938
 1105SOL    HW214952   0.950   2.609   6.533 -1.4540 -1.6756 -1.4979
 1106SOL     OW14953   3.347   4.398   9.656 -0.5419  0.4400  0.1960
 1106SOL    HW114954   3.272   4.452   9.630 -0.3878  0.0222 -1.1212
 1106SOL    HW214955   3.422   4.428   9.604  0.8760  0.3718  2.2211
 1107SOL     OW14956   1.577   3.597   3.148 -0.0767  0.3214 -0.2969
 1107SOL    HW114957   1.565   3.588   3.054 -0.8404 -0.8508 -0.0959
 1107SOL    HW214958   1.495   3.643   3.170  0.2899  1.0107 -0.3932
 1108SOL     OW14959   3.897   4.562   3.180 -0.3288  0.3728 -0.1048
 1108SOL    HW114960   3.850   4.635   3.222  0.5400  0.7987  0.1397
 1108SOL    HW214961   3.827   4.501   3.158  0.1895 -1.6819  4.0183
 1109SOL     OW14962   3.810   2.038   9.782  0.3909  0.0280  0.3640
 1109SOL    HW114963   3.901   2.011   9.768  0.7353  1.1853  0.3446
 1109SOL    HW214964   3.799   2.044   9.877 -0.4359  2.5922  0.1036
 1110SOL     OW14965   1.150   0.009   4.725 -0.8729 -0.0528  0.1134
 1110SOL    HW114966   1.191   4.670   4.681 -0.6524 -0.7827  1.5497
 1110SOL    HW214967   1.218   0.074   4.742 -1.1547  0.2660  0.0230
 1111SOL     OW14968   1.292   2.516   8.651 -0.1032 -0.1379  0.5567
 1111SOL    HW114969   1.283   2.422   8.659 -1.4337  0.0353  1.1092
 1111SOL    HW214970   1.381   2.532   8.683  0.9756 -2.3292 -1.3817
 1112SOL     OW14971   1.659   0.621   0.559  0.5608 -0.0937 -0.2558
 1112SOL    HW114972   1.689   0.559   0.626 -2.9790 -1.6743 -0.1309
 1112SOL    HW214973   1.584   0.569   0.531  1.3092 -1.3778  0.1327
 1113SOL     OW14974   1.181   4.695   0.369  0.3915 -0.0905 -0.4429
 1113SOL    HW114975   1.131   4.681   0.288  1.4841 -1.1054 -0.9462
 1113SOL    HW214976   1.118   4.695   0.440 -0.0960  0.8490 -0.8769
 1114SOL     OW14977   2.203   2.283   8.703  0.4331 -0.4023 -0.5059
 1114SOL    HW114978   2.202   2.320   8.614 -0.6905  1.7924  0.3974
 1114SOL    HW214979   2.115   2.307   8.732  0.3395 -2.8155  1.1429
 1115SOL     OW14980   1.204   2.536   9.289 -0.1821  0.0072 -0.1077
 1115SOL    HW114981   1.147   2.523   9.365  2.6109 -1.0169  1.8246
 1115SOL    HW214982   1.138   2.557   9.223  0.3484  0.5213 -0.4677
 1116SOL     OW14983   2.405   0.282   1.907  0.3208 -0.3104 -0.0391
 1116SOL    HW114984   2.368   0.266   1.994  0.9389  2.4517  0.7614
 1116SOL    HW214985   2.329   0.323   1.865  0.2235 -1.4985 -1.0088
 1117SOL     OW14986   2.459   4.678   4.467  0.1405  0.4552 -0.2314
 1117SOL    HW114987   2.390   4.639   4.520 -0.9896  2.6645 -0.0695
 1117SOL    HW214988   2.409   4.733   4.407  0.9994  0.7646 -0.6599
 1118SOL     OW14989   3.498   3.091   3.751  0.2659  0.4277  0.1552
 1118SOL    HW114990   3.589   3.087   3.780  0.1241  1.9070  0.7900
 1118SOL    HW214991   3.510   3.080   3.656 -1.1050  1.6318 -0.1556
 1119SOL     OW14992   3.105   3.579   9.876 -0.1784 -0.2352  0.3959
 1119SOL    HW114993   3.028   3.630   9.901  1.1484  1.0360  1.8907
 1119SOL    HW214994   3.090   3.583   9.782 -1.0078 -1.2048  0.4898
 1120SOL     OW14995   3.568   1.454   0.253  0.0673 -0.4299 -1.0103
 1120SOL    HW114996   3.639   1.474   0.192  0.2045  1.7519 -0.1120
 1120SOL    HW214997   3.576   1.359   0.259 -0.9094 -0.4458 -0.0662
 1121SOL     OW14998   1.633   3.243  14.808  0.2743  0.5683  0.0784
 1121SOL    HW114999   1.696   3.197  14.751 -2.2855  0.4308 -2.6326
 1121SOL    HW215000   1.688   3.252  14.886 -3.4494 -0.0700  2.7724
 1122SOL     OW15001   2.232   0.253   6.116  0.5764  0.3290 -0.3757
 1122SOL    HW115002   2.142   0.232   6.139  0.7876 -1.0563 -0.8514
 1122SOL    HW215003   2.276   0.223   6.196 -2.7205 -4.2391 -0.2794
 1123SOL     OW15004   1.704   1.947   2.404  0.7995  0.2565  0.2783
 1123SOL    HW115005   1.724   2.034   2.438 -1.5059  0.0814  2.0500
 1123SOL    HW215006   1.746   1.896   2.473  1.3126 -1.1851 -1.1061
 1124SOL     OW15007   1.434   3.547   8.623 -0.1065 -0.5942 -0.6866
 1124SOL    HW115008   1.350   3.592   8.615 -0.8952 -1.8843  0.1723
 1124SOL    HW215009   1.412   3.476   8.685 -0.0813 -0.4709 -0.5363
 1125SOL     OW15010   1.315   1.060  17.618 -0.5021  0.2343 -0.0841
 1125SOL    HW115011   1.378   1.131  17.607  0.6892 -0.8707 -0.3545
 1125SOL    HW215012   1.316   1.048  17.713 -0.7817  1.9552  0.1316
 1126SOL     OW15013   3.579   2.388  10.825 -0.7017  0.4032 -0.0278
 1126SOL    HW115014   3.515   2.320  10.844 -0.5314  0.4497  0.7340
 1126SOL    HW215015   3.540   2.475  10.837  1.4372  1.4093 -0.3967
 1127SOL     OW15016   1.690   1.167   7.470 -0.4221 -0.2271  0.3263
 1127SOL    HW115017   1.776   1.133   7.445 -0.7773 -0.1823 -0.9718
 1127SOL    HW215018   1.684   1.144   7.563  1.0697  0.3341  0.5710
 1128SOL     OW15019   4.425   1.933   0.575 -0.2877  0.4171  0.4589
 1128SOL    HW115020   4.363   1.939   0.648 -1.1383  1.1846 -0.3320
 1128SOL    HW215021   4.474   1.852   0.588  1.4307  1.1517 -1.3233
 1129SOL     OW15022   3.089   0.757   9.798 -0.6099  0.4297  0.2701
 1129SOL    HW115023   3.147   0.780   9.725  0.7389 -0.6098  1.0096
 1129SOL    HW215024   3.146   0.748   9.874 -1.2686 -1.6769  0.5233
 1130SOL     OW15025   1.921   3.937  13.668 -0.0120 -0.0201 -0.4920
 1130SOL    HW115026   2.005   3.980  13.655 -0.4252  1.8521  3.0939
 1130SOL    HW215027   1.866   3.996  13.617 -0.2780  1.2324  1.2588
 1131SOL     OW15028   2.531   4.646   2.061  0.1645  0.4842  0.2429
 1131SOL    HW115029   2.465   4.611   2.001  0.1071 -0.0614  0.6326
 1131SOL    HW215030   2.612   4.616   2.018  0.6557  0.2739  1.3181
 1132SOL     OW15031   4.351   3.723   3.627  0.0872  0.0686 -0.5829
 1132SOL    HW115032   4.272   3.718   3.681  0.4566 -0.6692 -0.1009
 1132SOL    HW215033   4.318   3.785   3.563  1.8439  0.1114 -1.4327
 1133SOL     OW15034   3.828   4.657   0.198 -0.3045  0.2905  0.1306
 1133SOL    HW115035   3.903   4.600   0.215 -0.8392  0.0334  1.6998
 1133SOL    HW215036   3.836   4.721   0.269 -2.4102  2.3763 -1.4902
 1134SOL     OW15037   2.198   1.092   7.232  0.5398  0.4590  0.0391
 1134SOL    HW115038   2.152   1.145   7.167 -1.4613 -0.1593  0.9442
 1134SOL    HW215039   2.169   1.140   7.309  3.8479  1.1661  0.8702
 1135SOL     OW15040   4.260   0.559  12.310  0.1605 -0.4381 -0.3545
 1135SOL    HW115041   4.198   0.578  12.240  0.9493  1.5816 -0.5030
 1135SOL    HW215042   4.334   0.523  12.261  0.8197  1.3721 -0.6663
 1136SOL     OW15043   1.270   4.013   1.460 -0.1119 -0.2101 -0.3572
 1136SOL    HW115044   1.346   4.062   1.493  0.0020  0.0876 -1.0610
 1136SOL    HW215045   1.273   4.027   1.365 -0.0526  0.6134 -0.2372
 1137SOL     OW15046   4.692   4.437   2.324  0.2911  0.2179 -0.1463
 1137SOL    HW115047   4.664   4.367   2.265 -0.8953 -0.1298  0.8218
 1137SOL    HW215048   4.611   4.486   2.335 -0.1536 -0.1186 -1.9778
 1138SOL     OW15049   1.934   0.293   0.358  0.4012 -0.5293  0.1958
 1138SOL    HW115050   1.956   0.367   0.300 -0.1245  0.2343  0.9636
 1138SOL    HW215051   1.862   0.250   0.312  1.5061  0.3304 -2.3544
 1139SOL     OW15052   2.412   4.024   3.418  0.1548 -0.1824  0.4608
 1139SOL    HW115053   2.452   4.083   3.482 -1.0943 -1.3614  2.3190
 1139SOL    HW215054   2.460   3.942   3.421  0.0492 -0.2157  1.0997
 1140SOL     OW15055   2.608   3.749  15.793  0.3376  0.3344  0.1136
 1140SOL    HW115056   2.553   3.825  15.775  2.2733  2.3069  2.4047
 1140SOL    HW215057   2.662   3.778  15.867 -1.3830 -0.9325  1.8452
 1141SOL     OW15058   3.490   2.227   6.650  0.2567  0.4547 -0.4336
 1141SOL    HW115059   3.506   2.142   6.690 -2.3372 -0.2662 -0.9463
 1141SOL    HW215060   3.403   2.248   6.684  1.5648  1.3083  2.3902
 1142SOL     OW15061   2.600   1.335   8.252  0.5476  0.1897 -0.0366
 1142SOL    HW115062   2.506   1.345   8.264 -0.0017 -1.8901 -2.4390
 1142SOL    HW215063   2.600   1.270   8.182  1.9512 -0.6335  0.7293
 1143SOL     OW15064   1.568   2.197   8.369 -0.3372  0.0084  0.3371
 1143SOL    HW115065   1.547   2.103   8.372  2.0639 -0.5572 -0.8318
 1143SOL    HW215066   1.548   2.229   8.458 -0.6144 -0.1361  0.3281
 1144SOL     OW15067   1.190   3.459  11.770 -0.1195  0.4545 -0.6128
 1144SOL    HW115068   1.247   3.535  11.771  1.2671 -0.6266  1.5717
 1144SOL    HW215069   1.241   3.400  11.714  0.5419  0.4350  0.0241
 1145SOL     OW15070   2.260   1.844  12.937 -0.0555 -0.3503  0.0032
 1145SOL    HW115071   2.326   1.781  12.907  0.3965  0.4143 -0.5975
 1145SOL    HW215072   2.208   1.859  12.858  1.9474 -0.5999 -1.3692
 1146SOL     OW15073   4.269   3.038  15.540  0.2124 -0.3486  0.2606
 1146SOL    HW115074   4.293   3.124  15.575 -2.5035 -0.1339  1.5921
 1146SOL    HW215075   4.346   3.031  15.484 -1.0057  1.9494 -1.6953
 1147SOL     OW15076   1.391   2.101   4.217  0.1027 -0.2177 -0.6025
 1147SOL    HW115077   1.437   2.177   4.180  0.1289  0.1513  0.1733
 1147SOL    HW215078   1.353   2.140   4.296 -0.5247 -2.2245  0.0800
 1148SOL     OW15079   4.225   2.337   3.402 -0.7358 -0.5533 -0.2742
 1148SOL    HW115080   4.296   2.365   3.345 -0.0873 -0.7208  0.4457
 1148SOL    HW215081   4.148   2.361   3.351 -1.3230 -0.7072  0.5334
 1149SOL     OW15082   3.725   3.944   4.985  0.1250 -0.4983  0.1012
 1149SOL    HW115083   3.659   3.951   5.054  0.5253  1.1278  0.3193
 1149SOL    HW215084   3.796   3.897   5.028  1.2790  2.4396  1.3795
 1150SOL     OW15085   2.265   2.233  16.510  0.0536  0.1894 -0.2274
 1150SOL    HW115086   2.329   2.201  16.446 -1.2622  0.5491 -1.7170
 1150SOL    HW215087   2.299   2.319  16.533  3.5057 -1.1529 -0.3060
 1151SOL     OW15088   1.490   2.434   2.929 -0.3155  0.3708 -0.5744
 1151SOL    HW115089   1.485   2.512   2.873 -0.3228  0.6857 -0.1428
 1151SOL    HW215090   1.534   2.479   3.002 -0.3912 -1.0327  0.3440
 1152SOL     OW15091   1.436   1.045   9.879  0.1561  0.9366 -0.3465
 1152SOL    HW115092   1.448   1.116   9.943  0.5990  0.8435 -0.3269
 1152SOL    HW215093   1.429   1.097   9.800  0.3744  1.6990  0.1397
 1153SOL     OW15094   1.540   2.544   7.268 -0.3408  0.4252 -0.3667
 1153SOL    HW115095   1.558   2.492   7.190  2.6982  0.2397  0.4503
 1153SOL    HW215096   1.566   2.472   7.327  2.3169  2.0604  0.4811
 1154SOL     OW15097   3.631   0.539   4.643  0.3923  0.2177 -0.2877
 1154SOL    HW115098   3.602   0.486   4.569  0.1894 -1.9339  1.3178
 1154SOL    HW215099   3.698   0.580   4.589  0.6929  0.6851  0.4454
 1155SOL     OW15100   3.726   2.325   5.527 -0.3621 -0.7809  0.4285
 1155SOL    HW115101   3.795   2.305   5.463 -0.5404  0.7825 -0.2377
 1155SOL    HW215102   3.667   2.252   5.508 -3.2239  1.7150 -0.1216
 1156SOL     OW15103   1.918   1.829  17.317 -0.8222 -0.0297  0.7533
 1156SOL    HW115104   1.878   1.785  17.243 -1.9895 -0.6350  1.7403
 1156SOL    HW215105   2.006   1.799  17.295 -0.8100 -0.1795  0.9943
 1157SOL     OW15106   2.403   3.903   2.300  0.2637  0.7911  0.0303
 1157SOL    HW115107   2.371   3.976   2.353 -0.8550 -0.7999  1.5123
 1157SOL    HW215108   2.361   3.827   2.341 -1.9899  3.2582  2.2903
 1158SOL     OW15109   3.659   2.015   8.013 -0.1383  0.3660 -0.1541
 1158SOL    HW115110   3.646   1.967   8.095  0.1894 -0.3829 -0.5377
 1158SOL    HW215111   3.676   2.106   8.035 -0.4192 -0.1613  2.2562
 1159SOL     OW15112   0.511   3.229  15.179  0.3037  0.1517  0.1616
 1159SOL    HW115113   0.494   3.166  15.249  0.9900 -0.9573 -0.6591
 1159SOL    HW215114   0.534   3.300  15.238  0.1065  2.0015 -1.9973
 1160SOL     OW15115   0.670   3.092   4.456  0.1056  0.1661  0.5164
 1160SOL    HW115116   0.593   3.146   4.443  1.3761  1.3718 -1.9389
 1160SOL    HW215117   0.639   3.005   4.482 -1.4184  0.2256 -1.1685
 1161SOL     OW15118   2.904   1.022   6.441 -0.4580  0.1709 -0.3905
 1161SOL    HW115119   2.826   1.013   6.386 -1.4427 -0.5232  1.1016
 1161SOL    HW215120   2.874   0.984   6.524 -0.1852 -1.5671 -1.0951
 1162SOL     OW15121   2.021   4.680   9.667 -0.0341 -0.6343 -0.8016
 1162SOL    HW115122   2.075   4.695   9.744  0.8007 -0.8974 -1.3467
 1162SOL    HW215123   2.014   4.585   9.659 -1.4712 -0.6670  0.7023
 1163SOL     OW15124   1.459   0.524  13.875 -0.1052  0.3370  0.2168
 1163SOL    HW115125   1.425   0.535  13.964  2.2399 -4.1720  1.6839
 1163SOL    HW215126   1.481   0.431  13.869 -4.8691 -0.7906 -0.2243
 1164SOL     OW15127   2.587   0.202   2.623 -0.1522 -0.1255  0.2364
 1164SOL    HW115128   2.518   0.210   2.690 -1.6108 -1.6962 -1.0657
 1164SOL    HW215129   2.543   0.218   2.540  2.2674 -0.4140 -1.0897
 1165SOL     OW15130   0.861   1.966   2.836  0.1773  0.0458  0.4169
 1165SOL    HW115131   0.798   1.950   2.766 -2.4211  1.8067  2.4007
 1165SOL    HW215132   0.942   1.928   2.801 -1.2297 -1.3568 -1.3195
 1166SOL     OW15133   2.526   0.823   5.762 -0.0894  0.1939  0.2115
 1166SOL    HW115134   2.554   0.898   5.711 -1.6076 -0.0392 -0.9681
 1166SOL    HW215135   2.518   0.749   5.700  2.7645 -1.1072  1.4058
 1167SOL     OW15136   3.959   1.453  10.914 -0.1680 -0.2064  0.3814
 1167SOL    HW115137   3.908   1.492  10.985  1.8732  2.9486  0.0974
 1167SOL    HW215138   3.941   1.362  10.939 -0.3373  0.0848  1.2895
 1168SOL     OW15139   4.584   3.229   4.808 -0.5974  0.0839  0.2919
 1168SOL    HW115140   4.533   3.149   4.825 -1.6141 -0.0446 -3.4316
 1168SOL    HW215141   4.623   3.243   4.894 -1.3584  0.9027  0.5097
 1169SOL     OW15142   3.659   0.111  14.583  0.2417  0.4890 -0.6108
 1169SOL    HW115143   3.606   0.158  14.647  1.5121 -1.7059  2.0516
 1169SOL    HW215144   3.743   0.155  14.596 -0.3061  0.9809  1.3279
 1170SOL     OW15145   4.353   1.561   4.212 -0.0837 -0.3124 -0.1620
 1170SOL    HW115146   4.398   1.514   4.283 -1.9641 -2.0731 -0.1314
 1170SOL    HW215147   4.270   1.567   4.260 -0.2371 -1.4569 -0.2819
 1171SOL     OW15148   1.037   1.827   1.424 -0.5905  0.4165 -0.2421
 1171SOL    HW115149   1.039   1.892   1.354 -0.6957  0.7080  0.0225
 1171SOL    HW215150   1.064   1.749   1.375  0.0410  0.0725  0.6476
 1172SOL     OW15151   2.405   4.446   5.800 -0.3957  0.8781 -0.3307
 1172SOL    HW115152   2.313   4.442   5.773 -0.4359  0.8116 -0.1865
 1172SOL    HW215153   2.389   4.471   5.892  0.7401  1.0775 -0.1917
 1173SOL     OW15154   3.986   0.196   2.535  0.0620  0.0159  0.0422
 1173SOL    HW115155   3.903   0.173   2.492  0.7364  0.6378 -1.5814
 1173SOL    HW215156   4.013   0.111   2.570 -1.3090 -0.2493  0.4782
 1174SOL     OW15157   2.280   0.214   3.099  0.9158  0.4138 -0.3456
 1174SOL    HW115158   2.290   0.275   3.172  0.9513 -1.7861  1.4751
 1174SOL    HW215159   2.214   0.154   3.132  0.2358  1.6223  0.4691
 1175SOL     OW15160   4.457   4.321   4.216  0.1419  0.1399 -0.4148
 1175SOL    HW115161   4.370   4.284   4.231  0.9351 -2.1193 -1.2866
 1175SOL    HW215162   4.480   4.367   4.297 -0.1668 -1.1288  0.3932
 1176SOL     OW15163   3.425   1.523   5.638  0.1673 -0.0668 -0.0808
 1176SOL    HW115164   3.495   1.480   5.590  1.3633  0.1902  1.4413
 1176SOL    HW215165   3.466   1.531   5.724  2.3668 -0.6140 -1.0701
 1177SOL     OW15166   3.489   1.242   4.712  0.1450 -0.6920  0.3055
 1177SOL    HW115167   3.461   1.219   4.623  0.4942  0.8918 -0.2189
 1177SOL    HW215168   3.488   1.159   4.759  1.8784 -0.1475  1.3176
 1178SOL     OW15169   2.153   1.332  15.466 -0.2347 -0.2854  0.6242
 1178SOL    HW115170   2.075   1.375  15.431  1.1980  2.4086  0.8078
 1178SOL    HW215171   2.222   1.346  15.401 -0.7412  1.2082  0.4247
 1179SOL     OW15172   0.122   1.218   9.914 -0.3901 -0.1245 -0.1832
 1179SOL    HW115173   0.176   1.270   9.854 -0.9302  1.1613  0.4474
 1179SOL    HW215174   0.110   1.279   9.987 -2.7523 -1.1192  0.2390
 1180SOL     OW15175   0.111   0.437   3.348 -0.0733 -0.6613  0.8230
 1180SOL    HW115176   0.169   0.378   3.398  0.9596  0.6941  1.2331
 1180SOL    HW215177   0.176   0.501   3.319  1.1061 -2.0112  0.4728
 1181SOL     OW15178   1.122   2.638   0.892  0.5659  0.2617  0.5013
 1181SOL    HW115179   1.079   2.554   0.875  0.2034  0.7710 -1.1037
 1181SOL    HW215180   1.045   2.695   0.901  0.7624  0.2300  2.3783
 1182SOL     OW15181   0.174   2.496   3.523  0.1427 -0.3729 -0.2653
 1182SOL    HW115182   0.084   2.475   3.498 -0.5302  0.1923  1.6880
 1182SOL    HW215183   0.229   2.451   3.458 -0.0931  1.9290 -2.0596
 1183SOL     OW15184   0.886   4.267  15.633 -1.0778  0.1197  0.1636
 1183SOL    HW115185   0.797   4.233  15.646 -2.0499  1.5775 -2.5485
 1183SOL    HW215186   0.869   4.335  15.567 -1.0788  0.5508  0.6112
 1184SOL     OW15187   2.221   2.594   8.938 -0.2947 -0.1980 -0.8513
 1184SOL    HW115188   2.197   2.653   9.010 -0.4690 -0.6371 -0.5494
 1184SOL    HW215189   2.131   2.575   8.912 -0.9618  1.1557  0.4798
 1185SOL     OW15190   2.786   2.606   5.564 -0.3397  0.3261  0.1871
 1185SOL    HW115191   2.844   2.605   5.488  0.1020 -1.5565  0.5589
 1185SOL    HW215192   2.822   2.684   5.607 -1.5890  0.8378  0.3123
 1186SOL     OW15193   3.739   2.276  16.782 -0.1418 -0.4258 -0.1226
 1186SOL    HW115194   3.730   2.303  16.691 -0.2439  0.9346  0.2793
 1186SOL    HW215195   3.672   2.208  16.785  0.0945 -0.7233 -1.4895
 1187SOL     OW15196   1.407   2.232  17.502 -0.2567  0.3523  0.9040
 1187SOL    HW115197   1.321   2.260  17.472  1.7348  2.3096 -3.0840
 1187SOL    HW215198   1.384   2.159  17.559 -0.0442 -1.8067 -1.7867
 1188SOL     OW15199   1.218   0.601   3.040 -0.0994 -0.1751 -0.2614
 1188SOL    HW115200   1.140   0.588   2.986  0.5836  0.6434 -1.4360
 1188SOL    HW215201   1.188   0.567   3.125 -0.2304 -0.2788 -0.3484
 1189SOL     OW15202   1.863   0.024   5.944 -0.4753 -0.7708 -0.5349
 1189SOL    HW115203   1.770   0.007   5.930 -0.7879  1.5598 -1.3134
 1189SOL    HW215204   1.894   4.688   5.999  1.8164  0.0724 -0.7298
 1190SOL     OW15205   0.931   2.396   7.215 -0.3893  0.8869 -0.5809
 1190SOL    HW115206   0.914   2.441   7.133 -2.0889  0.0116 -0.7029
 1190SOL    HW215207   1.021   2.413   7.241  0.0903  0.5812 -2.0384
 1191SOL     OW15208   2.360   0.454   5.149  0.9447  0.6774 -0.7794
 1191SOL    HW115209   2.344   0.380   5.090  1.1285 -0.2474  0.3291
 1191SOL    HW215210   2.439   0.419   5.191  0.2894 -1.1173 -1.0162
 1192SOL     OW15211   0.951   1.099   0.698 -0.1312  0.3110 -0.1721
 1192SOL    HW115212   0.915   1.108   0.610 -1.1031  0.2959  0.2228
 1192SOL    HW215213   1.016   1.029   0.691  0.2158  0.4715  1.2459
 1193SOL     OW15214   1.721   3.729   2.569  0.3098  0.1232  0.6006
 1193SOL    HW115215   1.800   3.736   2.622  0.7687  0.1936 -0.0903
 1193SOL    HW215216   1.668   3.794   2.615  0.8234  0.7486  0.3071
 1194SOL     OW15217   0.057   2.820   5.928  0.0008 -0.2230 -0.5877
 1194SOL    HW115218   4.717   2.782   5.883  1.3000 -0.1274 -2.8129
 1194SOL    HW215219   0.135   2.773   5.898 -0.7869 -0.8362 -1.6762
 1195SOL     OW15220   1.774   0.050   7.687 -0.3744  0.4392 -0.0109
 1195SOL    HW115221   1.805   0.077   7.600 -1.4857 -1.2788 -0.9325
 1195SOL    HW215222   1.834   4.712   7.679  1.2059  1.5330  1.7021
 1196SOL     OW15223   0.240   4.714   4.292 -0.1791 -0.2288 -0.1326
 1196SOL    HW115224   0.328   4.700   4.257  0.3640  2.0849  0.2818
 1196SOL    HW215225   0.193   0.036   4.231  0.5882 -1.4722 -1.8841
 1197SOL     OW15226   3.890   1.770   8.544 -0.1128 -0.3218  0.8719
 1197SOL    HW115227   3.917   1.726   8.625  2.2182  0.2223  0.3726
 1197SOL    HW215228   3.796   1.782   8.559 -0.6227 -2.5305 -0.6571
 1198SOL     OW15229   0.439   2.490  16.196  0.0694  0.1871  0.4492
 1198SOL    HW115230   0.499   2.555  16.159 -1.2824  1.5670  0.6899
 1198SOL    HW215231   0.381   2.553  16.239  1.9791  2.6411 -0.5503
 1199SOL     OW15232   0.040   4.509   5.219  0.1844 -0.3397 -0.0762
 1199SOL    HW115233   0.121   4.468   5.249 -0.2134 -1.0795 -0.0084
 1199SOL    HW215234   0.067   4.581   5.162 -1.0309 -0.3934 -0.7140
 1200SOL     OW15235   4.321   0.208   7.865  0.3902 -0.1345  0.0423
 1200SOL    HW115236   4.245   0.150   7.864  1.5523 -1.6322 -2.3665
 1200SOL    HW215237   4.279   0.282   7.822  0.0247  0.2074  0.9979
 1201SOL     OW15238   1.118   3.467  17.424 -0.2873  0.0008  0.5177
 1201SOL    HW115239   1.109   3.386  17.374  0.1735 -1.1621  2.3146
 1201SOL    HW215240   1.107   3.427  17.511 -1.7148  0.2266  0.4534
 1202SOL     OW15241   4.024   2.339  10.912 -0.1388  0.4314  0.3192
 1202SOL    HW115242   3.971   2.290  10.974 -1.8901  0.4844 -1.1262
 1202SOL    HW215243   3.960   2.354  10.843 -0.3521  1.5581  0.7808
 1203SOL     OW15244   4.105   4.109   7.358 -0.9972 -0.2409  0.1632
 1203SOL    HW115245   4.193   4.147   7.355 -1.1098  0.0441  0.5173
 1203SOL    HW215246   4.076   4.153   7.278 -1.3404  0.0558  0.4531
 1204SOL     OW15247   1.578   2.265  11.457 -0.0487  0.2976  0.1557
 1204SOL    HW115248   1.601   2.178  11.424  2.4639  0.4684  1.4630
 1204SOL    HW215249   1.610   2.319  11.385  1.3149 -1.3454 -0.4552
 1205SOL     OW15250   1.993   0.272   2.167  0.2986  0.1327  0.0720
 1205SOL    HW115251   1.976   0.328   2.091  1.0521  0.8434  0.4260
 1205SOL    HW215252   1.939   0.195   2.148 -1.0680  0.3963  2.9057
 1206SOL     OW15253   3.898   0.520   3.893  0.2570  0.1861 -0.1326
 1206SOL    HW115254   3.899   0.466   3.814  4.4517 -1.4399  1.0319
 1206SOL    HW215255   3.832   0.482   3.951 -0.0701  1.2850  0.2136
 1207SOL     OW15256   3.601   1.532   8.013 -0.4451 -0.2465 -0.1884
 1207SOL    HW115257   3.568   1.505   7.927 -1.3940  1.7214 -0.4358
 1207SOL    HW215258   3.516   1.540   8.056 -0.3076 -0.7955  0.1858
 1208SOL     OW15259   1.207   2.938  12.551  0.0631 -0.0065 -0.1709
 1208SOL    HW115260   1.147   2.867  12.572 -0.3551 -0.2091 -2.0847
 1208SOL    HW215261   1.145   2.991  12.502 -2.0753 -2.8918 -0.5977
 1209SOL     OW15262   2.849   2.677   6.410  0.3968  0.7399 -0.1878
 1209SOL    HW115263   2.896   2.720   6.339  2.6343 -1.3074  0.0616
 1209SOL    HW215264   2.834   2.745   6.476 -0.0784  1.2243 -0.8043
 1210SOL     OW15265   1.260   4.596  13.749 -0.3678  0.1303 -0.2408
 1210SOL    HW115266   1.309   4.515  13.734  1.6005  1.7272 -2.5607
 1210SOL    HW215267   1.181   4.560  13.788  0.6234 -2.9587 -1.0835
 1211SOL     OW15268   1.256   2.489   5.170  0.4894  0.6571 -0.1381
 1211SOL    HW115269   1.194   2.522   5.236 -1.3953 -1.4508 -0.8759
 1211SOL    HW215270   1.336   2.538   5.188 -1.0928  2.1011  3.0551
 1212SOL     OW15271   1.253   0.879   3.109  0.2885 -0.0055  0.0656
 1212SOL    HW115272   1.239   0.784   3.111 -0.9795  0.1479 -1.2150
 1212SOL    HW215273   1.163   0.910   3.097 -0.2866 -1.3979  0.7173
 1213SOL     OW15274   3.382   1.220   5.144  0.5687  0.5736 -0.3288
 1213SOL    HW115275   3.307   1.181   5.101 -0.1129  1.4976  0.0290
 1213SOL    HW215276   3.347   1.221   5.233  0.0704  0.6963 -0.5283
 1214SOL     OW15277   4.430   3.781   6.078 -0.9130  0.1156  0.5841
 1214SOL    HW115278   4.485   3.783   6.157 -1.1260  1.4484  0.7051
 1214SOL    HW215279   4.381   3.861   6.099 -0.8065  0.2453  0.3300
 1215SOL     OW15280   4.624   3.041   3.224  0.0415 -0.1211  0.0752
 1215SOL    HW115281   4.596   2.955   3.191 -2.4157  1.1892 -1.2600
 1215SOL    HW215282   4.593   3.037   3.315  2.7124  2.1132  1.0667
 1216SOL     OW15283   4.574   3.922   6.842  1.1140  0.6328  0.1982
 1216SOL    HW115284   4.500   3.905   6.784 -0.8394  1.8416  2.3081
 1216SOL    HW215285   4.640   3.871   6.796  0.2017 -2.3558  2.2079
 1217SOL     OW15286   1.662   0.707  14.977  0.4622  0.0144  0.4308
 1217SOL    HW115287   1.738   0.748  15.019 -0.3519  0.5930  1.3502
 1217SOL    HW215288   1.602   0.703  15.051  0.3723  0.0190  0.3580
 1218SOL     OW15289   0.579   2.301  16.035  0.0643 -0.3505 -0.1250
 1218SOL    HW115290   0.625   2.234  16.085 -2.3519  0.5617  3.2647
 1218SOL    HW215291   0.532   2.360  16.094 -1.6270 -0.7543 -1.0553
 1219SOL     OW15292   0.840   0.466   8.077 -0.4350  0.4212 -0.4242
 1219SOL    HW115293   0.909   0.407   8.106  0.8678  2.1427 -0.0255
 1219SOL    HW215294   0.759   0.417   8.088 -0.6590  0.7963 -0.3979
 1220SOL     OW15295   4.039   3.658   5.911  0.2285  0.1353 -0.2328
 1220SOL    HW115296   4.031   3.591   5.843  0.1106  0.8306 -0.9049
 1220SOL    HW215297   3.950   3.663   5.945  0.1408  0.4351 -0.5121
 1221SOL     OW15298   3.310   3.815   2.856  0.2378  0.1528  0.2654
 1221SOL    HW115299   3.232   3.807   2.801 -1.3548 -0.9676  2.6942
 1221SOL    HW215300   3.359   3.872   2.797 -2.6282 -1.1067 -3.3504
 1222SOL     OW15301   3.285   3.864   7.921  0.3006 -0.0175  0.1947
 1222SOL    HW115302   3.201   3.894   7.958 -1.2859 -1.3936 -2.2716
 1222SOL    HW215303   3.347   3.901   7.983 -1.1312  1.9616  0.4371
 1223SOL     OW15304   2.890   3.352   3.650  0.0396 -0.2747  0.5747
 1223SOL    HW115305   2.895   3.257   3.644 -0.5013 -0.2277 -0.7911
 1223SOL    HW215306   2.798   3.367   3.675 -0.0247  1.0839 -0.4701
 1224SOL     OW15307   0.031   0.503   7.054  0.5612 -0.0657  0.0153
 1224SOL    HW115308   0.085   0.509   7.132 -0.8334 -1.5737  1.0947
 1224SOL    HW215309   4.689   0.473   7.101 -0.8835  1.4149 -1.4107
 1225SOL     OW15310   2.251   4.059   1.670 -0.0206 -0.4112 -0.3567
 1225SOL    HW115311   2.338   4.086   1.701  0.1332 -0.5691 -0.6502
 1225SOL    HW215312   2.207   4.109   1.739  1.1956 -1.3194  1.1016
 1226SOL     OW15313   0.819   4.632   1.364 -0.2259 -0.2532  0.5199
 1226SOL    HW115314   0.785   4.547   1.392  0.8947 -0.5832  0.8530
 1226SOL    HW215315   0.742   4.688   1.374  0.8429  1.7199 -2.3238
 1227SOL     OW15316   4.464   1.805   8.884 -0.1837 -0.0609  0.0395
 1227SOL    HW115317   4.505   1.826   8.968  0.1505  0.2178 -0.1974
 1227SOL    HW215318   4.449   1.888   8.840  1.9656 -0.6484 -1.7586
 1228SOL     OW15319   1.910   3.995   4.933  0.0746  0.1540  0.0134
 1228SOL    HW115320   1.947   3.981   5.020  0.2260 -0.6790 -0.1875
 1228SOL    HW215321   1.818   3.973   4.948  0.3632 -0.4848  0.7807
 1229SOL     OW15322   2.084   4.339   8.767  0.1997 -0.5493 -0.2736
 1229SOL    HW115323   2.006   4.362   8.716 -0.2576  2.4241  1.7931
 1229SOL    HW215324   2.147   4.375   8.704 -2.0372  2.9947 -0.4898
 1230SOL     OW15325   2.258   2.487   9.332  0.0941 -0.6418  0.2940
 1230SOL    HW115326   2.307   2.421   9.285 -2.1569 -3.6186  2.1123
 1230SOL    HW215327   2.300   2.486   9.419  0.4446  1.2730  0.1621
 1231SOL     OW15328   4.137   2.523   6.841 -0.0791  0.4241 -0.4360
 1231SOL    HW115329   4.105   2.546   6.754 -0.1540  0.7500 -0.3223
 1231SOL    HW215330   4.195   2.594   6.868 -0.6924  0.1394  1.6709
 1232SOL     OW15331   0.275   3.651   3.390  0.2308  0.4268 -0.3191
 1232SOL    HW115332   0.301   3.569   3.348  1.0631 -1.1591  3.2542
 1232SOL    HW215333   0.202   3.666   3.330  1.3884  0.7604 -1.6295
 1233SOL     OW15334   2.009   4.198  10.039 -0.6708 -0.3884 -0.4257
 1233SOL    HW115335   2.054   4.114  10.053 -1.6061 -0.9719 -0.9539
 1233SOL    HW215336   1.917   4.176  10.051 -0.1223 -0.8004  2.9512
 1234SOL     OW15337   3.632   1.492   9.967  0.2383 -0.1336  1.3194
 1234SOL    HW115338   3.559   1.523   9.915  1.0169 -0.7868 -0.1578
 1234SOL    HW215339   3.682   1.572   9.981 -1.0274  1.0839 -1.3380
 1235SOL     OW15340   0.467   0.767  12.480 -0.3484  0.1588  0.4443
 1235SOL    HW115341   0.514   0.693  12.519  0.0018 -0.5757 -1.3887
 1235SOL    HW215342   0.425   0.805  12.557 -0.0254 -0.2068  0.8001
 1236SOL     OW15343   1.498   4.658   1.861  0.2284 -0.1068  0.3248
 1236SOL    HW115344   1.502   4.621   1.773 -1.6385  1.4495 -0.4337
 1236SOL    HW215345   1.506   4.578   1.914  0.8507  0.2808  0.8096
 1237SOL     OW15346   2.754   1.652   3.110  0.1380  0.4328  0.4284
 1237SOL    HW115347   2.814   1.703   3.056  0.8144 -0.3211  0.4744
 1237SOL    HW215348   2.789   1.649   3.199 -1.9154  2.3886  1.2894
 1238SOL     OW15349   4.135   2.644  11.851  0.1835 -0.0550  0.6911
 1238SOL    HW115350   4.176   2.560  11.874  0.2674  0.2692  1.7604
 1238SOL    HW215351   4.062   2.608  11.802 -0.6578  1.0302  1.1598
 1239SOL     OW15352   4.036   2.277  12.150  0.4893  0.3333  0.1827
 1239SOL    HW115353   4.000   2.267  12.238  4.1897 -2.2723  1.4038
 1239SOL    HW215354   3.962   2.309  12.098 -0.0327 -0.1825  0.6099
 1240SOL     OW15355   1.026   1.003   8.202 -0.0165  0.0072 -0.1426
 1240SOL    HW115356   1.120   1.015   8.187  0.0292  1.6785  1.5278
 1240SOL    HW215357   0.994   1.056   8.129 -1.1371 -0.9616 -0.3644
 1241SOL     OW15358   4.475   2.025  10.243  0.5202  0.0934  0.1529
 1241SOL    HW115359   4.457   2.032  10.149 -0.1639 -1.8597  0.1301
 1241SOL    HW215360   4.508   1.935  10.241  0.2299 -0.0153  0.3444
 1242SOL     OW15361   3.940   0.966   2.121 -0.1100  0.0546  0.9323
 1242SOL    HW115362   3.993   0.891   2.095 -3.2298 -1.6378 -0.5808
 1242SOL    HW215363   3.880   0.967   2.046  0.1370 -0.8397  0.7198
 1243SOL     OW15364   3.442   4.465   1.702 -0.4443  0.3952  0.0415
 1243SOL    HW115365   3.430   4.541   1.759  0.4925 -0.3487  1.2229
 1243SOL    HW215366   3.377   4.478   1.634  0.5120 -1.1184 -1.1821
 1244SOL     OW15367   4.069   2.511   9.012 -0.6801  0.0700  0.0690
 1244SOL    HW115368   4.098   2.423   8.985  3.1427  1.1650  0.6217
 1244SOL    HW215369   4.106   2.563   8.941 -0.2076  1.3161  1.2184
 1245SOL     OW15370   1.551   2.971   8.317  0.3308 -0.0166 -0.2396
 1245SOL    HW115371   1.642   2.957   8.343 -0.5335 -1.1951  2.2404
 1245SOL    HW215372   1.517   3.006   8.400 -4.0938 -0.8297 -1.7084
 1246SOL     OW15373   4.493   2.400   8.287 -0.0140 -0.4437  0.4549
 1246SOL    HW115374   4.516   2.431   8.375  0.7704 -0.4620  0.2591
 1246SOL    HW215375   4.429   2.330   8.301  0.8923 -1.3444  0.1307
 1247SOL     OW15376   2.089   3.789   5.243  0.2069 -0.0340  0.0160
 1247SOL    HW115377   2.054   3.750   5.163 -0.4859  3.0289 -1.1931
 1247SOL    HW215378   2.079   3.880   5.212  3.4532  0.1468 -0.4425
 1248SOL     OW15379   2.488   2.942   5.149  0.3636 -0.0616 -0.1657
 1248SOL    HW115380   2.406   2.912   5.188  0.7520  0.6251  1.1729
 1248SOL    HW215381   2.539   2.863   5.169  2.4791  1.5701  0.8491
 1249SOL     OW15382   3.998   3.397   5.470  0.7507  0.0007 -0.7873
 1249SOL    HW115383   4.045   3.314   5.467 -1.1175 -1.0270 -1.6031
 1249SOL    HW215384   4.037   3.434   5.391  0.0082  0.4696 -0.9307
 1250SOL     OW15385   4.071   3.748   6.807 -0.1137  0.5037  0.4540
 1250SOL    HW115386   4.077   3.652   6.810 -0.6506  0.4072 -1.2562
 1250SOL    HW215387   4.105   3.768   6.894  1.2498  2.4714 -0.5213
 1251SOL     OW15388   0.151   2.982   1.949 -0.3969  0.3067  0.5314
 1251SOL    HW115389   0.155   2.998   2.044  0.1469 -1.7044  0.8608
 1251SOL    HW215390   0.161   3.066   1.904 -2.4612  1.1590  1.6770
 1252SOL     OW15391   2.740   2.946   3.449  0.7961 -0.0843  0.3531
 1252SOL    HW115392   2.820   2.963   3.500  0.6968  3.8012 -0.8086
 1252SOL    HW215393   2.755   3.008   3.378 -2.9199  1.2923  0.8052
 1253SOL     OW15394   0.241   1.443   3.475 -0.6335  0.0700 -0.5470
 1253SOL    HW115395   0.251   1.509   3.407 -0.4922 -0.2474 -0.8348
 1253SOL    HW215396   0.300   1.479   3.542 -0.9358  0.0766 -0.2862
 1254SOL     OW15397   1.758   4.345   9.142  0.3221 -1.1203 -0.3522
 1254SOL    HW115398   1.787   4.433   9.167  0.3339 -1.4916  0.9537
 1254SOL    HW215399   1.756   4.302   9.227  0.8814 -0.2964  0.0840
 1255SOL     OW15400   2.896   1.768   5.449 -0.3186  0.1190  0.1849
 1255SOL    HW115401   2.856   1.687   5.418  1.2901 -0.3021 -0.7952
 1255SOL    HW215402   2.895   1.816   5.366 -1.0525 -0.3474 -0.0742
 1256SOL     OW15403   0.304   0.589  12.957 -0.2171  0.1934  0.1001
 1256SOL    HW115404   0.307   0.564  13.049 -1.0953 -0.6334 -0.1000
 1256SOL    HW215405   0.356   0.668  12.967 -2.0652  1.5324 -0.9433
 1257SOL     OW15406   3.376   1.958   6.742  0.6359 -0.0511  0.2325
 1257SOL    HW115407   3.310   2.024   6.719 -0.5081 -1.8267 -1.4583
 1257SOL    HW215408   3.331   1.875   6.726  1.5182  0.2313 -3.6211
 1258SOL     OW15409   4.244   0.648   8.866  0.4989 -0.2144 -0.1209
 1258SOL    HW115410   4.285   0.724   8.826 -2.3302  1.8472  0.8906
 1258SOL    HW215411   4.272   0.668   8.955 -0.4423  0.3774  0.0410
 1259SOL     OW15412   2.999   1.366   9.549 -0.1504 -0.3998  0.4352
 1259SOL    HW115413   2.962   1.382   9.462  3.6242  0.6999 -1.0160
 1259SOL    HW215414   2.923   1.325   9.589 -2.0854  3.4391  0.6428
 1260SOL     OW15415   0.702   4.117   4.817 -0.8044 -0.1851 -0.1937
 1260SOL    HW115416   0.639   4.060   4.861 -0.1019 -0.2146  0.7755
 1260SOL    HW215417   0.765   4.055   4.780  0.4022 -0.0356  1.6226
 1261SOL     OW15418   1.071   0.449  10.976 -0.3437  0.0137  0.6233
 1261SOL    HW115419   0.979   0.474  10.971 -0.2847  0.5090  2.0924
 1261SOL    HW215420   1.084   0.405  10.892 -1.9431 -0.3682  0.5858
 1262SOL     OW15421   4.327   3.906   6.379 -0.1061 -0.0249  0.0655
 1262SOL    HW115422   4.277   3.825   6.390 -1.6576  0.8471 -0.6342
 1262SOL    HW215423   4.303   3.943   6.295 -0.2894  1.8238  0.9252
 1263SOL     OW15424   4.468   3.764   4.120  0.8731  0.1369  0.2476
 1263SOL    HW115425   4.545   3.815   4.095  0.9627  1.3162  3.0218
 1263SOL    HW215426   4.509   3.685   4.155 -0.3382 -0.2002  0.8782
 1264SOL     OW15427   2.122   2.858   3.270 -0.2324  0.1563 -0.3284
 1264SOL    HW115428   2.123   2.779   3.325  2.2425  0.2284 -0.2719
 1264SOL    HW215429   2.109   2.827   3.181 -0.5361  1.1645 -0.6360
 1265SOL     OW15430   4.285   2.834  11.710  0.3688 -0.9408  0.2853
 1265SOL    HW115431   4.281   2.924  11.744 -0.7703 -1.9644  2.8586
 1265SOL    HW215432   4.236   2.779  11.771 -1.7803 -0.6128 -1.1343
 1266SOL     OW15433   1.181   2.212   7.216  0.4178 -0.5402  1.0239
 1266SOL    HW115434   1.223   2.295   7.197  0.9253 -1.0081  0.0686
 1266SOL    HW215435   1.167   2.172   7.130  0.4068 -0.1456  0.8465
 1267SOL     OW15436   2.649   1.068   7.720 -0.5320 -0.1436  0.9407
 1267SOL    HW115437   2.734   1.074   7.764 -1.5320 -2.2799  3.1153
 1267SOL    HW215438   2.608   1.136   7.773  0.2246  0.4696  0.7503
 1268SOL     OW15439   2.702   3.988   6.054 -0.2969 -0.4623  0.2581
 1268SOL    HW115440   2.723   3.895   6.041  0.3088 -0.2990  0.0361
 1268SOL    HW215441   2.614   3.993   6.018  1.6884  2.8664 -4.2490
 1269SOL     OW15442   4.343   3.152   4.606 -0.6726  0.0330 -0.2809
 1269SOL    HW115443   4.289   3.094   4.553 -0.4714 -0.2175 -0.2102
 1269SOL    HW215444   4.345   3.101   4.687 -1.5799  1.0707  0.4027
 1270SOL     OW15445   0.766   0.611   5.057  0.1624  0.7653 -0.0436
 1270SOL    HW115446   0.809   0.557   4.991 -0.6579 -0.6897  0.6216
 1270SOL    HW215447   0.681   0.570   5.074  0.1758  0.7469 -0.0216
 1271SOL     OW15448   0.553   2.879   1.688  0.7836 -0.0914 -0.0984
 1271SOL    HW115449   0.616   2.894   1.617 -0.2627  0.7934 -0.8443
 1271SOL    HW215450   0.569   2.945   1.756  0.2170 -1.4589  1.3424
 1272SOL     OW15451   1.310   0.539  14.122  0.5529  0.4935 -0.1058
 1272SOL    HW115452   1.352   0.625  14.128  1.6090  0.2266 -3.2780
 1272SOL    HW215453   1.233   0.564  14.072  0.6507 -0.5527 -0.7774
 1273SOL     OW15454   1.934   0.359   1.018  0.2683 -0.2358  0.0335
 1273SOL    HW115455   1.956   0.373   1.110  1.9429  0.0434 -0.3925
 1273SOL    HW215456   1.948   0.451   0.995  1.3624 -0.8612 -1.7969
 1274SOL     OW15457   0.637   2.336   3.656  0.3178  0.2875  0.1730
 1274SOL    HW115458   0.656   2.303   3.743  0.2824 -1.4366 -0.4827
 1274SOL    HW215459   0.712   2.392   3.638  1.7070 -2.0029 -1.1785
 1275SOL     OW15460   2.562   1.621   8.582  0.1641 -0.0026  0.1142
 1275SOL    HW115461   2.579   1.713   8.561  2.7866 -0.3277  0.7247
 1275SOL    HW215462   2.528   1.635   8.670  1.2129 -0.3314  0.5765
 1276SOL     OW15463   3.339   4.262   9.315  0.4601 -0.1820 -0.0783
 1276SOL    HW115464   3.397   4.254   9.240  1.1873  2.3123  0.2003
 1276SOL    HW215465   3.392   4.220   9.383 -3.0960  0.1169  2.8823
 1277SOL     OW15466   4.735   1.662   2.201  0.3884  0.4019 -0.0387
 1277SOL    HW115467   0.006   1.582   2.253  0.8615 -0.8395 -2.0043
 1277SOL    HW215468   4.641   1.658   2.185  0.4711  0.5414 -0.5739
 1278SOL     OW15469   2.979   2.620   5.340  0.2798 -0.1641  0.0186
 1278SOL    HW115470   2.972   2.525   5.340  0.1419 -0.1535  1.9865
 1278SOL    HW215471   3.036   2.640   5.265  1.0574  1.2838  0.9988
 1279SOL     OW15472   2.890   2.533   9.340 -0.0989 -0.0977 -0.0441
 1279SOL    HW115473   2.796   2.530   9.361 -0.0513  1.9062  0.4288
 1279SOL    HW215474   2.916   2.468   9.406  2.2169  0.1912 -0.6853
 1280SOL     OW15475   2.222   0.458   1.822 -0.3300  0.5631 -0.3044
 1280SOL    HW115476   2.230   0.553   1.810  0.0765  0.7508  1.4141
 1280SOL    HW215477   2.131   0.464   1.850 -0.2834 -2.2100  0.3426
 1281SOL     OW15478   3.225   2.222   2.067  0.6156  0.9499 -0.1728
 1281SOL    HW115479   3.163   2.192   2.000  0.8715  1.3536 -0.5875
 1281SOL    HW215480   3.172   2.292   2.106 -0.6113  0.6193 -1.2044
 1282SOL     OW15481   4.170   0.029   9.137 -0.1115 -0.2666  0.2839
 1282SOL    HW115482   4.171   0.039   9.232  0.9978  2.3120 -0.0050
 1282SOL    HW215483   4.170   4.669   9.128  1.3152 -0.0470 -2.0428
 1283SOL     OW15484   2.696   4.441   4.027 -0.0292 -0.4188  0.3234
 1283SOL    HW115485   2.669   4.478   4.111  1.7272 -0.8823  1.0936
 1283SOL    HW215486   2.791   4.454   4.022 -0.3444  0.8505 -2.4085
 1284SOL     OW15487   2.550   0.524   2.432 -0.2149  0.1749 -0.0925
 1284SOL    HW115488   2.498   0.590   2.477 -2.9117 -2.2775  0.4468
 1284SOL    HW215489   2.559   0.468   2.509  2.2325  3.3527  1.8936
 1285SOL     OW15490   2.544   2.099   2.786 -0.0361 -0.3473  0.0936
 1285SOL    HW115491   2.623   2.050   2.810 -1.0259 -1.4096  1.1773
 1285SOL    HW215492   2.545   2.091   2.691  2.2941  0.6138  0.0512
 1286SOL     OW15493   4.135   2.937   5.697 -0.1030 -0.5212 -0.3149
 1286SOL    HW115494   4.097   2.855   5.666 -0.2503  0.2308 -2.1564
 1286SOL    HW215495   4.192   2.899   5.764  1.0524 -2.0563 -2.1739
 1287SOL     OW15496   4.475   1.647   3.860 -0.0115  0.5973  0.0943
 1287SOL    HW115497   4.487   1.593   3.781 -0.4849  0.7130 -0.0576
 1287SOL    HW215498   4.433   1.584   3.918 -0.4180  0.7083 -0.0820
 1288SOL     OW15499   1.307   3.297   5.170 -0.1161  0.1676 -0.5131
 1288SOL    HW115500   1.358   3.317   5.092 -0.9691 -5.3780 -2.4589
 1288SOL    HW215501   1.262   3.382   5.173 -2.0860 -0.9696  2.7983
 1289SOL     OW15502   1.381   3.869   7.514  0.6501  0.1417  0.3870
 1289SOL    HW115503   1.307   3.899   7.567  1.6845  4.2132 -0.4423
 1289SOL    HW215504   1.344   3.874   7.426 -0.2122  0.8779  0.7947
 1290SOL     OW15505   2.600   2.405   9.953  0.6834 -0.8353  0.3263
 1290SOL    HW115506   2.539   2.376   9.886  2.1691 -1.3239 -0.8317
 1290SOL    HW215507   2.551   2.397  10.035 -0.0174  0.4592  0.0195
 1291SOL     OW15508   4.725   2.913   7.787 -0.4044  0.1026  0.5849
 1291SOL    HW115509   0.001   2.843   7.724 -0.8631  1.4507 -0.9864
 1291SOL    HW215510   4.630   2.912   7.802 -0.3965 -1.9476  0.4247
 1292SOL     OW15511   2.409   1.463  10.994  0.0067 -0.1898  0.6659
 1292SOL    HW115512   2.414   1.381  10.944 -0.1534 -0.7009  1.4832
 1292SOL    HW215513   2.444   1.437  11.080 -3.5163 -2.8499  1.3119
 1293SOL     OW15514   0.302   1.771  14.569  0.0640 -0.0195 -0.9872
 1293SOL    HW115515   0.381   1.783  14.516  1.2260 -2.8574  0.1226
 1293SOL    HW215516   0.313   1.850  14.622  0.6565 -0.4508 -0.4609
 1294SOL     OW15517   2.390   2.077   3.024  0.1777  0.2647  0.3492
 1294SOL    HW115518   2.455   2.060   3.092 -0.4873 -0.8118  0.7209
 1294SOL    HW215519   2.446   2.076   2.947 -1.6511  0.7687 -0.9964
 1295SOL     OW15520   2.851   4.028   5.363  0.6517 -0.4955 -0.4639
 1295SOL    HW115521   2.812   3.961   5.420  0.8036 -1.3378 -1.3660
 1295SOL    HW215522   2.783   4.093   5.382  1.4248 -0.5048  2.4863
 1296SOL     OW15523   0.283   3.253   2.352 -0.3091  0.2766 -0.9733
 1296SOL    HW115524   0.209   3.258   2.414  0.4777  0.0857 -0.0182
 1296SOL    HW215525   0.259   3.176   2.301  0.1589 -0.6301  0.1697
 1297SOL     OW15526   3.482   0.996   7.277 -0.1158 -0.2608 -0.2591
 1297SOL    HW115527   3.512   0.906   7.285 -0.3470 -0.3381 -0.2546
 1297SOL    HW215528   3.528   1.024   7.197  0.3401  0.5769  0.2976
 1298SOL     OW15529   4.663   4.194   4.903 -0.4668 -0.1727 -0.5589
 1298SOL    HW115530   4.650   4.264   4.966  0.9795 -0.0183 -0.4295
 1298SOL    HW215531   4.734   4.229   4.849 -0.4152 -0.7846 -0.8887
 1299SOL     OW15532   1.805   1.686   2.117 -0.1127 -0.2429  0.6816
 1299SOL    HW115533   1.852   1.723   2.192  0.6315  0.4506 -0.1202
 1299SOL    HW215534   1.880   1.638   2.083  0.4855  1.3017 -0.1927
 1300SOL     OW15535   3.682   2.677   5.803  0.0138 -0.0884  0.1879
 1300SOL    HW115536   3.660   2.770   5.797  3.6900  0.9089  2.2459
 1300SOL    HW215537   3.597   2.638   5.822  1.0556 -1.8803  1.1040
 1301SOL     OW15538   3.629   1.142   3.731  0.4176 -0.0485 -0.1618
 1301SOL    HW115539   3.648   1.216   3.673  0.0856  1.6992  1.9650
 1301SOL    HW215540   3.680   1.070   3.694  0.6958  0.1261 -0.1186
 1302SOL     OW15541   0.155   0.418   7.499  0.1991  0.3036  0.4309
 1302SOL    HW115542   0.102   0.338   7.508  0.0518  0.1613 -1.7789
 1302SOL    HW215543   0.180   0.420   7.407 -0.0480 -0.0140  0.3557
 1303SOL     OW15544   0.110   1.003   4.207  0.1745  0.0612  0.3278
 1303SOL    HW115545   0.177   1.069   4.222 -0.8515  0.9596  0.9381
 1303SOL    HW215546   0.119   0.976   4.115  1.6245  1.0012  0.2078
 1304SOL     OW15547   3.635   4.130   4.613 -0.2098 -0.2204  0.0153
 1304SOL    HW115548   3.541   4.128   4.595  0.3623 -1.2171 -2.9443
 1304SOL    HW215549   3.647   4.188   4.688 -1.0710  1.3688 -1.0881
 1305SOL     OW15550   1.644   2.819   0.093  0.8822 -0.0685 -0.7776
 1305SOL    HW115551   1.560   2.775   0.086  0.0574  1.0015  2.2344
 1305SOL    HW215552   1.612   2.907   0.075  1.3705 -0.4010 -3.1680
 1306SOL     OW15553   3.976   0.658   5.711  0.3289 -0.0814  0.2204
 1306SOL    HW115554   4.014   0.739   5.746 -0.3497 -0.2285  1.3207
 1306SOL    HW215555   3.886   0.663   5.743 -0.1063 -0.4247 -0.9433
 1307SOL     OW15556   3.004   4.418   2.717 -0.0111 -0.0463  0.3288
 1307SOL    HW115557   2.967   4.392   2.632 -1.4598 -0.2621  1.0310
 1307SOL    HW215558   2.969   4.507   2.722  2.3486  0.8829  0.5111
 1308SOL     OW15559   3.482   0.416   8.894 -0.5215 -0.3397 -0.0537
 1308SOL    HW115560   3.461   0.355   8.965 -2.2462 -0.6065 -0.7882
 1308SOL    HW215561   3.566   0.455   8.920 -1.0548  1.5658 -1.1371
 1309SOL     OW15562   2.273   1.269  12.488 -0.6614  0.1158  0.3319
 1309SOL    HW115563   2.367   1.283  12.479 -0.4535 -0.2143  1.8576
 1309SOL    HW215564   2.265   1.182  12.450 -0.9292  0.6686 -0.8522
 1310SOL     OW15565   0.592   3.163  13.236 -0.0113 -0.2840 -0.5847
 1310SOL    HW115566   0.583   3.111  13.156 -0.2899 -1.7954  0.4295
 1310SOL    HW215567   0.673   3.211  13.216 -0.4237 -0.1879 -2.0297
 1311SOL     OW15568   2.529   0.537   1.971  0.1847  0.0607  0.5977
 1311SOL    HW115569   2.486   0.467   1.922  0.4994 -0.8031  1.5288
 1311SOL    HW215570   2.597   0.562   1.908 -0.7809 -0.2505 -0.5505
 1312SOL     OW15571   0.381   2.522   5.915 -0.0013  0.3709  0.2161
 1312SOL    HW115572   0.359   2.607   5.876  1.2600  0.3358 -0.5625
 1312SOL    HW215573   0.373   2.474   5.833  0.7472  0.9624 -0.2036
 1313SOL     OW15574   2.111   0.547   6.546  0.9619  0.6911 -0.2083
 1313SOL    HW115575   2.075   0.631   6.516  0.7988  0.1506 -1.5229
 1313SOL    HW215576   2.070   0.487   6.485 -0.5149  1.1151  0.3668
 1314SOL     OW15577   1.002   3.301  17.056 -0.4060 -0.2740 -0.1519
 1314SOL    HW115578   1.034   3.264  17.139 -1.6409 -1.7681 -0.3309
 1314SOL    HW215579   1.087   3.291  17.013 -0.3817  0.4808 -0.2681
 1315SOL     OW15580   0.335   3.852   5.249 -0.2754 -0.4162  0.3771
 1315SOL    HW115581   0.412   3.845   5.192  1.4028  0.1115  2.5698
 1315SOL    HW215582   0.375   3.828   5.333  1.0303 -0.1316 -0.1671
 1316SOL     OW15583   2.536   0.600   5.608  0.4658  0.2464  0.0530
 1316SOL    HW115584   2.478   0.527   5.629 -0.9168  1.6892  1.2711
 1316SOL    HW215585   2.511   0.608   5.515  1.2012  4.0135  0.2036
 1317SOL     OW15586   1.628   1.298  14.450  0.0484 -0.0902  0.0234
 1317SOL    HW115587   1.691   1.227  14.466 -1.1265 -1.5072 -1.6095
 1317SOL    HW215588   1.655   1.362  14.515 -0.8102 -0.0840  0.3750
 1318SOL     OW15589   0.923   2.032   1.948 -0.1536 -0.0381  0.1106
 1318SOL    HW115590   0.838   1.991   1.932  0.2463 -1.4413  1.6568
 1318SOL    HW215591   0.934   2.048   2.042  2.3356 -0.9783 -0.0064
 1319SOL     OW15592   3.342   4.470  15.700 -0.3271 -0.3690 -0.1604
 1319SOL    HW115593   3.422   4.475  15.752  0.2878 -2.3860 -0.9171
 1319SOL    HW215594   3.373   4.438  15.615  0.5637 -0.0040  0.0214
 1320SOL     OW15595   2.209   4.019  12.884 -0.0977 -0.9812 -0.3941
 1320SOL    HW115596   2.251   4.040  12.800 -0.6418 -2.9643 -1.1569
 1320SOL    HW215597   2.265   3.949  12.918 -1.8658 -1.2954  1.8320
 1321SOL     OW15598   1.928   2.293   6.496  0.4476 -0.9585 -0.0799
 1321SOL    HW115599   1.885   2.369   6.534  3.6002  1.5074 -1.4818
 1321SOL    HW215600   1.857   2.238   6.462  0.0022  0.0937 -0.8544
 1322SOL     OW15601   3.314   0.138   1.532  0.7252 -0.4405 -0.1935
 1322SOL    HW115602   3.311   0.222   1.487 -1.9798 -0.2010  0.4571
 1322SOL    HW215603   3.303   0.163   1.623  0.1742 -0.4285 -0.2656
 1323SOL     OW15604   0.917   2.257   3.420 -0.8705  0.2464 -0.7988
 1323SOL    HW115605   0.990   2.308   3.454 -0.9592 -0.6610  0.7435
 1323SOL    HW215606   0.888   2.207   3.496 -0.1888  1.3591  0.1820
 1324SOL     OW15607   1.916   2.190   6.034 -0.4803 -0.0928 -0.1455
 1324SOL    HW115608   1.950   2.260   5.979 -1.4509  1.4152  1.1501
 1324SOL    HW215609   1.829   2.220   6.062 -0.9096 -1.8038  0.3508
 1325SOL     OW15610   1.367   0.337   2.122 -0.0608  0.2268 -0.2057
 1325SOL    HW115611   1.313   0.262   2.098 -0.2204  1.1515 -2.6907
 1325SOL    HW215612   1.306   0.396   2.167  0.6806  0.0723  1.0224
 1326SOL     OW15613   3.590   2.077   5.460  0.3287 -0.5117  0.6850
 1326SOL    HW115614   3.573   2.083   5.366 -1.7954 -2.1935  0.9500
 1326SOL    HW215615   3.592   1.981   5.469 -0.0588 -0.7532 -1.9591
 1327SOL     OW15616   4.578   2.294   3.616 -0.3525 -0.3045  0.1132
 1327SOL    HW115617   4.652   2.242   3.646 -0.2632 -0.9210 -1.1587
 1327SOL    HW215618   4.505   2.259   3.667 -0.1256 -0.5367  0.2745
 1328SOL     OW15619   4.466   2.906   0.430 -0.5475  0.5331  0.1612
 1328SOL    HW115620   4.541   2.964   0.413 -2.8304  3.3936 -0.0789
 1328SOL    HW215621   4.513   2.825   0.454 -0.1089  1.0939  1.1855
 1329SOL     OW15622   2.595   0.130   1.817 -0.3271 -0.1960  0.2293
 1329SOL    HW115623   2.511   0.165   1.847 -0.6641 -0.1838 -0.7378
 1329SOL    HW215624   2.652   0.165   1.886 -1.3202  0.1777  0.8551
 1330SOL     OW15625   0.591   4.717   0.949  0.3824  0.5955  0.0709
 1330SOL    HW115626   0.515   0.006   1.002 -0.2747 -0.3717 -0.4201
 1330SOL    HW215627   0.563   0.038   0.877  0.3176  1.0362  0.4401
 1331SOL     OW15628   2.502   1.229   3.012  0.5277  0.1685  0.0304
 1331SOL    HW115629   2.488   1.178   2.932  0.1724 -0.6936  0.6281
 1331SOL    HW215630   2.495   1.318   2.979  1.7812  0.1966 -0.1402
 1332SOL     OW15631   4.302   3.129   2.582 -0.7613  0.0109 -0.3555
 1332SOL    HW115632   4.224   3.126   2.638  0.2277  3.5443  1.2322
 1332SOL    HW215633   4.261   3.091   2.505  0.3183  2.6954 -2.2494
 1333SOL     OW15634   0.073   2.211   2.418  0.1753 -0.0089 -0.1965
 1333SOL    HW115635   0.077   2.141   2.483  0.5447 -0.8487 -1.1277
 1333SOL    HW215636   0.105   2.164   2.341 -0.6845 -2.5213  0.9729
 1334SOL     OW15637   3.876   0.784   0.822 -0.8212 -0.7578  0.7561
 1334SOL    HW115638   3.952   0.783   0.881  0.4301 -0.5101 -0.8355
 1334SOL    HW215639   3.802   0.776   0.883 -1.8558 -3.4504 -0.8817
 1335SOL     OW15640   4.600   1.316  14.177  0.7237 -0.1526 -0.4447
 1335SOL    HW115641   4.690   1.285  14.184  1.1645  0.5123 -2.9775
 1335SOL    HW215642   4.587   1.344  14.086  1.1034 -0.2634 -0.5310
 1336SOL     OW15643   1.676   2.249   6.151  0.2674  0.8703  0.5108
 1336SOL    HW115644   1.604   2.232   6.091  2.4607 -1.4233 -1.4646
 1336SOL    HW215645   1.636   2.322   6.199 -1.9985  0.0868 -0.2124
 1337SOL     OW15646   1.587   1.701   9.568 -0.6944 -0.1432 -0.3223
 1337SOL    HW115647   1.510   1.656   9.535 -1.0001  0.4293 -0.3862
 1337SOL    HW215648   1.635   1.634   9.617 -0.8382 -1.8678 -2.5153
 1338SOL     OW15649   3.049   2.398   2.164  0.6532 -0.5316  0.5270
 1338SOL    HW115650   3.055   2.473   2.223  1.9089  0.1861 -0.5152
 1338SOL    HW215651   2.957   2.398   2.137  0.4274 -2.2193  1.3245
 1339SOL     OW15652   1.700   4.272   3.545 -0.0644  0.3311 -0.1841
 1339SOL    HW115653   1.652   4.221   3.611  0.1347  0.7914  0.3168
 1339SOL    HW215654   1.772   4.315   3.590  1.1381 -0.9439 -0.8894
 1340SOL     OW15655   0.165   3.822   2.624 -0.1297 -0.3174  0.2719
 1340SOL    HW115656   0.162   3.830   2.528 -1.8007  0.0013  0.3397
 1340SOL    HW215657   0.246   3.866   2.647 -1.2890  1.8466  0.2469
 1341SOL     OW15658   0.372   2.255   1.075  0.1785  0.8905 -0.3986
 1341SOL    HW115659   0.331   2.168   1.074 -0.8711  1.3823  0.4400
 1341SOL    HW215660   0.463   2.228   1.060 -1.1635 -1.7436 -3.9176
 1342SOL     OW15661   4.340   0.638   4.095 -0.3848  0.5074 -0.2371
 1342SOL    HW115662   4.427   0.657   4.061 -0.4554 -1.5821 -1.5952
 1342SOL    HW215663   4.291   0.591   4.027  0.4193  2.2992 -2.0539
 1343SOL     OW15664   3.708   0.545   8.937 -0.0457 -0.0486 -0.0964
 1343SOL    HW115665   3.719   0.614   8.872  0.9792  1.5328  1.7631
 1343SOL    HW215666   3.774   0.485   8.902  0.8969  1.0179 -0.1502
 1344SOL     OW15667   4.420   2.385   4.708 -0.1675 -0.5497  0.2014
 1344SOL    HW115668   4.335   2.419   4.736  0.3589  0.6892  0.2943
 1344SOL    HW215669   4.420   2.309   4.768  1.5456 -0.2253  0.6024
 1345SOL     OW15670   0.457   2.633   1.617  0.3497  0.3713  0.5012
 1345SOL    HW115671   0.465   2.728   1.627  2.5469  0.2697 -0.3102
 1345SOL    HW215672   0.392   2.616   1.549  1.2313  0.6180 -0.4006
 1346SOL     OW15673   4.230   4.208  15.352  0.3317  0.1542 -0.0210
 1346SOL    HW115674   4.309   4.156  15.341  0.9762  0.1118  4.7421
 1346SOL    HW215675   4.194   4.175  15.434 -2.3627 -0.0171 -1.2492
 1347SOL     OW15676   0.740   0.697   6.480 -0.0725  0.8134  0.3032
 1347SOL    HW115677   0.833   0.718   6.473 -0.5664  1.7724 -3.2792
 1347SOL    HW215678   0.707   0.762   6.541 -1.1342 -0.7385  1.3774
 1348SOL     OW15679   3.278   1.557   2.788  0.3274  0.1398  0.1967
 1348SOL    HW115680   3.290   1.651   2.780 -1.5960  0.5691  2.2586
 1348SOL    HW215681   3.275   1.536   2.694  0.6439  0.1755  0.1815
 1349SOL     OW15682   1.067   3.845   8.252 -0.3680 -0.8168 -0.0566
 1349SOL    HW115683   1.038   3.759   8.283  0.5508 -0.7944  0.8460
 1349SOL    HW215684   1.058   3.828   8.158  2.9265  1.9030 -0.8242
 1350SOL     OW15685   4.138   0.797   7.112 -0.3205 -0.4993  0.1649
 1350SOL    HW115686   4.163   0.759   7.196  0.0918 -1.6928 -0.5089
 1350SOL    HW215687   4.081   0.728   7.077 -0.9278  0.0714  0.0138
 1351SOL     OW15688   2.538   2.718   3.184  0.4002  0.2605 -0.2379
 1351SOL    HW115689   2.520   2.753   3.271  0.9455  0.3768 -0.1769
 1351SOL    HW215690   2.477   2.645   3.170 -0.6245  0.6734  2.1623
 1352SOL     OW15691   3.127   2.541   2.622  0.7100 -0.0248 -0.0853
 1352SOL    HW115692   3.177   2.620   2.641 -0.9273  0.7807  0.8760
 1352SOL    HW215693   3.076   2.545   2.703 -0.1710 -0.1934 -0.6227
 1353SOL     OW15694   2.344   3.798   6.520  0.3451 -0.7472  0.0911
 1353SOL    HW115695   2.261   3.750   6.523  1.2825 -2.3775 -0.2408
 1353SOL    HW215696   2.396   3.746   6.460  2.5760 -0.0375  1.4211
 1354SOL     OW15697   1.896   0.673   7.492 -0.0374  0.4638  0.1267
 1354SOL    HW115698   1.967   0.653   7.554  0.5052  0.9278 -0.3479
 1354SOL    HW215699   1.920   0.765   7.477 -1.0565  0.9011  1.1650
 1355SOL     OW15700   2.142   0.233   7.939  0.1557 -0.3209 -0.6556
 1355SOL    HW115701   2.200   0.162   7.910  1.4337  1.0631 -1.4899
 1355SOL    HW215702   2.203   0.278   7.997 -0.2499  0.0180 -0.4991
 1356SOL     OW15703   1.385   2.166   5.003  0.3316  0.1136 -0.5910
 1356SOL    HW115704   1.381   2.070   5.008  0.1531  0.2944  3.1802
 1356SOL    HW215705   1.318   2.178   4.937 -1.1384  0.9893  1.0619
 1357SOL     OW15706   2.476   0.985   9.363  0.2372  0.1777  0.1894
 1357SOL    HW115707   2.571   0.979   9.350  0.3900 -0.1062  1.4520
 1357SOL    HW215708   2.439   0.905   9.326 -0.4570  0.7866 -0.4277
 1358SOL     OW15709   1.762   2.493   4.093  0.0974  0.4785 -0.5712
 1358SOL    HW115710   1.750   2.585   4.070 -2.6032  0.4617  0.8194
 1358SOL    HW215711   1.678   2.474   4.134 -0.1062 -0.3660 -1.3941
 1359SOL     OW15712   0.324   3.894   3.973  0.1193 -0.1992  0.5312
 1359SOL    HW115713   0.357   3.942   4.048  3.5387 -2.1039  0.2444
 1359SOL    HW215714   0.311   3.803   3.999  1.4015 -0.4633  0.2758
 1360SOL     OW15715   1.618   4.204   1.587  0.1183  0.6135 -0.1150
 1360SOL    HW115716   1.527   4.218   1.559 -0.0453 -0.1460  0.0426
 1360SOL    HW215717   1.608   4.119   1.630  2.1567  0.5643  0.2320
 1361SOL     OW15718   3.475   0.995   8.413 -0.2622  0.8113  0.1819
 1361SOL    HW115719   3.510   0.919   8.366 -1.7331  0.6039 -0.5570
 1361SOL    HW215720   3.386   0.980   8.444 -0.3960 -0.5409 -0.8932
 1362SOL     OW15721   4.389   2.521  17.575  0.0641 -0.0880  0.2311
 1362SOL    HW115722   4.345   2.548  17.656 -1.1239  0.2511 -0.5206
 1362SOL    HW215723   4.328   2.474  17.520 -0.8730  0.7841  0.5142
 1363SOL     OW15724   1.722   0.069   6.198 -0.6242  0.3879  1.1987
 1363SOL    HW115725   1.690   0.003   6.259 -2.0152 -1.9970 -2.0675
 1363SOL    HW215726   1.684   0.045   6.113 -0.1722  1.0227  0.8200
 1364SOL     OW15727   4.248   0.511   6.749  0.1531  0.2909  0.8897
 1364SOL    HW115728   4.230   0.493   6.841 -3.5251 -0.5509  0.0092
 1364SOL    HW215729   4.322   0.454   6.729  1.0447  1.6509  0.3436
 1365SOL     OW15730   2.288   0.003  16.333  0.1252  0.0416 -0.5169
 1365SOL    HW115731   2.376   0.011  16.295  0.4097  0.0478  0.1468
 1365SOL    HW215732   2.256   0.092  16.347  1.0057  0.0624  1.3225
 1366SOL     OW15733   3.057   2.607  11.715  0.3341  0.7513 -0.0133
 1366SOL    HW115734   2.989   2.581  11.777 -0.8527  0.9632 -1.2280
 1366SOL    HW215735   3.123   2.662  11.757  0.5348  0.1165  0.5011
 1367SOL     OW15736   0.345   2.306   2.758 -0.0756  0.3492  1.0460
 1367SOL    HW115737   0.284   2.337   2.691  0.6642  0.1680  0.2885
 1367SOL    HW215738   0.291   2.249   2.813 -0.6008 -0.6979 -0.5483
 1368SOL     OW15739   3.035   0.894   8.643  0.2477 -0.4582 -0.0945
 1368SOL    HW115740   2.994   0.954   8.581 -1.3441 -0.8724  0.5376
 1368SOL    HW215741   2.994   0.812   8.614 -1.6799  0.6064 -0.3746
 1369SOL     OW15742   3.567   4.719   8.841  0.4244 -0.0677  0.2092
 1369SOL    HW115743   3.477   0.002   8.867 -0.4814  0.1774 -2.9915
 1369SOL    HW215744   3.556   4.675   8.756  0.2529 -0.5047  0.4565
 1370SOL     OW15745   1.155   4.062   1.732 -0.8281  0.0312  0.1840
 1370SOL    HW115746   1.174   4.035   1.642 -0.9041  2.8869 -0.6780
 1370SOL    HW215747   1.103   4.142   1.724 -1.0676 -0.1388  0.0311
 1371SOL     OW15748   0.739   3.165   7.403  0.2626  0.0927  0.0665
 1371SOL    HW115749   0.791   3.175   7.483 -0.4114  1.9574  0.2821
 1371SOL    HW215750   0.725   3.258   7.385  0.1976 -0.2416 -1.5445
 1372SOL     OW15751   1.241   3.737  11.788  0.5589 -0.1420  0.9148
 1372SOL    HW115752   1.175   3.748  11.719  3.8623  0.6196 -2.1644
 1372SOL    HW215753   1.295   3.815  11.775 -1.8955  0.8608 -3.5910
 1373SOL     OW15754   3.828   3.442   8.394 -0.4267 -0.1699  0.0839
 1373SOL    HW115755   3.822   3.400   8.480  2.8625 -0.2605  0.2449
 1373SOL    HW215756   3.801   3.361   8.349  1.8770  0.7204 -2.9221
 1374SOL     OW15757   4.194   3.645   6.383 -0.2096  0.1634  0.1100
 1374SOL    HW115758   4.117   3.663   6.329 -1.9914 -1.9957  1.9633
 1374SOL    HW215759   4.243   3.576   6.335 -2.3023 -1.3423  0.1524
 1375SOL     OW15760   4.337   3.223   5.122  0.4517  0.5406 -0.0652
 1375SOL    HW115761   4.305   3.313   5.117 -0.8355  0.1211  0.3927
 1375SOL    HW215762   4.388   3.224   5.203  0.2983 -0.9030  0.0434
 1376SOL     OW15763   3.336   1.880   4.410 -0.2516  0.1481  0.4057
 1376SOL    HW115764   3.384   1.887   4.328 -1.1655 -0.1644 -0.1674
 1376SOL    HW215765   3.410   1.845   4.458  1.2159  1.5706 -0.8131
 1377SOL     OW15766   1.211   2.021   4.531  0.4216 -0.8784 -0.2866
 1377SOL    HW115767   1.297   1.984   4.513  1.3303  1.5925 -1.0343
 1377SOL    HW215768   1.156   1.953   4.570  0.2733 -0.6111 -0.0273
 1378SOL     OW15769   3.848   3.655   2.840 -0.4539  0.4921 -0.6605
 1378SOL    HW115770   3.766   3.670   2.888  0.4170 -0.0112  0.9524
 1378SOL    HW215771   3.866   3.563   2.855 -0.1648  0.9590  1.7577
 1379SOL     OW15772   4.658   2.075  15.903 -0.3080 -0.1431 -0.0928
 1379SOL    HW115773   4.686   2.033  15.822 -0.4362 -1.6242  0.6295
 1379SOL    HW215774   4.665   2.168  15.884  1.6862 -0.2841 -0.0256
 1380SOL     OW15775   4.733   1.965   8.674  0.1192  0.6865 -0.3425
 1380SOL    HW115776   4.655   1.924   8.636  1.0579  1.0458 -2.5986
 1380SOL    HW215777   0.064   1.976   8.606 -1.5514 -0.8215 -2.2190
 1381SOL     OW15778   3.594   2.940  12.264 -0.4456 -0.2582  0.1219
 1381SOL    HW115779   3.521   3.002  12.274 -0.0408  0.0607  1.1853
 1381SOL    HW215780   3.546   2.857  12.265 -0.5118 -0.2261 -0.5055
 1382SOL     OW15781   2.729   0.356   6.465 -0.3631 -0.2783 -0.1120
 1382SOL    HW115782   2.695   0.325   6.381  0.9559 -0.4970 -0.5702
 1382SOL    HW215783   2.660   0.409   6.505  0.3501  0.1470  0.5448
 1383SOL     OW15784   1.842   0.809   3.669  0.0088 -0.5347  0.0311
 1383SOL    HW115785   1.806   0.721   3.672 -0.8222 -0.2363 -1.3453
 1383SOL    HW215786   1.881   0.804   3.756 -1.2338  1.2836  0.6847
 1384SOL     OW15787   4.293   2.738   6.962 -0.1749  0.7769 -0.4917
 1384SOL    HW115788   4.386   2.759   6.972 -0.3525  1.4582 -0.2846
 1384SOL    HW215789   4.255   2.820   6.995  2.6790  1.4189  1.1905
 1385SOL     OW15790   3.056   0.574   9.400 -0.4142 -0.0653 -0.2220
 1385SOL    HW115791   3.058   0.557   9.494 -1.2934 -3.0880 -0.7417
 1385SOL    HW215792   2.963   0.593   9.393 -0.0565  0.9453 -2.4469
 1386SOL     OW15793   0.059   1.655   3.176 -0.2684 -0.4356 -0.7488
 1386SOL    HW115794   4.723   1.618   3.124 -0.6094 -0.8952  0.0505
 1386SOL    HW215795   0.021   1.699   3.251  0.4306 -2.1711  0.6333
 1387SOL     OW15796   2.218   0.449   2.663 -0.4355 -0.5166  0.5670
 1387SOL    HW115797   2.257   0.536   2.676  0.2983 -0.6602 -0.7546
 1387SOL    HW215798   2.145   0.458   2.602 -0.8583  2.0353  1.4401
 1388SOL     OW15799   3.004   2.662   1.954 -0.4442  0.7365  0.3815
 1388SOL    HW115800   3.057   2.738   1.926  1.6027 -1.2151 -1.0701
 1388SOL    HW215801   2.996   2.687   2.046  0.5979  0.5524  0.5226
 1389SOL     OW15802   1.387   3.401  12.172 -0.2747 -0.3318 -0.3655
 1389SOL    HW115803   1.413   3.446  12.253 -0.7186  1.7243 -1.3581
 1389SOL    HW215804   1.296   3.383  12.197 -0.9344  0.6271 -2.0923
 1390SOL     OW15805   2.751   3.127  17.381  0.1655 -0.4782 -0.6838
 1390SOL    HW115806   2.713   3.210  17.409  1.5607 -0.1282  0.2116
 1390SOL    HW215807   2.817   3.112  17.449  0.7428 -0.5890 -1.2673
 1391SOL     OW15808   2.828   2.782   2.442 -0.2540 -0.0288  1.0222
 1391SOL    HW115809   2.782   2.719   2.497 -0.2509 -1.3152 -0.4180
 1391SOL    HW215810   2.756   2.831   2.404 -1.3599 -1.8938  0.7024
 1392SOL     OW15811   3.983   3.887  17.539  0.0155  0.8033  0.2678
 1392SOL    HW115812   3.934   3.946  17.596 -1.2714 -0.8545  0.8897
 1392SOL    HW215813   4.064   3.936  17.525 -0.0097  0.8326  0.2256
 1393SOL     OW15814   3.075   4.145   8.488 -0.0950  0.4169  0.5016
 1393SOL    HW115815   3.081   4.061   8.534  1.7164  1.8579  2.9288
 1393SOL    HW215816   3.057   4.210   8.555 -0.5030 -0.9931  1.7782
 1394SOL     OW15817   1.085   0.433   3.623 -0.2939  0.8903  0.0873
 1394SOL    HW115818   1.064   0.343   3.649 -1.2912  1.1757  0.2938
 1394SOL    HW215819   1.178   0.434   3.643 -0.4300 -0.2155  0.7608
 1395SOL     OW15820   3.704   3.296   7.857 -0.2739  0.1764  0.1114
 1395SOL    HW115821   3.657   3.220   7.891 -0.6759  0.8768  1.1097
 1395SOL    HW215822   3.687   3.358   7.929  0.4730 -0.4735  0.8482
 1396SOL     OW15823   3.164   1.574  11.454  0.3439  0.6868 -0.4021
 1396SOL    HW115824   3.142   1.500  11.398 -0.5257  0.4852  0.2063
 1396SOL    HW215825   3.086   1.630  11.449 -0.9801 -1.0099  1.5003
 1397SOL     OW15826   0.093   3.694   4.510 -0.1180  0.2803 -0.0162
 1397SOL    HW115827   4.734   3.706   4.498  0.2233 -0.0586 -3.2873
 1397SOL    HW215828   0.100   3.709   4.604 -1.1761 -1.4158  0.3207
 1398SOL     OW15829   0.766   4.345   1.524 -0.4898  0.3030 -0.1111
 1398SOL    HW115830   0.706   4.294   1.577 -0.9393 -0.6756 -1.5801
 1398SOL    HW215831   0.716   4.367   1.445  0.3812  2.5676 -0.0416
 1399SOL     OW15832   2.404   0.320   4.918  0.2395  0.5238  0.2117
 1399SOL    HW115833   2.444   0.262   4.853  1.3577  1.6204 -0.0734
 1399SOL    HW215834   2.452   0.402   4.909 -0.6183  1.0490  0.3857
 1400SOL     OW15835   1.696   0.205   0.240  0.1341 -0.4927  0.1934
 1400SOL    HW115836   1.606   0.219   0.270  1.0918  0.8784  2.4039
 1400SOL    HW215837   1.703   0.110   0.248 -0.5308 -0.4420  1.4342
 1401SOL     OW15838   3.594   0.437   2.815  0.0717  0.2516  0.6123
 1401SOL    HW115839   3.622   0.442   2.907  1.0405  3.4259  0.1218
 1401SOL    HW215840   3.613   0.520   2.771 -1.8611  1.2302  1.5916
 1402SOL     OW15841   0.100   2.170   7.089  0.0917 -0.0560  0.0292
 1402SOL    HW115842   0.016   2.140   7.054  1.3261 -1.5913 -1.6401
 1402SOL    HW215843   0.145   2.089   7.116 -2.1421 -0.8662  1.3244
 1403SOL     OW15844   3.747   0.709  11.910 -0.8249  0.4253 -0.1542
 1403SOL    HW115845   3.822   0.708  11.969 -0.4790  1.4736 -0.5768
 1403SOL    HW215846   3.714   0.619  11.914  2.4716 -0.8597 -1.7754
 1404SOL     OW15847   0.622   2.651   7.098  0.1885 -0.0190  0.0031
 1404SOL    HW115848   0.662   2.679   7.016 -0.2817  0.2327 -0.1403
 1404SOL    HW215849   0.629   2.556   7.102  2.5452  0.0538 -2.4862
 1405SOL     OW15850   0.316   2.840   0.449 -0.0532  0.2498 -0.5402
 1405SOL    HW115851   0.246   2.803   0.503  0.0013 -1.6852 -1.8024
 1405SOL    HW215852   0.262   2.841   0.370  0.5499  2.5114 -0.9326
 1406SOL     OW15853   0.345   4.326   7.401  0.6613 -0.3939  0.4056
 1406SOL    HW115854   0.356   4.355   7.492 -2.9089  3.0960 -0.2751
 1406SOL    HW215855   0.387   4.240   7.402  1.4859  0.0367  2.0106
 1407SOL     OW15856   2.934   2.685  14.442  0.2787  0.1842  0.1453
 1407SOL    HW115857   2.863   2.645  14.391 -0.4984  1.8899 -0.1198
 1407SOL    HW215858   2.969   2.745  14.376  0.8202  1.0377  1.2178
 1408SOL     OW15859   3.394   0.815   6.339 -0.4858 -0.2683  0.0284
 1408SOL    HW115860   3.331   0.810   6.267  0.1006  1.9596 -0.6321
 1408SOL    HW215861   3.459   0.873   6.300 -0.4474 -1.2774 -1.4023
 1409SOL     OW15862   3.883   3.687   2.550  0.2075 -0.1637  0.4188
 1409SOL    HW115863   3.933   3.613   2.516 -1.0682 -0.1730 -1.4806
 1409SOL    HW215864   3.857   3.653   2.635 -2.6045 -2.7691 -1.5047
 1410SOL     OW15865   0.355   0.594   1.868  0.3374 -0.1642 -0.6921
 1410SOL    HW115866   0.401   0.644   1.800 -1.3395 -0.2302 -1.8935
 1410SOL    HW215867   0.369   0.651   1.944  1.6824  0.4536 -1.3911
 1411SOL     OW15868   0.868   2.341  11.129 -0.2507 -0.3326 -0.6646
 1411SOL    HW115869   0.786   2.383  11.154 -0.8410 -2.0493  0.2718
 1411SOL    HW215870   0.840   2.250  11.119  0.0615 -0.2573 -2.1794
 1412SOL     OW15871   2.997   1.133  10.802 -0.0130  0.2004  0.4084
 1412SOL    HW115872   3.014   1.137  10.896 -0.9962  1.3356  0.5353
 1412SOL    HW215873   2.902   1.133  10.804 -0.0079 -0.5117  0.3994
 1413SOL     OW15874   2.929   4.733   5.246  0.2171  0.3423 -0.0009
 1413SOL    HW115875   2.873   0.033   5.176  0.2971  0.2284 -0.1236
 1413SOL    HW215876   2.877   4.676   5.302  1.2487 -1.2828 -0.6924
 1414SOL     OW15877   1.156   4.601   5.003  0.4972  0.1962 -0.8320
 1414SOL    HW115878   1.119   4.637   4.922 -1.0565 -1.3104 -0.7919
 1414SOL    HW215879   1.125   4.666   5.065  1.9566  0.9820 -0.9331
 1415SOL     OW15880   0.339   2.482   8.247  0.3880  0.5513 -0.1703
 1415SOL    HW115881   0.270   2.548   8.243 -0.3903 -0.0436  3.5395
 1415SOL    HW215882   0.296   2.414   8.194  0.6361  1.0873 -1.0515
 1416SOL     OW15883   0.348   2.222  15.862 -0.0377 -0.4599 -0.8318
 1416SOL    HW115884   0.297   2.288  15.910 -0.8143 -0.0777 -2.1810
 1416SOL    HW215885   0.438   2.241  15.888  0.3216 -2.9551 -0.3075
 1417SOL     OW15886   4.125   1.961   7.507  0.0396 -0.2008  0.5630
 1417SOL    HW115887   4.180   1.891   7.542  0.4607 -0.4580 -0.6282
 1417SOL    HW215888   4.086   1.927   7.426 -0.0427 -2.1825  1.4237
 1418SOL     OW15889   3.931   4.360   7.468  0.1950  0.3943  0.3703
 1418SOL    HW115890   3.896   4.403   7.390  0.5755 -0.2008 -0.1280
 1418SOL    HW215891   4.021   4.391   7.454 -0.5786  1.4895 -2.0571
 1419SOL     OW15892   1.583   4.028   5.447  0.1299 -0.1699 -0.7068
 1419SOL    HW115893   1.549   3.971   5.516  1.1782 -0.4511 -0.4085
 1419SOL    HW215894   1.499   4.053   5.409  0.7029  2.1172 -0.4611
 1420SOL     OW15895   0.554   4.731   8.336 -0.2923  0.2141  0.1740
 1420SOL    HW115896   0.502   4.650   8.341 -0.7472  0.4990  0.0329
 1420SOL    HW215897   0.587   4.725   8.246 -0.3174  2.1042  0.0502
 1421SOL     OW15898   1.824   2.197   3.151  0.1181  0.6957 -0.2259
 1421SOL    HW115899   1.782   2.124   3.106 -1.1581  1.4320 -0.2334
 1421SOL    HW215900   1.750   2.248   3.183  0.7468 -0.9360  3.7964
 1422SOL     OW15901   1.052   4.297   1.605 -0.4530  0.2962 -0.0668
 1422SOL    HW115902   1.107   4.374   1.614  0.1517 -0.3694  1.8038
 1422SOL    HW215903   0.962   4.329   1.606  0.3248  2.4893 -0.0291
 1423SOL     OW15904   2.423   1.217  12.210 -0.0084  0.8359 -0.1386
 1423SOL    HW115905   2.461   1.190  12.126 -1.3142 -1.5314  0.0516
 1423SOL    HW215906   2.332   1.235  12.186  0.2694  0.4153 -1.5509
 1424SOL     OW15907   2.071   3.532   3.515 -0.5399  0.0817  0.0314
 1424SOL    HW115908   2.029   3.477   3.449 -0.0354 -1.0161  0.6114
 1424SOL    HW215909   2.072   3.473   3.592  1.5214 -0.2805 -0.2586
 1425SOL     OW15910   3.444   2.465   6.190  0.1771 -0.2790 -0.4355
 1425SOL    HW115911   3.503   2.432   6.123  1.8420 -0.7653  1.2778
 1425SOL    HW215912   3.481   2.419   6.266  1.4844  0.0326 -0.8780
 1426SOL     OW15913   0.316   1.733   3.084  0.4631 -0.4004 -0.2097
 1426SOL    HW115914   0.225   1.715   3.107  0.0290 -1.2845 -2.5977
 1426SOL    HW215915   0.356   1.729   3.171  0.6577  0.4748 -0.2633
 1427SOL     OW15916   0.922   2.152   8.080 -0.0200 -0.2128 -0.1976
 1427SOL    HW115917   0.867   2.123   8.153  1.1783  0.6998  1.0635
 1427SOL    HW215918   0.852   2.204   8.040  0.3951  0.5297  0.0362
 1428SOL     OW15919   2.941   3.075   7.891 -0.3407 -0.3556 -0.5028
 1428SOL    HW115920   2.853   3.037   7.893 -0.4118 -0.1031  1.0003
 1428SOL    HW215921   2.926   3.157   7.938 -2.3899  0.2070 -2.1176
 1429SOL     OW15922   0.725   0.385   5.498  0.2924  0.1661  0.2053
 1429SOL    HW115923   0.724   0.399   5.593 -1.3625  2.8817 -0.1999
 1429SOL    HW215924   0.736   0.291   5.486  1.3011  0.8132 -4.0756
 1430SOL     OW15925   2.771   2.283  13.531  0.2339 -0.1991  0.6460
 1430SOL    HW115926   2.736   2.223  13.597  2.8165 -2.1809  0.1947
 1430SOL    HW215927   2.843   2.335  13.566  0.5692 -1.1338  1.3338
 1431SOL     OW15928   4.144   4.506   1.813 -0.1903  0.2855 -0.1219
 1431SOL    HW115929   4.068   4.462   1.775  0.3815  0.1369 -1.0782
 1431SOL    HW215930   4.091   4.549   1.881 -1.3893 -1.7779  0.2362
 1432SOL     OW15931   1.118   0.848  12.042 -0.1343  0.8125 -0.5437
 1432SOL    HW115932   1.027   0.855  12.013 -0.2638  0.3396 -0.2361
 1432SOL    HW215933   1.164   0.863  11.959  1.7065  1.3561  0.5644
 1433SOL     OW15934   3.041   1.530   7.048  0.5816 -0.3998 -0.2844
 1433SOL    HW115935   3.006   1.592   7.112  2.1680 -0.1085  0.3067
 1433SOL    HW215936   3.124   1.576   7.033 -0.3769  1.8495  1.2988
 1434SOL     OW15937   4.041   3.413   1.690  0.6560 -0.1129 -0.5257
 1434SOL    HW115938   4.055   3.487   1.632 -2.4818  0.6916 -0.2538
 1434SOL    HW215939   4.051   3.452   1.777  0.6362 -2.0303  0.3473
 1435SOL     OW15940   2.057   0.218   5.832  0.1777 -0.5699 -0.2962
 1435SOL    HW115941   2.004   0.152   5.878 -0.0085  0.0934  0.4381
 1435SOL    HW215942   1.985   0.268   5.793  3.1676  4.3247  0.4354
 1436SOL     OW15943   4.061   4.370  17.437 -0.0419  0.1935 -0.0535
 1436SOL    HW115944   3.996   4.403  17.499 -0.1810 -1.0438  0.4626
 1436SOL    HW215945   4.131   4.372  17.502  1.3240 -0.7374 -1.4725
 1437SOL     OW15946   4.031   4.529   6.592 -0.1859  0.2329 -0.6580
 1437SOL    HW115947   4.086   4.453   6.575  0.2331  0.3519  0.1299
 1437SOL    HW215948   4.029   4.527   6.688 -0.3587  2.4524 -0.6046
 1438SOL     OW15949   3.989   4.684   5.740  0.4785  0.3642  0.5872
 1438SOL    HW115950   4.005   0.030   5.694 -0.6575 -0.4497 -1.2554
 1438SOL    HW215951   3.921   4.707   5.804 -2.4659 -1.5284 -1.8111
 1439SOL     OW15952   0.281   2.899   9.370  0.0512 -0.2021  0.5336
 1439SOL    HW115953   0.233   2.974   9.335 -1.6690 -1.6603 -0.2456
 1439SOL    HW215954   0.209   2.839   9.385 -0.2117  0.4655  1.8931
 1440SOL     OW15955   2.758   3.316   3.382 -0.8281  0.5104  0.0010
 1440SOL    HW115956   2.802   3.343   3.462 -2.0361  0.4480  0.6889
 1440SOL    HW215957   2.827   3.316   3.316 -1.6357  0.8686 -0.8335
 1441SOL     OW15958   2.837   3.337  15.202  0.2974  0.2107 -0.0959
 1441SOL    HW115959   2.813   3.358  15.292  1.3059  0.4689  0.1129
 1441SOL    HW215960   2.843   3.241  15.208 -1.5537  0.1981  1.5579
 1442SOL     OW15961   4.695   4.308   6.458  0.0263 -0.3237  0.1380
 1442SOL    HW115962   4.720   4.289   6.548  0.1501  1.6806  0.5124
 1442SOL    HW215963   4.608   4.268   6.460  0.5261 -1.2895  3.2843
 1443SOL     OW15964   4.687   0.631   2.301 -0.0687 -0.0316  0.0941
 1443SOL    HW115965   0.014   0.688   2.256 -1.3675  0.7630 -0.7228
 1443SOL    HW215966   4.616   0.617   2.238 -0.9647  0.4147  1.0090
 1444SOL     OW15967   3.532   3.948   1.983 -0.1241 -0.4775  0.4912
 1444SOL    HW115968   3.465   3.983   1.925  1.3913  1.0733 -0.3379
 1444SOL    HW215969   3.482   3.879   2.026  1.8146 -1.3349  1.3898
 1445SOL     OW15970   3.231   3.800  13.775  0.0279 -0.4610  0.3870
 1445SOL    HW115971   3.160   3.846  13.730  1.3237  1.0146 -0.1524
 1445SOL    HW215972   3.190   3.773  13.857 -1.5327  0.6496 -0.0407
 1446SOL     OW15973   1.525   3.562   5.470 -0.1580 -0.0020 -0.6324
 1446SOL    HW115974   1.575   3.499   5.418 -0.8697 -0.7691 -0.3835
 1446SOL    HW215975   1.462   3.498   5.501 -0.1516 -0.6087 -1.9040
 1447SOL     OW15976   4.584   1.494   1.551 -0.5326 -0.0068 -0.3226
 1447SOL    HW115977   4.533   1.413   1.554 -0.2975 -0.1743 -0.8096
 1447SOL    HW215978   4.540   1.547   1.485 -0.0311  1.7815  0.7736
 1448SOL     OW15979   0.899   2.607  16.200  0.5313 -0.0051  0.0715
 1448SOL    HW115980   0.994   2.610  16.209  0.4592  2.6835  0.0869
 1448SOL    HW215981   0.884   2.700  16.215  0.9571 -0.1663  1.5655
 1449SOL     OW15982   1.486   4.412  10.080 -0.0889  0.3637  0.2383
 1449SOL    HW115983   1.412   4.466  10.108 -0.4967  1.1741 -2.4026
 1449SOL    HW215984   1.492   4.360  10.160 -0.4440 -0.1429 -0.0650
 1450SOL     OW15985   3.916   2.371   2.509 -0.4576  0.4295  0.7980
 1450SOL    HW115986   3.875   2.456   2.494  1.9252  1.2198 -1.0289
 1450SOL    HW215987   4.002   2.380   2.470 -0.6023  0.8299  0.5732
 1451SOL     OW15988   0.923   3.978  16.463  0.2246 -0.5859  0.0993
 1451SOL    HW115989   0.923   3.952  16.555 -0.3135 -0.8410  0.0255
 1451SOL    HW215990   1.014   3.961  16.439 -0.1943 -0.9596 -1.2303
 1452SOL     OW15991   0.231   0.138  15.850 -0.3641  0.2224 -0.7758
 1452SOL    HW115992   0.212   0.062  15.795  0.0276 -1.9755  2.1070
 1452SOL    HW215993   0.210   0.201  15.781 -0.1888 -0.1691 -1.1858
 1453SOL     OW15994   2.090   3.185   4.880  0.0829  0.1021  0.4329
 1453SOL    HW115995   2.119   3.255   4.821  1.0060  1.1269  2.1018
 1453SOL    HW215996   2.170   3.134   4.890 -0.2776 -0.5721 -0.1281
 1454SOL     OW15997   1.299   3.101   2.132 -0.5935  0.1372 -0.0338
 1454SOL    HW115998   1.333   3.190   2.129 -0.3697  0.0835  0.8299
 1454SOL    HW215999   1.305   3.077   2.039 -0.0684 -1.4838  0.4192
 1455SOL     OW16000   4.402   0.675   4.693 -0.6633  0.0981  0.0105
 1455SOL    HW116001   4.318   0.673   4.648 -0.7094  0.0280  0.0988
 1455SOL    HW216002   4.429   0.583   4.701 -2.9773 -0.3241  2.8648
 1456SOL     OW16003   2.286   4.342   4.719  0.4174 -0.3626 -0.3504
 1456SOL    HW116004   2.358   4.283   4.699  0.6419  0.1762 -1.1442
 1456SOL    HW216005   2.229   4.285   4.771  0.2705 -2.4336 -2.7779
 1457SOL     OW16006   1.475   1.691   3.097 -0.8178  0.4527  0.5972
 1457SOL    HW116007   1.436   1.772   3.064  0.7872  0.3870 -1.5242
 1457SOL    HW216008   1.428   1.686   3.180 -0.0441 -1.5514  0.9365
 1458SOL     OW16009   1.677   4.096   6.563  0.1339  0.0228  0.1881
 1458SOL    HW116010   1.736   4.021   6.555  0.6351  0.7630 -3.4177
 1458SOL    HW216011   1.726   4.159   6.616 -1.9839  1.7631  0.0451
 1459SOL     OW16012   2.211   2.582  17.277  0.5141  0.0663 -0.2542
 1459SOL    HW116013   2.261   2.540  17.207  0.6699  0.5434 -0.4265
 1459SOL    HW216014   2.222   2.671  17.244  1.1447  0.6838  1.6620
 1460SOL     OW16015   2.021   2.745  12.292 -0.5445  0.2955  0.1778
 1460SOL    HW116016   1.962   2.784  12.356 -2.0481 -0.5872 -0.6632
 1460SOL    HW216017   1.975   2.663  12.273  1.9548 -0.7985 -1.0634
 1461SOL     OW16018   0.441   2.993  10.172 -0.4109 -0.5666  0.6899
 1461SOL    HW116019   0.494   2.919  10.202 -1.3858 -1.5154  0.1178
 1461SOL    HW216020   0.421   3.028  10.258  2.0234  2.1336  0.1284
 1462SOL     OW16021   2.298   3.116   1.409 -0.1544  0.4714  0.2497
 1462SOL    HW116022   2.315   3.171   1.332 -0.5540  0.5060  0.1855
 1462SOL    HW216023   2.251   3.169   1.474 -1.0353 -1.9722  1.5788
 1463SOL     OW16024   3.032   1.802   2.210  0.2053 -0.5168 -0.1773
 1463SOL    HW116025   3.122   1.780   2.187 -0.5619 -1.1879 -2.4914
 1463SOL    HW216026   3.000   1.722   2.252 -1.5683 -0.6026 -1.7265
 1464SOL     OW16027   0.924   0.893   2.121  0.5727  0.2753  0.5068
 1464SOL    HW116028   0.984   0.832   2.079 -0.9590 -1.3167  0.6360
 1464SOL    HW216029   0.989   0.959   2.146  1.2285  0.4633 -1.6904
 1465SOL     OW16030   4.231   2.865   0.224 -0.4664  0.2568 -0.2043
 1465SOL    HW116031   4.180   2.894   0.300  2.6625  2.8343  0.9054
 1465SOL    HW216032   4.321   2.873   0.257 -1.0561 -1.1534  1.7237
 1466SOL     OW16033   1.841   2.673   8.547  1.0373 -0.0588  0.2720
 1466SOL    HW116034   1.754   2.634   8.550  0.7112  0.7776  1.5985
 1466SOL    HW216035   1.836   2.717   8.463  0.4763  0.4542  0.5723
 1467SOL     OW16036   0.468   2.028   6.276 -0.1104 -0.0120  0.0622
 1467SOL    HW116037   0.550   2.024   6.225 -0.1931 -1.1304  0.0258
 1467SOL    HW216038   0.493   1.968   6.346 -1.7721 -0.6320  0.1118
 1468SOL     OW16039   2.821   4.556   5.895 -0.1842  0.1807 -0.2556
 1468SOL    HW116040   2.825   4.643   5.935  1.2942  1.1435 -2.4870
 1468SOL    HW216041   2.734   4.574   5.859 -0.6079  2.7237  2.0288
 1469SOL     OW16042   1.268   2.045  13.014  0.3151 -0.2082 -0.7110
 1469SOL    HW116043   1.188   2.062  13.063  0.2792 -1.8234 -0.1998
 1469SOL    HW216044   1.237   1.963  12.975 -0.1504 -0.6416  0.5853
 1470SOL     OW16045   0.349   3.986  15.343 -0.6676  0.0644  0.0895
 1470SOL    HW116046   0.289   3.915  15.369 -1.0906 -0.0477 -1.1742
 1470SOL    HW216047   0.350   3.970  15.249 -2.4012 -0.1347  0.0949
 1471SOL     OW16048   0.895   4.372   4.262  0.6788  0.0036 -0.1031
 1471SOL    HW116049   0.891   4.290   4.311 -0.4996 -1.5139 -2.7350
 1471SOL    HW216050   0.863   4.340   4.178 -1.1963  0.1285  0.5556
 1472SOL     OW16051   1.869   0.569   2.780 -0.5575 -0.7759  0.1864
 1472SOL    HW116052   1.947   0.623   2.798  0.3626 -2.0186 -0.0987
 1472SOL    HW216053   1.809   0.624   2.831  3.6402  2.0967  2.0418
 1473SOL     OW16054   1.079   1.392   4.698 -0.4904 -0.4835 -0.2966
 1473SOL    HW116055   1.057   1.371   4.608 -1.0160 -1.1439 -0.0154
 1473SOL    HW216056   1.175   1.396   4.694 -0.5482  2.0333  0.7620
 1474SOL     OW16057   3.351   2.017   9.236  0.0897  0.5126  0.7226
 1474SOL    HW116058   3.442   2.046   9.245  0.4594  0.2206 -2.2174
 1474SOL    HW216059   3.305   2.095   9.268  2.0024  1.5964  0.8689
 1475SOL     OW16060   2.835   2.497   9.745 -0.1939  0.2665  1.0119
 1475SOL    HW116061   2.786   2.547   9.679  0.6416 -0.5577 -0.2288
 1475SOL    HW216062   2.769   2.438   9.782 -1.8771  0.6064 -1.4355
 1476SOL     OW16063   2.344   3.565   1.545 -0.2304 -0.0037 -0.3632
 1476SOL    HW116064   2.258   3.607   1.553 -0.1129 -0.2407  2.0614
 1476SOL    HW216065   2.320   3.476   1.570 -0.3828  0.0239 -0.4070
 1477SOL     OW16066   1.743   4.653   3.151  0.1972  0.6110  0.6280
 1477SOL    HW116067   1.708   4.574   3.110  2.4411 -0.1783  0.2212
 1477SOL    HW216068   1.684   4.661   3.226  1.6130  0.6157  1.7588
 1478SOL     OW16069   0.611   2.793  10.283  0.1587 -0.1109  0.0873
 1478SOL    HW116070   0.593   2.699  10.291 -0.8209  0.2890  2.7503
 1478SOL    HW216071   0.664   2.809  10.361 -0.1671  1.3193  0.0148
 1479SOL     OW16072   1.563   4.705   7.026  0.1307 -0.1168 -0.0693
 1479SOL    HW116073   1.623   4.695   7.100 -1.2032 -3.0777  0.6164
 1479SOL    HW216074   1.508   4.626   7.030  0.4319 -0.3577 -0.6391
 1480SOL     OW16075   2.997   2.801   9.502  0.3855 -0.4072  0.1134
 1480SOL    HW116076   3.065   2.739   9.528 -2.0747 -3.2846 -0.2665
 1480SOL    HW216077   3.014   2.813   9.409 -0.0275 -1.1857 -0.0706
 1481SOL     OW16078   0.829   0.944   5.086 -0.1162  0.6857  0.2562
 1481SOL    HW116079   0.806   0.931   4.994  2.5781  1.9431 -0.6136
 1481SOL    HW216080   0.904   1.003   5.073 -0.0360  0.0425 -2.2168
 1482SOL     OW16081   0.815   0.536   3.974  0.3987  0.1765  0.2292
 1482SOL    HW116082   0.788   0.483   3.899 -3.0695 -1.2790  2.5013
 1482SOL    HW216083   0.770   0.488   4.044  0.6570 -2.7477 -1.6205
 1483SOL     OW16084   3.954   3.069   9.483 -0.0144 -0.6941 -0.9063
 1483SOL    HW116085   4.047   3.093   9.480 -0.0328 -0.4099  0.5639
 1483SOL    HW216086   3.967   2.986   9.529 -2.1351 -1.2955 -1.3969
 1484SOL     OW16087   0.301   0.675  12.286  0.6677  0.4882  0.4101
 1484SOL    HW116088   0.380   0.647  12.240  0.8244 -0.9219  1.5567
 1484SOL    HW216089   0.340   0.722  12.360 -0.2831 -0.6671  1.6428
 1485SOL     OW16090   0.996   0.834   6.066 -0.2294  0.0337 -0.5641
 1485SOL    HW116091   0.929   0.782   6.022 -0.8794  0.6758 -0.3301
 1485SOL    HW216092   0.997   0.914   6.014 -1.4946  1.1992  1.2111
 1486SOL     OW16093   0.141   1.128   4.569  0.4717 -0.0361  0.5150
 1486SOL    HW116094   0.197   1.103   4.496 -0.4851  1.2645 -0.6417
 1486SOL    HW216095   0.132   1.044   4.615  3.8539 -0.5820  0.2125
 1487SOL     OW16096   1.380   3.480   3.796  0.5402 -0.1543 -0.0445
 1487SOL    HW116097   1.358   3.454   3.707 -1.8409 -0.2132  0.5624
 1487SOL    HW216098   1.476   3.485   3.796  0.4688  1.2014  0.9203
 1488SOL     OW16099   4.449   0.831   6.544  0.2010  0.1101  0.5446
 1488SOL    HW116100   4.363   0.801   6.574  0.3810  0.9025  1.8824
 1488SOL    HW216101   4.424   0.924   6.549  0.4447  0.2999 -1.6694
 1489SOL     OW16102   1.250   0.553   5.430 -0.3159  0.0359 -0.0357
 1489SOL    HW116103   1.273   0.612   5.358  0.3869 -2.5292 -1.8902
 1489SOL    HW216104   1.320   0.489   5.420 -0.0324  0.6705 -1.9558
 1490SOL     OW16105   4.664   1.668   4.218 -0.3899 -0.1313 -0.2900
 1490SOL    HW116106   4.660   1.663   4.314  2.3569  0.6471 -0.1438
 1490SOL    HW216107   4.581   1.711   4.198 -0.0580  1.2236  1.2573
 1491SOL     OW16108   3.785   3.647   5.983 -0.6740  0.4637  0.3669
 1491SOL    HW116109   3.761   3.566   6.028  0.8049  0.2464  0.7682
 1491SOL    HW216110   3.732   3.641   5.903  1.1262 -1.2874 -0.7220
 1492SOL     OW16111   2.033   0.408  13.579 -0.4053  0.2454 -0.0413
 1492SOL    HW116112   1.978   0.384  13.505  0.0679 -0.3749 -0.1937
 1492SOL    HW216113   1.958   0.417  13.638 -1.9272 -0.0488 -1.9311
 1493SOL     OW16114   1.042   3.235   6.030  0.0185  0.8044 -0.1035
 1493SOL    HW116115   1.029   3.272   5.943 -1.9520 -0.2886 -0.2644
 1493SOL    HW216116   1.055   3.310   6.089  1.4610 -0.0288  0.6520
 1494SOL     OW16117   0.859   0.116   5.501 -0.4074 -0.0426  0.1001
 1494SOL    HW116118   0.828   0.078   5.419  0.4855  1.0974 -0.7575
 1494SOL    HW216119   0.953   0.111   5.487 -0.0718 -1.7718  2.8161
 1495SOL     OW16120   0.959   3.607  16.746  0.2414  0.1225  0.1970
 1495SOL    HW116121   0.878   3.561  16.769  1.6226 -1.4296  1.9540
 1495SOL    HW216122   0.927   3.694  16.770  0.6621  0.2111  0.4232
 1496SOL     OW16123   1.180   3.675   5.456 -0.0250  0.2084  0.2321
 1496SOL    HW116124   1.200   3.602   5.514  2.3326 -0.2129 -1.1177
 1496SOL    HW216125   1.124   3.728   5.514 -2.4623 -0.7051 -1.3216
 1497SOL     OW16126   1.038   0.848  16.806  0.1392 -0.6827 -0.0046
 1497SOL    HW116127   1.063   0.821  16.717  1.9886  1.6913 -0.2036
 1497SOL    HW216128   0.945   0.823  16.810 -0.2441  0.7811  0.4132
 1498SOL     OW16129   3.145   2.714   4.872  0.3125 -0.1077  0.7172
 1498SOL    HW116130   3.131   2.746   4.783 -0.3922 -1.3701  0.3635
 1498SOL    HW216131   3.065   2.743   4.916  0.8779 -0.5400  2.0363
 1499SOL     OW16132   3.222   1.485   2.419 -0.0721 -0.1805  0.0695
 1499SOL    HW116133   3.233   1.576   2.447 -0.1152  0.7918 -3.0855
 1499SOL    HW216134   3.134   1.468   2.451  0.1531  1.9848  1.8180
 1500SOL     OW16135   2.305   0.719   3.589 -0.4607 -0.1468  0.0843
 1500SOL    HW116136   2.269   0.804   3.617  1.5982  0.0990  2.0586
 1500SOL    HW216137   2.226   0.676   3.558 -0.2146 -1.8296  1.7477
 1501SOL     OW16138   3.398   3.335  14.309 -0.7305  0.3146 -0.3150
 1501SOL    HW116139   3.467   3.398  14.330  0.4051 -0.2742 -2.3731
 1501SOL    HW216140   3.323   3.393  14.326  0.7391  2.4426 -1.0560
 1502SOL     OW16141   4.399   1.131  12.804  0.1721  0.3108 -0.0599
 1502SOL    HW116142   4.419   1.038  12.817  1.6399  0.5160 -0.8280
 1502SOL    HW216143   4.305   1.145  12.794  0.1561 -0.0945 -0.4684
 1503SOL     OW16144   4.176   3.654   3.114 -0.4722  0.1693  0.9854
 1503SOL    HW116145   4.198   3.613   3.030 -0.1219  2.0617  0.1515
 1503SOL    HW216146   4.101   3.707   3.090  0.5987  1.9417  1.5485
 1504SOL     OW16147   4.576   4.191   2.171 -0.5666 -0.0434  0.5009
 1504SOL    HW116148   4.551   4.104   2.139  0.8484 -0.1098 -0.3929
 1504SOL    HW216149   4.493   4.229   2.141 -0.1755 -0.8101 -1.5552
 1505SOL     OW16150   4.275   0.340   6.447  0.1923 -0.1196  0.1599
 1505SOL    HW116151   4.356   0.309   6.488  1.1110  0.3270 -1.3144
 1505SOL    HW216152   4.313   0.334   6.359 -0.6354  1.9744 -0.3325
 1506SOL     OW16153   2.494   0.729   8.233  0.4404 -0.1753  0.1072
 1506SOL    HW116154   2.581   0.713   8.198  0.6951  0.0264  0.6446
 1506SOL    HW216155   2.480   0.823   8.223  0.9265  0.1289  2.1830
 1507SOL     OW16156   2.344   4.422  17.160 -0.8541 -0.2183 -0.3644
 1507SOL    HW116157   2.325   4.492  17.222  0.7556  0.5920 -0.7970
 1507SOL    HW216158   2.317   4.461  17.077  1.2033  0.6784 -0.6104
 1508SOL     OW16159   1.296   0.259   5.257 -0.3844 -0.2853  0.1982
 1508SOL    HW116160   1.203   0.271   5.240  0.0289  0.2326 -1.6251
 1508SOL    HW216161   1.324   0.227   5.171  1.0750  0.1203  0.5267
 1509SOL     OW16162   4.196   2.621  12.556  0.4672 -0.0637 -0.0936
 1509SOL    HW116163   4.112   2.603  12.512 -1.4521  0.2613  3.4658
 1509SOL    HW216164   4.260   2.596  12.489 -2.3758 -2.0014 -2.1418
 1510SOL     OW16165   4.663   1.728  12.015  0.2788 -0.7414  0.5856
 1510SOL    HW116166   0.007   1.675  12.021  0.7355 -0.2054 -0.6593
 1510SOL    HW216167   4.699   1.816  12.024 -0.4987 -0.2196 -1.3413
 1511SOL     OW16168   1.612   4.060   9.296  0.1068  0.3757  0.4240
 1511SOL    HW116169   1.661   4.022   9.223  1.3145  0.6649  1.0819
 1511SOL    HW216170   1.685   4.109   9.333  1.5628 -1.0417 -0.5386
 1512SOL     OW16171   0.582   1.389   1.953 -0.2650 -0.3839 -0.5085
 1512SOL    HW116172   0.490   1.392   1.981  0.5588  0.9829  1.9163
 1512SOL    HW216173   0.611   1.314   2.005  0.9670  0.9526  0.6801
 1513SOL     OW16174   2.981   2.123   9.269  0.0490  0.1350 -0.7613
 1513SOL    HW116175   3.052   2.122   9.332 -0.4944  1.8640 -0.1481
 1513SOL    HW216176   3.018   2.185   9.207  1.4645 -1.4455 -1.4948
 1514SOL     OW16177   0.654   2.279   7.654 -0.7212  0.2531 -0.8446
 1514SOL    HW116178   0.676   2.224   7.579  2.9079 -0.4746  0.7544
 1514SOL    HW216179   0.560   2.278   7.634 -0.7067 -0.0067 -0.8951
 1515SOL     OW16180   1.852   3.039   4.921 -0.1892  0.1086 -0.4303
 1515SOL    HW116181   1.911   3.114   4.922 -0.3655  0.2036  1.9125
 1515SOL    HW216182   1.808   3.043   5.006  2.9090  0.5976  1.1591
 1516SOL     OW16183   0.172   0.342   4.469  0.1730  0.5881  0.0163
 1516SOL    HW116184   0.199   0.252   4.486  0.9045  1.2106  2.1763
 1516SOL    HW216185   0.174   0.340   4.373 -0.4369 -0.3409  0.0322
 1517SOL     OW16186   3.374   2.860   2.907  0.1256 -0.0979 -0.3224
 1517SOL    HW116187   3.309   2.923   2.938 -0.4935 -0.5299 -0.7550
 1517SOL    HW216188   3.441   2.880   2.972  0.2197 -0.8627 -0.1939
 1518SOL     OW16189   3.225   0.343  13.135 -0.2191  0.4688 -0.4561
 1518SOL    HW116190   3.215   0.430  13.175 -1.4150 -0.4635  1.3135
 1518SOL    HW216191   3.156   0.304  13.190  1.2939 -0.4507  0.7744
 1519SOL     OW16192   2.215   2.485   1.252 -0.2974  0.8673  0.5518
 1519SOL    HW116193   2.155   2.555   1.278  0.1340  1.7580 -0.8431
 1519SOL    HW216194   2.162   2.456   1.178  0.4996  2.2883 -0.6026
 1520SOL     OW16195   0.060   1.045   2.722 -0.1773 -0.1706  0.1798
 1520SOL    HW116196   4.725   1.006   2.773 -0.7516  0.1471 -0.3674
 1520SOL    HW216197   0.035   1.038   2.629 -0.1111 -0.4907  0.1860
 1521SOL     OW16198   4.081   2.740   8.233 -0.0951  0.7171  0.4560
 1521SOL    HW116199   4.002   2.721   8.284 -0.2478 -0.3231 -0.1748
 1521SOL    HW216200   4.113   2.653   8.211 -1.8843  0.3715 -0.7524
 1522SOL     OW16201   4.088   0.228   4.170 -0.7621  0.2348 -0.1290
 1522SOL    HW116202   4.063   0.296   4.233 -0.5280  1.7460 -1.6747
 1522SOL    HW216203   4.145   0.278   4.112 -0.9929  2.7059  1.7582
 1523SOL     OW16204   0.731   1.214   6.094 -0.4359 -0.4207  0.0578
 1523SOL    HW116205   0.726   1.139   6.034 -0.8294  1.0003 -1.6731
 1523SOL    HW216206   0.763   1.166   6.171  1.5751 -1.4213 -1.4151
 1524SOL     OW16207   4.256   4.340   6.456 -0.0416  0.0062 -0.1210
 1524SOL    HW116208   4.174   4.301   6.427  0.4885 -2.0740  1.2536
 1524SOL    HW216209   4.318   4.268   6.457  1.0156  0.9003 -0.5706
 1525SOL     OW16210   4.312   1.519   8.876 -0.2947  0.9035 -0.1339
 1525SOL    HW116211   4.393   1.532   8.925  0.0804 -0.1301 -0.4634
 1525SOL    HW216212   4.313   1.426   8.852  1.7387  0.5622  1.2140
 1526SOL     OW16213   1.838   3.493   5.273  0.2774  0.6203  0.0088
 1526SOL    HW116214   1.753   3.451   5.284  0.0839  1.0059  0.0005
 1526SOL    HW216215   1.902   3.428   5.303 -0.8183 -0.5678 -0.2615
 1527SOL     OW16216   1.713   4.539   2.165  0.4883 -0.0912  0.1127
 1527SOL    HW116217   1.625   4.529   2.130  0.6788 -1.3868  0.0029
 1527SOL    HW216218   1.744   4.449   2.157  0.0969 -0.1041 -1.2704
 1528SOL     OW16219   3.280   3.727   2.509  0.3063 -0.6417 -0.1978
 1528SOL    HW116220   3.218   3.693   2.574 -1.7900 -2.1165 -2.9648
 1528SOL    HW216221   3.256   3.819   2.510 -0.6537 -0.8926 -0.6329
 1529SOL     OW16222   1.762   1.207   8.153 -0.6352  0.7835 -0.0700
 1529SOL    HW116223   1.791   1.239   8.067  0.1225 -2.3019 -0.9333
 1529SOL    HW216224   1.840   1.214   8.208 -0.3000 -1.4130 -0.2993
 1530SOL     OW16225   1.311   0.996  12.871 -0.0663 -0.1152 -0.5943
 1530SOL    HW116226   1.328   0.975  12.779  2.7561  2.0497 -0.5379
 1530SOL    HW216227   1.393   0.982  12.919 -1.6276 -0.7596  1.8799
 1531SOL     OW16228   4.230   4.687   6.412  0.4408 -0.5171 -0.1957
 1531SOL    HW116229   4.143   4.648   6.408 -1.0348  2.4134  3.1200
 1531SOL    HW216230   4.217   0.025   6.472  2.4332  0.4227 -0.9056
 1532SOL     OW16231   3.889   4.328   0.699 -0.0610  0.4343 -0.2175
 1532SOL    HW116232   3.966   4.348   0.646 -1.2836  1.5292 -1.5738
 1532SOL    HW216233   3.911   4.243   0.736  0.0449  0.6635  0.2554
 1533SOL     OW16234   3.258   3.644   9.090  0.4951 -0.4896  0.2987
 1533SOL    HW116235   3.221   3.579   9.150 -0.1978 -0.6227 -0.2731
 1533SOL    HW216236   3.339   3.595   9.086  2.1750  2.6053 -4.0429
 1534SOL     OW16237   2.265   0.922   0.466  0.1449  0.6409  0.6626
 1534SOL    HW116238   2.228   0.883   0.387 -0.7136 -0.9011  1.8263
 1534SOL    HW216239   2.267   0.852   0.530 -3.4813  0.6412  0.7965
 1535SOL     OW16240   1.138   0.187   2.275  0.3926 -0.5734 -0.3945
 1535SOL    HW116241   1.205   0.194   2.343 -0.8804  1.3926  0.6459
 1535SOL    HW216242   1.058   0.171   2.324 -0.8386  1.5707 -1.7128
 1536SOL     OW16243   0.204   2.704   7.205  0.2147  0.0425 -0.5524
 1536SOL    HW116244   0.232   2.612   7.202 -0.0640 -0.0865  1.0511
 1536SOL    HW216245   0.168   2.706   7.116  0.4856 -2.4409 -0.7260
 1537SOL     OW16246   0.354   0.282   3.395 -0.4811  0.2315 -0.0507
 1537SOL    HW116247   0.399   0.331   3.326  0.2381  0.6508  0.7149
 1537SOL    HW216248   0.409   0.303   3.470 -2.3146  1.8339  0.8553
 1538SOL     OW16249   2.405   2.991   9.692  0.4028  0.2653 -0.4772
 1538SOL    HW116250   2.349   2.915   9.678  0.4418 -0.3811  2.7894
 1538SOL    HW216251   2.457   2.983   9.613  0.6257 -2.1328 -0.0799
 1539SOL     OW16252   1.722   2.759   2.719  0.2216 -0.2952 -0.1813
 1539SOL    HW116253   1.737   2.665   2.726  0.6191 -0.3260 -1.5574
 1539SOL    HW216254   1.671   2.772   2.639 -3.4250 -1.2748  2.0151
 1540SOL     OW16255   3.139   3.901   8.600  0.2392 -0.0442  0.0368
 1540SOL    HW116256   3.053   3.868   8.625 -2.3887  7.0020  0.4933
 1540SOL    HW216257   3.199   3.848   8.653  0.3663  0.8658  0.8074
 1541SOL     OW16258   0.924   0.009   7.377 -0.0372  0.1542  0.0624
 1541SOL    HW116259   0.984   4.673   7.358  1.4412  1.0640  1.3461
 1541SOL    HW216260   0.881   4.714   7.457 -0.3489 -0.7493 -0.4524
 1542SOL     OW16261   3.289   4.659   2.068 -0.1134 -0.8022 -0.3632
 1542SOL    HW116262   3.299   4.703   2.152 -1.0758 -1.2374 -0.0201
 1542SOL    HW216263   3.313   4.568   2.089 -1.8612 -0.9504  0.9518
 1543SOL     OW16264   4.733   0.746   7.455  0.2367 -0.2011  0.3631
 1543SOL    HW116265   4.655   0.799   7.441  0.6198  0.2800  0.0233
 1543SOL    HW216266   4.706   0.685   7.523  0.6583  0.7445  1.3786
 1544SOL     OW16267   1.887   3.827   3.458  0.4629 -0.5446 -0.2232
 1544SOL    HW116268   1.949   3.899   3.465  0.2541 -0.5737  1.7896
 1544SOL    HW216269   1.943   3.756   3.427  2.9844  1.8644 -1.1482
 1545SOL     OW16270   1.350   3.764  10.933  0.3940 -0.1195  0.1706
 1545SOL    HW116271   1.399   3.826  10.879 -0.0424 -0.7525 -0.9527
 1545SOL    HW216272   1.323   3.703  10.865 -1.0757  2.2580 -1.3782
 1546SOL     OW16273   2.807   1.664   1.934 -0.1046 -0.5882 -0.6465
 1546SOL    HW116274   2.771   1.584   1.972  1.8227 -1.5702 -0.9087
 1546SOL    HW216275   2.773   1.731   1.993 -0.4784  0.2680 -1.8283
 1547SOL     OW16276   1.575   1.040   6.379 -0.5451  0.1283  0.6574
 1547SOL    HW116277   1.493   0.992   6.392 -0.6570  0.0733 -0.2943
 1547SOL    HW216278   1.590   1.058   6.472  0.9278  0.7966  0.2816
 1548SOL     OW16279   2.638   3.061   9.838 -0.4445 -0.7596  0.4701
 1548SOL    HW116280   2.566   3.042   9.778 -0.6037  0.2173  0.3552
 1548SOL    HW216281   2.652   2.982   9.890 -0.3931 -1.6602 -0.9217
 1549SOL     OW16282   4.413   3.756   7.703  0.2186 -0.3631  0.5225
 1549SOL    HW116283   4.350   3.764   7.775 -2.3072  1.8844 -1.9692
 1549SOL    HW216284   4.394   3.833   7.649 -2.7454 -1.6543 -0.2450
 1550SOL     OW16285   1.489   3.494  13.943 -0.5222 -0.1069  0.3566
 1550SOL    HW116286   1.535   3.425  13.895 -0.9463 -0.6410  0.7038
 1550SOL    HW216287   1.510   3.578  13.904  2.9626 -1.2309 -0.1439
 1551SOL     OW16288   2.886   1.535  13.080 -0.6907 -0.0186 -0.1865
 1551SOL    HW116289   2.904   1.491  12.997  0.1702 -3.3857  1.8021
 1551SOL    HW216290   2.801   1.503  13.109 -0.2920 -0.6477  0.2830
 1552SOL     OW16291   4.001   2.850   6.922 -0.6856 -0.6657 -0.8142
 1552SOL    HW116292   4.000   2.769   6.973  1.1175  0.3016  0.7909
 1552SOL    HW216293   3.965   2.911   6.987  2.6144  1.0442 -0.5899
 1553SOL     OW16294   3.623   3.847   3.832 -0.3579  0.8887  0.2069
 1553SOL    HW116295   3.601   3.878   3.745  0.0045  0.2928 -0.0997
 1553SOL    HW216296   3.655   3.930   3.868  2.5637 -0.3612  0.5225
 1554SOL     OW16297   3.498   0.796   3.820  0.4857  0.1661 -0.1114
 1554SOL    HW116298   3.535   0.856   3.754 -0.0227 -1.5992 -1.9812
 1554SOL    HW216299   3.577   0.754   3.853 -0.0603  0.2216  1.2479
 1555SOL     OW16300   2.264   4.428  16.335 -0.0987 -0.0178 -0.2130
 1555SOL    HW116301   2.284   4.521  16.325  0.3797 -0.2925 -1.6815
 1555SOL    HW216302   2.229   4.403  16.250  2.2066 -1.3069 -0.7634
 1556SOL     OW16303   3.211   0.680   2.215  0.4958  1.1244  0.8358
 1556SOL    HW116304   3.135   0.738   2.218  1.0686  1.7852  2.2926
 1556SOL    HW216305   3.186   0.616   2.281 -0.1612  0.0138 -0.4997
 1557SOL     OW16306   1.791   0.884   1.394 -0.2803 -0.5754  0.0980
 1557SOL    HW116307   1.784   0.923   1.481 -2.8511  1.0080 -0.8122
 1557SOL    HW216308   1.849   0.950   1.354 -1.0544 -1.4008 -2.3754
 1558SOL     OW16309   0.906   3.910  16.723 -0.2366  0.0448 -0.3808
 1558SOL    HW116310   0.820   3.895  16.761  0.2334 -1.9387 -0.0691
 1558SOL    HW216311   0.956   3.937  16.800 -1.1394  3.4847 -1.0360
 1559SOL     OW16312   4.349   2.018   7.709  0.6912 -0.5259 -0.0253
 1559SOL    HW116313   4.412   2.043   7.776 -0.3775  1.1271  0.3568
 1559SOL    HW216314   4.321   1.928   7.729 -2.0090  0.5303  0.9252
 1560SOL     OW16315   2.069   3.123   6.301  0.0213  0.6880  0.2511
 1560SOL    HW116316   2.153   3.157   6.331  0.4792 -0.7520  0.6199
 1560SOL    HW216317   2.057   3.054   6.367  0.5031 -0.8303 -1.2601
 1561SOL     OW16318   1.121   2.506   2.118 -0.0853 -0.3213 -0.2861
 1561SOL    HW116319   1.027   2.488   2.110  0.2544 -2.7681  1.2079
 1561SOL    HW216320   1.125   2.599   2.097  1.1569 -0.7368 -1.8524
 1562SOL     OW16321   2.177   1.425   4.957 -0.0371  0.4161  0.3053
 1562SOL    HW116322   2.137   1.455   5.038  0.4525 -0.6909  0.9464
 1562SOL    HW216323   2.150   1.498   4.900  0.2661  0.0616 -0.2979
 1563SOL     OW16324   1.440   0.234   6.043 -0.0528 -0.5778 -0.2148
 1563SOL    HW116325   1.369   0.273   5.991  0.8704  1.9437  0.4437
 1563SOL    HW216326   1.500   0.304   6.067  0.3538 -0.9231 -0.2233
 1564SOL     OW16327   4.112   2.255   8.939  0.1459  0.0962 -0.1849
 1564SOL    HW116328   4.147   2.215   9.019  0.8770 -0.3812 -0.7446
 1564SOL    HW216329   4.170   2.223   8.870  0.2351 -1.3376  0.5505
 1565SOL     OW16330   2.747   2.010   4.416  0.1042  0.0579 -0.3026
 1565SOL    HW116331   2.800   2.012   4.496  0.2414 -0.7893 -0.3705
 1565SOL    HW216332   2.811   1.975   4.354 -1.0798 -1.0689 -0.8776
 1566SOL     OW16333   2.609   1.966   6.399  0.2771 -0.5394  0.1141
 1566SOL    HW116334   2.645   2.052   6.376  0.0780 -0.1967  1.1157
 1566SOL    HW216335   2.538   1.997   6.455 -0.0159  0.3598 -0.7424
 1567SOL     OW16336   2.511   1.388   9.571 -0.0913  0.7929 -0.0589
 1567SOL    HW116337   2.552   1.323   9.629  1.7370  0.3959 -1.8139
 1567SOL    HW216338   2.550   1.353   9.491  0.3540  2.0557 -0.3807
 1568SOL     OW16339   0.312   2.060   3.213  0.2480  0.3250 -0.3342
 1568SOL    HW116340   0.282   2.098   3.296 -1.0898  0.8719 -1.0587
 1568SOL    HW216341   0.227   2.043   3.172  0.5857  0.0376 -0.9231
 1569SOL     OW16342   3.518   4.626   4.952  0.3699 -0.2106  0.2723
 1569SOL    HW116343   3.561   4.682   4.888  0.0338 -0.4052 -0.1248
 1569SOL    HW216344   3.449   4.687   4.978  0.1831  0.9117 -2.8373
 1570SOL     OW16345   1.070   0.315   2.676  0.1720  0.2968  0.0360
 1570SOL    HW116346   1.151   0.284   2.717  0.6149  1.7972  0.2719
 1570SOL    HW216347   1.000   0.260   2.712 -0.3169  1.3945  0.7498
 1571SOL     OW16348   0.316   4.107   2.946  0.2276 -0.1606 -0.2246
 1571SOL    HW116349   0.385   4.043   2.927  0.1764 -0.2451 -0.1276
 1571SOL    HW216350   0.266   4.066   3.016 -1.7643  1.3148 -0.7783
 1572SOL     OW16351   3.176   0.580   3.892  0.2716 -0.3612 -0.1640
 1572SOL    HW116352   3.199   0.523   3.819  1.2020 -1.2093  0.7817
 1572SOL    HW216353   3.085   0.558   3.914 -0.0092  0.4445 -0.5531
 1573SOL     OW16354   3.518   2.115   4.006  0.6835  0.7843 -0.2349
 1573SOL    HW116355   3.578   2.186   4.027  1.1335 -0.2954  2.1141
 1573SOL    HW216356   3.531   2.095   3.914  1.6801 -2.1908  0.5673
 1574SOL     OW16357   1.896   0.244   7.188 -0.2979  0.1271 -0.6161
 1574SOL    HW116358   1.820   0.192   7.214 -0.4589  1.3483  1.3850
 1574SOL    HW216359   1.887   0.323   7.241  0.3248  0.7503 -1.4351
 1575SOL     OW16360   4.670   4.623   9.715 -0.2051 -0.5772  0.2068
 1575SOL    HW116361   4.650   4.551   9.775 -1.4129 -0.3967  0.0070
 1575SOL    HW216362   4.587   4.670   9.713 -0.0425 -0.3118 -0.3330
 1576SOL     OW16363   0.714   4.286  14.086  0.2457  0.3079  0.6962
 1576SOL    HW116364   0.794   4.328  14.055  0.5813  0.3197  1.5734
 1576SOL    HW216365   0.668   4.350  14.140 -1.6425 -0.6242  0.1771
 1577SOL     OW16366   1.931   1.576   7.601 -0.1664 -0.2249  0.4077
 1577SOL    HW116367   1.846   1.532   7.593  0.4401 -1.2696 -0.3868
 1577SOL    HW216368   1.950   1.561   7.693  3.7634  1.1263 -0.1867
 1578SOL     OW16369   1.211   2.333   1.145 -0.3792 -0.4119 -0.1418
 1578SOL    HW116370   1.122   2.312   1.117  0.4997 -1.0364 -2.4672
 1578SOL    HW216371   1.247   2.250   1.178  0.2432 -0.7685 -1.7298
 1579SOL     OW16372   1.502   0.016   0.074  0.2254 -0.3340  0.1686
 1579SOL    HW116373   1.456   0.042   0.154 -0.4787  0.2371 -0.4202
 1579SOL    HW216374   1.559   4.688   0.117 -0.3020 -1.3716 -0.6792
 1580SOL     OW16375   2.694   2.068  10.279 -0.0603  0.4267 -0.4673
 1580SOL    HW116376   2.656   2.117  10.206  1.2641 -1.1662 -2.2448
 1580SOL    HW216377   2.765   2.025  10.232 -1.5116 -3.2768  0.6904
 1581SOL     OW16378   0.188   2.407  16.398 -0.2611 -0.4499  0.3503
 1581SOL    HW116379   0.169   2.456  16.478  0.0453 -0.7193  0.5878
 1581SOL    HW216380   0.281   2.419  16.378 -0.4217 -2.4581 -1.5557
 1582SOL     OW16381   1.513   0.131   7.739 -0.0115 -0.4592  0.5481
 1582SOL    HW116382   1.455   0.113   7.665  1.7298  2.0999 -1.4751
 1582SOL    HW216383   1.597   0.121   7.693 -1.0181 -0.1494 -1.3755
 1583SOL     OW16384   3.038   0.989   6.159 -0.0784  0.0892  0.0283
 1583SOL    HW116385   3.130   1.013   6.148  0.4321 -1.6616  0.4957
 1583SOL    HW216386   3.020   1.006   6.251 -0.8976 -0.6203 -0.0061
 1584SOL     OW16387   3.191   1.750   3.713 -0.1068  0.2248  0.0151
 1584SOL    HW116388   3.204   1.808   3.638 -0.2992  0.2667  0.0126
 1584SOL    HW216389   3.208   1.665   3.672  0.8504  0.1853  0.5159
 1585SOL     OW16390   1.774   2.895   7.492  0.1765  0.0920  0.1017
 1585SOL    HW116391   1.782   2.874   7.585  1.6896 -1.4921 -0.3902
 1585SOL    HW216392   1.698   2.845   7.463  0.8937 -0.6391 -0.5161
 1586SOL     OW16393   0.776   1.460   8.039  0.1935  0.3972 -0.4317
 1586SOL    HW116394   0.769   1.386   7.979  1.0371 -0.4534  0.5028
 1586SOL    HW216395   0.807   1.418   8.120 -0.9807 -0.4211 -0.4040
 1587SOL     OW16396   2.892   2.596   7.524 -0.0140  0.2177 -0.5772
 1587SOL    HW116397   2.982   2.564   7.519 -0.5611 -1.0006 -2.6754
 1587SOL    HW216398   2.907   2.685   7.492  0.1850  0.7274  0.9426
 1588SOL     OW16399   1.077   1.747   0.501  0.3041  0.6511 -0.1551
 1588SOL    HW116400   1.167   1.781   0.508  0.5465 -0.1003  0.3993
 1588SOL    HW216401   1.067   1.721   0.592 -3.9568 -0.7413 -1.0125
 1589SOL     OW16402   3.286   1.874  15.820 -0.1002 -0.4866 -0.1938
 1589SOL    HW116403   3.195   1.903  15.808  0.1922  0.9519  1.1152
 1589SOL    HW216404   3.331   1.922  15.750  1.1986 -1.4648 -0.0218
 1590SOL     OW16405   1.813   0.892   9.000 -0.0718 -0.2760  0.1995
 1590SOL    HW116406   1.766   0.837   9.063 -1.2777  1.8063  1.1170
 1590SOL    HW216407   1.884   0.929   9.053  0.5158 -1.5110  0.2591
 1591SOL     OW16408   3.157   1.781  10.897 -0.3053  0.4536 -0.2388
 1591SOL    HW116409   3.093   1.838  10.855  0.4332  0.7092 -1.0114
 1591SOL    HW216410   3.188   1.742  10.815  1.5994 -2.0724  1.6774
 1592SOL     OW16411   3.086   1.869   5.048  0.5146  1.2261 -0.2790
 1592SOL    HW116412   3.019   1.876   5.117 -0.0084 -1.8017 -0.4708
 1592SOL    HW216413   3.149   1.930   5.085 -0.5617  1.8058  0.6136
 1593SOL     OW16414   1.243   4.236   4.552  0.3597 -0.4558  0.1074
 1593SOL    HW116415   1.325   4.284   4.549  1.0213 -1.5281  0.9301
 1593SOL    HW216416   1.243   4.171   4.623 -1.5019 -0.0891  0.4552
 1594SOL     OW16417   2.331   0.771   8.737  0.2492 -0.2045 -0.0607
 1594SOL    HW116418   2.306   0.697   8.681  1.9698 -1.5953  0.9868
 1594SOL    HW216419   2.399   0.807   8.680  0.1491 -2.7955 -1.8153
 1595SOL     OW16420   1.786   2.488   2.790  0.4351  0.1177 -0.2491
 1595SOL    HW116421   1.860   2.483   2.730  1.9100  0.7679  1.5330
 1595SOL    HW216422   1.788   2.402   2.832  0.8940 -0.4930 -1.5346
 1596SOL     OW16423   0.733   3.362   4.215 -0.5728  0.0006  0.9229
 1596SOL    HW116424   0.670   3.429   4.239  0.4101  0.5643  1.9340
 1596SOL    HW216425   0.815   3.412   4.216 -0.6354  0.1686 -1.2235
 1597SOL     OW16426   3.744   1.834   3.950  0.3561  0.1370 -1.1151
 1597SOL    HW116427   3.656   1.815   3.917 -0.0417 -2.5190  1.5288
 1597SOL    HW216428   3.774   1.889   3.878  1.6644  1.5276  0.4930
 1598SOL     OW16429   4.196   3.406   7.414 -0.7027 -0.1651  0.4164
 1598SOL    HW116430   4.203   3.501   7.416 -0.3848 -0.1717 -0.3137
 1598SOL    HW216431   4.257   3.385   7.343 -2.3438  0.2706 -1.1235
 1599SOL     OW16432   1.094   3.671   2.284 -0.2326  0.5092 -0.4981
 1599SOL    HW116433   1.014   3.627   2.255 -1.9730  1.6415  2.6419
 1599SOL    HW216434   1.144   3.593   2.307  1.0374  1.3591 -0.3803
 1600SOL     OW16435   3.590   0.163   1.577 -0.3745  0.1704 -0.3032
 1600SOL    HW116436   3.498   0.152   1.603  0.2877 -1.6654  1.2363
 1600SOL    HW216437   3.577   0.153   1.482 -0.7463  0.1332 -0.2485
 1601SOL     OW16438   0.365   0.088   6.315  0.1021  0.0284 -0.5092
 1601SOL    HW116439   0.427   0.020   6.343 -0.9100 -1.0230 -0.8054
 1601SOL    HW216440   0.315   0.049   6.243 -0.9879  1.2175 -0.3914
 1602SOL     OW16441   3.095   3.756   6.313 -0.6150  0.5196 -0.0082
 1602SOL    HW116442   3.176   3.762   6.363  0.0807 -2.3489 -0.8033
 1602SOL    HW216443   3.126   3.806   6.237 -1.5080  0.4166 -0.4479
 1603SOL     OW16444   1.311   1.598   5.255 -0.0613  0.1876  0.2428
 1603SOL    HW116445   1.283   1.660   5.323 -0.1976 -0.7546  1.0443
 1603SOL    HW216446   1.330   1.519   5.306 -1.2579 -0.1372  0.1862
 1604SOL     OW16447   1.954   3.757   8.930 -0.2787 -0.2700 -0.6666
 1604SOL    HW116448   1.924   3.674   8.893  1.8144 -1.8399  1.1531
 1604SOL    HW216449   1.923   3.813   8.859 -2.9227  0.1488  0.8019
 1605SOL     OW16450   0.399   0.578   3.968  1.0277 -0.0424  0.3309
 1605SOL    HW116451   0.307   0.577   3.992  0.6383  2.3898 -0.9697
 1605SOL    HW216452   0.443   0.629   4.036  0.7227  2.0675 -1.0505
 1606SOL     OW16453   3.625   4.510  13.671  0.2528  0.2741  0.6865
 1606SOL    HW116454   3.595   4.462  13.749 -1.2723 -1.2722 -0.8524
 1606SOL    HW216455   3.689   4.450  13.632 -0.7369  0.1071 -0.6679
 1607SOL     OW16456   3.986   2.019   8.499  0.2212  0.3080  0.2030
 1607SOL    HW116457   3.998   1.997   8.406 -3.0714  2.8970 -0.7857
 1607SOL    HW216458   3.983   1.929   8.531  0.9581  0.8423  1.7816
 1608SOL     OW16459   1.316   4.530  17.703  0.2515 -0.3593  0.0179
 1608SOL    HW116460   1.241   4.527   0.022  1.8879  1.3044  2.1677
 1608SOL    HW216461   1.392   4.537   0.019  0.8432 -2.0820 -0.5593
 1609SOL     OW16462   2.994   4.197  14.657 -0.6506  0.1240 -0.3880
 1609SOL    HW116463   2.983   4.137  14.732  0.6470 -1.8681 -1.7833
 1609SOL    HW216464   2.904   4.201  14.626 -1.7021 -1.8761  2.3923
 1610SOL     OW16465   1.957   0.461   1.938  0.0914 -0.6981  0.4437
 1610SOL    HW116466   1.874   0.423   1.909  0.7577 -0.5853 -1.5629
 1610SOL    HW216467   1.935   0.514   2.015  1.1531  0.2871  0.0626
 1611SOL     OW16468   1.264   4.631  16.315 -0.1779 -0.1426  0.4047
 1611SOL    HW116469   1.210   4.582  16.254 -1.5726 -0.1909  1.6727
 1611SOL    HW216470   1.197   4.671  16.371  1.3931  1.0306  1.4709
 1612SOL     OW16471   4.123   4.325   6.073 -0.0164  0.6430 -0.2189
 1612SOL    HW116472   4.091   4.287   6.155 -1.8111 -1.2567 -1.7744
 1612SOL    HW216473   4.201   4.364   6.113  0.2212  0.7576 -0.7933
 1613SOL     OW16474   0.104   0.385   5.214  0.1325 -0.3960  0.1106
 1613SOL    HW116475   0.055   0.361   5.293 -1.8084  0.1088 -0.9447
 1613SOL    HW216476   0.101   0.303   5.163  0.2593  0.3984 -1.1701
 1614SOL     OW16477   3.327   1.860   0.006 -0.3391  0.0691  0.1897
 1614SOL    HW116478   3.291   1.791  17.690  0.0916  1.4321 -1.7189
 1614SOL    HW216479   3.388   1.811   0.061  0.8071 -0.5408 -1.6353
 1615SOL     OW16480   3.956   0.421  17.614  0.1527 -0.4514 -0.1800
 1615SOL    HW116481   3.898   0.476  17.665 -1.0294 -0.2753 -1.6997
 1615SOL    HW216482   3.921   0.334  17.635  2.3976 -0.9717  1.3451
 1616SOL     OW16483   3.052   2.845  17.103  0.4468 -0.7543  0.0358
 1616SOL    HW116484   2.978   2.816  17.157 -0.3898 -2.9324 -2.2896
 1616SOL    HW216485   3.051   2.939  17.122 -1.5941 -0.6836 -0.4646
 1617SOL     OW16486   4.690   2.564  15.964  0.2882 -0.1885 -0.1753
 1617SOL    HW116487   4.633   2.539  16.036 -2.2212  1.8596 -1.4546
 1617SOL    HW216488   4.629   2.625  15.923  1.1384  1.5807  1.2176
 1618SOL     OW16489   4.143   3.552   2.830  0.2062  0.6330 -0.3295
 1618SOL    HW116490   4.082   3.481   2.810  0.1527 -0.2135  2.8615
 1618SOL    HW216491   4.210   3.512   2.775 -0.9629  2.6396 -3.2157
 1619SOL     OW16492   2.264   1.388  16.932 -0.4023  0.4742  0.0849
 1619SOL    HW116493   2.257   1.419  16.842 -0.2281  0.5997  0.1147
 1619SOL    HW216494   2.332   1.442  16.971 -0.0575 -0.0112  0.1635
 1620SOL     OW16495   3.542   0.857   5.468 -0.2230 -0.2852 -0.1237
 1620SOL    HW116496   3.608   0.790   5.489 -0.9936 -0.5198  1.4829
 1620SOL    HW216497   3.461   0.808   5.455 -0.5337  0.3748 -0.6525
 1621SOL     OW16498   2.338   3.396  14.875  0.5465 -0.9697 -0.3363
 1621SOL    HW116499   2.365   3.368  14.962 -0.4081 -0.8111  0.0069
 1621SOL    HW216500   2.257   3.347  14.863 -0.8785  1.8031 -2.0083
 1622SOL     OW16501   1.037   4.021  12.483  0.3956 -0.0371  0.6092
 1622SOL    HW116502   1.048   4.106  12.441 -2.4485  0.9805  1.9148
 1622SOL    HW216503   1.041   4.037  12.577  0.7059  0.2189  0.5485
 1623SOL     OW16504   0.850   3.547   4.535  0.0165  0.2026 -0.1308
 1623SOL    HW116505   0.894   3.574   4.455  0.3738  1.6485  0.5383
 1623SOL    HW216506   0.930   3.523   4.582  0.8494  1.7342 -0.7546
 1624SOL     OW16507   0.433   1.941   6.594 -0.6387 -0.0420 -0.1946
 1624SOL    HW116508   0.341   1.922   6.580 -0.4246 -0.6004 -0.8746
 1624SOL    HW216509   0.438   1.933   6.689  0.3902 -0.3363 -0.2660
 1625SOL     OW16510   0.827   0.602  17.628  0.4235 -0.4721  0.4869
 1625SOL    HW116511   0.902   0.552  17.595  0.4195 -0.4531  0.4494
 1625SOL    HW216512   0.760   0.579  17.564 -1.5621 -2.1241  3.1667
 1626SOL     OW16513   2.439   4.502   3.017  0.3441 -0.1607  0.1320
 1626SOL    HW116514   2.355   4.471   2.984 -0.0596  1.3325 -0.2492
 1626SOL    HW216515   2.409   4.560   3.087  0.7518 -0.5925  0.6638
 1627SOL     OW16516   2.658   0.027   3.432  0.0642  0.0194  0.2673
 1627SOL    HW116517   2.740   0.073   3.416 -0.2341  0.1900 -0.7466
 1627SOL    HW216518   2.663   4.691   3.369 -0.8190 -0.6135  0.9099
 1628SOL     OW16519   3.972   4.198   3.836 -0.2336 -0.0932 -0.2860
 1628SOL    HW116520   3.992   4.131   3.901 -0.3106  0.3158  0.1642
 1628SOL    HW216521   4.001   4.158   3.754  0.8273  1.5711 -0.7371
 1629SOL     OW16522   1.876   4.373   5.004 -0.3401 -0.5096 -0.0933
 1629SOL    HW116523   1.970   4.391   4.998 -0.3214  0.2964  2.5744
 1629SOL    HW216524   1.872   4.308   5.075  2.3669  2.6869  3.0317
 1630SOL     OW16525   2.610   0.799   2.260  0.3237 -0.4492  0.4026
 1630SOL    HW116526   2.666   0.724   2.278  1.5933  0.6930  1.1756
 1630SOL    HW216527   2.524   0.757   2.263  1.1611 -2.1499  0.6706
 1631SOL     OW16528   4.355   2.325  15.780 -0.2042  1.1457 -0.6497
 1631SOL    HW116529   4.265   2.358  15.788 -0.4985  0.1119  0.4569
 1631SOL    HW216530   4.366   2.335  15.686  1.1455 -1.7789 -0.7966
 1632SOL     OW16531   3.672   4.449   3.969 -0.6956  0.2054 -0.1144
 1632SOL    HW116532   3.758   4.462   4.010 -0.7524  0.9404 -0.2302
 1632SOL    HW216533   3.635   4.394   4.039 -0.0630 -0.6143 -0.4281
 1633SOL     OW16534   3.001   3.422   9.385  0.1486 -0.6230 -1.2819
 1633SOL    HW116535   3.069   3.388   9.327 -0.1445  0.9032 -2.5349
 1633SOL    HW216536   2.934   3.455   9.325 -0.3829 -0.4283 -0.5848
 1634SOL     OW16537   2.060   3.802   4.360 -0.2986 -0.2077  0.3666
 1634SOL    HW116538   2.100   3.866   4.419 -1.3875 -1.3117  2.2797
 1634SOL    HW216539   2.117   3.727   4.375  0.7051  0.5966  0.5641
 1635SOL     OW16540   4.425   3.093   7.343 -0.1074 -0.1894  0.7204
 1635SOL    HW116541   4.346   3.068   7.393 -1.0338 -0.7694 -1.0274
 1635SOL    HW216542   4.450   3.170   7.394 -1.9519  1.7873 -1.3669
 1636SOL     OW16543   1.595   0.710   2.626 -0.2990  0.2058  0.1606
 1636SOL    HW116544   1.675   0.707   2.574 -0.9050 -1.4728 -0.6723
 1636SOL    HW216545   1.622   0.730   2.716 -0.8550  0.5745  0.2471
 1637SOL     OW16546   3.805   0.344   1.655 -0.0010  0.3024 -0.2973
 1637SOL    HW116547   3.760   0.427   1.667  0.3612  0.5557 -0.6732
 1637SOL    HW216548   3.731   0.291   1.623 -0.4147  1.3023 -1.0000
 1638SOL     OW16549   1.502   0.017   5.353 -0.8475 -0.2552 -0.2589
 1638SOL    HW116550   1.586   4.713   5.380 -0.6245 -0.0004 -0.5757
 1638SOL    HW216551   1.458   0.024   5.437  1.6618 -1.6813  1.1864
 1639SOL     OW16552   2.696   1.777   8.242  0.3116 -0.0481  0.0937
 1639SOL    HW116553   2.751   1.769   8.320  0.3774  0.2915  0.0809
 1639SOL    HW216554   2.773   1.786   8.186  0.5980  1.2356  0.6897
 1640SOL     OW16555   3.869   3.504  11.826  0.1661 -0.7307  0.1473
 1640SOL    HW116556   3.780   3.529  11.851 -0.3546 -0.6034 -1.8265
 1640SOL    HW216557   3.918   3.582  11.852  0.1887 -0.9507  0.7712
 1641SOL     OW16558   2.572   1.921   8.610 -0.4360 -0.5118  0.1118
 1641SOL    HW116559   2.487   1.948   8.644 -0.0560 -0.1824  0.8203
 1641SOL    HW216560   2.635   1.993   8.605  0.4235 -1.3052 -0.5756
 1642SOL     OW16561   4.666   2.826  12.267 -0.2084  0.0201  0.0740
 1642SOL    HW116562   4.687   2.734  12.282  2.5798  0.7306  0.5364
 1642SOL    HW216563   4.631   2.849  12.353  1.1743 -0.3983  0.7488
 1643SOL     OW16564   4.554   3.825   1.139 -0.0218 -0.1414 -0.5918
 1643SOL    HW116565   4.638   3.854   1.174  0.5267 -3.4415  0.8659
 1643SOL    HW216566   4.549   3.737   1.177  1.1105 -0.9005 -2.2004
 1644SOL     OW16567   2.324   0.509   5.965  0.2083  0.5648 -0.7681
 1644SOL    HW116568   2.311   0.423   6.005 -0.2205  0.7556 -0.5011
 1644SOL    HW216569   2.412   0.526   6.000  0.0186  3.0902 -1.5149
 1645SOL     OW16570   1.020   4.356  15.883 -0.3386 -0.3103  0.0562
 1645SOL    HW116571   0.963   4.332  15.810 -0.9114 -0.5835  0.5883
 1645SOL    HW216572   1.075   4.414  15.830 -0.4422  0.1973  0.5137
 1646SOL     OW16573   1.955   1.256   3.752 -0.3062  0.3036  0.0028
 1646SOL    HW116574   1.871   1.219   3.725 -0.2361  1.0486 -1.2472
 1646SOL    HW216575   2.008   1.177   3.765  1.3245  1.5937  1.1358
 1647SOL     OW16576   0.880   1.453   6.511  0.4254 -0.4579  0.4328
 1647SOL    HW116577   0.953   1.483   6.456 -3.0567  0.8037 -3.4442
 1647SOL    HW216578   0.807   1.488   6.460  0.3816 -1.0332  0.0905
 1648SOL     OW16579   0.415   1.945   1.621  0.3224 -0.2151  0.6950
 1648SOL    HW116580   0.327   1.914   1.603 -0.0511  0.3169  1.5759
 1648SOL    HW216581   0.453   1.927   1.535 -0.9102  0.9795 -0.0911
 1649SOL     OW16582   4.051   3.337   4.181 -0.3974 -0.8692  0.3543
 1649SOL    HW116583   4.104   3.408   4.146 -0.3837  0.4284  3.0234
 1649SOL    HW216584   3.982   3.375   4.236  1.8584  0.2345  2.4571
 1650SOL     OW16585   3.807   3.500  11.569  0.4801  0.2487  0.3474
 1650SOL    HW116586   3.830   3.484  11.661  0.4745 -1.0957  0.1197
 1650SOL    HW216587   3.712   3.500  11.584  0.4365 -0.4284  0.0691
 1651SOL     OW16588   3.963   2.674  14.322 -0.4598 -0.1799 -0.8134
 1651SOL    HW116589   4.024   2.667  14.249 -0.4193 -0.8486 -0.7104
 1651SOL    HW216590   3.932   2.584  14.315  0.4199 -0.5193 -0.2686
 1652SOL     OW16591   2.518   1.363   2.091  0.2188 -0.1688  0.3579
 1652SOL    HW116592   2.433   1.350   2.132 -0.7836 -0.8559 -1.9090
 1652SOL    HW216593   2.514   1.459   2.097  0.9050 -0.0893 -0.4892
 1653SOL     OW16594   1.032   4.477  10.845 -0.4169 -0.5463  0.1817
 1653SOL    HW116595   0.959   4.419  10.868 -1.5189  0.7299 -0.0596
 1653SOL    HW216596   1.076   4.489  10.928 -1.9649 -0.6375  1.0163
 1654SOL     OW16597   1.634   3.524   5.829 -0.6355 -0.0341 -0.0726
 1654SOL    HW116598   1.607   3.614   5.845  0.0116  0.5692 -2.3613
 1654SOL    HW216599   1.547   3.494   5.804  0.6288 -1.8698 -2.3223
 1655SOL     OW16600   2.832   1.209   9.684 -0.1007  0.6817 -0.0382
 1655SOL    HW116601   2.741   1.178   9.689  0.1316 -0.1800 -1.2344
 1655SOL    HW216602   2.883   1.131   9.702 -0.1954  0.5791 -0.2102
 1656SOL     OW16603   3.010   3.080   5.779  0.3858 -0.0869 -0.0253
 1656SOL    HW116604   3.093   3.114   5.746  0.0298  0.8061 -0.0088
 1656SOL    HW216605   3.017   3.135   5.857  0.2418 -0.9422  0.5922
 1657SOL     OW16606   2.371   3.454  11.919 -0.0411 -0.5459 -0.1188
 1657SOL    HW116607   2.460   3.419  11.924  0.9678  1.6921 -1.9614
 1657SOL    HW216608   2.326   3.416  11.994 -0.4633 -0.3434 -0.2666
 1658SOL     OW16609   1.072   3.125   6.565 -0.1480  0.2784  0.4096
 1658SOL    HW116610   1.121   3.091   6.490 -3.5785 -1.6378 -0.9560
 1658SOL    HW216611   0.986   3.091   6.538  0.2566 -0.6227  0.2522
 1659SOL     OW16612   4.186   0.316   2.820  0.4438  0.3232 -0.4253
 1659SOL    HW116613   4.106   0.345   2.776  0.0799  0.0758  0.0677
 1659SOL    HW216614   4.153   0.309   2.910  2.1773 -0.3007  0.1572
 1660SOL     OW16615   1.249   1.469   1.773 -0.0205 -0.6249  0.2088
 1660SOL    HW116616   1.238   1.377   1.797  1.8176 -1.0065 -0.3940
 1660SOL    HW216617   1.327   1.492   1.824  0.4734 -0.8507 -0.4438
 1661SOL     OW16618   1.901   2.984   6.998  0.2569  0.6196 -0.1264
 1661SOL    HW116619   1.950   2.902   6.995 -2.5720 -1.2012  2.5934
 1661SOL    HW216620   1.898   2.991   7.094  0.6232  1.8209 -0.2121
 1662SOL     OW16621   4.530   0.862   5.501  0.0299  0.1645  0.3373
 1662SOL    HW116622   4.438   0.844   5.485 -0.2495  0.9726  1.0610
 1662SOL    HW216623   4.556   0.782   5.456 -0.5405  0.7345 -0.9926
 1663SOL     OW16624   1.119   1.914  10.557 -0.6525 -0.2498  0.1453
 1663SOL    HW116625   1.044   1.859  10.533 -0.2743 -0.8275  0.2707
 1663SOL    HW216626   1.095   1.928  10.649 -0.7543 -0.4870  0.1543
 1664SOL     OW16627   2.274   0.231   5.419 -0.3971 -0.0827  0.2004
 1664SOL    HW116628   2.243   0.311   5.461 -0.9787  0.2210 -0.7945
 1664SOL    HW216629   2.224   0.217   5.338  1.4846 -1.0457 -0.8059
 1665SOL     OW16630   2.620   0.542  17.129  0.4879 -0.3136 -0.0525
 1665SOL    HW116631   2.592   0.627  17.164  1.3991  0.2865 -0.7651
 1665SOL    HW216632   2.714   0.558  17.119  0.4054  0.1279 -0.1459
 1666SOL     OW16633   3.063   2.208   5.008  0.2130 -0.0454  0.7518
 1666SOL    HW116634   3.074   2.244   5.097  0.3037  0.5914  0.4857
 1666SOL    HW216635   3.153   2.214   4.976 -0.0445  0.6128  0.1522
 1667SOL     OW16636   0.815   0.733   5.477 -0.1034  0.4972  0.0658
 1667SOL    HW116637   0.745   0.680   5.439  0.6977 -1.3945  1.1839
 1667SOL    HW216638   0.822   0.803   5.413  1.8897  1.1662  1.0268
 1668SOL     OW16639   3.310   2.233   6.895 -0.6888  0.0580 -0.3283
 1668SOL    HW116640   3.220   2.199   6.898 -0.5905  0.0206  2.0685
 1668SOL    HW216641   3.359   2.162   6.936 -1.2677 -1.0242 -1.4517
 1669SOL     OW16642   0.726   2.639   9.174 -0.5654  0.0500 -0.0317
 1669SOL    HW116643   0.631   2.631   9.170 -0.6360  2.1402 -2.0347
 1669SOL    HW216644   0.739   2.641   9.269 -1.0387  1.0140  0.0145
 1670SOL     OW16645   0.139   0.779  13.211 -0.4767 -0.4192  0.5932
 1670SOL    HW116646   0.162   0.687  13.227  2.1668 -0.0625 -1.1281
 1670SOL    HW216647   0.177   0.817  13.290 -2.0331  1.1201  0.5902
 1671SOL     OW16648   3.255   2.628   6.573 -0.1481 -0.4311 -0.6891
 1671SOL    HW116649   3.245   2.694   6.641 -0.8233 -0.2618 -0.9510
 1671SOL    HW216650   3.298   2.679   6.504  2.3694  0.0668  1.2813
 1672SOL     OW16651   0.694   0.665  16.904 -0.3306 -0.0011  0.1675
 1672SOL    HW116652   0.687   0.589  16.845  1.8018  0.9951 -1.3718
 1672SOL    HW216653   0.730   0.730  16.844  3.1609 -0.9266  1.2818
 1673SOL     OW16654   3.138   1.613   6.179 -0.2334  0.2288 -0.3174
 1673SOL    HW116655   3.221   1.606   6.130 -2.2610 -1.7534 -3.4388
 1673SOL    HW216656   3.108   1.525   6.201 -0.5579  0.4235  0.0191
 1674SOL     OW16657   0.795   4.613   0.198 -0.1142 -0.2650 -0.2347
 1674SOL    HW116658   0.817   4.608   0.105  3.3531  1.2896  0.4937
 1674SOL    HW216659   0.856   4.556   0.245  1.1671  0.7856 -0.6118
 1675SOL     OW16660   2.979   1.773  11.460 -0.3866 -0.0081 -0.2030
 1675SOL    HW116661   2.959   1.858  11.422  0.1892 -0.5734 -1.7807
 1675SOL    HW216662   2.936   1.769  11.546 -2.1569  1.4845 -1.0415
 1676SOL     OW16663   1.687   1.215   3.717 -0.5285  0.8053  0.3168
 1676SOL    HW116664   1.627   1.271   3.765  1.3893  3.4721 -0.4030
 1676SOL    HW216665   1.620   1.173   3.664  0.7813  0.3009 -0.9545
 1677SOL     OW16666   0.829   4.522   3.309 -0.3656  0.2848  0.7855
 1677SOL    HW116667   0.809   4.429   3.323  1.1183  0.1555  1.9970
 1677SOL    HW216668   0.743   4.554   3.281 -0.1208 -2.0162 -2.5599
 1678SOL     OW16669   4.637   1.761   2.772 -0.0842  0.6697 -0.3703
 1678SOL    HW116670   4.675   1.680   2.738 -2.1130 -1.0823  1.5141
 1678SOL    HW216671   4.711   1.793   2.823  0.6091 -0.7545 -0.4583
 1679SOL     OW16672   3.757   3.330   1.071 -0.1174  0.3576  0.0011
 1679SOL    HW116673   3.819   3.278   1.019  0.2827  0.9432 -0.1128
 1679SOL    HW216674   3.716   3.266   1.128 -0.3516 -0.6832 -1.3215
 1680SOL     OW16675   2.894   2.839   8.425 -0.1259 -0.2356  0.0639
 1680SOL    HW116676   2.905   2.934   8.429  0.4047 -0.1878 -2.4924
 1680SOL    HW216677   2.869   2.818   8.335  3.0436  0.0246 -0.8756
 1681SOL     OW16678   1.919   2.559   2.042  0.2629 -0.3140 -0.8177
 1681SOL    HW116679   1.838   2.611   2.043  0.0686 -0.6139 -0.8862
 1681SOL    HW216680   1.891   2.482   2.091 -2.3594  3.1624  3.2106
 1682SOL     OW16681   4.514   3.855   1.841 -0.6794 -0.3217 -0.2052
 1682SOL    HW116682   4.494   3.930   1.786  0.2666  0.5763  0.6883
 1682SOL    HW216683   4.609   3.855   1.854 -0.6761  4.5056 -0.2509
 1683SOL     OW16684   1.386   1.477   2.059  0.4301  0.1965  0.3318
 1683SOL    HW116685   1.386   1.565   2.021  2.0510 -0.2736 -0.7757
 1683SOL    HW216686   1.379   1.504   2.151 -2.0033 -1.0203  0.4881
 1684SOL     OW16687   2.152   3.649   0.212 -0.0511 -0.1920  0.3329
 1684SOL    HW116688   2.158   3.565   0.257 -1.7952 -0.2156  0.4873
 1684SOL    HW216689   2.090   3.620   0.145 -0.2065  1.1951 -0.1201
 1685SOL     OW16690   4.550   1.276   1.163 -0.1920 -0.5085 -0.1350
 1685SOL    HW116691   4.480   1.231   1.210  0.6990 -1.1623  0.5806
 1685SOL    HW216692   4.610   1.287   1.237  0.5296 -2.2732 -0.4549
 1686SOL     OW16693   0.156   2.578   2.354 -0.0285 -0.0699 -0.3397
 1686SOL    HW116694   0.132   2.639   2.284 -2.6421 -1.6270 -0.7906
 1686SOL    HW216695   0.248   2.602   2.357 -0.4121  1.4579 -0.9230
 1687SOL     OW16696   2.383   1.363   1.167  0.0787 -0.1679 -0.4241
 1687SOL    HW116697   2.300   1.403   1.141 -2.2725 -2.6610  3.3523
 1687SOL    HW216698   2.410   1.330   1.081 -0.9191 -1.8366 -0.0989
 1688SOL     OW16699   1.436   1.602  17.257  0.3114 -0.3681  0.0643
 1688SOL    HW116700   1.459   1.537  17.190 -2.1617 -0.9608 -0.2322
 1688SOL    HW216701   1.431   1.529  17.318  1.9000 -1.4883 -1.1239
 1689SOL     OW16702   3.208   1.660  16.829  0.1077  0.4023 -0.1581
 1689SOL    HW116703   3.127   1.617  16.857 -0.7327  1.7437 -0.5229
 1689SOL    HW216704   3.261   1.582  16.810  1.2977  1.4146 -0.9868
 1690SOL     OW16705   1.294   3.228   7.301  0.3694 -0.6227 -0.2046
 1690SOL    HW116706   1.352   3.190   7.236 -1.7468 -3.0236 -0.7002
 1690SOL    HW216707   1.348   3.273   7.366 -1.3933 -0.1708  0.9437
 1691SOL     OW16708   2.435   2.095  16.310 -0.5582 -0.2547  0.5867
 1691SOL    HW116709   2.414   2.120  16.221 -0.1613 -0.7041  0.3667
 1691SOL    HW216710   2.365   2.034  16.331 -1.1841  0.4629  0.5795
 1692SOL     OW16711   2.234   4.365   8.474 -0.1782  0.0680 -0.7028
 1692SOL    HW116712   2.221   4.279   8.435  1.7173 -0.9611  0.8884
 1692SOL    HW216713   2.299   4.339   8.540 -2.1814  1.3878  1.7662
 1693SOL     OW16714   3.371   4.387  13.287 -0.0442 -0.4088 -0.0408
 1693SOL    HW116715   3.460   4.411  13.311  0.4408 -2.9838  0.6903
 1693SOL    HW216716   3.360   4.410  13.194  2.9417 -1.1962 -0.5701
 1694SOL     OW16717   3.576   4.208   4.130  0.0599  0.2317  0.4341
 1694SOL    HW116718   3.643   4.147   4.161 -1.6104 -0.8671  1.8838
 1694SOL    HW216719   3.516   4.138   4.104  2.5017 -1.9981  0.7841
 1695SOL     OW16720   4.351   2.032   6.596 -0.6032 -0.1445 -0.0286
 1695SOL    HW116721   4.287   2.053   6.527  0.7357  1.6676 -0.7145
 1695SOL    HW216722   4.295   2.034   6.673 -0.6752 -0.0921 -0.0824
 1696SOL     OW16723   4.438   1.734   7.842 -0.8665 -0.2940  0.2976
 1696SOL    HW116724   4.367   1.678   7.873 -1.2597  0.2037  0.2836
 1696SOL    HW216725   4.516   1.692   7.879 -0.1929 -0.0638 -0.8539
 1697SOL     OW16726   2.774   3.331  10.970  0.3320  0.5066 -0.3860
 1697SOL    HW116727   2.781   3.239  10.993 -0.7745  1.5548  4.1730
 1697SOL    HW216728   2.720   3.358  11.044  0.2445 -0.5939 -0.0510
 1698SOL     OW16729   3.932   0.901   6.380 -0.5482 -0.4337 -0.3832
 1698SOL    HW116730   3.978   0.821   6.354 -1.8401 -0.5167 -2.4673
 1698SOL    HW216731   3.914   0.867   6.468  0.1948  2.1261  0.7527
 1699SOL     OW16732   0.061   1.385   4.594  0.0608 -0.0775  0.1771
 1699SOL    HW116733   0.085   1.419   4.508  0.3571  0.0034  0.2906
 1699SOL    HW216734   0.092   1.295   4.585  2.2418  1.0543 -3.2703
 1700SOL     OW16735   2.119   0.671  13.840 -0.2511 -0.5818  0.1140
 1700SOL    HW116736   2.153   0.637  13.757 -0.7645 -2.5348  0.6907
 1700SOL    HW216737   2.200   0.659  13.890 -0.3170  0.5470  0.4967
 1701SOL     OW16738   1.996   1.572  17.054  0.2376 -0.5212 -0.2792
 1701SOL    HW116739   1.942   1.621  16.991 -0.6987  2.3359  2.7544
 1701SOL    HW216740   2.062   1.521  17.007 -2.7295 -1.7527 -3.1970
 1702SOL     OW16741   3.605   2.054  16.540 -0.5735 -0.5034 -0.3613
 1702SOL    HW116742   3.605   2.054  16.636 -1.9528 -0.3329 -0.3608
 1702SOL    HW216743   3.669   2.123  16.524 -0.5274 -0.6795 -0.9314
 1703SOL     OW16744   4.729   1.316   5.418  0.1922  0.1469  0.6036
 1703SOL    HW116745   0.007   1.397   5.467 -0.4279 -1.2671  3.1038
 1703SOL    HW216746   4.714   1.354   5.331  0.3122 -3.8853 -1.1832
 1704SOL     OW16747   0.598   0.524   7.775  0.1136 -0.6573  0.4121
 1704SOL    HW116748   0.575   0.604   7.728 -0.1602 -1.1232 -0.2456
 1704SOL    HW216749   0.570   0.462   7.708  1.2874  0.3399 -1.0025
 1705SOL     OW16750   2.762   2.231  13.241  0.1098  0.0745 -0.4500
 1705SOL    HW116751   2.760   2.209  13.335  3.4322  2.2325  0.1213
 1705SOL    HW216752   2.801   2.156  13.196  2.1643  0.1545  1.1939
 1706SOL     OW16753   0.846   3.239   2.910  0.0254 -0.0322  0.7789
 1706SOL    HW116754   0.796   3.168   2.870 -0.3738  1.6522 -1.7378
 1706SOL    HW216755   0.923   3.219   2.857 -1.0371 -0.3825 -0.6593
 1707SOL     OW16756   2.313   4.140   7.180  0.0116 -0.0954  0.3310
 1707SOL    HW116757   2.365   4.075   7.132 -0.2218 -0.5899  0.7504
 1707SOL    HW216758   2.385   4.160   7.241 -0.2535 -0.9290  0.9092
 1708SOL     OW16759   3.554   4.245   8.814  0.0000  0.2904 -0.8768
 1708SOL    HW116760   3.591   4.255   8.727 -2.4696 -0.5785 -2.0132
 1708SOL    HW216761   3.575   4.155   8.840 -0.5407  0.4642  0.1764
 1709SOL     OW16762   1.770   3.173   7.411  0.2476 -0.6129  0.5078
 1709SOL    HW116763   1.785   3.083   7.440  0.4470 -0.6059  0.4290
 1709SOL    HW216764   1.724   3.156   7.329  0.0318  0.0379  0.4942
 1710SOL     OW16765   1.636   2.400  11.237  0.0366 -0.1920 -0.2155
 1710SOL    HW116766   1.619   2.415  11.143  2.4989  1.2671 -0.4316
 1710SOL    HW216767   1.617   2.480  11.285 -0.3709 -1.8667  2.3953
 1711SOL     OW16768   0.036   0.455   4.874 -0.7606 -0.0021 -0.1491
 1711SOL    HW116769   0.005   0.456   4.784 -0.0672 -2.2618 -0.4218
 1711SOL    HW216770   4.730   0.373   4.901  2.6432 -1.4183  0.7859
 1712SOL     OW16771   2.137   0.244   9.429  0.2398 -0.0877 -0.0696
 1712SOL    HW116772   2.151   0.177   9.362  0.8106 -0.1246  0.0837
 1712SOL    HW216773   2.057   0.211   9.470  1.2063  0.3835  2.2090
 1713SOL     OW16774   0.930   1.883   7.424  0.0822  0.4987  0.5894
 1713SOL    HW116775   0.949   1.814   7.488 -1.1356 -1.0058 -0.6566
 1713SOL    HW216776   0.871   1.833   7.367 -1.6235  0.8789  2.0219
 1714SOL     OW16777   2.169   1.275  11.899 -0.2707  0.5563  0.1372
 1714SOL    HW116778   2.147   1.311  11.814 -1.0506 -1.7591 -0.6489
 1714SOL    HW216779   2.085   1.246  11.936 -0.7224  1.6091 -0.0693
 1715SOL     OW16780   4.230   0.925   4.415 -0.0791 -1.0629  0.2230
 1715SOL    HW116781   4.313   0.955   4.454 -0.0738  1.9148 -2.1071
 1715SOL    HW216782   4.229   0.837   4.452  1.3075 -1.1291  0.1270
 1716SOL     OW16783   2.313   3.185   9.849  0.4691 -0.2573 -0.1673
 1716SOL    HW116784   2.380   3.215   9.911 -2.2193  2.6625  1.3058
 1716SOL    HW216785   2.344   3.098   9.824 -0.0580 -0.8193  1.1086
 1717SOL     OW16786   1.370   4.526   1.324  0.0734  0.2178 -0.3849
 1717SOL    HW116787   1.451   4.558   1.285 -0.6077  1.0227 -1.1286
 1717SOL    HW216788   1.333   4.490   1.244 -0.2445 -0.8795  0.2585
 1718SOL     OW16789   4.594   2.452  16.199  0.1195  0.4117 -0.3129
 1718SOL    HW116790   4.670   2.395  16.195  0.3749  0.8391 -1.3965
 1718SOL    HW216791   4.609   2.484  16.288 -2.9096 -3.0347  1.4327
 1719SOL     OW16792   0.252   1.043   2.385 -0.1035 -0.1399  0.3567
 1719SOL    HW116793   0.336   0.998   2.377  0.2964  0.8253 -0.7232
 1719SOL    HW216794   0.267   1.137   2.389 -0.7343  0.0667 -2.4989
 1720SOL     OW16795   4.653   2.218   8.121 -0.4627 -0.5055 -0.1308
 1720SOL    HW116796   4.651   2.273   8.199  1.9709 -1.1583  0.3713
 1720SOL    HW216797   4.710   2.148   8.151 -1.3824  0.9621  4.9513
 1721SOL     OW16798   3.600   0.978  14.636 -0.2435 -0.0386 -0.2733
 1721SOL    HW116799   3.672   0.927  14.599  1.1652  0.2403  2.0624
 1721SOL    HW216800   3.647   1.056  14.664  0.2090 -0.4007 -0.0253
 1722SOL     OW16801   3.521   1.375   2.112  0.2895  0.0454 -0.0141
 1722SOL    HW116802   3.450   1.400   2.053 -1.5421  2.1659  3.1164
 1722SOL    HW216803   3.597   1.421   2.075 -0.0729  0.1817 -0.5810
 1723SOL     OW16804   3.368   4.549  16.077 -0.1091  0.8077  0.2334
 1723SOL    HW116805   3.365   4.643  16.058  0.0813  0.0758 -3.3316
 1723SOL    HW216806   3.316   4.550  16.157  0.5148 -2.3458  0.6739
 1724SOL     OW16807   3.620   2.264  13.025 -0.0665  0.0641  0.1993
 1724SOL    HW116808   3.632   2.345  13.075 -0.8832  0.3061 -0.0040
 1724SOL    HW216809   3.606   2.200  13.095  0.5474  1.7827  1.9027
 1725SOL     OW16810   2.898   2.953  12.087 -0.2218  0.2443  0.0587
 1725SOL    HW116811   2.965   2.920  12.146  0.8188 -3.0360 -2.9224
 1725SOL    HW216812   2.820   2.916  12.128  0.2786 -1.4002 -0.4467
 1726SOL     OW16813   1.752   1.414   4.405 -0.5833 -0.0745  0.3613
 1726SOL    HW116814   1.669   1.445   4.438  0.7323  3.1873  0.5546
 1726SOL    HW216815   1.764   1.455   4.320  0.8044 -0.7000  0.2458
 1727SOL     OW16816   4.582   2.115   5.071  0.4860  0.6327 -1.1079
 1727SOL    HW116817   4.653   2.057   5.099  0.6349  1.1893 -0.3381
 1727SOL    HW216818   4.631   2.196   5.057  4.7946 -2.2400 -2.5336
 1728SOL     OW16819   4.135   2.035   2.476  0.1918  0.1060 -0.5811
 1728SOL    HW116820   4.172   2.118   2.506  0.8367  0.3776 -2.1324
 1728SOL    HW216821   4.189   2.023   2.398  1.4393 -1.9121  0.5913
 1729SOL     OW16822   4.405   0.346  16.743  0.0242  0.5594 -0.4166
 1729SOL    HW116823   4.385   0.411  16.676  1.7409  0.7134 -0.7807
 1729SOL    HW216824   4.335   0.283  16.726 -1.1670  1.8281 -0.1564
 1730SOL     OW16825   0.844   2.303   1.582  0.0462 -0.4067  0.2892
 1730SOL    HW116826   0.792   2.267   1.654  2.5040 -2.0773  1.2332
 1730SOL    HW216827   0.935   2.284   1.606  0.2239 -0.8319 -0.7343
 1731SOL     OW16828   1.570   2.973   3.302 -0.4346  0.3993  0.8482
 1731SOL    HW116829   1.590   2.989   3.210 -0.5839  0.8606  0.8946
 1731SOL    HW216830   1.653   2.932   3.325 -0.1737 -0.3628 -1.4510
 1732SOL     OW16831   3.890   1.923   4.907  0.0984 -0.0236 -0.0802
 1732SOL    HW116832   3.931   1.912   4.992 -0.5995 -1.7408  0.0367
 1732SOL    HW216833   3.846   1.838   4.910  0.9469 -0.4964 -0.6229
 1733SOL     OW16834   2.399   1.066   1.998 -0.3547 -0.6872  0.1207
 1733SOL    HW116835   2.488   1.035   2.016 -0.8732 -0.4263  3.2560
 1733SOL    HW216836   2.346   0.996   2.037 -2.0545  0.2597 -0.5126
 1734SOL     OW16837   0.203   1.231   8.181 -0.1531  0.2288 -0.3545
 1734SOL    HW116838   0.281   1.219   8.127 -0.4597  3.4137 -1.5586
 1734SOL    HW216839   0.249   1.255   8.261  1.2424  2.3087 -1.7519
 1735SOL     OW16840   1.693   3.117   7.151 -0.7944 -0.2337 -0.1979
 1735SOL    HW116841   1.730   3.064   7.080 -2.1246  0.3976 -1.3618
 1735SOL    HW216842   1.599   3.103   7.139 -1.0574  0.7481  0.7029
 1736SOL     OW16843   0.708   3.156  10.495  0.0968 -0.0983 -0.0619
 1736SOL    HW116844   0.689   3.248  10.477 -1.1689 -0.7167 -1.9257
 1736SOL    HW216845   0.694   3.121  10.407  2.2417  1.8272 -1.1755
 1737SOL     OW16846   3.846   2.418   1.643 -0.0489 -0.5722  0.5307
 1737SOL    HW116847   3.763   2.418   1.689 -0.7782 -1.1070 -0.7998
 1737SOL    HW216848   3.816   2.469   1.568  3.2289 -2.3029 -1.9706
 1738SOL     OW16849   1.877   3.966   6.279  0.3818  0.3805 -0.1470
 1738SOL    HW116850   1.896   4.051   6.320  0.9207 -0.8770  2.2374
 1738SOL    HW216851   1.865   3.919   6.362  0.8315 -0.1528 -0.3904
 1739SOL     OW16852   1.383   1.888   1.453 -0.0891  0.1922  0.3936
 1739SOL    HW116853   1.385   1.796   1.480 -0.6240 -0.3056 -1.2834
 1739SOL    HW216854   1.472   1.888   1.419 -0.2115  0.3067  0.0817
 1740SOL     OW16855   3.246   1.710  10.257 -0.5636 -0.1157 -0.2647
 1740SOL    HW116856   3.285   1.639  10.205 -0.9912 -1.1227  0.7699
 1740SOL    HW216857   3.298   1.696  10.336 -0.1394  1.6194 -0.2379
 1741SOL     OW16858   1.348   2.657   8.964 -0.1280  0.0158  0.1320
 1741SOL    HW116859   1.388   2.594   8.904 -0.8111 -0.6071  0.3297
 1741SOL    HW216860   1.343   2.744   8.925  1.1981 -0.5129 -1.2187
 1742SOL     OW16861   3.018   2.017  10.882  0.1327 -0.5801  0.2048
 1742SOL    HW116862   3.004   1.982  10.970  0.5961  1.6542  1.1583
 1742SOL    HW216863   2.932   2.046  10.852  0.6524  1.6032  0.8193
 1743SOL     OW16864   2.264   3.491   2.711  0.0742  0.5590  1.0603
 1743SOL    HW116865   2.273   3.557   2.780  0.6984  0.3329  1.1931
 1743SOL    HW216866   2.318   3.525   2.640  1.6831 -1.4116  1.3401
 1744SOL     OW16867   1.827   2.842   8.041  0.2896  0.0118 -0.3226
 1744SOL    HW116868   1.750   2.798   8.005 -0.5660 -0.2206  1.8009
 1744SOL    HW216869   1.805   2.930   8.011  0.5809  0.0991 -0.2822
 1745SOL     OW16870   0.855   0.110  10.877 -0.3279  0.1116  0.0495
 1745SOL    HW116871   0.849   0.079  10.967 -0.6211  1.3671  0.4580
 1745SOL    HW216872   0.772   0.156  10.867 -1.0885 -1.4582 -0.8597
 1746SOL     OW16873   0.735   0.588   9.262  0.8478  0.3227  0.2176
 1746SOL    HW116874   0.742   0.634   9.346  1.1075 -1.3452  1.1083
 1746SOL    HW216875   0.654   0.538   9.262  0.0855  1.5789  2.1131
 1747SOL     OW16876   1.153   3.816   6.019  0.1749  0.5331 -0.1074
 1747SOL    HW116877   1.239   3.815   5.977  0.8375  2.3113  1.2123
 1747SOL    HW216878   1.174   3.773   6.102  1.2159 -2.3231 -1.8424
 1748SOL     OW16879   3.244   2.519   1.111 -0.2255  0.1518 -0.5643
 1748SOL    HW116880   3.177   2.587   1.104  0.9556  1.6054  2.0452
 1748SOL    HW216881   3.282   2.520   1.023  0.4243  1.4903 -0.2738
 1749SOL     OW16882   0.395   0.591   7.452  0.0403 -0.1235  0.3732
 1749SOL    HW116883   0.332   0.593   7.524 -1.1695 -0.4711 -0.6807
 1749SOL    HW216884   0.462   0.534   7.489 -0.0739 -0.3501  0.2241
 1750SOL     OW16885   3.030   2.429  10.145 -0.8018 -0.0493 -0.5162
 1750SOL    HW116886   2.961   2.493  10.162 -0.6964 -0.2176  0.5098
 1750SOL    HW216887   2.981   2.375  10.083  1.7709 -1.8485 -0.9898
 1751SOL     OW16888   2.971   3.589   3.819 -0.2684 -0.2074  0.0663
 1751SOL    HW116889   3.038   3.548   3.765  0.1430  2.1850 -1.2356
 1751SOL    HW216890   3.013   3.587   3.904  0.0430  0.6461 -0.0701
 1752SOL     OW16891   0.459   2.488   6.296  0.2533 -0.1940  0.3316
 1752SOL    HW116892   0.552   2.468   6.310  0.2979 -0.1103  0.1500
 1752SOL    HW216893   0.419   2.407   6.326 -0.6238  0.2535  0.3426
 1753SOL     OW16894   3.325   0.340   5.743  0.0026 -0.1435  0.0081
 1753SOL    HW116895   3.252   0.344   5.804 -0.5323  2.7638 -0.8276
 1753SOL    HW216896   3.288   0.287   5.673 -0.3062  0.9729 -0.6744
 1754SOL     OW16897   0.107   1.295   3.830  0.1244 -0.1829  0.0137
 1754SOL    HW116898   0.018   1.264   3.816  0.6778 -1.6188 -0.2527
 1754SOL    HW216899   0.082   1.370   3.884  0.1564 -1.2723  1.5135
 1755SOL     OW16900   1.361   1.271   6.038  0.2464  0.1764 -0.4618
 1755SOL    HW116901   1.427   1.269   6.107 -0.0706 -0.2962 -0.1726
 1755SOL    HW216902   1.405   1.235   5.961 -0.1888 -0.1752 -0.5423
 1756SOL     OW16903   1.292   2.474   8.097 -0.0679  0.7170 -0.1711
 1756SOL    HW116904   1.383   2.500   8.106  0.9434 -1.8496 -3.0876
 1756SOL    HW216905   1.261   2.447   8.184 -1.2750 -1.0024 -1.1297
 1757SOL     OW16906   1.036   0.564  13.955  0.3714  0.6949 -0.2257
 1757SOL    HW116907   0.989   0.634  14.000  0.8482  1.3009 -0.6741
 1757SOL    HW216908   0.987   0.492  13.996  3.1121 -0.1787  1.5464
 1758SOL     OW16909   3.154   0.729   0.513 -0.1278  0.2478 -0.9159
 1758SOL    HW116910   3.226   0.674   0.484  0.4192  0.3724  0.2399
 1758SOL    HW216911   3.201   0.804   0.549 -1.5763 -0.3315  2.1457
 1759SOL     OW16912   1.930   2.858   2.437  0.1873 -0.5388  0.4017
 1759SOL    HW116913   1.858   2.803   2.468 -0.2811  0.0348  0.3403
 1759SOL    HW216914   1.875   2.936   2.427  0.3769 -0.2031  2.0549
 1760SOL     OW16915   2.599   3.785   7.898  0.3291  0.0777  0.4226
 1760SOL    HW116916   2.660   3.768   7.970  1.2514 -1.7368 -0.7756
 1760SOL    HW216917   2.655   3.779   7.821 -1.5593  1.7652 -1.0623
 1761SOL     OW16918   1.621   2.123   8.025 -0.4808 -0.8317  0.1617
 1761SOL    HW116919   1.525   2.129   8.030 -0.6620 -1.2078 -2.6680
 1761SOL    HW216920   1.637   2.178   7.949 -1.0297 -0.5257  0.2661
 1762SOL     OW16921   3.934   2.561   8.674  0.1309 -0.0051  1.0452
 1762SOL    HW116922   3.930   2.589   8.582  2.8295  0.2733  1.0237
 1762SOL    HW216923   3.912   2.468   8.667 -2.0051  0.4557  1.5525
 1763SOL     OW16924   3.253   4.396   1.509  0.6308 -0.1077 -0.4119
 1763SOL    HW116925   3.263   4.305   1.481 -0.2143 -0.2064 -0.3769
 1763SOL    HW216926   3.267   4.443   1.427  1.9256 -0.0479 -0.1560
 1764SOL     OW16927   0.450   3.504   8.473 -0.5477 -0.2317 -0.3574
 1764SOL    HW116928   0.364   3.532   8.502  0.1430  1.6492 -0.1217
 1764SOL    HW216929   0.467   3.416   8.508 -1.3465 -0.5604 -0.7835
 1765SOL     OW16930   3.114   1.908  13.526  0.3336  0.1244  0.3448
 1765SOL    HW116931   3.047   1.852  13.487  2.1984 -1.8201 -0.0576
 1765SOL    HW216932   3.128   1.973  13.458 -1.6392  1.0646  0.8326
 1766SOL     OW16933   2.168   4.242   3.477  0.1061 -0.0811 -0.1105
 1766SOL    HW116934   2.171   4.333   3.507 -0.0856 -0.2728  0.4949
 1766SOL    HW216935   2.098   4.247   3.412  1.1323  0.5898 -1.1783
 1767SOL     OW16936   3.453   1.844   7.144 -0.1215 -0.0291  0.6843
 1767SOL    HW116937   3.416   1.833   7.231 -0.7727 -0.4274  0.3565
 1767SOL    HW216938   3.543   1.857   7.173 -0.0000  1.4089 -0.3188
 1768SOL     OW16939   3.488   2.998   1.792 -0.4512 -0.2206  0.0987
 1768SOL    HW116940   3.541   3.072   1.821  2.0230 -1.7121 -0.6301
 1768SOL    HW216941   3.456   2.963   1.876  0.9785  0.7751  1.0668
 1769SOL     OW16942   0.119   2.261  16.195 -0.7980 -0.0032 -0.6467
 1769SOL    HW116943   0.135   2.292  16.284  2.0804 -0.4012 -1.0159
 1769SOL    HW216944   0.162   2.324  16.138 -1.3078  0.1554 -0.8494
 1770SOL     OW16945   0.354   0.773   5.498  0.2885  0.0922 -0.1521
 1770SOL    HW116946   0.369   0.722   5.578  0.3434 -2.2945 -1.6795
 1770SOL    HW216947   0.420   0.729   5.444  1.1048 -1.3465  1.9987
 1771SOL     OW16948   1.586   2.665   6.835 -0.3080  0.7320  0.0308
 1771SOL    HW116949   1.671   2.698   6.807  2.1193 -3.2396  2.7037
 1771SOL    HW216950   1.567   2.587   6.783  1.2447 -0.0982  0.7091
 1772SOL     OW16951   2.606   1.519   4.734 -0.0059  0.3775 -0.1304
 1772SOL    HW116952   2.623   1.439   4.784 -0.2069  0.4573  0.0630
 1772SOL    HW216953   2.641   1.491   4.649 -0.4775  0.3297 -0.3091
 1773SOL     OW16954   3.024   3.818   3.132 -0.3819  0.1073  0.3722
 1773SOL    HW116955   3.001   3.881   3.201  0.3683  0.5675  0.2025
 1773SOL    HW216956   3.067   3.871   3.065 -1.8103  1.5573  0.6001
 1774SOL     OW16957   2.819   3.838   7.277  0.2169  0.2488  0.0379
 1774SOL    HW116958   2.777   3.904   7.332 -1.5422  0.8693 -2.0881
 1774SOL    HW216959   2.843   3.763   7.333 -0.6762 -0.0448  0.0176
 1775SOL     OW16960   3.052   3.083   1.765 -0.2750  0.1924 -0.1364
 1775SOL    HW116961   3.022   3.086   1.856  0.6386  0.1908  0.1677
 1775SOL    HW216962   3.105   3.005   1.778 -1.4357 -0.6958 -0.7545
 1776SOL     OW16963   2.334   2.136   4.369 -0.0868  0.5701 -0.4500
 1776SOL    HW116964   2.255   2.122   4.318 -0.4263 -1.6548  0.6444
 1776SOL    HW216965   2.390   2.059   4.356  0.7683  1.1129 -0.0059
 1777SOL     OW16966   1.120   0.734   6.969  0.3452 -0.2837 -0.2176
 1777SOL    HW116967   1.081   0.756   6.885  0.1502  1.0087  0.2031
 1777SOL    HW216968   1.044   0.698   7.014 -0.5765  0.7861 -0.9075
 1778SOL     OW16969   0.381   1.080   4.877  0.6068  0.1856  0.3681
 1778SOL    HW116970   0.342   1.092   4.964  1.7698 -1.6623  1.1491
 1778SOL    HW216971   0.335   1.006   4.837 -0.9239  1.4081 -0.1186
 1779SOL     OW16972   0.713   3.733   4.694 -0.3856  0.2652  0.3203
 1779SOL    HW116973   0.755   3.652   4.666 -0.0115 -0.0181  1.7118
 1779SOL    HW216974   0.636   3.696   4.739  0.3141 -0.0839  1.2276
 1780SOL     OW16975   0.638   2.161   6.542 -0.7007  0.3258 -0.4902
 1780SOL    HW116976   0.567   2.097   6.544 -0.0398 -0.3334  1.5569
 1780SOL    HW216977   0.635   2.182   6.636 -1.2170 -0.2714 -0.3735
 1781SOL     OW16978   3.490   3.625   9.302 -0.2221  0.1680 -0.0461
 1781SOL    HW116979   3.437   3.630   9.382 -2.5525 -0.3817 -1.5551
 1781SOL    HW216980   3.518   3.533   9.305 -2.6468 -0.5648 -0.1095
 1782SOL     OW16981   0.718   2.424   4.419  0.6594 -0.0182  0.1237
 1782SOL    HW116982   0.733   2.442   4.512 -0.7679  2.9770 -0.2065
 1782SOL    HW216983   0.624   2.407   4.429  0.8429 -0.5208  0.9781
 1783SOL     OW16984   2.186   2.007   2.351 -0.1785 -0.1440 -0.3592
 1783SOL    HW116985   2.146   2.094   2.357  0.0951 -0.0802  0.6610
 1783SOL    HW216986   2.141   1.965   2.425  0.3161  1.5185  0.9032
 1784SOL     OW16987   0.417   3.442  13.495 -0.8364 -0.4969 -0.4699
 1784SOL    HW116988   0.401   3.451  13.401  1.6191  0.1919 -0.8160
 1784SOL    HW216989   0.479   3.370  13.489  0.8679  0.8501  0.9445
 1785SOL     OW16990   2.264   0.062  17.027  0.2987 -0.3524 -0.0847
 1785SOL    HW116991   2.284   0.015  17.107 -0.3624  0.5020  0.5813
 1785SOL    HW216992   2.279   4.730  16.960 -0.6955 -0.9171  0.2651
 1786SOL     OW16993   4.554   2.443   7.847  0.0771 -0.3791  0.5271
 1786SOL    HW116994   4.622   2.412   7.788 -0.6524 -0.1436 -0.4382
 1786SOL    HW216995   4.597   2.453   7.931  1.4676  0.0910 -0.2485
 1787SOL     OW16996   2.525   4.033   6.497  0.4097 -0.0429 -1.1333
 1787SOL    HW116997   2.607   4.056   6.453 -0.1886  0.7305 -1.8452
 1787SOL    HW216998   2.570   3.987   6.568 -0.2015  0.3376 -0.5078
 1788SOL     OW16999   3.223   2.210   9.375  0.1890  0.6242 -0.3803
 1788SOL    HW117000   3.261   2.219   9.463 -1.2281 -2.5137  0.5684
 1788SOL    HW217001   3.250   2.296   9.343 -0.7346  2.1501  2.8793
 1789SOL     OW17002   4.432   2.784   9.181  0.0749 -0.0444  0.6550
 1789SOL    HW117003   4.525   2.801   9.195  0.3680 -0.0207 -1.3476
 1789SOL    HW217004   4.409   2.803   9.090 -0.9807  1.7945  1.2992
 1790SOL     OW17005   0.501   3.030   8.941  0.2668 -0.0547 -0.1584
 1790SOL    HW117006   0.489   3.087   9.017  0.6961 -2.3326  1.6164
 1790SOL    HW217007   0.564   2.964   8.970 -0.2635 -0.3412  0.3619
 1791SOL     OW17008   3.994   4.404   5.446  0.2548  0.1123 -0.1600
 1791SOL    HW117009   4.074   4.436   5.488  1.3639 -1.2634 -1.2206
 1791SOL    HW217010   3.932   4.476   5.445  0.3960  0.2250 -0.6636
 1792SOL     OW17011   3.395   3.034  15.199 -0.1639 -0.0150  0.1297
 1792SOL    HW117012   3.368   2.963  15.140  1.3323  0.5047 -1.1855
 1792SOL    HW217013   3.422   2.979  15.273  0.9372  2.0546  1.2569
 1793SOL     OW17014   3.713   2.577   7.558  0.7352  0.4082  0.2063
 1793SOL    HW117015   3.658   2.558   7.482  1.0922 -3.2095  0.8292
 1793SOL    HW217016   3.695   2.667   7.583 -0.5315  0.2367 -0.0716
 1794SOL     OW17017   2.429   3.876   5.159 -0.2963 -0.3308  0.1351
 1794SOL    HW117018   2.352   3.849   5.209  0.2355 -0.7564  0.7285
 1794SOL    HW217019   2.498   3.813   5.180 -0.4068 -0.0527  1.3372
 1795SOL     OW17020   0.984   1.141   5.382 -0.0920 -0.4616  0.2612
 1795SOL    HW117021   0.905   1.086   5.384  0.0400 -0.6141  1.1617
 1795SOL    HW217022   1.036   1.067   5.350  0.3082  0.4876 -1.2742
 1796SOL     OW17023   1.665   1.481   7.567  0.0933  0.5360 -0.0399
 1796SOL    HW117024   1.614   1.406   7.534  0.2723 -0.2114  1.3761
 1796SOL    HW217025   1.621   1.557   7.530  0.8191  0.0052 -2.0010
 1797SOL     OW17026   4.259   4.249   2.456  0.5817  0.0184 -0.1584
 1797SOL    HW117027   4.329   4.183   2.452  0.6984  0.2058 -1.1131
 1797SOL    HW217028   4.198   4.184   2.492  0.2370  0.1360 -0.5359
 1798SOL     OW17029   2.020   4.029  13.924  0.1351 -0.8432 -0.3335
 1798SOL    HW117030   2.063   4.088  13.863  1.2935 -2.0829 -0.7041
 1798SOL    HW217031   1.941   4.013  13.872 -0.5295 -0.8363  0.6784
 1799SOL     OW17032   3.690   3.923   8.157 -0.4723 -0.2961  0.6033
 1799SOL    HW117033   3.765   3.938   8.100 -0.7963  1.6622  0.7078
 1799SOL    HW217034   3.618   3.969   8.114  1.9006  0.9414 -2.0770
 1800SOL     OW17035   1.534   1.334   8.789 -0.0823  0.3185 -0.3162
 1800SOL    HW117036   1.608   1.329   8.850 -1.9500  0.1200  1.9594
 1800SOL    HW217037   1.456   1.344   8.844 -1.6707 -1.5481 -2.1911
 1801SOL     OW17038   2.149   1.222   9.708 -0.4516  0.2462 -0.1335
 1801SOL    HW117039   2.216   1.174   9.660 -0.3592  0.0506  0.1931
 1801SOL    HW217040   2.178   1.309   9.678  0.4993  0.0174  0.1259
 1802SOL     OW17041   2.720   0.941   8.879 -0.0047 -0.6327  0.7338
 1802SOL    HW117042   2.668   0.994   8.819  0.0463 -0.5057  0.8021
 1802SOL    HW217043   2.696   0.851   8.857 -1.4848  0.0972 -0.7089
 1803SOL     OW17044   2.336   2.843   1.398  0.1388 -0.1540  0.1690
 1803SOL    HW117045   2.283   2.923   1.406  0.0897 -0.4105  2.3458
 1803SOL    HW217046   2.424   2.880   1.399 -0.8775  2.3129 -0.3171
 1804SOL     OW17047   0.668   0.330  11.182  0.0328 -0.3535 -1.0293
 1804SOL    HW117048   0.593   0.361  11.233  0.7007 -1.1212  0.3981
 1804SOL    HW217049   0.642   0.239  11.166  2.3187 -1.2941  0.6660
 1805SOL     OW17050   4.243   1.327  10.881  0.4368  0.7910  0.7813
 1805SOL    HW117051   4.163   1.374  10.856 -0.2253 -1.1948 -0.8361
 1805SOL    HW217052   4.239   1.342  10.975 -0.9752 -1.4182  1.0707
 1806SOL     OW17053   4.622   0.186  16.714 -0.3602  0.2127  0.1317
 1806SOL    HW117054   4.579   0.266  16.744 -0.5186  0.3043 -0.3365
 1806SOL    HW217055   4.582   0.187  16.627  0.0239  2.6397 -0.0347
 1807SOL     OW17056   3.077   2.634   3.408 -0.5312  0.9648 -0.6645
 1807SOL    HW117057   3.107   2.724   3.414 -0.2485  0.9593 -1.8794
 1807SOL    HW217058   2.995   2.640   3.458 -0.0786 -2.5327  0.4705
 1808SOL     OW17059   2.261   2.256   5.454  0.3524 -0.0621  0.3919
 1808SOL    HW117060   2.301   2.287   5.535  0.4237 -1.3230  0.8476
 1808SOL    HW217061   2.183   2.311   5.450  0.4365  0.1458  1.7268
 1809SOL     OW17062   2.749   4.152   8.667 -0.2904 -0.6760 -0.3953
 1809SOL    HW117063   2.816   4.168   8.734 -1.6424  0.7455  0.6201
 1809SOL    HW217064   2.784   4.207   8.597 -1.0995  3.4681  2.4338
 1810SOL     OW17065   3.385   1.797  13.264 -0.0495 -0.4285  0.1791
 1810SOL    HW117066   3.370   1.784  13.358  0.5196  0.0788  0.3412
 1810SOL    HW217067   3.354   1.714  13.229  0.4888 -0.7617  0.4859
 1811SOL     OW17068   0.215   3.157   6.623 -0.6828  0.0883 -0.6217
 1811SOL    HW117069   0.231   3.106   6.543  1.4152  0.3797 -0.3942
 1811SOL    HW217070   0.226   3.076   6.672 -1.0184  0.8328  0.6831
 1812SOL     OW17071   0.146   3.185  16.530  0.2967 -0.3813  0.2588
 1812SOL    HW117072   0.227   3.160  16.575  1.5050 -0.0110 -1.7325
 1812SOL    HW217073   0.093   3.203  16.608  1.7874 -1.8320  1.6192
 1813SOL     OW17074   4.129   3.969  16.118 -0.1094 -0.3389 -0.1636
 1813SOL    HW117075   4.218   3.983  16.151 -0.9233 -0.1293  2.0001
 1813SOL    HW217076   4.125   3.874  16.109  3.2126 -0.5292  0.2453
 1814SOL     OW17077   3.139   4.173   2.321 -0.0490 -0.0805  0.0943
 1814SOL    HW117078   3.067   4.176   2.258 -0.5527  2.5275  0.8023
 1814SOL    HW217079   3.160   4.266   2.328 -0.5740 -0.0556  1.2018
 1815SOL     OW17080   0.658   3.344   4.894  0.4884 -0.1346 -0.0204
 1815SOL    HW117081   0.683   3.286   4.966 -0.7071 -1.0094 -0.3119
 1815SOL    HW217082   0.629   3.282   4.827  1.1582 -2.3442  1.7051
 1816SOL     OW17083   3.758   4.502   3.671 -0.0127 -0.1787 -0.1021
 1816SOL    HW117084   3.850   4.520   3.649  0.4809 -0.8299  1.4222
 1816SOL    HW217085   3.747   4.549   3.754 -0.7668  0.5374 -0.6019
 1817SOL     OW17086   2.305   4.356  11.300 -0.7770  0.5966 -0.0925
 1817SOL    HW117087   2.376   4.418  11.285 -1.0386  0.9394  0.0921
 1817SOL    HW217088   2.328   4.283  11.357 -0.4828 -0.4267 -1.5316
 1818SOL     OW17089   4.230   1.753   4.956  0.0582 -0.1864 -0.1248
 1818SOL    HW117090   4.300   1.723   4.898 -1.4282 -2.0159 -0.9551
 1818SOL    HW217091   4.160   1.689   4.942  0.7766 -1.0059  0.0967
 1819SOL     OW17092   4.442   4.524   1.957  0.4472 -0.7195  0.2347
 1819SOL    HW117093   4.464   4.576   2.035 -0.8310  0.6605 -0.3287
 1819SOL    HW217094   4.515   4.561   1.908  0.7522 -1.6535 -0.0237
 1820SOL     OW17095   2.592   0.820  17.255  0.3931  0.0884  0.0778
 1820SOL    HW117096   2.539   0.898  17.237 -1.8351 -1.1671  1.1978
 1820SOL    HW217097   2.630   0.849  17.338  1.0299  0.7306 -0.4373
 1821SOL     OW17098   4.310   4.267  11.800 -0.3121 -0.0975  0.4630
 1821SOL    HW117099   4.262   4.199  11.848 -1.9379 -0.0226 -1.0690
 1821SOL    HW217100   4.348   4.224  11.723 -0.5366  1.1635 -0.3476
 1822SOL     OW17101   0.869   0.392  17.228 -0.1195  0.2008 -0.2972
 1822SOL    HW117102   0.931   0.413  17.158 -0.7042  0.4943 -0.7231
 1822SOL    HW217103   0.903   0.308  17.260  0.9075 -0.0533 -2.0487
 1823SOL     OW17104   4.483   1.531   8.252 -0.3358  0.7355  0.4094
 1823SOL    HW117105   4.480   1.459   8.315  0.6886 -1.3890 -1.9876
 1823SOL    HW217106   4.554   1.582   8.291 -0.0563  0.0304  0.8154
 1824SOL     OW17107   4.695   0.738   6.917 -0.3936  0.3943  0.1543
 1824SOL    HW117108   4.692   0.643   6.927  0.0525  0.5379  1.6812
 1824SOL    HW217109   4.653   0.765   6.999  1.9253  0.0034  1.4767
 1825SOL     OW17110   0.810   3.030   6.513  0.0480  0.1421 -0.2926
 1825SOL    HW117111   0.786   3.082   6.436  2.1238 -0.2602 -1.2011
 1825SOL    HW217112   0.782   2.941   6.490  1.4175 -0.4313  0.2536
 1826SOL     OW17113   3.487   0.134   3.014  0.1109  0.1139 -0.5782
 1826SOL    HW117114   3.439   0.205   2.972  0.8200  1.0502  0.1990
 1826SOL    HW217115   3.411   0.079   3.030  1.2257 -1.4124 -0.5118
 1827SOL     OW17116   3.384   2.659   0.106 -0.1930 -0.2547  0.5972
 1827SOL    HW117117   3.443   2.618   0.170 -1.1252 -1.0557  0.9514
 1827SOL    HW217118   3.300   2.614   0.112 -0.8375  0.7171 -1.5136
 1828SOL     OW17119   3.637   2.744   8.525  0.8484  0.3961 -0.3595
 1828SOL    HW117120   3.590   2.662   8.538  0.1453  0.7092 -0.8962
 1828SOL    HW217121   3.582   2.789   8.460  1.3326  1.3053 -0.1332
 1829SOL     OW17122   0.046   3.056  11.070 -0.2244 -0.7310 -0.4884
 1829SOL    HW117123   4.735   3.114  11.131  0.9247  2.7125 -2.9042
 1829SOL    HW217124   0.094   3.119  11.017 -1.5558 -0.1698 -1.0117
 1830SOL     OW17125   3.175   2.367  11.630 -0.3288  0.0383  0.2618
 1830SOL    HW117126   3.138   2.450  11.660  0.2004 -0.2339  1.6331
 1830SOL    HW217127   3.262   2.390  11.596 -0.7418  2.1486  0.6573
 1831SOL     OW17128   1.347   1.230  11.572  0.2879 -0.1556 -0.0207
 1831SOL    HW117129   1.390   1.196  11.651  1.8713  1.5806 -0.1586
 1831SOL    HW217130   1.300   1.152  11.541 -0.0104 -0.3595  0.9330
 1832SOL     OW17131   0.426   2.304   1.608  0.2010 -0.0403  0.3805
 1832SOL    HW117132   0.386   2.388   1.631  0.7023  0.3079 -0.0263
 1832SOL    HW217133   0.435   2.312   1.513  1.3695  1.1858  0.5941
 1833SOL     OW17134   3.082   0.882   4.589 -0.5623 -0.6965  0.3778
 1833SOL    HW117135   3.154   0.941   4.615  0.4655 -1.4176 -0.8469
 1833SOL    HW217136   3.069   0.917   4.501  0.0518  2.5905  1.5824
 1834SOL     OW17137   2.821   0.155   8.165 -0.7280  0.4995 -0.2052
 1834SOL    HW117138   2.882   0.133   8.236  1.1857 -0.3517 -2.1164
 1834SOL    HW217139   2.738   0.137   8.210 -0.4997  0.7987  0.3417
 1835SOL     OW17140   4.523   3.296   7.478 -0.3779  0.1618  0.7967
 1835SOL    HW117141   4.582   3.360   7.439  1.5230 -0.6043  2.4008
 1835SOL    HW217142   4.506   3.338   7.563  0.7409  0.4383  0.8906
 1836SOL     OW17143   4.221   1.117   0.730 -0.1420 -0.2162 -0.7598
 1836SOL    HW117144   4.256   1.193   0.684  0.7325  1.2390  2.3481
 1836SOL    HW217145   4.132   1.106   0.695 -0.7790 -0.5051  0.9588
 1837SOL     OW17146   3.289   2.113   4.750 -0.1899  0.2261 -0.0307
 1837SOL    HW117147   3.370   2.062   4.751 -0.1777  0.2248 -1.0767
 1837SOL    HW217148   3.318   2.168   4.824 -0.4359 -2.3987  1.9985
 1838SOL     OW17149   2.445   2.825   6.576  0.1316 -0.3397  0.0062
 1838SOL    HW117150   2.472   2.832   6.485  0.5373  0.2858  0.1702
 1838SOL    HW217151   2.493   2.745   6.600 -0.0304 -1.1321 -2.2966
 1839SOL     OW17152   1.543   2.821   7.359 -0.1269  0.2262  0.2029
 1839SOL    HW117153   1.468   2.834   7.302 -0.4206 -1.0985  0.2951
 1839SOL    HW217154   1.569   2.732   7.337 -0.7333 -0.2376  1.3479
 1840SOL     OW17155   3.434   1.678   0.170 -0.5834  0.4937 -0.4238
 1840SOL    HW117156   3.485   1.603   0.202 -1.7156 -1.1639 -2.5073
 1840SOL    HW217157   3.404   1.715   0.253  1.0146 -1.0335  0.8363
 1841SOL     OW17158   4.465   4.096  15.422  0.6535 -0.1914 -0.4396
 1841SOL    HW117159   4.498   4.143  15.498  1.6132 -0.4530 -0.6919
 1841SOL    HW217160   4.524   4.132  15.355 -0.2898 -0.8327 -1.6216
 1842SOL     OW17161   1.999   1.004  15.057 -0.2935  0.4741  0.2731
 1842SOL    HW117162   1.936   1.034  15.122 -0.7853 -1.7538  0.8229
 1842SOL    HW217163   2.027   1.079  15.005  1.1252 -1.1592 -1.3534
 1843SOL     OW17164   0.343   4.067   9.144  0.0804  0.4939  0.0036
 1843SOL    HW117165   0.351   4.062   9.049  0.2527  1.1659 -0.0141
 1843SOL    HW217166   0.363   4.159   9.161 -0.8442 -0.0045  3.8323
 1844SOL     OW17167   0.687   2.612   8.388  0.2603 -0.3509 -0.0359
 1844SOL    HW117168   0.639   2.612   8.305 -0.4776 -0.7313  0.3942
 1844SOL    HW217169   0.713   2.704   8.396  0.2121 -0.1889 -1.7777
 1845SOL     OW17170   0.433   0.420   8.357 -0.3479 -0.5693 -0.1120
 1845SOL    HW117171   0.372   0.463   8.418  0.6513 -0.5278  0.8465
 1845SOL    HW217172   0.465   0.496   8.308  0.3540 -1.1890 -0.6164
 1846SOL     OW17173   1.948   3.182   3.603  0.4848 -0.7729  0.3541
 1846SOL    HW117174   2.029   3.186   3.552  0.8026  2.1273  1.0809
 1846SOL    HW217175   1.966   3.245   3.673  0.4384  0.6860 -0.9476
 1847SOL     OW17176   4.288   3.348   8.785  0.2113  0.5361 -0.2233
 1847SOL    HW117177   4.315   3.420   8.729 -1.8498  1.2088 -0.3604
 1847SOL    HW217178   4.342   3.270   8.771  0.4264  0.8120 -0.9038
 1848SOL     OW17179   0.892   4.639  17.664 -0.2188  0.0115 -0.1761
 1848SOL    HW117180   0.827   4.659  17.596  0.0735 -1.8524 -0.9866
 1848SOL    HW217181   0.956   4.700  17.628 -0.9579  2.4701  2.6143
 1849SOL     OW17182   3.678   0.971  11.856  0.2215  0.2522 -0.7694
 1849SOL    HW117183   3.717   0.989  11.771  0.0945 -0.1133 -0.9070
 1849SOL    HW217184   3.684   0.876  11.867  1.3932  0.3798 -0.2422
 1850SOL     OW17185   1.080   4.084   2.327  0.1595 -0.2363 -0.0180
 1850SOL    HW117186   1.154   4.128   2.369 -0.6957  1.0550  0.1435
 1850SOL    HW217187   1.057   4.012   2.387 -0.0523  1.0223  1.4239
 1851SOL     OW17188   0.639   2.947  14.172 -0.3229  0.0165  0.2720
 1851SOL    HW117189   0.562   2.957  14.116  0.0608  0.0532 -0.2465
 1851SOL    HW217190   0.663   3.039  14.181 -0.2635 -0.3001  3.3115
 1852SOL     OW17191   2.885   2.308   4.686 -0.4358  0.0239 -0.0970
 1852SOL    HW117192   2.828   2.340   4.617 -1.0722  1.7642  1.2300
 1852SOL    HW217193   2.885   2.212   4.681 -0.4471  0.1233 -1.9668
 1853SOL     OW17194   2.934   3.067   3.624 -0.0589 -0.0287  0.1670
 1853SOL    HW117195   2.963   3.014   3.699 -0.2022 -1.2806 -0.6499
 1853SOL    HW217196   3.011   3.073   3.568  0.9412  1.2562  1.6920
 1854SOL     OW17197   3.543   4.653   2.680 -0.7427 -0.2560 -0.1532
 1854SOL    HW117198   3.471   4.687   2.627  0.4221  1.1833 -0.8374
 1854SOL    HW217199   3.618   4.666   2.622 -0.4379 -0.5221  0.1799
 1855SOL     OW17200   1.533   0.323   5.018  0.0059  0.1366 -0.0306
 1855SOL    HW117201   1.500   0.413   5.021  0.9354  0.5552 -2.5728
 1855SOL    HW217202   1.626   0.339   5.005  0.4332 -1.3752  1.2051
 1856SOL     OW17203   0.163   4.484   9.773 -0.5972  0.0912  0.3268
 1856SOL    HW117204   0.084   4.498   9.721  0.0438  1.2055 -0.3458
 1856SOL    HW217205   0.214   4.421   9.720 -1.2309  0.3647 -0.6103
 1857SOL     OW17206   0.375   1.392   3.922 -0.5486  0.5638 -0.2414
 1857SOL    HW117207   0.432   1.321   3.951 -0.2829  1.1145  0.6105
 1857SOL    HW217208   0.287   1.355   3.924  0.2474 -1.2893  0.7339
 1858SOL     OW17209   1.225   1.551   2.899  0.7976 -0.5377  0.4221
 1858SOL    HW117210   1.314   1.559   2.932  0.8962 -4.8787  1.0997
 1858SOL    HW217211   1.168   1.623   2.928  2.2788  0.9796 -0.3969
 1859SOL     OW17212   4.656   1.443  11.221 -0.3818  0.0053 -0.3704
 1859SOL    HW117213   4.597   1.484  11.158  1.8575  1.2461 -1.6841
 1859SOL    HW217214   4.626   1.352  11.222 -0.3056 -0.0263 -0.6852
 1860SOL     OW17215   3.983   3.829  14.409 -0.1927  0.7777 -0.2744
 1860SOL    HW117216   3.968   3.765  14.340  2.0212 -0.7590  0.6525
 1860SOL    HW217217   3.902   3.880  14.405 -1.4862 -1.1130  2.2854
 1861SOL     OW17218   1.699   0.588   7.155  0.2352 -0.8296 -0.2558
 1861SOL    HW117219   1.768   0.537   7.196 -0.0421 -0.4967  0.6288
 1861SOL    HW217220   1.654   0.518   7.108 -2.0852 -1.4437  2.9325
 1862SOL     OW17221   2.401   1.357   8.768 -0.3848  0.0493  0.5146
 1862SOL    HW117222   2.315   1.380   8.733 -0.4579 -1.3302 -0.2185
 1862SOL    HW217223   2.414   1.413   8.845  0.9249 -0.1538  0.4370
 1863SOL     OW17224   1.628   2.402   5.397 -0.0787  0.2010 -0.6145
 1863SOL    HW117225   1.579   2.328   5.361 -0.8134 -0.8960  2.6609
 1863SOL    HW217226   1.681   2.435   5.325 -0.7563  0.7250 -0.8750
 1864SOL     OW17227   0.986   2.185   1.173  0.3219  0.0305  0.2792
 1864SOL    HW117228   0.913   2.180   1.234 -0.9135  1.5307 -1.1050
 1864SOL    HW217229   1.033   2.106   1.201  1.1062  0.6026  0.5904
 1865SOL     OW17230   1.598   0.323   6.373 -0.0240  0.6096  0.8292
 1865SOL    HW117231   1.629   0.291   6.288  0.7869 -0.9502  1.7057
 1865SOL    HW217232   1.609   0.418   6.366 -0.0353  0.6688  1.6031
 1866SOL     OW17233   1.792   2.384   2.200 -0.2264 -0.2537 -0.3920
 1866SOL    HW117234   1.702   2.350   2.202 -0.8317  1.3099 -0.6588
 1866SOL    HW217235   1.801   2.422   2.287  0.7779 -0.9293 -0.2031
 1867SOL     OW17236   2.546   0.130   7.828  0.3153  0.7660 -0.1641
 1867SOL    HW117237   2.512   0.079   7.900  3.0038 -1.3810 -0.4069
 1867SOL    HW217238   2.584   0.068   7.766 -0.9674  2.1733 -2.3757
 1868SOL     OW17239   4.464   4.645   7.851  0.1424 -0.4089 -0.1779
 1868SOL    HW117240   4.474   4.555   7.881 -0.3328 -0.3592  0.1278
 1868SOL    HW217241   4.425   4.689   7.927 -0.4027 -1.5113  0.1764
 1869SOL     OW17242   0.127   2.164  17.259 -0.2289  0.1326 -0.0070
 1869SOL    HW117243   0.103   2.252  17.228  0.9094  0.5027  0.1801
 1869SOL    HW217244   0.057   2.115  17.217 -0.6358 -2.2037  3.4230
 1870SOL     OW17245   0.873   1.680   5.285 -0.4208 -0.0850  0.0938
 1870SOL    HW117246   0.922   1.720   5.213  0.0719  0.5690  0.7890
 1870SOL    HW217247   0.928   1.604   5.299 -0.5580 -0.1792  0.1210
 1871SOL     OW17248   2.502   0.553   1.387 -0.4521 -0.1922 -0.4112
 1871SOL    HW117249   2.443   0.539   1.313 -2.2319  1.1288  0.7733
 1871SOL    HW217250   2.528   0.466   1.415 -1.0519 -0.4103 -0.5379
 1872SOL     OW17251   4.138   4.556  16.660  0.0570  0.0530 -0.4474
 1872SOL    HW117252   4.226   4.594  16.671  0.4613 -0.4259 -1.9897
 1872SOL    HW217253   4.156   4.466  16.685  0.2477 -0.0325 -0.8932
 1873SOL     OW17254   1.735   2.759   4.008  0.4456  0.3967  0.1594
 1873SOL    HW117255   1.769   2.804   4.085 -0.3232 -0.8395  1.2207
 1873SOL    HW217256   1.785   2.800   3.938 -0.0453 -1.2843 -1.1717
 1874SOL     OW17257   3.913   2.018   2.283  1.0130 -0.2599  0.1019
 1874SOL    HW117258   3.913   2.110   2.256  0.7453  0.1167  1.3534
 1874SOL    HW217259   3.967   2.026   2.362  1.3096 -0.1581 -0.1152
 1875SOL     OW17260   3.646   3.840  11.584 -0.0966 -0.1964 -0.0846
 1875SOL    HW117261   3.590   3.775  11.540 -0.7853 -0.0414  0.5591
 1875SOL    HW217262   3.733   3.832  11.545  0.4370  0.2713  1.0029
 1876SOL     OW17263   4.387   3.121   5.396  0.6687 -0.0882  0.3678
 1876SOL    HW117264   4.461   3.091   5.343  0.8158 -0.9106  1.0400
 1876SOL    HW217265   4.429   3.168   5.469 -1.3468 -0.7795  1.9755
 1877SOL     OW17266   0.213   2.673   3.834 -0.4415  0.3015  0.2490
 1877SOL    HW117267   0.198   2.609   3.764 -0.9043 -1.1531  1.6955
 1877SOL    HW217268   0.301   2.697   3.802 -1.2010  2.0026 -0.5758
 1878SOL     OW17269   4.329   1.766   3.551  0.2275  0.2539  0.8951
 1878SOL    HW117270   4.337   1.847   3.601  0.4494  0.2219  0.9124
 1878SOL    HW217271   4.326   1.694   3.614  0.8436 -1.2703 -0.8126
 1879SOL     OW17272   2.586   1.131   9.633  0.0616  0.2289 -0.4198
 1879SOL    HW117273   2.610   1.055   9.579  0.5142 -0.7763  1.1909
 1879SOL    HW217274   2.568   1.074   9.708 -2.2407  0.6715 -0.6222
 1880SOL     OW17275   1.281   2.805  17.530  0.4596 -0.6625  0.1000
 1880SOL    HW117276   1.339   2.756  17.587  0.0736 -1.2825 -0.0443
 1880SOL    HW217277   1.213   2.739  17.517 -0.3441  0.1875 -0.0360
 1881SOL     OW17278   4.135   3.624   8.475 -0.7093 -0.4524 -0.3869
 1881SOL    HW117279   4.051   3.628   8.429 -0.7631 -1.3704 -0.3748
 1881SOL    HW217280   4.158   3.532   8.460  1.8967  0.0039  0.9081
 1882SOL     OW17281   4.416   3.342   4.357  0.1391 -0.3076 -0.0015
 1882SOL    HW117282   4.414   3.311   4.447 -3.6531  1.5736  0.5273
 1882SOL    HW217283   4.361   3.273   4.321 -0.6452 -0.0429  0.7127
 1883SOL     OW17284   1.108   1.852  10.133  0.3004  0.7374  0.0290
 1883SOL    HW117285   1.079   1.793  10.064 -1.2850  1.5593 -0.0045
 1883SOL    HW217286   1.028   1.834  10.182  0.2782 -2.0115 -1.0451
 1884SOL     OW17287   3.681   2.078   3.472  0.3927 -0.1870  0.0704
 1884SOL    HW117288   3.757   2.124   3.509 -0.5005  2.3408 -1.2605
 1884SOL    HW217289   3.628   2.149   3.436  0.4333 -0.4748 -0.5587
 1885SOL     OW17290   0.649   1.918   1.930  0.4698 -0.0170  0.4473
 1885SOL    HW117291   0.613   1.895   1.845 -1.2720  0.4658  1.0351
 1885SOL    HW217292   0.626   1.844   1.986 -3.2832  0.6133 -0.2508
 1886SOL     OW17293   2.231   1.831   4.735 -0.5579 -0.0324  0.2297
 1886SOL    HW117294   2.216   1.907   4.679 -0.4722  0.3748  0.7586
 1886SOL    HW217295   2.254   1.884   4.811 -0.5610 -0.7640  0.7356
 1887SOL     OW17296   1.853   4.492   6.263 -0.0328  0.3869 -0.1772
 1887SOL    HW117297   1.875   4.409   6.306 -2.0388 -0.0786 -0.0115
 1887SOL    HW217298   1.860   4.479   6.169 -0.1809 -2.1305  0.1601
 1888SOL     OW17299   2.089   0.660   8.301  0.3582 -0.4313 -0.2989
 1888SOL    HW117300   2.136   0.578   8.287 -1.0829 -1.1632 -0.8887
 1888SOL    HW217301   2.068   0.644   8.393 -1.9504 -0.4398 -0.8348
 1889SOL     OW17302   3.608   2.038   0.650 -0.5845 -0.5951 -0.2107
 1889SOL    HW117303   3.699   2.046   0.621 -1.6473  1.0939 -3.1244
 1889SOL    HW217304   3.596   1.943   0.645 -2.2345 -0.5337  2.7285
 1890SOL     OW17305   0.092   2.290   1.936  0.3745 -0.2212  0.3765
 1890SOL    HW117306   0.078   2.275   1.843  2.8607  0.4559 -0.0966
 1890SOL    HW217307   0.135   2.375   1.927 -0.8762  0.6665  2.5819
 1891SOL     OW17308   3.964   4.218   7.133 -0.7481 -0.0569 -0.1489
 1891SOL    HW117309   3.905   4.153   7.094 -0.7448 -1.2308  1.7781
 1891SOL    HW217310   3.910   4.296   7.125 -1.3160 -0.2190  2.0480
 1892SOL     OW17311   2.175   2.878   5.592  0.2102  0.1635 -0.0060
 1892SOL    HW117312   2.195   2.784   5.592 -1.8129 -0.2873  1.5299
 1892SOL    HW217313   2.230   2.915   5.523  2.7760 -1.0228  1.4511
 1893SOL     OW17314   2.378   3.108  13.404 -0.6346 -0.7624  0.6423
 1893SOL    HW117315   2.295   3.096  13.358 -0.5863  1.7660 -0.0924
 1893SOL    HW217316   2.377   3.204  13.408 -0.9706 -0.7434  0.1879
 1894SOL     OW17317   4.209   0.612  10.792 -0.5740  0.0871  0.4758
 1894SOL    HW117318   4.204   0.625  10.698 -1.3128 -3.1077  0.1024
 1894SOL    HW217319   4.280   0.548  10.797  0.6589  1.3812 -0.6701
 1895SOL     OW17320   4.143   4.126   5.491  0.0052  0.2236 -0.2023
 1895SOL    HW117321   4.084   4.152   5.561  0.8121  1.3255  0.0779
 1895SOL    HW217322   4.168   4.208   5.448 -1.6485  0.7022 -0.2553
 1896SOL     OW17323   3.769   4.688  14.177 -0.3849 -0.3518 -0.0187
 1896SOL    HW117324   3.681   4.692  14.215 -0.2592  0.2893  0.2060
 1896SOL    HW217325   3.746   4.685  14.084  2.0339  1.2580 -0.6653
 1897SOL     OW17326   4.067   3.358   5.030 -0.2421  0.5132 -0.0626
 1897SOL    HW117327   4.135   3.329   4.970  0.7551 -1.7768  2.1476
 1897SOL    HW217328   4.012   3.404   4.967  1.6315  1.9063 -0.6588
 1898SOL     OW17329   0.770   1.446   5.655 -0.5132 -0.7186  0.2088
 1898SOL    HW117330   0.839   1.484   5.708 -0.2693 -4.0793  2.3249
 1898SOL    HW217331   0.717   1.397   5.718  0.2748  0.0754  1.4911
 1899SOL     OW17332   2.549   0.943   6.621 -0.4045  0.2020 -0.5138
 1899SOL    HW117333   2.516   1.018   6.572  2.6876  1.0493 -1.2666
 1899SOL    HW217334   2.643   0.954   6.626 -0.4649  0.1364  0.7748
 1900SOL     OW17335   1.214   2.760  15.546 -0.4900  0.5531  0.3345
 1900SOL    HW117336   1.221   2.731  15.455  1.2435  2.8902 -0.2790
 1900SOL    HW217337   1.178   2.678  15.580  0.9357 -0.8232 -1.4975
 1901SOL     OW17338   4.632   4.062  16.468  0.0659 -0.7251 -0.8851
 1901SOL    HW117339   4.664   4.152  16.471 -0.0337 -0.7156 -0.1634
 1901SOL    HW217340   4.650   4.035  16.378  0.9942  0.8611 -1.1783
 1902SOL     OW17341   0.801   3.195  12.421 -0.2047 -0.0630 -0.1785
 1902SOL    HW117342   0.717   3.159  12.451 -0.1693  0.1288  0.1549
 1902SOL    HW217343   0.802   3.149  12.337 -0.0432  0.5488 -0.5110
 1903SOL     OW17344   1.808   4.306   4.734 -0.0410  0.2135 -0.1571
 1903SOL    HW117345   1.733   4.262   4.774  0.5516  0.4143  1.1892
 1903SOL    HW217346   1.845   4.343   4.814  1.2882 -2.6566  0.5622
 1904SOL     OW17347   3.420   1.007  15.999 -0.5828 -0.4858 -0.3359
 1904SOL    HW117348   3.432   1.094  16.037  2.5539 -0.4330 -1.4455
 1904SOL    HW217349   3.387   0.968  16.080 -1.3168 -0.1741 -0.4860
 1905SOL     OW17350   1.337   4.406   5.004 -0.0737  0.2508 -0.4650
 1905SOL    HW117351   1.286   4.485   4.986  0.2445  0.1478 -1.7803
 1905SOL    HW217352   1.424   4.445   5.013  1.5044 -3.2090 -0.5742
 1906SOL     OW17353   0.912   4.649   4.725  0.3903  0.1347  0.3560
 1906SOL    HW117354   0.950   4.563   4.708 -1.3783 -1.0166  2.1951
 1906SOL    HW217355   0.992   4.701   4.725 -0.2527  1.1329  0.4769
 1907SOL     OW17356   3.313   1.138  13.085  0.0314  0.0101  0.4750
 1907SOL    HW117357   3.357   1.195  13.149  2.5776 -1.3863 -0.0173
 1907SOL    HW217358   3.269   1.206  13.034 -2.2651 -1.2131  0.8312
 1908SOL     OW17359   2.205   2.390  17.704 -0.4910 -0.1208  0.0149
 1908SOL    HW117360   2.208   2.437  17.620  0.7107 -0.4462 -0.1162
 1908SOL    HW217361   2.110   2.381  17.702 -0.5892  0.9808 -0.8631
 1909SOL     OW17362   4.692   1.475   5.204 -0.0895 -0.0069  0.0379
 1909SOL    HW117363   0.024   1.543   5.200  0.8053 -0.8405  1.0168
 1909SOL    HW217364   4.625   1.507   5.144  0.4632 -0.9028 -1.0448
 1910SOL     OW17365   2.647   3.097  14.843  0.8182 -0.2239  0.0289
 1910SOL    HW117366   2.627   3.092  14.936  0.5813  0.4438  0.0131
 1910SOL    HW217367   2.742   3.104  14.837  0.9732 -0.4794  2.1997
 1911SOL     OW17368   2.633   1.641   4.352 -0.0195 -0.5403  0.4371
 1911SOL    HW117369   2.670   1.580   4.288 -0.7200 -2.4425  1.8627
 1911SOL    HW217370   2.717   1.651   4.398  0.6256 -0.3270 -0.7754
 1912SOL     OW17371   0.314   2.010   4.227 -0.7327 -0.5807 -0.0467
 1912SOL    HW117372   0.247   1.948   4.198  0.8673 -2.0747 -0.5341
 1912SOL    HW217373   0.252   2.055   4.284 -0.3795  0.7554 -0.6964
 1913SOL     OW17374   4.714   0.688   8.733  0.1858 -0.1336 -0.1780
 1913SOL    HW117375   4.705   0.593   8.736  2.1447 -0.2955  0.5024
 1913SOL    HW217376   0.068   0.698   8.700  0.0505  1.9155  0.0308
 1914SOL     OW17377   2.092   0.423  17.515  0.2152 -0.0024  0.0683
 1914SOL    HW117378   2.003   0.429  17.551  1.3386 -1.1880  3.0331
 1914SOL    HW217379   2.116   0.515  17.525 -2.1152  0.3284  2.6312
 1915SOL     OW17380   3.899   3.697   8.316 -0.6687  0.2550  0.2433
 1915SOL    HW117381   3.882   3.605   8.338 -0.9534 -0.1447 -1.6277
 1915SOL    HW217382   3.815   3.726   8.280  0.6129  0.3215 -2.7003
 1916SOL     OW17383   1.728   3.567   5.009  0.2887 -0.3153 -0.7229
 1916SOL    HW117384   1.788   3.544   5.079 -0.9022 -3.9419 -0.8782
 1916SOL    HW217385   1.652   3.588   5.063  2.6537  3.9336  0.9253
 1917SOL     OW17386   1.433   0.296  14.162 -0.2065  0.1207 -0.2737
 1917SOL    HW117387   1.398   0.385  14.171 -0.2710 -0.0293  0.9097
 1917SOL    HW217388   1.361   0.245  14.125 -1.4699  1.7795 -0.0958
 1918SOL     OW17389   1.285   3.735   5.209 -0.5599  0.0111 -0.1984
 1918SOL    HW117390   1.253   3.719   5.297 -1.8272  0.2261 -0.6152
 1918SOL    HW217391   1.202   3.745   5.162 -0.8262  0.6944  0.4215
 1919SOL     OW17392   0.523   1.006   6.405 -0.3968 -0.4803  0.0340
 1919SOL    HW117393   0.510   1.091   6.362 -0.3233 -0.5819 -0.1882
 1919SOL    HW217394   0.468   0.950   6.350 -0.8320 -0.4346  0.4197
 1920SOL     OW17395   2.708   4.681   9.379 -0.0486  0.2431  0.0922
 1920SOL    HW117396   2.646   4.677   9.452 -0.2875  1.4734 -0.0545
 1920SOL    HW217397   2.647   4.692   9.305 -0.0817  0.9312  0.2227
 1921SOL     OW17398   1.292   1.750   8.828 -0.3790  0.3064  0.0890
 1921SOL    HW117399   1.318   1.683   8.765 -1.5455  0.4003 -0.4871
 1921SOL    HW217400   1.378   1.787   8.847  0.1051 -1.1472  0.7554
 1922SOL     OW17401   0.954   4.541   6.565  0.4337 -0.2970  0.2467
 1922SOL    HW117402   0.977   4.455   6.601 -0.3236 -0.6711 -0.1621
 1922SOL    HW217403   0.980   4.526   6.474 -0.9998 -0.4006 -0.1500
 1923SOL     OW17404   3.334   3.049   6.397 -0.3717 -0.2595  0.1017
 1923SOL    HW117405   3.280   3.059   6.476 -1.0708  0.6315 -0.4974
 1923SOL    HW217406   3.298   3.114   6.337  1.3648 -0.5818 -1.2714
 1924SOL     OW17407   3.222   4.040   6.074 -0.3022 -0.1939  0.0838
 1924SOL    HW117408   3.163   3.982   6.026 -0.0302 -1.5280  1.3870
 1924SOL    HW217409   3.304   4.021   6.027  0.3305 -1.0858  1.5642
 1925SOL     OW17410   2.540   3.545   0.406 -0.3324 -0.4223  0.1148
 1925SOL    HW117411   2.530   3.453   0.382  0.7341 -0.7008  0.7385
 1925SOL    HW217412   2.623   3.577   0.370  0.7935 -1.4695  1.7467
 1926SOL     OW17413   1.898   4.392   5.990 -0.6579  0.5993  0.2729
 1926SOL    HW117414   1.948   4.310   5.994  1.2604  1.7389 -0.1219
 1926SOL    HW217415   1.819   4.356   5.951  0.1095  0.1890 -0.9046
 1927SOL     OW17416   2.969   3.497   5.150  0.1748  0.0414 -0.2394
 1927SOL    HW117417   2.987   3.447   5.070  2.8709  1.3674 -0.4635
 1927SOL    HW217418   2.899   3.448   5.193 -1.8894  2.2760 -1.0502
 1928SOL     OW17419   0.088   1.058   8.486 -0.1845 -0.6860  0.3932
 1928SOL    HW117420   0.129   0.992   8.430 -0.3516 -1.4201  1.1331
 1928SOL    HW217421   0.036   1.105   8.421 -0.7679 -2.1036 -0.1832
 1929SOL     OW17422   3.849   1.320   3.639 -0.3710 -0.3616 -0.1967
 1929SOL    HW117423   3.897   1.298   3.718 -1.4018  0.1786  0.5785
 1929SOL    HW217424   3.902   1.259   3.589 -1.0762  0.4828 -1.9807
 1930SOL     OW17425   1.966   4.620   4.770 -0.3960  0.0930  0.2064
 1930SOL    HW117426   1.922   4.604   4.687  0.9754  0.2882 -0.5579
 1930SOL    HW217427   1.897   4.664   4.820 -1.0192  1.6666 -2.0221
 1931SOL     OW17428   2.447   3.101   7.966  0.4204 -0.2792 -0.0150
 1931SOL    HW117429   2.471   3.194   7.965 -2.1530  0.3586 -0.9834
 1931SOL    HW217430   2.415   3.099   7.876 -1.2643  0.6733  0.5781
 1932SOL     OW17431   3.524   3.643   6.262  0.0182 -0.1207  0.2599
 1932SOL    HW117432   3.472   3.564   6.245 -1.1038  0.8166 -0.7002
 1932SOL    HW217433   3.475   3.686   6.332 -1.3740 -0.7697 -0.2982
 1933SOL     OW17434   4.075   1.376   9.009  0.0618  0.3097  0.0770
 1933SOL    HW117435   4.003   1.330   9.052 -0.3004  0.7567 -0.0564
 1933SOL    HW217436   4.045   1.466   8.998 -0.2184  0.2498  0.3691
 1934SOL     OW17437   0.289   0.069   2.379 -0.2563  0.1330  0.7297
 1934SOL    HW117438   0.331   0.068   2.293 -0.0485  3.3536  0.7877
 1934SOL    HW217439   0.370   0.096   2.421  0.5410  0.6784 -1.1430
 1935SOL     OW17440   0.782   3.597   2.047 -0.7728  0.0178  0.4080
 1935SOL    HW117441   0.810   3.612   2.137  2.0312 -2.3278 -0.0661
 1935SOL    HW217442   0.751   3.509   2.066  0.2334 -0.9495 -2.4472
 1936SOL     OW17443   2.815   3.137   4.844  0.0559  0.6546 -0.3142
 1936SOL    HW117444   2.765   3.168   4.768  1.8517  3.6481 -0.2927
 1936SOL    HW217445   2.882   3.087   4.797  1.3425  0.2224  1.9778
 1937SOL     OW17446   0.032   1.940  12.271 -0.2790 -0.2899 -0.2408
 1937SOL    HW117447   0.024   1.845  12.283 -0.8631  0.0291  1.9234
 1937SOL    HW217448   4.675   1.951  12.253  0.2360  1.6041 -1.7547
 1938SOL     OW17449   3.652   0.159   6.942  0.2256  0.2394 -0.3361
 1938SOL    HW117450   3.643   0.065   6.952  1.6281  0.2216  0.8636
 1938SOL    HW217451   3.630   0.171   6.850  1.4849  4.1072 -0.1481
 1939SOL     OW17452   3.953   3.159   1.656 -0.0694 -0.4585  0.5470
 1939SOL    HW117453   3.994   3.245   1.658  0.3218 -0.6054 -1.4348
 1939SOL    HW217454   3.911   3.174   1.572 -3.0989 -1.1682  1.9399
 1940SOL     OW17455   1.754   2.380   6.847 -0.2484 -0.4866  0.0289
 1940SOL    HW117456   1.743   2.435   6.769 -3.4498  0.7640  1.3461
 1940SOL    HW217457   1.846   2.355   6.843 -0.0547 -0.0799  1.6134
 1941SOL     OW17458   2.651   2.362   5.980 -0.7035 -0.2408 -0.6052
 1941SOL    HW117459   2.648   2.319   5.894 -0.1243 -1.1804 -0.1543
 1941SOL    HW217460   2.635   2.286   6.036 -0.1752 -0.2801 -0.5093
 1942SOL     OW17461   1.792   1.641   6.159 -0.0184 -0.4297 -0.4203
 1942SOL    HW117462   1.790   1.700   6.234  1.2298 -0.0886 -0.6541
 1942SOL    HW217463   1.707   1.598   6.166  0.3218 -0.6403  2.4733
 1943SOL     OW17464   4.616   1.267   4.980 -0.7279 -0.2230  0.5600
 1943SOL    HW117465   4.586   1.244   5.068 -2.1075 -0.3228  0.0688
 1943SOL    HW217466   4.578   1.189   4.938  1.3658 -0.4444 -0.9207
 1944SOL     OW17467   3.352   2.454  14.941  0.1973  0.7259  0.0095
 1944SOL    HW117468   3.386   2.408  14.864 -0.6323 -0.7730  0.5456
 1944SOL    HW217469   3.405   2.419  15.013  1.1688  2.2289  0.0123
 1945SOL     OW17470   0.984   4.378   8.765 -0.3447 -0.5110 -0.3148
 1945SOL    HW117471   1.027   4.381   8.851  0.5459 -0.7154 -0.7588
 1945SOL    HW217472   0.908   4.321   8.772 -0.5391 -0.5509 -3.0705
 1946SOL     OW17473   2.573   0.450   2.919  0.2479  0.2341 -0.1335
 1946SOL    HW117474   2.656   0.407   2.940  1.2334  0.7892 -2.9680
 1946SOL    HW217475   2.510   0.378   2.923 -0.4406  0.7941 -1.0167
 1947SOL     OW17476   2.160   3.760   3.701 -0.4070  0.3688  0.4736
 1947SOL    HW117477   2.112   3.790   3.624 -0.7258  0.0313  0.5380
 1947SOL    HW217478   2.092   3.702   3.735 -2.2128  2.5976  0.7172
 1948SOL     OW17479   0.855   4.677   1.048 -0.3273  0.8500  0.3522
 1948SOL    HW117480   0.781   4.708   0.995 -1.6985  0.2475  1.9353
 1948SOL    HW217481   0.822   4.681   1.137 -1.4301  1.7020 -0.0949
 1949SOL     OW17482   1.931   3.957  12.247  0.4516 -0.4485  0.2263
 1949SOL    HW117483   1.841   3.935  12.271  0.5409  0.4125  1.3865
 1949SOL    HW217484   1.977   3.897  12.306  3.4371 -0.8285 -2.4903
 1950SOL     OW17485   0.203   1.918   5.546  0.0405  0.0725 -0.1311
 1950SOL    HW117486   0.220   1.981   5.476 -0.2399  1.3500  0.9570
 1950SOL    HW217487   0.261   1.961   5.608 -3.4660  0.7712  2.7260
 1951SOL     OW17488   0.170   4.243   4.244  0.1833  0.2997 -0.2952
 1951SOL    HW117489   0.147   4.336   4.246  0.5115  0.4255 -2.6420
 1951SOL    HW217490   0.233   4.256   4.173  0.2484  2.4558  0.1436
 1952SOL     OW17491   2.045   2.631   5.025  0.2490 -0.3779  0.3683
 1952SOL    HW117492   2.028   2.708   5.080 -1.7836 -0.4478 -0.1889
 1952SOL    HW217493   1.976   2.629   4.959 -0.8633  0.9252  1.4952
 1953SOL     OW17494   2.391   2.320  11.673 -0.2207  0.1714 -0.4771
 1953SOL    HW117495   2.319   2.307  11.734  0.2716  2.3699  0.5493
 1953SOL    HW217496   2.339   2.351  11.598 -0.2679  1.8460  0.2467
 1954SOL     OW17497   0.363   4.522   5.083 -0.3350 -0.5691 -0.2263
 1954SOL    HW117498   0.376   4.502   4.990 -3.1577 -0.7869 -0.5574
 1954SOL    HW217499   0.381   4.435   5.118  0.5944  0.0619  0.8687
 1955SOL     OW17500   0.103   2.569   5.626  0.1394  0.1547  0.1165
 1955SOL    HW117501   0.009   2.552   5.621 -0.1368  1.1330  2.5380
 1955SOL    HW217502   0.146   2.516   5.693  1.0640 -0.1487 -0.7121
 1956SOL     OW17503   2.266   3.051   4.666  0.1367 -0.4232  0.0522
 1956SOL    HW117504   2.346   3.073   4.618  1.0945 -0.2808  1.7270
 1956SOL    HW217505   2.298   3.017   4.749  0.4795  0.5456  0.3136
 1957SOL     OW17506   3.506   3.660  11.429 -0.6870  0.1254  0.2390
 1957SOL    HW117507   3.526   3.571  11.456  2.3072  0.6983 -0.0920
 1957SOL    HW217508   3.414   3.639  11.415 -0.8861 -0.1048  1.9867
 1958SOL     OW17509   0.971   1.846   5.597  0.4457 -0.2604  0.1809
 1958SOL    HW117510   1.043   1.782   5.609  1.8996  0.9544 -2.1227
 1958SOL    HW217511   0.975   1.891   5.681 -0.5954 -1.2206  0.7466
 1959SOL     OW17512   1.978   3.491   7.928  0.5067  0.2931 -0.3436
 1959SOL    HW117513   1.998   3.566   7.871 -0.9927  0.0783 -1.1469
 1959SOL    HW217514   1.953   3.421   7.868 -0.4417  0.8412 -0.5918
 1960SOL     OW17515   4.535   3.634   8.785 -0.9594  0.1977  0.0049
 1960SOL    HW117516   4.597   3.560   8.786  2.1277  2.7924 -0.7762
 1960SOL    HW217517   4.574   3.675   8.708 -0.6674 -0.7529 -0.3590
 1961SOL     OW17518   4.019   2.525  17.624  0.2445 -0.4153 -0.2241
 1961SOL    HW117519   3.970   2.446  17.646 -0.9229  0.4290  0.2257
 1961SOL    HW217520   4.051   2.507  17.536 -1.1453 -1.8355 -0.4315
 1962SOL     OW17521   3.306   1.484  16.184 -0.1761  0.2199  0.2220
 1962SOL    HW117522   3.315   1.432  16.104  0.1747  0.3594  0.1683
 1962SOL    HW217523   3.272   1.571  16.162 -3.5986 -0.5169  2.5923
 1963SOL     OW17524   1.961   1.429   2.315 -0.1597  0.0242 -0.4332
 1963SOL    HW117525   2.006   1.511   2.298 -1.9379  0.1343 -4.5486
 1963SOL    HW217526   1.886   1.441   2.256 -0.2990  2.3769  0.2182
 1964SOL     OW17527   2.473   1.200   1.363 -0.7174  0.5916 -0.4314
 1964SOL    HW117528   2.435   1.273   1.314  2.4456  2.7918  0.3877
 1964SOL    HW217529   2.468   1.131   1.296  0.5579  0.2044 -0.1250
 1965SOL     OW17530   2.086   0.803  15.834 -0.3851  0.0631  0.0344
 1965SOL    HW117531   2.140   0.773  15.907  1.1166  0.9875 -0.6780
 1965SOL    HW217532   1.996   0.779  15.855 -1.1516  2.2657 -0.7395
 1966SOL     OW17533   4.054   1.987   4.610 -0.3139  0.5201  0.3739
 1966SOL    HW117534   4.017   1.967   4.696 -1.2868 -0.9673 -0.3840
 1966SOL    HW217535   4.067   2.082   4.615  2.2159  0.1995 -0.0969
 1967SOL     OW17536   0.072   1.578   6.924  0.0837  0.2634 -0.1984
 1967SOL    HW117537   0.052   1.494   6.965 -1.5044  1.5882  1.7533
 1967SOL    HW217538   4.724   1.623   6.939 -0.1112 -0.2635  0.2883
 1968SOL     OW17539   0.565   1.507   4.728 -0.2184 -0.1362 -0.3817
 1968SOL    HW117540   0.531   1.554   4.804 -2.0925  0.8738 -1.8306
 1968SOL    HW217541   0.501   1.436   4.729  1.1858 -1.3510  1.1590
 1969SOL     OW17542   0.016   2.318   5.759  0.0192  0.6448 -0.2033
 1969SOL    HW117543   0.086   2.258   5.785 -1.1185 -0.6626 -0.1547
 1969SOL    HW217544   4.695   2.258   5.711  1.8524 -1.4754  0.3237
 1970SOL     OW17545   2.341   0.601   7.484 -0.7632  0.1305  0.3191
 1970SOL    HW117546   2.338   0.695   7.505  0.2271  0.1397  0.4292
 1970SOL    HW217547   2.432   0.607   7.454 -0.7016  0.2095  0.5243
 1971SOL     OW17548   1.140   1.612   5.589  0.4767 -0.2306  0.3680
 1971SOL    HW117549   1.143   1.529   5.638 -2.7090 -1.8665 -2.2505
 1971SOL    HW217550   1.063   1.598   5.534  1.0733  0.1862 -0.5577
 1972SOL     OW17551   1.656   0.656  12.392 -0.1836  0.3176  0.1876
 1972SOL    HW117552   1.737   0.614  12.418 -0.2739 -0.0819 -0.1859
 1972SOL    HW217553   1.617   0.679  12.476  0.1052  0.8386  0.1830
 1973SOL     OW17554   4.537   1.759  10.233  0.2415 -0.1705  0.1600
 1973SOL    HW117555   4.614   1.738  10.179  0.1248  2.0746 -0.8609
 1973SOL    HW217556   4.560   1.712  10.313 -0.8049  0.4753  0.8395
 1974SOL     OW17557   1.014   3.604  17.214  0.2256  0.1911 -0.2298
 1974SOL    HW117558   0.972   3.546  17.151 -0.3528  1.6618 -1.1866
 1974SOL    HW217559   1.049   3.544  17.280 -1.0167  0.6288  0.8202
 1975SOL     OW17560   4.457   0.366   2.718 -0.2083  0.6595  0.0459
 1975SOL    HW117561   4.505   0.284   2.709  2.6385  2.1643  1.5531
 1975SOL    HW217562   4.370   0.330   2.738  0.2847 -0.3739  0.3462
 1976SOL     OW17563   1.868   0.893   5.094 -0.1961  0.3361 -0.1812
 1976SOL    HW117564   1.958   0.865   5.076 -0.2670 -0.3146  0.4675
 1976SOL    HW217565   1.871   0.981   5.133 -0.5196  0.8780 -1.3605
 1977SOL     OW17566   2.285   3.362  11.277 -0.0791  0.2488 -0.2304
 1977SOL    HW117567   2.219   3.335  11.341 -0.6683 -0.5350 -1.1686
 1977SOL    HW217568   2.337   3.418  11.335 -0.8307  0.8546 -0.1307
 1978SOL     OW17569   1.835   2.858   9.362 -0.4323  0.7427  0.2007
 1978SOL    HW117570   1.747   2.842   9.396  0.1870  0.9136  1.8645
 1978SOL    HW217571   1.885   2.899   9.432  1.4920 -0.1588 -0.6301
 1979SOL     OW17572   2.134   3.243   4.164 -0.3394  0.4073 -0.3982
 1979SOL    HW117573   2.179   3.202   4.238  0.3115 -0.3884 -1.2421
 1979SOL    HW217574   2.136   3.170   4.103  0.8032 -0.2230  0.4056
 1980SOL     OW17575   0.765   2.838   2.181 -0.3253 -0.1437 -0.9018
 1980SOL    HW117576   0.830   2.768   2.191  0.6502  0.8747 -0.1190
 1980SOL    HW217577   0.708   2.822   2.106 -1.8928 -0.3205  0.3303
 1981SOL     OW17578   2.838   3.594   2.815  0.2798 -0.0675 -0.3890
 1981SOL    HW117579   2.790   3.632   2.742  0.3674 -0.8501 -0.8499
 1981SOL    HW217580   2.780   3.522   2.838 -1.6219  1.9556  1.0762
 1982SOL     OW17581   4.610   2.268  13.951 -0.6055  0.3869  0.0997
 1982SOL    HW117582   4.605   2.173  13.952 -0.2548  0.3622 -0.8780
 1982SOL    HW217583   4.617   2.278  13.856 -0.3450 -0.2691  0.0552
 1983SOL     OW17584   0.307   2.445   9.015 -1.1827 -0.2980  0.3699
 1983SOL    HW117585   0.212   2.433   9.012 -1.0747 -1.0189  0.0534
 1983SOL    HW217586   0.341   2.358   8.994 -1.2901 -0.2840  0.1374
 1984SOL     OW17587   4.452   0.220   5.396  0.7820  0.3996 -0.0481
 1984SOL    HW117588   4.466   0.153   5.462 -0.8290  0.3746  0.2725
 1984SOL    HW217589   4.356   0.220   5.395  0.8069 -2.3427 -2.0278
 1985SOL     OW17590   4.261   3.344   4.795  0.4781  0.4952  0.1684
 1985SOL    HW117591   4.243   3.428   4.752 -1.6189 -0.1278 -0.1761
 1985SOL    HW217592   4.324   3.305   4.735  1.5443  3.5883 -0.7234
 1986SOL     OW17593   1.550   0.807   0.234  0.4792 -0.7457  0.6090
 1986SOL    HW117594   1.509   0.806   0.148  2.1162  1.0813 -0.1893
 1986SOL    HW217595   1.470   0.780   0.281 -0.9488  0.9285 -0.8853
 1987SOL     OW17596   0.231   4.355  13.694  0.5266  0.1366  0.2984
 1987SOL    HW117597   0.258   4.345  13.603 -0.2765  2.4851 -0.2144
 1987SOL    HW217598   0.187   4.271  13.706 -2.2378  1.4616 -0.6560
 1988SOL     OW17599   3.588   4.255   9.798 -0.6658 -0.1110  0.0107
 1988SOL    HW117600   3.566   4.288   9.885 -0.3190  0.0459  0.0375
 1988SOL    HW217601   3.519   4.304   9.754  1.1333  2.2249 -0.1876
 1989SOL     OW17602   1.628   1.309   2.200 -0.0694 -0.0699 -0.7585
 1989SOL    HW117603   1.548   1.359   2.217 -0.2698 -0.4811 -0.4919
 1989SOL    HW217604   1.635   1.251   2.276  0.5441 -1.2136 -1.6699
 1990SOL     OW17605   1.974   0.769   3.900  0.3438 -0.2577 -0.0326
 1990SOL    HW117606   2.047   0.717   3.933 -0.6021  0.3384  2.9201
 1990SOL    HW217607   1.934   0.802   3.981 -1.7309 -1.6484 -0.4761
 1991SOL     OW17608   0.743   0.050   0.650  0.9182  0.2732 -0.3356
 1991SOL    HW117609   0.718   4.695   0.668 -4.3664  2.0406  1.2247
 1991SOL    HW217610   0.670   0.094   0.694 -0.3423 -0.6181 -1.5254
 1992SOL     OW17611   3.946   3.056   7.154  0.5362 -0.5810 -0.1710
 1992SOL    HW117612   3.978   3.064   7.244 -0.3395 -1.4434  0.2190
 1992SOL    HW217613   3.978   3.143   7.129  0.0743 -0.7459 -1.3132
 1993SOL     OW17614   0.532   0.711  10.408  0.0261  0.2941  0.7406
 1993SOL    HW117615   0.460   0.713  10.471  0.9609 -0.4415  1.8415
 1993SOL    HW217616   0.564   0.799  10.430 -0.7843  0.5252  0.9852
 1994SOL     OW17617   0.814   1.394  10.829 -0.3089 -0.2886 -0.0699
 1994SOL    HW117618   0.780   1.404  10.918  0.9818 -0.4924  0.4421
 1994SOL    HW217619   0.897   1.352  10.850  0.5600 -0.7080 -4.4058
 1995SOL     OW17620   4.343   0.480   5.824 -0.5982 -0.4037 -0.1345
 1995SOL    HW117621   4.418   0.522   5.866 -0.3171  0.4026 -1.4473
 1995SOL    HW217622   4.278   0.517   5.883  0.1357  0.8373 -0.0978
 1996SOL     OW17623   1.751   3.306   4.886 -0.2688 -0.1904 -0.2204
 1996SOL    HW117624   1.844   3.319   4.899 -0.1726 -0.2191 -0.8557
 1996SOL    HW217625   1.726   3.393   4.854  1.0820  0.4360  0.4546
 1997SOL     OW17626   1.831   4.697  17.159  0.2377 -0.4738  0.4812
 1997SOL    HW117627   1.778   4.656  17.228  0.8919  0.5376  1.5836
 1997SOL    HW217628   1.781   4.683  17.079 -1.4049 -0.7576  1.5345
 1998SOL     OW17629   0.100   0.887   5.081 -0.5734 -0.3904  0.7868
 1998SOL    HW117630   0.009   0.878   5.052 -1.0253  1.2910  1.6839
 1998SOL    HW217631   0.115   0.793   5.092  0.0052 -0.7339 -2.9983
 1999SOL     OW17632   4.627   4.080  16.191  0.1046  0.3710 -0.6680
 1999SOL    HW117633   4.602   4.042  16.107 -0.7492 -0.0093 -0.2408
 1999SOL    HW217634   4.538   4.116  16.197  0.6176  1.3039  1.4829
 2000SOL     OW17635   3.952   3.165  12.798  0.0549 -0.1060  0.0053
 2000SOL    HW117636   3.926   3.251  12.766 -2.7690 -1.2536 -0.8353
 2000SOL    HW217637   3.917   3.162  12.887  0.4526 -0.2418  0.1546
 2001SOL     OW17638   2.487   4.376  14.957  0.0223 -0.0730 -0.5387
 2001SOL    HW117639   2.506   4.283  14.954 -1.8268 -0.4545 -0.7449
 2001SOL    HW217640   2.465   4.386  15.050  0.0996 -0.7072 -0.4545
 2002SOL     OW17641   0.699   4.450   5.104  0.1466 -0.3477 -0.1144
 2002SOL    HW117642   0.704   4.538   5.065  0.4557  0.2497  1.2676
 2002SOL    HW217643   0.705   4.470   5.198  2.7784  0.1140 -0.3627
 2003SOL     OW17644   4.553   0.148   7.735  0.0601  0.0114  0.3495
 2003SOL    HW117645   4.463   0.175   7.753 -1.3309 -1.9641 -3.8998
 2003SOL    HW217646   4.556   0.061   7.774 -0.1236 -0.8273 -1.5236
 2004SOL     OW17647   3.545   0.121  16.334 -0.5375 -0.0052 -0.3293
 2004SOL    HW117648   3.485   0.068  16.387  0.6171  0.3569  1.3526
 2004SOL    HW217649   3.607   0.049  16.323 -0.8001 -0.3882  0.7131
 2005SOL     OW17650   3.113   2.508   2.939 -0.0755  0.1985  0.0606
 2005SOL    HW117651   3.102   2.491   3.033 -1.7645 -0.6715 -0.3121
 2005SOL    HW217652   3.205   2.484   2.924  0.3545  0.6722  1.8258
 2006SOL     OW17653   2.760   2.117   8.626 -0.1887 -0.0043 -0.0197
 2006SOL    HW117654   2.765   2.212   8.614  2.5487  0.0249  1.1767
 2006SOL    HW217655   2.851   2.089   8.612 -0.4840  0.3319 -2.6406
 2007SOL     OW17656   2.289   1.793   2.516 -0.4330  0.2504  0.2800
 2007SOL    HW117657   2.342   1.714   2.504 -1.5075 -0.0199 -2.6599
 2007SOL    HW217658   2.346   1.868   2.499  0.5992 -0.1714  1.8138
 2008SOL     OW17659   4.232   2.734   3.252 -0.2496  0.2704 -0.8856
 2008SOL    HW117660   4.203   2.772   3.335 -0.8446 -1.1250 -0.4479
 2008SOL    HW217661   4.153   2.736   3.198 -1.1105  0.7523  0.4026
 2009SOL     OW17662   0.820   1.255   4.240 -0.2346  1.0280  0.2908
 2009SOL    HW117663   0.862   1.225   4.321 -1.7439 -0.1102  0.6374
 2009SOL    HW217664   0.886   1.229   4.176 -1.4607 -0.5292 -0.3266
 2010SOL     OW17665   4.680   2.358   4.972  0.0064  0.4611 -0.3762
 2010SOL    HW117666   4.706   2.339   4.882  0.0422 -2.7644  0.3119
 2010SOL    HW217667   0.027   2.398   4.999  0.6104 -2.4433  2.0266
 2011SOL     OW17668   0.591   0.992   9.907  0.3975 -0.7194  0.1152
 2011SOL    HW117669   0.554   0.996   9.996 -0.2034 -0.8613 -0.1287
 2011SOL    HW217670   0.643   1.071   9.919 -0.7549 -0.0544  0.7107
 2012SOL     OW17671   0.631   4.653   8.007  0.1065 -0.4510  0.5223
 2012SOL    HW117672   0.712   4.603   7.996 -0.4897 -0.9897 -1.4174
 2012SOL    HW217673   0.587   4.586   8.059 -0.7246 -0.8894 -0.7449
 2013SOL     OW17674   1.707   0.107   8.092  0.3534  0.1194  0.7495
 2013SOL    HW117675   1.767   0.033   8.081 -0.9376 -0.8857  0.4532
 2013SOL    HW217676   1.755   0.165   8.152  2.2111  0.0034 -0.6207
 2014SOL     OW17677   3.525   1.058   5.654 -0.9884 -0.1490  0.1588
 2014SOL    HW117678   3.592   1.016   5.708  0.2951 -1.4126 -2.4288
 2014SOL    HW217679   3.512   0.983   5.596  0.2253 -0.3827  0.1852
 2015SOL     OW17680   2.567   3.693   5.639  0.4798 -0.5472 -0.3070
 2015SOL    HW117681   2.478   3.657   5.632  0.6346 -1.0288  0.1447
 2015SOL    HW217682   2.612   3.623   5.591  1.4975 -0.4531  0.5303
 2016SOL     OW17683   4.349   2.334   1.763 -0.3154  0.4738 -0.3390
 2016SOL    HW117684   4.338   2.244   1.731 -0.3456  0.9152 -1.5415
 2016SOL    HW217685   4.423   2.319   1.822 -2.0421 -2.7672  1.0238
 2017SOL     OW17686   2.906   1.132   7.842 -0.1710  0.0570  0.1715
 2017SOL    HW117687   2.975   1.179   7.797 -0.3122  0.0921 -0.0066
 2017SOL    HW217688   2.955   1.100   7.918  0.8429 -1.0597 -0.9467
 2018SOL     OW17689   4.450   1.698   5.159  0.3120 -0.4537  0.6409
 2018SOL    HW117690   4.432   1.740   5.244  1.9266 -0.4941  1.0077
 2018SOL    HW217691   4.363   1.702   5.120  0.5168  0.8126  0.2985
 2019SOL     OW17692   1.270   3.061  11.606  0.1854 -0.0219  0.5067
 2019SOL    HW117693   1.321   3.141  11.614  0.0002  0.2926 -1.5499
 2019SOL    HW217694   1.299   3.015  11.685 -0.8231  0.9150  1.4062
 2020SOL     OW17695   1.267   2.235  11.921 -0.2851 -0.2972  0.4345
 2020SOL    HW117696   1.265   2.238  11.826 -0.4965  0.3044  0.4602
 2020SOL    HW217697   1.350   2.279  11.937 -0.1516 -0.4775  0.2435
 2021SOL     OW17698   1.364   3.293   4.895  0.2161  0.5520  0.1269
 2021SOL    HW117699   1.454   3.263   4.884 -0.6476 -1.7714 -0.6773
 2021SOL    HW217700   1.309   3.254   4.827  0.5138  2.3448 -1.1564
 2022SOL     OW17701   0.757   1.710   7.311  0.1874  0.4575 -0.2426
 2022SOL    HW117702   0.801   1.644   7.365 -0.4915 -1.3828 -1.9874
 2022SOL    HW217703   0.765   1.683   7.220  1.4661 -0.4142  0.1307
 2023SOL     OW17704   3.102   2.112   7.250  0.1826  0.3044 -0.7338
 2023SOL    HW117705   3.074   2.190   7.299 -0.7304 -2.1722  2.6579
 2023SOL    HW217706   3.090   2.044   7.315  2.0385  0.1831 -0.5089
 2024SOL     OW17707   0.353   0.591  14.484 -0.2338 -0.3809 -0.1167
 2024SOL    HW117708   0.295   0.662  14.458  1.1677  0.5398 -0.7286
 2024SOL    HW217709   0.303   0.556  14.558  0.2556 -1.6500 -0.3787
 2025SOL     OW17710   3.974   1.056   7.087 -0.1713 -0.2029 -0.2959
 2025SOL    HW117711   4.056   1.064   7.136  0.1260  0.8292 -0.9636
 2025SOL    HW217712   3.976   0.961   7.071  1.3265  0.1017 -1.9430
 2026SOL     OW17713   3.864   4.357  17.624  0.3698 -0.2453 -0.1566
 2026SOL    HW117714   3.796   4.305  17.582  0.8788 -1.9777  1.1617
 2026SOL    HW217715   3.825   4.361  17.711  0.2545  1.7659 -0.3096
 2027SOL     OW17716   1.720   0.133  11.479  0.9027 -0.5718 -0.6499
 2027SOL    HW117717   1.674   0.168  11.403  0.2594  2.4162  1.1015
 2027SOL    HW217718   1.807   0.169  11.461  0.9886 -0.1040  0.6519
 2028SOL     OW17719   4.449   2.171   5.958  0.1854  0.7357 -0.1000
 2028SOL    HW117720   4.388   2.223   6.010 -0.2698  0.9972 -0.9096
 2028SOL    HW217721   4.530   2.180   6.010 -0.5346 -1.5696  1.4171
 2029SOL     OW17722   4.368   0.544   5.230 -0.0624 -0.1684  0.5561
 2029SOL    HW117723   4.445   0.579   5.275  2.0346  0.6564 -3.6399
 2029SOL    HW217724   4.333   0.477   5.289  1.7521 -1.3189  0.3143
 2030SOL     OW17725   0.760   2.713   3.773 -0.3699 -0.3143 -0.0750
 2030SOL    HW117726   0.848   2.733   3.804 -0.6313  3.0975 -1.6039
 2030SOL    HW217727   0.713   2.695   3.854  2.5280  0.2697  1.7362
 2031SOL     OW17728   3.182   4.711   8.704  0.0780 -0.2965  0.1132
 2031SOL    HW117729   3.129   4.666   8.639 -0.0903  0.5340 -0.3210
 2031SOL    HW217730   3.255   0.000   8.648  0.2783 -2.2351 -0.4931
 2032SOL     OW17731   1.898   3.788   2.802 -0.0901 -0.4413  0.1546
 2032SOL    HW117732   1.901   3.804   2.896 -0.3485 -2.2631  0.4740
 2032SOL    HW217733   1.956   3.854   2.764 -1.5041  1.9682  2.2134
 2033SOL     OW17734   2.200   4.272  16.103  0.6032  0.8919  0.7976
 2033SOL    HW117735   2.195   4.317  16.018 -0.1479 -2.3476 -0.8679
 2033SOL    HW217736   2.147   4.195  16.083  1.0046  0.5269  1.1371
 2034SOL     OW17737   4.397   2.320  14.119  0.3496  0.7554 -0.4499
 2034SOL    HW117738   4.372   2.408  14.091 -0.6381  0.2324 -1.2355
 2034SOL    HW217739   4.454   2.299  14.045  0.3300 -1.1584  0.0917
 2035SOL     OW17740   3.165   4.253   6.500  0.6371 -0.2330  0.0546
 2035SOL    HW117741   3.209   4.288   6.578 -1.3957 -0.5585  1.3780
 2035SOL    HW217742   3.082   4.218   6.534 -0.4213  0.5473 -1.7244
 2036SOL     OW17743   2.671   2.563   4.169 -0.1992 -0.4297  0.3912
 2036SOL    HW117744   2.722   2.553   4.088 -0.3407 -0.3121  0.2892
 2036SOL    HW217745   2.583   2.556   4.134  0.2165 -4.9750  0.2483
 2037SOL     OW17746   3.058   0.137   6.186  0.1309  0.2571  0.2617
 2037SOL    HW117747   3.045   0.086   6.107 -0.0670 -0.1606  0.5615
 2037SOL    HW217748   3.137   0.184   6.160 -1.1809  1.1823 -1.9901
 2038SOL     OW17749   0.702   3.179   5.110  0.3241  0.5227 -0.2825
 2038SOL    HW117750   0.660   3.101   5.147  2.4194 -0.2616  0.4293
 2038SOL    HW217751   0.777   3.141   5.064 -1.7009 -2.2202 -1.2968
 2039SOL     OW17752   1.317   2.083   1.247 -0.3795 -0.4543 -0.1725
 2039SOL    HW117753   1.321   2.023   1.321 -1.3936 -0.3235 -0.0222
 2039SOL    HW217754   1.374   2.039   1.183  0.9680 -1.5653  1.8063
 2040SOL     OW17755   4.021   1.575   8.112 -0.1925  0.0070 -0.5034
 2040SOL    HW117756   4.085   1.604   8.177  1.7626 -1.7416 -1.6542
 2040SOL    HW217757   3.955   1.643   8.123  1.5604  1.7470 -0.8111
 2041SOL     OW17758   3.367   4.674  13.430 -0.6249 -0.3986  0.2133
 2041SOL    HW117759   3.403   4.601  13.479  2.4711  1.0952  0.1859
 2041SOL    HW217760   3.374   4.647  13.338  1.0397  0.9165 -0.0404
 2042SOL     OW17761   4.063   0.668   6.328 -0.2694  0.2984 -1.1962
 2042SOL    HW117762   4.145   0.655   6.280  0.3696 -0.5907  0.1305
 2042SOL    HW217763   4.072   0.605   6.400  1.7982 -0.1622 -1.8451
 2043SOL     OW17764   0.386   4.420   3.433  0.0150 -0.0955  0.0365
 2043SOL    HW117765   0.412   4.377   3.352  1.3657 -0.4940  0.6818
 2043SOL    HW217766   0.426   4.369   3.504  2.0572  2.4827  0.7231
 2044SOL     OW17767   2.422   0.293   3.804  0.0430 -0.4707  0.0804
 2044SOL    HW117768   2.420   0.357   3.733 -1.9133 -0.6024  0.0151
 2044SOL    HW217769   2.450   0.212   3.761  0.5640  0.2726 -0.9681
 2045SOL     OW17770   1.720   0.387   7.663  0.1314 -0.0182 -0.2629
 2045SOL    HW117771   1.815   0.387   7.655  0.1516 -0.3962 -0.0015
 2045SOL    HW217772   1.709   0.331   7.739 -0.5234  2.8818  1.7708
 2046SOL     OW17773   2.454   2.174   8.107  0.7136 -0.7772 -0.3215
 2046SOL    HW117774   2.538   2.135   8.081 -0.3698 -3.4960  0.1967
 2046SOL    HW217775   2.452   2.128   8.191 -4.3145  2.2556  1.2124
 2047SOL     OW17776   3.413   4.095   8.546 -0.0259 -0.1898 -0.1494
 2047SOL    HW117777   3.326   4.095   8.506  0.4118 -2.1218 -1.1040
 2047SOL    HW217778   3.467   4.059   8.475 -0.0804 -0.2935 -0.1391
 2048SOL     OW17779   2.866   1.373  17.537  0.4450  0.0535 -0.3501
 2048SOL    HW117780   2.830   1.422  17.612 -1.4110 -1.2852 -0.3620
 2048SOL    HW217781   2.885   1.292  17.585  0.6845 -0.2299 -0.9258
 2049SOL     OW17782   1.178   0.875  12.300 -0.2403 -0.5289  0.0891
 2049SOL    HW117783   1.205   0.963  12.274  2.3132 -1.1325  0.6834
 2049SOL    HW217784   1.156   0.841  12.213  0.5841 -0.9569  0.0381
 2050SOL     OW17785   0.201   4.732  12.504 -0.1003  0.3001  0.0372
 2050SOL    HW117786   0.113   0.036  12.508 -0.3423 -0.0707 -1.9419
 2050SOL    HW217787   0.257   0.048  12.562 -1.9427  2.9236 -0.4992
 2051SOL     OW17788   0.493   1.157   3.864 -0.2226 -0.3727 -0.1005
 2051SOL    HW117789   0.541   1.227   3.819  0.2419 -1.2974 -1.0333
 2051SOL    HW217790   0.425   1.137   3.800  1.0400 -0.2934 -1.4748
 2052SOL     OW17791   4.492   0.662   4.405 -0.0810  0.0574  0.1602
 2052SOL    HW117792   4.485   0.685   4.497 -1.3340  1.3994 -0.2644
 2052SOL    HW217793   4.536   0.737   4.367  0.0536 -0.4225 -0.6364
 2053SOL     OW17794   3.474   3.085  17.563  0.1384  0.1803  0.0968
 2053SOL    HW117795   3.447   3.103  17.653  1.2518 -1.3932  0.7419
 2053SOL    HW217796   3.565   3.114  17.562 -0.4192  1.9321 -0.7067
 2054SOL     OW17797   3.013   3.857   3.965 -0.3534 -0.1629 -0.6130
 2054SOL    HW117798   2.996   3.766   3.944 -1.0303 -0.3321  0.7351
 2054SOL    HW217799   3.023   3.900   3.880 -1.3620 -2.4172 -1.8678
 2055SOL     OW17800   4.230   2.622   8.723 -0.0735 -0.1631  0.0195
 2055SOL    HW117801   4.267   2.603   8.637  1.3399  0.5063  0.4855
 2055SOL    HW217802   4.139   2.595   8.715  0.2891 -1.5888  0.6785
 2056SOL     OW17803   0.189   4.277   8.475  0.1453  0.7452  0.0290
 2056SOL    HW117804   0.238   4.195   8.467  0.9802  1.3037 -0.6187
 2056SOL    HW217805   0.101   4.250   8.451  0.4405  0.0901 -0.3187
 2057SOL     OW17806   2.425   2.460   0.148  0.0927 -0.2488 -0.8182
 2057SOL    HW117807   2.482   2.421   0.082 -2.3349 -0.7455 -2.5934
 2057SOL    HW217808   2.340   2.425   0.122  0.1739  1.0923 -2.8526
 2058SOL     OW17809   3.270   3.806   4.097  0.4243  0.5308 -0.3649
 2058SOL    HW117810   3.203   3.858   4.053  1.3352  0.0241 -2.3530
 2058SOL    HW217811   3.251   3.831   4.187  1.0213  0.6096 -0.2618
 2059SOL     OW17812   0.799   3.966  12.011  0.6606 -0.0325 -0.2231
 2059SOL    HW117813   0.804   4.020  12.090 -2.6114 -0.2573  0.1142
 2059SOL    HW217814   0.715   3.924  12.027  0.9229 -0.2865  0.4877
 2060SOL     OW17815   1.522   3.001   8.023  0.4411  0.0653 -0.2051
 2060SOL    HW117816   1.495   2.910   8.036  0.8083  0.3669  2.6722
 2060SOL    HW217817   1.543   3.033   8.111 -1.3717 -1.6219  0.8203
 2061SOL     OW17818   0.457   0.353   3.826 -0.6831 -0.2769  0.1597
 2061SOL    HW117819   0.440   0.443   3.852 -1.7013 -0.0802 -1.2170
 2061SOL    HW217820   0.422   0.318   3.908  0.1626 -1.0461  0.2041
 2062SOL     OW17821   4.370   2.743   7.317  0.2308  0.4772 -0.4920
 2062SOL    HW117822   4.280   2.712   7.305 -0.1153  1.3279 -0.1365
 2062SOL    HW217823   4.409   2.747   7.230 -0.4895 -0.9631 -0.8694
 2063SOL     OW17824   3.053   0.174   0.611  0.1713 -0.3184 -0.3960
 2063SOL    HW117825   3.043   0.268   0.624  0.4173  0.0599 -2.8654
 2063SOL    HW217826   2.966   0.154   0.576  0.2375 -1.6470  0.2175
 2064SOL     OW17827   2.223   1.117   0.664 -0.0185  0.0128 -0.0389
 2064SOL    HW117828   2.235   1.045   0.602  0.3066  0.5283 -0.5752
 2064SOL    HW217829   2.160   1.174   0.620 -0.5603 -0.6490 -0.1276
 2065SOL     OW17830   2.639   2.514   4.680 -0.9295  1.0514 -0.1177
 2065SOL    HW117831   2.697   2.588   4.667 -0.0666  0.3119 -0.5181
 2065SOL    HW217832   2.645   2.456   4.604  0.9354  0.8108  0.2215
 2066SOL     OW17833   0.680   2.868   6.870  0.1471 -0.1020 -0.0815
 2066SOL    HW117834   0.712   2.946   6.826  2.1833 -1.4585 -0.9725
 2066SOL    HW217835   0.622   2.893   6.942 -1.3662 -0.6651 -1.1025
 2067SOL     OW17836   2.671   0.125   5.048 -0.4060  0.2595  0.0471
 2067SOL    HW117837   2.656   0.195   5.112 -1.2379 -0.8083  1.0423
 2067SOL    HW217838   2.600   0.063   5.069  0.4107  0.1876  2.5909
 2068SOL     OW17839   0.615   1.697   7.700  0.4699  0.3513 -0.5974
 2068SOL    HW117840   0.628   1.791   7.681 -2.1126  0.3228 -2.4537
 2068SOL    HW217841   0.624   1.704   7.795 -1.6356 -0.9068 -0.3182
 2069SOL     OW17842   4.088   3.033   1.286  1.2738 -0.5080  0.0985
 2069SOL    HW117843   4.056   2.966   1.226 -1.6732  0.9369  0.0702
 2069SOL    HW217844   4.073   2.992   1.372 -1.1234  0.3599  0.0978
 2070SOL     OW17845   3.595   1.548   6.575 -0.3378 -0.2930  0.6570
 2070SOL    HW117846   3.607   1.642   6.561 -0.7006 -0.2846  0.4086
 2070SOL    HW217847   3.550   1.547   6.659  2.3470 -1.8320  2.0712
 2071SOL     OW17848   2.468   3.147   1.061  0.3598 -0.1848  0.1646
 2071SOL    HW117849   2.374   3.139   1.047  0.4835  2.1605 -2.0336
 2071SOL    HW217850   2.468   3.209   1.134  0.3983  0.2453 -0.2054
 2072SOL     OW17851   0.283   0.394   7.978  0.4490  0.3323  0.1166
 2072SOL    HW117852   0.352   0.348   8.024  0.0855  0.4048  0.7407
 2072SOL    HW217853   0.219   0.325   7.961  0.1048  0.1100  2.2602
 2073SOL     OW17854   1.626   0.072   0.546  0.1995 -0.3825 -0.0323
 2073SOL    HW117855   1.691   0.091   0.613 -0.6077 -0.0188  0.6368
 2073SOL    HW217856   1.586   0.158   0.555 -0.5563 -0.9601  1.9938
 2074SOL     OW17857   3.754   0.208   5.502  0.7727 -0.1992 -0.7102
 2074SOL    HW117858   3.725   0.295   5.474  1.3228  0.9978  2.3953
 2074SOL    HW217859   3.747   0.162   5.418 -1.3275 -1.2492  0.0456
 2075SOL     OW17860   4.543   1.345   7.752 -0.0065  0.5786  0.0346
 2075SOL    HW117861   4.555   1.386   7.837 -2.3836  1.0144  0.1749
 2075SOL    HW217862   4.633   1.333   7.722  0.0981 -0.0975  0.5998
 2076SOL     OW17863   1.369   3.943  11.654  0.5246 -0.6402 -0.1259
 2076SOL    HW117864   1.417   4.022  11.627  2.2622 -2.1036 -1.3403
 2076SOL    HW217865   1.335   3.928  11.566  1.7133 -2.4989 -0.2486
 2077SOL     OW17866   1.372   1.556   8.667  0.5317  0.2868 -0.2383
 2077SOL    HW117867   1.454   1.555   8.619  1.8744 -1.1485  2.1149
 2077SOL    HW217868   1.365   1.461   8.679 -0.1642  0.5656  1.7267
 2078SOL     OW17869   4.487   0.526  10.678 -0.1790  0.1400  0.7018
 2078SOL    HW117870   4.528   0.487  10.756 -0.1273  0.3643  0.7882
 2078SOL    HW217871   4.534   0.482  10.608  0.5723 -0.6873  1.7133
 2079SOL     OW17872   0.796   2.212   5.363 -0.3658 -0.3512 -0.1341
 2079SOL    HW117873   0.762   2.242   5.278  2.4852  1.5659 -0.5992
 2079SOL    HW217874   0.867   2.274   5.383 -0.4245 -0.4022  0.2364
 2080SOL     OW17875   1.369   3.942   7.160 -0.7346  0.5562  0.0817
 2080SOL    HW117876   1.440   3.996   7.193  1.0865 -0.3867 -2.3230
 2080SOL    HW217877   1.340   3.991   7.083  0.5526 -1.4501 -1.6439
 2081SOL     OW17878   1.287   1.922   6.669 -0.0712  0.0307 -0.0601
 2081SOL    HW117879   1.370   1.946   6.711 -0.0588 -0.1104 -0.0050
 2081SOL    HW217880   1.314   1.842   6.625  0.4141  1.3909 -2.2602
 2082SOL     OW17881   1.275   1.779   7.500  0.4252  0.1398 -0.4962
 2082SOL    HW117882   1.278   1.804   7.593 -1.9268  0.0382 -0.4157
 2082SOL    HW217883   1.247   1.864   7.466 -1.6995  0.0817  1.1014
 2083SOL     OW17884   0.318   2.786   1.869 -0.1736  0.1929  0.4005
 2083SOL    HW117885   0.282   2.860   1.918  0.4880  2.0102 -1.8468
 2083SOL    HW217886   0.297   2.826   1.785 -0.4716 -0.0366  0.3637
 2084SOL     OW17887   2.400   3.940  16.494 -0.3658  0.1611 -0.2527
 2084SOL    HW117888   2.443   4.000  16.554  0.5166  1.7404 -2.4639
 2084SOL    HW217889   2.331   3.997  16.460 -2.1557 -1.3610  0.8062
 2085SOL     OW17890   3.448   1.581   6.809  0.2105 -0.4698  0.3812
 2085SOL    HW117891   3.380   1.521   6.779  0.6952 -0.0131 -1.5999
 2085SOL    HW217892   3.447   1.550   6.900 -2.1627  0.3054  0.6292
 2086SOL     OW17893   1.608   3.280   7.992  0.6781 -0.4912  0.1850
 2086SOL    HW117894   1.643   3.192   7.974  1.4136 -0.8222  3.3157
 2086SOL    HW217895   1.650   3.334   7.925  2.3741 -0.8632  0.9462
 2087SOL     OW17896   2.699   3.565   6.951  0.0611 -0.0884 -0.2062
 2087SOL    HW117897   2.642   3.546   6.877 -0.4149 -0.1957  0.1862
 2087SOL    HW217898   2.767   3.602   6.894  1.2038  1.5965  2.2269
 2088SOL     OW17899   4.212   0.447   0.003 -0.0452  0.3178  0.4466
 2088SOL    HW117900   4.306   0.452  17.728  0.0693  0.1459  1.1018
 2088SOL    HW217901   4.172   0.465  17.658  1.6859 -1.0089 -0.6327
 2089SOL     OW17902   0.248   3.695   6.510  0.2962 -0.0477  0.4166
 2089SOL    HW117903   0.271   3.712   6.601 -2.2269  0.7765  0.9215
 2089SOL    HW217904   0.241   3.600   6.510  0.3563 -0.0526  0.7498
 2090SOL     OW17905   2.493   3.345   3.457 -0.3481 -0.1155  0.1390
 2090SOL    HW117906   2.433   3.393   3.399  1.9881  1.0426 -1.2931
 2090SOL    HW217907   2.582   3.373   3.439 -0.4728 -1.1461 -2.0927
 2091SOL     OW17908   0.038   0.757   7.939 -0.5397 -0.1195 -0.1265
 2091SOL    HW117909   0.010   0.847   7.920 -1.5155 -0.7327 -1.6485
 2091SOL    HW217910   0.013   0.717   7.855 -1.5627  3.2429 -1.4138
 2092SOL     OW17911   2.745   1.037   2.239 -0.3625  0.0225  0.3025
 2092SOL    HW117912   2.702   0.957   2.270 -1.3017  0.2528 -0.4147
 2092SOL    HW217913   2.697   1.105   2.288  1.2652  0.9364  0.6487
 2093SOL     OW17914   3.274   3.713   4.985 -0.6373 -0.4038  0.1252
 2093SOL    HW117915   3.244   3.645   5.046  2.5932 -0.4696  1.6359
 2093SOL    HW217916   3.369   3.705   4.982 -0.5468 -0.6199  3.7636
 2094SOL     OW17917   0.978   1.206   7.954  0.1357 -0.0959  0.5562
 2094SOL    HW117918   1.060   1.160   7.932 -0.7823 -0.8176 -1.3567
 2094SOL    HW217919   1.018   1.289   7.980 -0.3201 -0.1506  1.4323
 2095SOL     OW17920   3.272   1.109   7.066 -0.0067  0.2387  0.1507
 2095SOL    HW117921   3.254   1.194   7.027  0.1179 -0.4530 -1.4346
 2095SOL    HW217922   3.366   1.105   7.048  0.3259  2.6157  1.3824
 2096SOL     OW17923   3.338   0.211  12.748 -0.3633 -0.0801  0.1981
 2096SOL    HW117924   3.246   0.197  12.772 -0.2564 -1.5454 -0.2498
 2096SOL    HW217925   3.374   0.235  12.833  1.4000 -0.1193 -0.5447
 2097SOL     OW17926   3.863   0.478  13.757 -0.4115  0.2837  0.4215
 2097SOL    HW117927   3.915   0.548  13.798  2.3724 -2.4427  1.5340
 2097SOL    HW217928   3.838   0.518  13.674  0.2932 -1.6164 -0.7084
 2098SOL     OW17929   3.536   2.342   4.636  0.1881  0.1889  0.1996
 2098SOL    HW117930   3.598   2.271   4.652  0.5182 -0.1133 -2.3732
 2098SOL    HW217931   3.561   2.405   4.704  2.0789 -0.3491 -0.0031
 2099SOL     OW17932   2.683   0.626   3.722 -0.8939 -0.2740 -0.2062
 2099SOL    HW117933   2.709   0.674   3.643 -0.2640  1.1678  0.8790
 2099SOL    HW217934   2.626   0.685   3.771 -1.0726 -1.8727  1.5029
 2100SOL     OW17935   4.234   1.350   7.428  0.0089 -0.0585 -0.0972
 2100SOL    HW117936   4.200   1.324   7.514 -1.4358  0.5843 -0.4825
 2100SOL    HW217937   4.227   1.445   7.427 -1.8515 -0.1604  2.4905
 2101SOL     OW17938   1.410   0.809   1.182  0.3055 -0.2027 -0.5802
 2101SOL    HW117939   1.353   0.807   1.259  0.2481  0.1194 -0.6151
 2101SOL    HW217940   1.452   0.723   1.191 -1.0661 -0.8534 -0.2947
 2102SOL     OW17941   1.539   4.546   0.483 -0.2493  0.9540  0.2300
 2102SOL    HW117942   1.623   4.518   0.518 -0.4835  2.0493  1.6422
 2102SOL    HW217943   1.558   4.638   0.501 -1.0213  0.8165  1.7014
 2103SOL     OW17944   1.420   3.359   2.169  0.4994  0.2691 -0.2552
 2103SOL    HW117945   1.391   3.375   2.079 -0.4952 -3.9776 -0.6933
 2103SOL    HW217946   1.498   3.414   2.170  0.7124 -0.0251 -0.6817
 2104SOL     OW17947   1.238   4.086   0.949  0.5844 -0.4872  0.2091
 2104SOL    HW117948   1.279   4.076   0.863  1.5626  2.4703  0.3545
 2104SOL    HW217949   1.221   3.993   0.965  0.7399 -0.7985 -1.4268
 2105SOL     OW17950   2.990   3.594  11.603 -0.1834  0.2815  0.2401
 2105SOL    HW117951   3.062   3.655  11.586 -0.1508  0.3461  0.6090
 2105SOL    HW217952   3.026   3.518  11.558 -0.1083 -0.5061  1.6281
 2106SOL     OW17953   4.651   3.823   8.329  0.3819 -0.1819  0.0751
 2106SOL    HW117954   4.568   3.777   8.315 -0.7196  1.8358 -0.0166
 2106SOL    HW217955   4.684   3.808   8.241 -1.2290 -0.1403 -0.5359
 2107SOL     OW17956   1.125   2.669   3.686 -0.4568  0.6217 -0.2395
 2107SOL    HW117957   1.217   2.644   3.675 -1.0773 -0.4149 -3.1580
 2107SOL    HW217958   1.121   2.704   3.775 -0.1626 -1.4629  0.6144
 2108SOL     OW17959   1.637   3.409   3.334  0.0824  0.3406 -0.4766
 2108SOL    HW117960   1.604   3.467   3.266  0.0435 -0.2923 -1.0031
 2108SOL    HW217961   1.562   3.351   3.350 -0.1847  0.3546 -1.6193
 2109SOL     OW17962   0.238   1.779  16.065  0.1961  0.0814  0.3001
 2109SOL    HW117963   0.214   1.872  16.073 -0.3203 -0.0136 -0.1445
 2109SOL    HW217964   0.154   1.742  16.037  1.1580 -1.5776 -0.3279
 2110SOL     OW17965   0.199   3.647   5.652  0.4914  0.4746  0.0749
 2110SOL    HW117966   0.188   3.734   5.612  2.2310  2.2075  3.3994
 2110SOL    HW217967   0.105   3.636   5.665  0.8163 -3.1438 -0.6549
 2111SOL     OW17968   4.219   4.689   1.268 -0.6049  0.0074 -0.0606
 2111SOL    HW117969   4.273   0.008   1.325  0.8044 -2.1648  0.6635
 2111SOL    HW217970   4.198   4.619   1.330 -1.0110  0.5049  0.3665
 2112SOL     OW17971   0.636   4.467   0.994 -0.5696  0.0827  0.4345
 2112SOL    HW117972   0.621   4.554   0.957 -0.4724 -0.4334 -0.8122
 2112SOL    HW217973   0.728   4.452   0.971  0.2260  0.8138  3.1216
 2113SOL     OW17974   2.350   2.611   5.941  0.2284 -0.1144  0.6223
 2113SOL    HW117975   2.388   2.640   5.858 -1.6318  3.0416  0.9089
 2113SOL    HW217976   2.414   2.643   6.005 -1.0510  3.3855  0.0922
 2114SOL     OW17977   4.312   2.324   7.778  0.4272  0.1701 -0.6654
 2114SOL    HW117978   4.346   2.263   7.712 -0.4310 -0.7451 -0.2610
 2114SOL    HW217979   4.392   2.360   7.814 -0.0500  1.5402 -0.9713
 2115SOL     OW17980   4.060   4.707   8.367  0.4877 -0.1114  0.0216
 2115SOL    HW117981   3.981   4.736   8.414  0.0802 -1.9339  0.4349
 2115SOL    HW217982   4.090   0.056   8.332 -0.2660  0.1033 -0.1019
 2116SOL     OW17983   1.228   0.444   6.860  0.0354  0.9211 -0.1468
 2116SOL    HW117984   1.246   0.378   6.793  0.5514 -1.1077  1.9836
 2116SOL    HW217985   1.143   0.472   6.827  0.4746  1.6992 -0.6307
 2117SOL     OW17986   4.673   3.668  15.053 -0.0203 -0.5990 -0.3239
 2117SOL    HW117987   4.676   3.678  14.958  1.0254  0.9065 -0.1361
 2117SOL    HW217988   4.733   3.594  15.050  0.3651 -0.2446 -1.3305
 2118SOL     OW17989   3.824   3.534   1.423 -0.2678  0.1932  0.2693
 2118SOL    HW117990   3.839   3.616   1.470 -0.3981  0.9088 -0.9544
 2118SOL    HW217991   3.884   3.476   1.470 -1.7620 -0.6544  1.1167
 2119SOL     OW17992   0.716   3.953   6.210  0.7221  0.2201 -0.5138
 2119SOL    HW117993   0.632   3.908   6.213  1.0591 -0.3639  0.1033
 2119SOL    HW217994   0.770   3.895   6.157 -1.7640 -2.1665 -0.4227
 2120SOL     OW17995   4.228   1.016   2.499 -0.2354 -0.4324 -0.0015
 2120SOL    HW117996   4.226   0.955   2.572  0.5844 -0.2084  0.2016
 2120SOL    HW217997   4.321   1.006   2.480 -0.4861 -1.3975 -0.7500
 2121SOL     OW17998   3.543   1.022   7.703 -0.0432  0.1704  0.0613
 2121SOL    HW117999   3.472   0.959   7.707 -1.1407  1.3429 -1.0092
 2121SOL    HW218000   3.573   1.027   7.612  2.3436 -0.7346  0.7933
 2122SOL     OW18001   3.250   2.982   4.919 -0.7733 -0.0417  0.2101
 2122SOL    HW118002   3.242   2.981   5.015  1.0236 -3.4833  0.3312
 2122SOL    HW218003   3.249   2.891   4.888 -0.5638 -0.3421  1.0799
 2123SOL     OW18004   0.701   0.833   6.748 -0.0865 -0.4100 -0.4344
 2123SOL    HW118005   0.666   0.745   6.763 -1.4553  0.3269  0.7438
 2123SOL    HW218006   0.655   0.881   6.818 -0.0886 -0.2698 -0.5317
 2124SOL     OW18007   1.282   2.629  11.748 -0.0552  0.4153 -0.0607
 2124SOL    HW118008   1.268   2.678  11.828 -1.5055  0.7153 -0.5001
 2124SOL    HW218009   1.191   2.598  11.739  0.6885 -1.9704  0.4935
 2125SOL     OW18010   2.496   3.965   5.856 -0.8168 -0.4055 -0.0692
 2125SOL    HW118011   2.578   3.992   5.813 -0.6339  1.5541  1.4951
 2125SOL    HW218012   2.483   3.882   5.809  0.1438 -2.2860  2.9916
 2126SOL     OW18013   4.024   0.691  16.573 -0.4109  0.1228  0.0420
 2126SOL    HW118014   3.957   0.686  16.505  1.1799  0.9252 -1.5976
 2126SOL    HW218015   3.965   0.689  16.648  0.2691 -2.6200  0.5096
 2127SOL     OW18016   3.814   1.840   7.271 -0.4196  0.1294 -0.6238
 2127SOL    HW118017   3.846   1.930   7.264 -2.0083  0.4468 -4.0580
 2127SOL    HW218018   3.794   1.826   7.364  3.2527  0.4145  0.1884
 2128SOL     OW18019   2.901   0.063   0.371  0.1594 -0.5411  0.0412
 2128SOL    HW118020   2.833   0.070   0.438  0.5632  1.1175  0.2734
 2128SOL    HW218021   2.909   4.704   0.382  0.5732 -0.4310  0.6824
 2129SOL     OW18022   1.819   1.656   4.224  0.2695  0.1340 -0.3008
 2129SOL    HW118023   1.901   1.606   4.222  0.4846  0.4707  0.0217
 2129SOL    HW218024   1.851   1.729   4.278  0.5292  0.4026 -0.8178
 2130SOL     OW18025   2.057   0.876  13.377 -0.3416  0.3919  0.3800
 2130SOL    HW118026   2.103   0.800  13.412 -0.6348  0.7920  1.6224
 2130SOL    HW218027   1.975   0.883  13.425 -1.2419 -1.7644 -0.8715
 2131SOL     OW18028   1.950   0.302   8.779 -0.0772 -0.1543  0.0305
 2131SOL    HW118029   1.898   0.382   8.774  1.0307  0.7633  2.8680
 2131SOL    HW218030   1.911   0.264   8.858 -0.1235 -1.0706 -0.4377
 2132SOL     OW18031   0.123   0.509   4.054 -0.0064  0.1597  0.8135
 2132SOL    HW118032   0.142   0.538   4.143  2.0772 -0.4914  0.5942
 2132SOL    HW218033   0.127   0.415   4.072  1.5861 -0.2004 -1.3855
 2133SOL     OW18034   2.025   2.820   2.821  0.3174 -0.5081 -0.1224
 2133SOL    HW118035   1.983   2.804   2.736 -1.1226  0.1083  0.4772
 2133SOL    HW218036   1.963   2.883   2.856  1.2333  0.2119  0.2197
 2134SOL     OW18037   0.271   1.102  12.513 -0.0654  0.4722  0.6641
 2134SOL    HW118038   0.179   1.079  12.529  0.8893 -3.3761  0.6403
 2134SOL    HW218039   0.282   1.067  12.425  2.0712  1.0535  0.6968
 2135SOL     OW18040   0.918   3.975   7.782 -0.2971 -0.1005 -0.7405
 2135SOL    HW118041   0.875   3.902   7.738  0.4098 -1.3739  0.6800
 2135SOL    HW218042   1.001   3.935   7.806 -0.8755  0.0136  1.4328
 2136SOL     OW18043   1.210   1.367   1.146  0.2875 -0.4765 -0.5378
 2136SOL    HW118044   1.217   1.314   1.225  2.5913 -0.8755 -1.0017
 2136SOL    HW218045   1.234   1.301   1.081 -1.0251 -0.8099 -0.6760
 2137SOL     OW18046   3.752   1.344   1.360 -0.5024 -0.3150  0.0113
 2137SOL    HW118047   3.788   1.261   1.329  0.8042 -0.0032  0.6870
 2137SOL    HW218048   3.738   1.387   1.275  0.5329  0.9921  0.5204
 2138SOL     OW18049   3.618   1.358   2.445  0.3109 -0.0899 -0.2947
 2138SOL    HW118050   3.660   1.273   2.433  2.1864  1.0258 -1.5824
 2138SOL    HW218051   3.532   1.330   2.412  0.5455 -0.5955 -0.4763
 2139SOL     OW18052   1.519   3.942  10.776  0.0360 -0.8134  0.2354
 2139SOL    HW118053   1.549   4.026  10.742 -2.5299  0.2521  0.5966
 2139SOL    HW218054   1.587   3.880  10.749  1.0875  1.2433 -1.7519
 2140SOL     OW18055   4.701   1.695   7.929  0.4896 -0.4087  0.1885
 2140SOL    HW118056   0.013   1.648   7.861 -0.7247 -0.6645 -0.4897
 2140SOL    HW218057   4.701   1.785   7.897 -2.2078 -0.2011  0.7061
 2141SOL     OW18058   3.712   4.559  16.549 -0.5970  0.0048 -0.0457
 2141SOL    HW118059   3.767   4.616  16.603 -2.7656  0.8641  1.2332
 2141SOL    HW218060   3.747   4.476  16.580  0.2086  0.2196 -0.3752
 2142SOL     OW18061   0.439   2.305  17.558 -0.1544  0.3407  0.2335
 2142SOL    HW118062   0.442   2.216  17.525 -0.6345 -0.0327  1.2022
 2142SOL    HW218063   0.525   2.301  17.601  1.6897  3.3367 -3.1822
 2143SOL     OW18064   3.943   1.591   0.200 -0.1889  0.0085 -0.2600
 2143SOL    HW118065   3.904   1.669   0.159  0.1752 -0.6284 -1.7817
 2143SOL    HW218066   3.893   1.517   0.168 -0.4630 -0.1173  0.4549
 2144SOL     OW18067   0.900   1.225  15.071 -0.0563 -0.0215  0.3690
 2144SOL    HW118068   0.878   1.314  15.099  0.7768  1.0691 -2.4428
 2144SOL    HW218069   0.911   1.239  14.977  1.0518  0.7033  0.6064
 2145SOL     OW18070   1.596   3.354  15.919  0.2414  0.1481 -0.0514
 2145SOL    HW118071   1.519   3.384  15.968  0.2323  1.8505 -1.1361
 2145SOL    HW218072   1.576   3.261  15.903 -0.5126  0.4637 -0.9468
 2146SOL     OW18073   1.687   4.278  14.710  0.0280 -0.8211  0.2360
 2146SOL    HW118074   1.647   4.251  14.627  1.2585  0.8026 -0.8694
 2146SOL    HW218075   1.652   4.366  14.717 -1.3301 -1.2877 -0.6372
 2147SOL     OW18076   2.991   3.057   6.418  0.2795 -0.2906  0.4010
 2147SOL    HW118077   2.955   3.145   6.415 -0.2181 -0.5440 -1.1181
 2147SOL    HW218078   3.040   3.045   6.499 -0.1257  1.7210  0.9455
 2148SOL     OW18079   1.532   4.238   2.626  0.2052 -0.2120 -0.3397
 2148SOL    HW118080   1.567   4.149   2.635 -0.3361 -0.1623  2.2960
 2148SOL    HW218081   1.493   4.257   2.712 -0.9166 -0.9459 -0.6885
 2149SOL     OW18082   1.970   2.384  15.503 -0.3555  0.2197 -0.1485
 2149SOL    HW118083   2.046   2.425  15.462 -0.3879  0.2924 -0.1349
 2149SOL    HW218084   1.988   2.291  15.489  0.4132  0.2744  0.4699
 2150SOL     OW18085   0.782   3.611  10.380  0.2403  0.2876 -0.1326
 2150SOL    HW118086   0.863   3.571  10.348  0.2241 -0.8154  1.2213
 2150SOL    HW218087   0.811   3.646  10.465 -2.0710  0.9342  0.3932
 2151SOL     OW18088   0.874   0.515   7.822  0.3061 -0.3147 -0.6348
 2151SOL    HW118089   0.778   0.516   7.815  0.2592  1.1328  0.0401
 2151SOL    HW218090   0.881   0.516   7.918 -0.2803  2.9224 -0.6260
 2152SOL     OW18091   0.612   4.105   2.703 -0.2457  0.3818  0.5264
 2152SOL    HW118092   0.662   4.134   2.779 -0.8281  0.6713  0.8020
 2152SOL    HW218093   0.530   4.153   2.713 -0.0798  0.8078 -0.1568
 2153SOL     OW18094   1.152   2.680   1.587 -0.3941  0.7268  0.5628
 2153SOL    HW118095   1.148   2.599   1.638  0.2301 -0.3801 -1.1456
 2153SOL    HW218096   1.197   2.656   1.505  3.6500  0.7635  2.7384
 2154SOL     OW18097   2.790   1.529   3.464  0.0633 -0.0958 -0.0560
 2154SOL    HW118098   2.790   1.475   3.385 -0.6275 -0.2240  0.0274
 2154SOL    HW218099   2.863   1.480   3.503  0.3631 -0.0075 -0.5140
 2155SOL     OW18100   0.971   2.355   2.918  0.3624  0.1017  0.3807
 2155SOL    HW118101   1.045   2.402   2.880 -0.2145  0.6534 -0.0622
 2155SOL    HW218102   0.908   2.424   2.939  1.5828  1.4974 -0.5847
 2156SOL     OW18103   2.533   0.223   5.288  0.4436  0.1303  0.2247
 2156SOL    HW118104   2.462   0.174   5.330 -0.0349  0.9154  0.3432
 2156SOL    HW218105   2.602   0.195   5.347  0.0594 -0.8385  0.2110
 2157SOL     OW18106   3.743   1.700   2.800  0.3047 -0.4614 -0.2906
 2157SOL    HW118107   3.741   1.742   2.714 -2.8323  0.4687  0.2372
 2157SOL    HW218108   3.720   1.611   2.772 -0.0394 -0.8900  1.3758
 2158SOL     OW18109   4.149   3.706  12.541 -0.2711 -0.4335  0.3452
 2158SOL    HW118110   4.096   3.725  12.619  3.0146 -0.4328  2.5552
 2158SOL    HW218111   4.109   3.630  12.500 -3.1573  0.8187  0.8213
 2159SOL     OW18112   4.591   4.146   7.688  0.6254 -0.0534 -0.5884
 2159SOL    HW118113   4.524   4.174   7.750  2.0348  0.3315  0.7832
 2159SOL    HW218114   4.670   4.178   7.732  0.9053  1.0539 -1.9044
 2160SOL     OW18115   0.452   2.140   7.231  0.2118 -0.5389  0.3244
 2160SOL    HW118116   0.388   2.160   7.300 -1.2962  0.0194 -1.2455
 2160SOL    HW218117   0.486   2.054   7.256  2.4183  0.2940  0.2287
 2161SOL     OW18118   2.638   3.790   3.798 -0.3235  0.3095 -0.1452
 2161SOL    HW118119   2.700   3.859   3.775  1.8432 -0.4937  3.3256
 2161SOL    HW218120   2.557   3.841   3.807 -0.1607  0.8511 -1.7523
 2162SOL     OW18121   2.898   3.604   8.975 -0.4519  0.2122 -0.2038
 2162SOL    HW118122   2.835   3.645   9.034  1.8794  2.2453  0.9057
 2162SOL    HW218123   2.973   3.657   9.004 -1.0820  1.0191 -0.0453
 2163SOL     OW18124   0.312   2.783   3.374 -0.3559  0.2922  0.3519
 2163SOL    HW118125   0.360   2.713   3.418 -0.2241  0.4189  0.4095
 2163SOL    HW218126   0.305   2.836   3.453 -1.1714 -0.8251  1.0416
 2164SOL     OW18127   1.641   0.174  11.223 -0.1330  0.1771  0.4854
 2164SOL    HW118128   1.642   0.267  11.202 -1.1241  0.0098 -0.3068
 2164SOL    HW218129   1.561   0.142  11.182  0.3868  0.2674 -0.5860
 2165SOL     OW18130   4.431   1.102  13.692 -0.0114 -0.0171  0.2496
 2165SOL    HW118131   4.458   1.015  13.662  1.9897  0.5699  0.2885
 2165SOL    HW218132   4.344   1.080  13.724 -0.9030  2.6345 -0.3355
 2166SOL     OW18133   2.451   0.870   6.305 -0.3036  0.0621  0.0570
 2166SOL    HW118134   2.426   0.957   6.274  0.9573  1.0306  1.7770
 2166SOL    HW218135   2.375   0.863   6.363 -0.7682 -0.7694 -0.6511
 2167SOL     OW18136   1.975   2.463   3.045 -0.3382 -0.0226 -0.8390
 2167SOL    HW118137   1.971   2.428   3.134 -1.2776  0.8943 -0.5148
 2167SOL    HW218138   1.913   2.398   3.012 -0.8005 -0.0156  0.0087
 2168SOL     OW18139   1.927   1.660   0.086 -0.3894  0.6642 -1.1413
 2168SOL    HW118140   1.952   1.638  17.737  0.9485  2.7689 -1.2954
 2168SOL    HW218141   1.860   1.595   0.104  1.1207 -0.6762 -0.3757
 2169SOL     OW18142   3.502   1.943   6.024 -0.4739  0.4451 -0.2410
 2169SOL    HW118143   3.522   1.976   6.112  0.1558  0.9753 -0.5858
 2169SOL    HW218144   3.591   1.938   5.990  0.6759  1.4039  2.6369
 2170SOL     OW18145   1.584   4.265   8.374  0.1213  0.3166  0.3689
 2170SOL    HW118146   1.623   4.251   8.460 -1.8199 -2.0518  0.8414
 2170SOL    HW218147   1.492   4.258   8.396 -0.3187  1.7656 -0.9970
 2171SOL     OW18148   1.029   3.469   5.618  0.7009 -0.5682 -0.1776
 2171SOL    HW118149   1.035   3.377   5.644 -1.2035 -0.0411  2.1366
 2171SOL    HW218150   1.043   3.512   5.702 -0.1413  2.8614 -1.7873
 2172SOL     OW18151   3.951   3.908   2.394  0.2208  0.2901 -0.3008
 2172SOL    HW118152   3.912   3.845   2.455 -0.6899  0.3710 -0.7927
 2172SOL    HW218153   4.043   3.892   2.416 -0.0197  0.1001  0.5431
 2173SOL     OW18154   1.796   2.314   5.589 -0.3693  0.3801 -0.1466
 2173SOL    HW118155   1.738   2.272   5.653  0.2655  0.8767  0.7556
 2173SOL    HW218156   1.731   2.362   5.537 -1.0100  0.8151  1.0476
 2174SOL     OW18157   3.389   1.260  14.744  0.2313 -0.0517  0.1086
 2174SOL    HW118158   3.405   1.201  14.817  2.9057  0.1433 -0.3026
 2174SOL    HW218159   3.361   1.338  14.791  1.2488  0.6685 -0.4689
 2175SOL     OW18160   2.004   2.430   1.095  0.3239 -0.0877  0.6259
 2175SOL    HW118161   1.928   2.373   1.107 -0.5310  1.2129  1.3252
 2175SOL    HW218162   1.963   2.513   1.070 -0.4050 -1.1184 -1.5737
 2176SOL     OW18163   2.229   2.106   7.099 -0.0886 -0.1240 -0.1179
 2176SOL    HW118164   2.239   2.187   7.150  0.3814 -0.1422 -0.1781
 2176SOL    HW218165   2.274   2.052   7.164 -0.1601 -0.7489 -0.5955
 2177SOL     OW18166   4.683   3.404   8.874 -0.2233  0.1474  0.1715
 2177SOL    HW118167   4.671   3.393   8.968 -0.8191  0.3851  0.1271
 2177SOL    HW218168   0.032   3.360   8.874 -0.2839  0.0350 -0.3784
 2178SOL     OW18169   0.817   1.915   0.888  0.6637 -0.1560 -0.4167
 2178SOL    HW118170   0.737   1.947   0.930 -0.1689  0.0520 -2.1861
 2178SOL    HW218171   0.809   1.821   0.903  1.5218 -0.0661  0.6025
 2179SOL     OW18172   2.952   1.084   8.466  0.0127  0.5750  0.0118
 2179SOL    HW118173   3.018   1.145   8.433  1.6957 -1.2906 -0.0897
 2179SOL    HW218174   2.870   1.127   8.442 -0.8993 -0.3644  1.4608
 2180SOL     OW18175   2.248   3.531   6.824  0.2253  0.5263  0.2244
 2180SOL    HW118176   2.197   3.553   6.746  0.1644 -0.4761 -0.0190
 2180SOL    HW218177   2.318   3.596   6.821 -0.2612  1.1327  2.6858
 2181SOL     OW18178   2.492   4.681  15.004  0.3867 -0.0428  0.1156
 2181SOL    HW118179   2.459   4.606  15.055  2.3909 -0.5131  0.7202
 2181SOL    HW218180   2.551   4.727  15.064 -2.5742  2.0047  1.4763
 2182SOL     OW18181   1.606   0.296  13.866 -0.0264  0.8651  0.2820
 2182SOL    HW118182   1.651   0.286  13.950  1.4130 -1.6231 -0.7899
 2182SOL    HW218183   1.572   0.208  13.852 -1.5944  1.6697 -1.0366
 2183SOL     OW18184   3.544   2.314   3.349  0.3487 -0.2385  0.5230
 2183SOL    HW118185   3.527   2.313   3.255  2.8302  1.5910  0.0440
 2183SOL    HW218186   3.603   2.388   3.360  0.9434 -0.6531  0.1254
 2184SOL     OW18187   1.003   2.232   7.510 -0.0440 -0.2873 -0.1673
 2184SOL    HW118188   1.058   2.159   7.540 -0.3938 -0.0634  1.0314
 2184SOL    HW218189   1.026   2.236   7.418 -0.5803 -0.9916 -0.3266
 2185SOL     OW18190   2.738   0.256   4.296 -0.0060 -0.3218 -0.8287
 2185SOL    HW118191   2.696   0.290   4.375 -0.9221 -0.9916 -1.0238
 2185SOL    HW218192   2.732   0.330   4.235  0.4413 -0.2883 -0.8259
 2186SOL     OW18193   4.256   2.737  13.695 -0.0759 -0.1391  0.3436
 2186SOL    HW118194   4.220   2.703  13.777  2.2118  2.1848  2.3446
 2186SOL    HW218195   4.349   2.713  13.700  0.1394  0.4234 -0.9161
 2187SOL     OW18196   1.647   1.837   5.899  0.3703  0.1424 -0.1389
 2187SOL    HW118197   1.567   1.831   5.951  0.5226 -1.5094 -0.0946
 2187SOL    HW218198   1.714   1.792   5.951  0.3325  2.4363  1.8631
 2188SOL     OW18199   4.398   3.815  15.105  0.0867 -0.4797  0.0130
 2188SOL    HW118200   4.334   3.831  15.036 -1.4297  0.0286  1.5354
 2188SOL    HW218201   4.467   3.766  15.061  0.5795  0.0278  0.2223
 2189SOL     OW18202   4.546   3.062   3.483 -0.5983 -0.0426  0.4533
 2189SOL    HW118203   4.580   3.135   3.534 -1.8563  0.8239  0.0326
 2189SOL    HW218204   4.581   2.992   3.539 -0.0890  0.8539  1.2399
 2190SOL     OW18205   1.324   1.844   2.499 -0.0580 -0.3108 -0.0680
 2190SOL    HW118206   1.283   1.761   2.478 -2.3295  0.7913 -0.0041
 2190SOL    HW218207   1.280   1.887   2.425 -1.1965 -0.5909  0.4454
 2191SOL     OW18208   2.308   3.577   5.624 -0.6573  0.2460  0.2641
 2191SOL    HW118209   2.281   3.564   5.715 -0.1631  0.5493  0.4525
 2191SOL    HW218210   2.311   3.485   5.598 -2.2303 -0.1239  1.4162
 2192SOL     OW18211   4.417   3.109   6.834 -0.2437 -0.2943  0.0434
 2192SOL    HW118212   4.512   3.096   6.838  0.0374  2.0216  1.5641
 2192SOL    HW218213   4.390   3.062   6.913 -0.2469  0.1213  0.2927
 2193SOL     OW18214   2.882   4.145   6.596 -0.4423 -0.3932 -0.0848
 2193SOL    HW118215   2.951   4.123   6.657  1.2456  2.0188 -1.1358
 2193SOL    HW218216   2.913   4.108   6.513 -0.8760 -0.0742 -0.3957
 2194SOL     OW18217   2.898   1.365   2.998 -0.2968  0.3908 -0.6429
 2194SOL    HW118218   2.987   1.383   3.028 -0.5461 -1.4517  1.2260
 2194SOL    HW218219   2.857   1.368   3.084 -0.4501 -2.2860 -0.6132
 2195SOL     OW18220   2.779   0.994   5.698 -0.0872  0.2835  0.6420
 2195SOL    HW118221   2.749   1.080   5.730 -0.5155 -0.6833  2.8204
 2195SOL    HW218222   2.821   0.953   5.773 -1.3958 -0.0789  1.1701
 2196SOL     OW18223   4.587   3.925  10.413 -0.0316  0.2424  0.1202
 2196SOL    HW118224   4.538   3.887  10.485 -1.1105 -0.6416 -1.0802
 2196SOL    HW218225   4.678   3.903  10.432  0.1098  0.0098 -0.8122
 2197SOL     OW18226   2.492   4.710  12.553  0.2026 -0.6305  0.5230
 2197SOL    HW118227   2.409   4.663  12.551 -0.1456  0.0590 -1.5605
 2197SOL    HW218228   2.520   4.704  12.644 -0.8206 -0.2731  0.8656
 2198SOL     OW18229   3.994   1.878   5.144 -0.3738 -0.1592  0.5241
 2198SOL    HW118230   3.942   1.823   5.202  0.1652 -1.1267  0.0963
 2198SOL    HW218231   4.080   1.845   5.171  0.3365  0.8233 -0.5181
 2199SOL     OW18232   1.854   0.765   4.756 -0.6862  0.3802  0.0110
 2199SOL    HW118233   1.886   0.734   4.672  0.6257 -3.2723  1.8690
 2199SOL    HW218234   1.833   0.858   4.743  1.2902  0.7299 -0.5439
 2200SOL     OW18235   1.840   0.178   0.717 -0.4747 -0.0729  0.1830
 2200SOL    HW118236   1.893   0.148   0.791 -0.2478  0.2679  0.1577
 2200SOL    HW218237   1.904   0.231   0.669 -0.6164 -0.7187 -0.7325
 2201SOL     OW18238   0.263   2.651  14.470  0.0458  0.2520  0.3599
 2201SOL    HW118239   0.342   2.599  14.486  0.2666  0.4385 -0.0998
 2201SOL    HW218240   0.296   2.737  14.495  0.3727  0.5127 -0.9437
 2202SOL     OW18241   1.591   1.348   0.411 -0.4951 -0.4892  0.3795
 2202SOL    HW118242   1.635   1.269   0.442 -0.0589  0.8154  3.0535
 2202SOL    HW218243   1.648   1.417   0.445 -1.1920 -1.1833  2.9060
 2203SOL     OW18244   3.149   3.440   4.611  0.1707 -0.1347 -0.2810
 2203SOL    HW118245   3.104   3.493   4.677  0.7541  1.5068 -1.2190
 2203SOL    HW218246   3.069   3.421   4.562  0.7797  0.3013 -1.4424
 2204SOL     OW18247   0.309   3.532  15.334 -0.1795 -0.2717 -0.6216
 2204SOL    HW118248   0.403   3.522  15.347 -0.0105  1.2844 -0.6167
 2204SOL    HW218249   0.277   3.444  15.354 -0.7019 -0.1542 -0.9442
 2205SOL     OW18250   0.495   4.558   2.652  0.7455 -0.3490  0.3309
 2205SOL    HW118251   0.459   4.502   2.722 -1.2241 -0.9078 -1.1227
 2205SOL    HW218252   0.460   4.642   2.680 -0.7752 -0.7749 -0.2757
 2206SOL     OW18253   1.143   2.425  13.362 -0.3849  0.4003 -0.3302
 2206SOL    HW118254   1.099   2.341  13.348  2.7941 -1.3512  0.1795
 2206SOL    HW218255   1.080   2.496  13.349 -1.4480 -0.0786  2.1548
 2207SOL     OW18256   3.027   0.610   3.574 -0.0147  0.1927  0.3765
 2207SOL    HW118257   3.033   0.699   3.539  2.2075  0.0546  0.4089
 2207SOL    HW218258   2.944   0.577   3.541  0.2451 -1.3667  1.2762
 2208SOL     OW18259   1.120   4.428   8.516 -0.0548  0.4128  0.1526
 2208SOL    HW118260   1.079   4.428   8.602 -0.6959 -1.1791 -0.1559
 2208SOL    HW218261   1.038   4.428   8.467  0.5026  3.5103 -0.8305
 2209SOL     OW18262   3.601   2.397   2.348  0.3582 -0.2307 -0.7407
 2209SOL    HW118263   3.527   2.342   2.321 -0.0279  0.1678 -0.5072
 2209SOL    HW218264   3.636   2.422   2.263  1.2396  1.3399  0.0882
 2210SOL     OW18265   1.707   2.079  14.800 -0.3426 -0.6121  0.5268
 2210SOL    HW118266   1.706   2.022  14.723  1.2035  0.8114 -0.5368
 2210SOL    HW218267   1.746   2.155  14.757  0.0896 -0.6435  0.8606
 2211SOL     OW18268   0.845   0.289   7.644 -0.5789 -0.3768 -0.1247
 2211SOL    HW118269   0.765   0.240   7.666 -1.7526  0.4559 -2.6368
 2211SOL    HW218270   0.846   0.347   7.720 -0.4217  0.5327 -0.8304
 2212SOL     OW18271   3.760   3.626  12.904  0.0262  0.3639  0.0724
 2212SOL    HW118272   3.795   3.601  12.990  0.5924 -1.0398 -0.5588
 2212SOL    HW218273   3.668   3.640  12.924 -0.1785 -0.7535 -0.0677
 2213SOL     OW18274   0.875   4.139   1.110  0.1872 -0.2940 -0.0931
 2213SOL    HW118275   0.785   4.129   1.141  0.7913  1.1309  2.1023
 2213SOL    HW218276   0.927   4.149   1.189  0.3334  2.1318 -0.5119
 2214SOL     OW18277   0.392   2.615   2.722  0.7159 -0.4415  0.1566
 2214SOL    HW118278   0.479   2.579   2.736  0.7633 -1.0042 -1.6220
 2214SOL    HW218279   0.338   2.542   2.692 -1.3370  0.0224  2.7423
 2215SOL     OW18280   1.339   1.953   5.805  0.3025  0.1310 -0.0928
 2215SOL    HW118281   1.376   1.964   5.892  0.9765 -2.2483 -0.1000
 2215SOL    HW218282   1.400   1.896   5.758  1.9753 -0.4715  2.8095
 2216SOL     OW18283   0.105   1.001   3.501 -0.1443 -0.4394 -0.3874
 2216SOL    HW118284   0.044   0.928   3.509  0.6076 -0.9807  0.5038
 2216SOL    HW218285   0.045   1.060   3.455  0.6442 -0.3368 -1.2916
 2217SOL     OW18286   0.381   4.021   0.978  0.0589  0.3273 -0.7280
 2217SOL    HW118287   0.295   4.027   0.935 -0.2008  0.4345 -0.1916
 2217SOL    HW218288   0.364   3.967   1.055 -0.5364  1.5408 -0.0029
 2218SOL     OW18289   4.284   2.844   5.444 -0.1933  0.2774  0.2337
 2218SOL    HW118290   4.194   2.824   5.468 -0.0639  0.3097  0.7538
 2218SOL    HW218291   4.280   2.936   5.417 -1.0840 -0.0996 -0.8969
 2219SOL     OW18292   4.405   0.216   5.762  0.4271  0.1990  0.0476
 2219SOL    HW118293   4.385   0.309   5.758  1.9530  0.4950 -0.6478
 2219SOL    HW218294   4.395   0.195   5.855  0.0948  2.0166  0.4138
 2220SOL     OW18295   3.137   1.230  16.028  0.3936  0.1652 -0.2791
 2220SOL    HW118296   3.065   1.289  16.003 -0.6623 -0.6528  0.7899
 2220SOL    HW218297   3.222   1.272  16.012  1.0054 -0.7621  0.5725
 2221SOL     OW18298   4.174   0.699   8.062 -0.0383  0.5378 -0.2669
 2221SOL    HW118299   4.171   0.742   8.147 -1.6240 -3.2994  1.6486
 2221SOL    HW218300   4.257   0.736   8.032  1.1618  0.2492  2.7174
 2222SOL     OW18301   1.962   3.347  15.331 -0.5507  0.2413 -0.2917
 2222SOL    HW118302   1.961   3.433  15.291  0.8518  1.2893  1.9424
 2222SOL    HW218303   1.871   3.322  15.314  0.0951 -2.2070 -0.1748
 2223SOL     OW18304   4.357   1.760  12.246  0.2334 -0.5184 -0.4097
 2223SOL    HW118305   4.428   1.697  12.253  0.9473  0.3124 -0.1078
 2223SOL    HW218306   4.282   1.702  12.232 -1.6367  1.9070 -0.5248
 2224SOL     OW18307   1.966   4.287   0.601 -0.0490  0.6781  0.1811
 2224SOL    HW118308   1.973   4.241   0.517 -0.2913  0.2407  0.3994
 2224SOL    HW218309   1.992   4.216   0.660  0.4369 -0.2240 -1.1163
 2225SOL     OW18310   1.659   3.493   2.773  0.5231 -0.1250 -0.0119
 2225SOL    HW118311   1.634   3.579   2.805 -0.4393  0.5825 -2.6086
 2225SOL    HW218312   1.662   3.505   2.678 -1.9240 -0.5410 -0.1432
 2226SOL     OW18313   1.821   4.686  14.069  0.3857  0.7533  1.0516
 2226SOL    HW118314   1.831   0.002  13.989  1.6283 -0.3143  0.5244
 2226SOL    HW218315   1.873   0.000  14.132  1.8561 -2.1012  2.1042
 2227SOL     OW18316   2.279   4.121  12.639  0.1897  0.0817  0.5243
 2227SOL    HW118317   2.354   4.081  12.595 -1.1097 -2.4363  0.6073
 2227SOL    HW218318   2.224   4.145  12.564  0.6412 -0.8317 -0.0914
 2228SOL     OW18319   2.665   2.669  17.093 -0.2657  0.5177  0.1892
 2228SOL    HW118320   2.686   2.701  17.181  0.5253  1.1967 -0.2506
 2228SOL    HW218321   2.732   2.602  17.088 -0.1085  0.6091  1.0595
 2229SOL     OW18322   4.390   3.344  17.103  0.1322  0.2229  0.4598
 2229SOL    HW118323   4.400   3.312  17.192  1.2339  0.9277  0.5984
 2229SOL    HW218324   4.460   3.409  17.095  0.2798 -0.0455 -0.4167
 2230SOL     OW18325   0.388   1.704   7.145  0.0623 -0.3893  0.4400
 2230SOL    HW118326   0.412   1.634   7.083 -2.5650  0.6804 -1.7987
 2230SOL    HW218327   0.368   1.658   7.227 -1.1992  2.4605  1.7133
 2231SOL     OW18328   0.958   0.116  14.868 -0.7125  0.2641  0.0144
 2231SOL    HW118329   1.033   0.060  14.853 -0.4016  0.8756 -0.6854
 2231SOL    HW218330   0.937   0.154  14.783  1.2514  0.0882 -0.5396
 2232SOL     OW18331   1.153   2.418   1.736  0.6193  0.2065  0.7838
 2232SOL    HW118332   1.178   2.423   1.643 -1.8483  0.9083  0.1612
 2232SOL    HW218333   1.165   2.326   1.759 -2.0440 -0.9886 -2.6194
 2233SOL     OW18334   3.901   4.058   5.734  0.6658  0.2097  0.2239
 2233SOL    HW118335   3.851   3.979   5.716  0.7647  0.1487  0.2159
 2233SOL    HW218336   3.884   4.105   5.653  0.5217  2.3105  1.4761
 2234SOL     OW18337   3.043   4.165   1.795 -0.4856  0.2357 -0.4230
 2234SOL    HW118338   3.102   4.240   1.797 -1.7693  1.2185  0.7264
 2234SOL    HW218339   3.111   4.100   1.812 -1.9429 -1.4290 -0.9687
 2235SOL     OW18340   3.416   1.858   4.146 -0.4319  0.1382  0.2394
 2235SOL    HW118341   3.476   1.928   4.120 -0.6111  0.5067  0.8154
 2235SOL    HW218342   3.477   1.785   4.154  0.0805  0.3868 -1.3284
 2236SOL     OW18343   3.040   3.736   5.434 -0.1284  0.8223  0.3373
 2236SOL    HW118344   2.958   3.725   5.482 -1.7071  2.2992 -2.0281
 2236SOL    HW218345   3.068   3.647   5.415 -3.8247 -0.4933  1.1139
 2237SOL     OW18346   4.577   0.399   7.596  0.9074 -0.2493  0.3410
 2237SOL    HW118347   4.646   0.342   7.563  0.7266 -0.0653 -0.3508
 2237SOL    HW218348   4.533   0.345   7.662 -0.7517  2.0271  1.0791
 2238SOL     OW18349   3.009   3.506  15.437 -0.9411  0.0665 -0.1792
 2238SOL    HW118350   3.093   3.484  15.477 -1.6946 -0.9046  0.8633
 2238SOL    HW218351   2.945   3.508  15.508 -2.4605 -0.5003 -1.5512
 2239SOL     OW18352   2.815   2.963   7.221  0.1953 -0.2145  0.3101
 2239SOL    HW118353   2.886   3.026   7.214  2.2458 -2.3838  1.5551
 2239SOL    HW218354   2.831   2.906   7.146 -1.3747 -0.6795  0.3211
 2240SOL     OW18355   2.432   2.024   5.970  0.7002 -0.3319 -0.4233
 2240SOL    HW118356   2.425   1.944   6.022 -1.0448 -0.2732 -0.5509
 2240SOL    HW218357   2.499   1.996   5.907  0.2742  0.1999 -1.1221
 2241SOL     OW18358   1.052   1.564   3.667 -0.0274 -0.1454 -0.1690
 2241SOL    HW118359   0.984   1.523   3.614  0.5690  0.1797 -1.1879
 2241SOL    HW218360   1.082   1.633   3.609  1.0670 -0.1966  0.3308
 2242SOL     OW18361   3.822   0.593   3.471  0.1105 -0.3547 -0.1274
 2242SOL    HW118362   3.909   0.568   3.439 -0.0455 -2.3833  1.0292
 2242SOL    HW218363   3.810   0.520   3.531 -0.3388  0.8259  1.2145
 2243SOL     OW18364   2.780   3.117   3.074 -0.6825  0.1320 -0.0144
 2243SOL    HW118365   2.715   3.099   3.142 -1.7063  0.5226 -0.8850
 2243SOL    HW218366   2.809   3.028   3.056  0.1866  0.3795  0.1904
 2244SOL     OW18367   0.878   2.932   7.393 -0.0266  0.4094  0.0021
 2244SOL    HW118368   0.826   3.013   7.395  0.2072  0.4966  2.6158
 2244SOL    HW218369   0.819   2.863   7.363  0.5860  0.2603 -0.8559
 2245SOL     OW18370   1.171   0.213   9.994 -0.2065  0.2987 -0.3394
 2245SOL    HW118371   1.206   0.149   9.933  2.0141  1.7925 -0.6242
 2245SOL    HW218372   1.245   0.261  10.030 -1.2599  2.2843 -0.8436
 2246SOL     OW18373   2.564   1.500   2.984  0.2564  0.6720  0.1689
 2246SOL    HW118374   2.505   1.517   3.057  0.1276 -2.1820  0.7336
 2246SOL    HW218375   2.642   1.533   3.028  1.4831 -0.6859 -0.9828
 2247SOL     OW18376   4.022   0.102  15.733 -0.0964  0.0992  0.2025
 2247SOL    HW118377   4.026   0.129  15.825 -0.0717 -0.9025  0.4913
 2247SOL    HW218378   3.931   0.074  15.726  0.1439 -1.2035  2.3135
 2248SOL     OW18379   1.653   4.417   7.239 -0.2414  0.2675  0.3176
 2248SOL    HW118380   1.618   4.438   7.325  1.7698  1.7009  0.7935
 2248SOL    HW218381   1.569   4.442   7.201  0.1548  0.9748 -0.0912
 2249SOL     OW18382   1.005   4.686   1.746 -0.0674 -0.2580 -0.5814
 2249SOL    HW118383   1.099   4.695   1.761 -0.1797 -1.1944  0.7268
 2249SOL    HW218384   0.999   4.676   1.651  0.2380  0.3095 -0.6594
 2250SOL     OW18385   3.690   3.649  17.214  0.1571 -0.7027  0.0278
 2250SOL    HW118386   3.640   3.720  17.255  1.1909 -1.7958  3.1344
 2250SOL    HW218387   3.687   3.677  17.122  1.8485  1.7758  0.7276
 2251SOL     OW18388   2.589   2.945   4.707  0.0572  0.4714 -0.4617
 2251SOL    HW118389   2.529   2.876   4.678  0.2215  0.5856 -1.0745
 2251SOL    HW218390   2.667   2.891   4.713  1.2944  1.8834 -3.7629
 2252SOL     OW18391   0.525   3.133   5.518 -0.1820 -0.2998  0.8567
 2252SOL    HW118392   0.595   3.193   5.495 -1.9831  1.0906 -0.9593
 2252SOL    HW218393   0.456   3.193   5.544 -0.3212 -0.2696  0.4145
 2253SOL     OW18394   0.865   3.957   4.687  0.2807 -0.3255 -0.9507
 2253SOL    HW118395   0.811   3.880   4.664 -0.7078 -0.0840  0.5945
 2253SOL    HW218396   0.947   3.937   4.642  0.8377 -1.5751  0.6258
 2254SOL     OW18397   0.356   4.570   1.929 -0.2849  0.2469  0.2463
 2254SOL    HW118398   0.416   4.558   2.002  0.3954  0.7364 -0.2213
 2254SOL    HW218399   0.390   4.503   1.869 -0.9108  0.0369  0.1260
 2255SOL     OW18400   3.029   4.220   6.004 -0.2508  0.7351 -0.5529
 2255SOL    HW118401   3.085   4.147   6.029  1.8681  2.7733  0.5985
 2255SOL    HW218402   3.089   4.295   6.004  2.1242 -1.2027 -0.3044
 2256SOL     OW18403   0.347   0.990   5.300 -0.1347 -0.2588  0.6146
 2256SOL    HW118404   0.368   0.897   5.308 -2.6188 -0.8966 -0.0447
 2256SOL    HW218405   0.432   1.030   5.313 -0.6703  1.6593 -1.7966
 2257SOL     OW18406   0.914   3.348  11.349  0.0073  0.3244 -0.3436
 2257SOL    HW118407   0.974   3.283  11.386 -1.8688 -1.1357  0.0737
 2257SOL    HW218408   0.921   3.423  11.407 -0.6819  0.7660 -0.8312
 2258SOL     OW18409   2.030   3.732   7.577  0.1717  0.1707 -0.2017
 2258SOL    HW118410   2.029   3.725   7.673  1.8299  0.5117 -0.1667
 2258SOL    HW218411   2.088   3.660   7.554 -0.8039 -0.0300 -2.0157
 2259SOL     OW18412   0.433   3.610   8.042  0.5009 -0.7026  0.0509
 2259SOL    HW118413   0.388   3.692   8.061  2.5238  0.5252 -0.4989
 2259SOL    HW218414   0.495   3.617   8.116 -1.2879  0.4588  1.4343
 2260SOL     OW18415   3.650   4.406   3.097 -0.2553 -0.3311 -0.3811
 2260SOL    HW118416   3.703   4.425   3.019  1.7647 -0.2303  1.0254
 2260SOL    HW218417   3.613   4.494   3.100 -1.4112 -0.7931 -1.0362
 2261SOL     OW18418   0.648   1.176   0.199  0.1950 -0.6279  0.2746
 2261SOL    HW118419   0.671   1.269   0.209 -0.4241 -0.2189 -2.1897
 2261SOL    HW218420   0.618   1.161   0.289  0.1606  0.2127  0.4041
 2262SOL     OW18421   4.449   2.139   2.717  0.6394 -0.4049  0.4482
 2262SOL    HW118422   4.486   2.086   2.646  0.6957 -1.0106  0.9289
 2262SOL    HW218423   4.365   2.167   2.681  2.3678 -0.9897 -4.0587
 2263SOL     OW18424   1.480   2.697   4.793 -0.4154 -0.4103  0.1487
 2263SOL    HW118425   1.510   2.788   4.786  0.0364 -0.7085 -1.7787
 2263SOL    HW218426   1.417   2.690   4.721  0.3542  1.8047 -0.7329
 2264SOL     OW18427   1.075   3.098  16.344  1.1976  0.3481  0.1093
 2264SOL    HW118428   1.112   3.186  16.357 -0.3393  1.1541 -0.9366
 2264SOL    HW218429   0.980   3.108  16.337  1.1794 -0.0860 -0.2307
 2265SOL     OW18430   1.307   2.281   2.030  0.2347  0.1213  0.4588
 2265SOL    HW118431   1.380   2.330   1.993  0.6073  0.1697  1.2597
 2265SOL    HW218432   1.257   2.356   2.064 -2.0346 -0.5108 -1.4539
 2266SOL     OW18433   2.640   2.922   5.660 -0.2926 -0.0631 -0.0483
 2266SOL    HW118434   2.612   2.974   5.735  2.3983  2.3588 -0.6712
 2266SOL    HW218435   2.735   2.911   5.665 -0.3670 -0.9014 -0.4062
 2267SOL     OW18436   4.382   3.825  15.380 -0.5058  0.5009  0.4037
 2267SOL    HW118437   4.392   3.908  15.426  2.0047  0.1795  0.4648
 2267SOL    HW218438   4.386   3.859  15.291  0.8534 -3.0523 -0.9051
 2268SOL     OW18439   3.504   2.384   1.053 -0.2618 -0.1906  0.9212
 2268SOL    HW118440   3.554   2.314   1.010  1.7629  2.0473 -0.3809
 2268SOL    HW218441   3.413   2.354   1.051  0.0948 -1.2286  0.3036
 2269SOL     OW18442   3.707   0.551   8.445 -0.1516 -0.0867 -0.4030
 2269SOL    HW118443   3.642   0.518   8.508 -2.5083  2.5078 -1.5168
 2269SOL    HW218444   3.768   0.592   8.506 -0.7473  0.0955  0.0698
 2270SOL     OW18445   0.538   2.668   8.126  0.3724 -0.1984 -0.2025
 2270SOL    HW118446   0.468   2.732   8.142 -0.5782 -0.9470 -1.3037
 2270SOL    HW218447   0.484   2.589   8.131 -2.6401  1.9490  1.5145
 2271SOL     OW18448   1.213   3.671   4.549  0.1063 -0.3575 -0.4103
 2271SOL    HW118449   1.236   3.693   4.459  0.8180  2.3745  0.4132
 2271SOL    HW218450   1.299   3.665   4.591 -0.1755  0.1662  0.2502
 2272SOL     OW18451   1.753   4.465   0.619 -0.5000 -0.2461 -0.5447
 2272SOL    HW118452   1.779   4.532   0.684 -2.6066 -0.8985  0.9611
 2272SOL    HW218453   1.829   4.414   0.591 -1.0179 -2.1148  1.4852
 2273SOL     OW18454   3.345   3.099   3.972 -0.1374 -0.3005  0.2590
 2273SOL    HW118455   3.379   3.092   3.882 -1.1231  1.7257 -0.2709
 2273SOL    HW218456   3.389   3.021   4.006 -1.0247 -0.8051  0.2603
 2274SOL     OW18457   3.308   0.890  16.233  0.2158 -0.0171 -0.4554
 2274SOL    HW118458   3.389   0.928  16.268  0.1334 -0.5283  0.2886
 2274SOL    HW218459   3.261   0.871  16.314  0.8599 -0.8215 -0.2572
 2275SOL     OW18460   2.103   3.222   3.351 -0.0843 -0.2738  0.3528
 2275SOL    HW118461   2.141   3.216   3.263 -0.0085  0.2484  0.3476
 2275SOL    HW218462   2.044   3.296   3.337  0.7341  0.1593 -0.9090
 2276SOL     OW18463   2.174   4.344   5.405 -0.1845 -0.6040  1.1843
 2276SOL    HW118464   2.164   4.438   5.421  0.6218 -0.2462 -0.3993
 2276SOL    HW218465   2.119   4.303   5.471 -1.3271 -0.4544  0.3344
 2277SOL     OW18466   3.809   4.521  14.984 -0.1029 -0.3978 -0.1677
 2277SOL    HW118467   3.774   4.605  14.954  1.6055  1.1179  2.1865
 2277SOL    HW218468   3.902   4.540  14.984 -0.5095  1.4747  2.5607
 2278SOL     OW18469   4.168   4.074  17.475 -0.1133 -0.9755 -0.2123
 2278SOL    HW118470   4.248   4.108  17.435 -0.9419  0.2547 -0.8072
 2278SOL    HW218471   4.158   4.136  17.548 -3.1012  0.0452 -1.4922
 2279SOL     OW18472   4.430   0.684   3.118 -0.0172 -0.1462  0.5262
 2279SOL    HW118473   4.453   0.609   3.063 -0.7313 -0.2466  0.3586
 2279SOL    HW218474   4.386   0.636   3.189 -1.5787  0.7637  0.1790
 2280SOL     OW18475   0.077   3.745   9.051 -0.2049  0.6158  0.4596
 2280SOL    HW118476   0.090   3.838   9.071  3.1202 -0.0139  1.2767
 2280SOL    HW218477   4.722   3.729   9.078 -0.8553  0.5729 -1.7542
 2281SOL     OW18478   0.329   4.171   5.990 -0.3300  0.7081 -0.0288
 2281SOL    HW118479   0.406   4.160   6.045 -0.6588 -0.5234  0.1977
 2281SOL    HW218480   0.286   4.089   6.016  0.7206  0.2242  0.1693
 2282SOL     OW18481   2.015   3.250  11.484  0.4854  0.2923  0.3050
 2282SOL    HW118482   2.032   3.240  11.578  0.0176 -0.5717  0.2953
 2282SOL    HW218483   2.052   3.173  11.440 -0.7591  0.6204 -1.2971
 2283SOL     OW18484   2.122   2.509  16.456 -0.6393 -0.1145 -1.0462
 2283SOL    HW118485   2.216   2.508  16.475 -0.7601 -1.1651 -0.5185
 2283SOL    HW218486   2.122   2.598  16.421  1.0985  1.8994  4.0651
 2284SOL     OW18487   3.680   1.161   2.775  0.0725 -0.3304  0.5778
 2284SOL    HW118488   3.718   1.095   2.717  1.7230  0.4585  0.7661
 2284SOL    HW218489   3.733   1.162   2.855  0.8421 -2.0755  0.0894
 2285SOL     OW18490   1.882   4.572   9.217 -0.2712 -0.1755 -0.3342
 2285SOL    HW118491   1.823   4.644   9.240 -0.3426 -0.8329  1.5220
 2285SOL    HW218492   1.925   4.612   9.141 -0.4224  2.7517  1.1106
 2286SOL     OW18493   2.377   2.860  17.326  0.1006  0.2320  0.1207
 2286SOL    HW118494   2.446   2.899  17.272  0.6862 -1.3310 -0.2511
 2286SOL    HW218495   2.431   2.805  17.383 -0.3343 -0.0581  0.2470
 2287SOL     OW18496   2.566   0.915   3.713 -0.3266  0.1365  0.1233
 2287SOL    HW118497   2.504   0.851   3.749  1.2166 -1.3426  0.1421
 2287SOL    HW218498   2.586   0.876   3.628 -1.5048  1.0296 -0.5642
 2288SOL     OW18499   3.266   4.425  17.261  0.4020  0.1359  0.0349
 2288SOL    HW118500   3.247   4.505  17.213  0.6512  0.0072 -0.2812
 2288SOL    HW218501   3.362   4.425  17.273  0.3683  1.8555  0.3133
 2289SOL     OW18502   4.185   0.675   7.371 -0.3761  0.1531  0.1462
 2289SOL    HW118503   4.260   0.677   7.430  1.6618 -0.3836 -2.3821
 2289SOL    HW218504   4.130   0.732   7.424  0.5958 -1.0165  2.4079
 2290SOL     OW18505   4.514   3.314   5.559  0.3143 -0.5176  0.2482
 2290SOL    HW118506   4.476   3.393   5.522 -2.1426 -1.0929  1.5349
 2290SOL    HW218507   4.589   3.301   5.501 -1.9217 -1.7038 -2.3323
 2291SOL     OW18508   3.113   1.718   6.455  0.0336  0.5960  0.0753
 2291SOL    HW118509   3.133   1.675   6.372 -1.8035  0.0209 -0.0525
 2291SOL    HW218510   3.018   1.708   6.461  0.0200  0.2906 -0.7272
 2292SOL     OW18511   1.505   1.006   1.702  0.6429 -0.4802  0.2464
 2292SOL    HW118512   1.596   0.988   1.677  0.2611 -4.3890  1.7232
 2292SOL    HW218513   1.513   1.067   1.776 -1.5505 -0.0435  0.1181
 2293SOL     OW18514   4.468   2.523   3.740 -0.5243  0.4172  0.0232
 2293SOL    HW118515   4.492   2.615   3.734  1.3630  0.0118  1.2844
 2293SOL    HW218516   4.543   2.475   3.703 -1.7469 -0.1437 -1.7646
 2294SOL     OW18517   2.854   3.634   7.445  0.5198 -0.9500  0.0814
 2294SOL    HW118518   2.943   3.601   7.457  1.3154  0.9656 -0.6256
 2294SOL    HW218519   2.801   3.555   7.432 -1.6417  0.3620  0.9095
 2295SOL     OW18520   3.786   2.403   8.292 -0.5121 -0.3445 -0.2249
 2295SOL    HW118521   3.874   2.375   8.266 -0.2882 -0.3682  0.5658
 2295SOL    HW218522   3.744   2.387   8.207  1.6314 -0.7593 -1.2187
 2296SOL     OW18523   0.751   1.007   5.335  0.0826 -0.0426 -0.2293
 2296SOL    HW118524   0.762   0.971   5.247  0.0299  1.3144 -0.7995
 2296SOL    HW218525   0.666   1.048   5.320 -0.1349 -0.1734  0.6846
 2297SOL     OW18526   0.921   4.276   6.680  0.6917  0.0357  0.0768
 2297SOL    HW118527   0.828   4.292   6.694  0.0070 -2.0406 -1.9806
 2297SOL    HW218528   0.919   4.225   6.599 -0.8820  2.9872 -1.7537
 2298SOL     OW18529   0.916   4.276   5.829  0.6416  0.4724  0.0864
 2298SOL    HW118530   0.903   4.259   5.923 -0.1170  1.0220  0.0873
 2298SOL    HW218531   0.826   4.279   5.795  0.2016  0.3409  1.2278
 2299SOL     OW18532   3.946   3.585   6.549  0.2784 -0.2315  0.5324
 2299SOL    HW118533   3.965   3.492   6.562  0.3322 -0.4791 -1.3152
 2299SOL    HW218534   4.017   3.610   6.491  1.7928 -1.4717  1.8405
 2300SOL     OW18535   4.634   2.336  15.453  0.1352 -0.1055  0.1600
 2300SOL    HW118536   4.649   2.242  15.442 -0.1748 -0.0112 -1.1027
 2300SOL    HW218537   4.542   2.334  15.481  0.0648  1.4084 -0.0113
 2301SOL     OW18538   0.203   0.338   2.732 -0.2448  0.1343  0.0811
 2301SOL    HW118539   0.198   0.328   2.637 -2.0324 -0.7007  0.2578
 2301SOL    HW218540   0.289   0.378   2.744  0.5546 -1.6923  0.4654
 2302SOL     OW18541   3.183   1.365   4.071  0.2737 -0.1851 -0.3149
 2302SOL    HW118542   3.194   1.273   4.094  2.1899 -0.0003 -0.5183
 2302SOL    HW218543   3.091   1.371   4.045  0.0860  0.7243  0.5498
 2303SOL     OW18544   2.289   2.437  15.146 -0.1072 -0.2790 -0.3792
 2303SOL    HW118545   2.374   2.480  15.155 -0.1478 -0.4628  0.8778
 2303SOL    HW218546   2.296   2.386  15.066 -1.2444  1.7479 -1.7677
 2304SOL     OW18547   3.774   1.637   4.575 -0.1405 -0.2882  0.6440
 2304SOL    HW118548   3.854   1.666   4.530 -1.9342  1.4274 -1.4016
 2304SOL    HW218549   3.750   1.557   4.529  1.5463 -0.4105 -0.0537
 2305SOL     OW18550   3.798   2.058  15.745  0.4440 -0.6208 -0.1823
 2305SOL    HW118551   3.881   2.014  15.767  0.5345 -0.8905 -1.0653
 2305SOL    HW218552   3.820   2.077  15.654  1.4296  0.0930  0.2056
 2306SOL     OW18553   3.048   1.252   7.546 -0.4328  0.4666 -0.4559
 2306SOL    HW118554   3.051   1.298   7.630  4.2271  0.2342 -0.4960
 2306SOL    HW218555   3.130   1.275   7.501 -1.7623 -0.9134 -3.5866
 2307SOL     OW18556   3.181   1.585   3.385 -0.2636  0.0366  0.0578
 2307SOL    HW118557   3.157   1.675   3.360 -3.0204 -0.5045  0.7803
 2307SOL    HW218558   3.274   1.583   3.407 -0.0008 -0.7702 -1.1493
 2308SOL     OW18559   3.666   2.092   8.709 -0.0195 -0.1636  0.5027
 2308SOL    HW118560   3.732   2.107   8.777  1.7613 -0.2198 -1.2241
 2308SOL    HW218561   3.684   2.164   8.648 -2.1854 -2.1992 -2.5332
 2309SOL     OW18562   3.017   0.000   2.729 -0.9126  0.0252 -0.0857
 2309SOL    HW118563   3.044   4.735   2.637 -1.6772 -0.8350 -0.3013
 2309SOL    HW218564   2.924   4.719   2.719 -0.8050 -1.2253  0.9007
 2310SOL     OW18565   4.506   0.960   2.308  0.0655  0.1857  0.7243
 2310SOL    HW118566   4.492   0.895   2.377 -1.8383  1.2977  1.4082
 2310SOL    HW218567   4.490   0.909   2.228  0.2953  1.8980 -0.4109
 2311SOL     OW18568   1.587   4.718   5.959 -0.6005  0.2092  0.7157
 2311SOL    HW118569   1.542   0.064   5.978 -3.4359 -1.2733  0.3357
 2311SOL    HW218570   1.523   4.660   5.918  1.5798 -0.5632 -1.6173
 2312SOL     OW18571   3.195   0.417   8.939  0.1326  0.0650  0.0493
 2312SOL    HW118572   3.282   0.455   8.951 -0.9105  3.0526 -1.8872
 2312SOL    HW218573   3.147   0.459   9.011  1.1689 -2.2697  2.1204
 2313SOL     OW18574   3.522   2.588   3.892  0.2621  0.4836  0.6712
 2313SOL    HW118575   3.446   2.586   3.833 -0.4659 -0.6727  1.6391
 2313SOL    HW218576   3.533   2.495   3.916  0.2793  0.7176  1.5636
 2314SOL     OW18577   1.118   0.114   6.995  0.6332  0.0011  0.1790
 2314SOL    HW118578   1.059   0.050   6.955 -0.1594  0.9657 -0.1864
 2314SOL    HW218579   1.063   0.192   6.992 -0.2014 -0.5952  0.0738
 2315SOL     OW18580   3.989   4.669  14.719  0.0605  0.4756 -0.4635
 2315SOL    HW118581   4.043   4.614  14.774 -0.1513 -0.3195 -1.0482
 2315SOL    HW218582   4.025   0.021  14.731 -0.2169  0.3455  1.2537
 2316SOL     OW18583   3.617   0.841   3.296 -0.9793  0.0592  0.2723
 2316SOL    HW118584   3.563   0.903   3.345  1.0015  0.5835  1.7507
 2316SOL    HW218585   3.590   0.757   3.334 -1.6804  0.6491  1.0808
 2317SOL     OW18586   4.110   2.969   5.111  0.0892 -0.0254  0.3348
 2317SOL    HW118587   4.082   2.925   5.031 -1.2353 -0.6125  1.1098
 2317SOL    HW218588   4.204   2.971   5.094  0.4559 -1.6689  2.0122
 2318SOL     OW18589   4.528   4.541   1.475 -0.0881 -0.0887 -0.4643
 2318SOL    HW118590   4.584   4.615   1.452  0.9703 -0.3363  1.2520
 2318SOL    HW218591   4.468   4.588   1.534  0.4011 -1.7715  1.3627
 2319SOL     OW18592   4.347   1.240   8.799 -0.1784 -0.4915 -0.2692
 2319SOL    HW118593   4.299   1.233   8.715  0.1168  0.6017 -0.5192
 2319SOL    HW218594   4.297   1.180   8.854 -0.7117  0.0633 -0.1484
 2320SOL     OW18595   4.376   0.922   8.793  0.1149 -0.2287 -0.4005
 2320SOL    HW118596   4.468   0.932   8.816  0.0553  1.6989 -1.0151
 2320SOL    HW218597   4.329   0.958   8.869 -1.8544  1.7866 -2.5478
 2321SOL     OW18598   0.782   3.771   7.684 -0.2369  0.0058 -0.1325
 2321SOL    HW118599   0.732   3.705   7.635  2.1282 -2.7764  1.2293
 2321SOL    HW218600   0.806   3.723   7.763  0.6494 -0.4653 -0.6874
 2322SOL     OW18601   4.548   2.525   8.529 -0.6732 -0.2809  0.3580
 2322SOL    HW118602   4.499   2.601   8.497 -2.6444 -0.4049  3.1095
 2322SOL    HW218603   4.587   2.566   8.606  0.8020  0.0700 -0.5848
 2323SOL     OW18604   4.494   4.713   6.994 -0.0344 -0.7016  0.1026
 2323SOL    HW118605   4.485   4.624   6.962 -2.2136 -1.2465  2.2239
 2323SOL    HW218606   4.497   4.699   7.089  0.9561  0.8347  0.3102
 2324SOL     OW18607   0.168   1.749   1.032  0.5437  0.1676 -0.2209
 2324SOL    HW118608   0.125   1.824   1.073 -2.2578 -2.2754  1.3434
 2324SOL    HW218609   0.133   1.673   1.078  0.5068  0.1506 -0.2773
 2325SOL     OW18610   4.241   0.009  14.955 -0.3358 -0.3440  0.5309
 2325SOL    HW118611   4.214   0.051  15.037 -0.8699  0.3711 -0.0062
 2325SOL    HW218612   4.335   0.025  14.954 -0.2692 -0.8578 -1.4377
 2326SOL     OW18613   1.114   4.698   3.019 -0.2326 -0.4622 -0.1806
 2326SOL    HW118614   1.204   4.725   3.037  0.8458 -3.6515 -0.7714
 2326SOL    HW218615   1.070   0.047   3.016  1.7776  0.6019  0.3544
 2327SOL     OW18616   2.529   0.450   7.094  0.5706 -0.0034 -0.3050
 2327SOL    HW118617   2.535   0.361   7.060  0.3415  0.5458 -1.7627
 2327SOL    HW218618   2.498   0.427   7.181 -0.1804  0.8385 -0.3446
 2328SOL     OW18619   1.953   2.372  12.530 -0.4606  0.1960 -0.1428
 2328SOL    HW118620   1.978   2.391  12.621  1.5512  0.1962 -0.6996
 2328SOL    HW218621   2.034   2.396  12.486 -0.4441 -0.8938 -0.7104
 2329SOL     OW18622   1.841   3.356   3.930  0.0781 -0.3924  0.0328
 2329SOL    HW118623   1.830   3.385   4.021  0.6857 -0.8178  0.2442
 2329SOL    HW218624   1.856   3.262   3.933  0.6921 -0.2268  2.0201
 2330SOL     OW18625   2.608   1.452  15.243 -0.0824  0.7666  0.2384
 2330SOL    HW118626   2.548   1.459  15.318 -0.1524  0.4745  0.2120
 2330SOL    HW218627   2.693   1.454  15.287 -0.6751 -0.8776  1.4609
 2331SOL     OW18628   1.749   1.679  14.659 -0.0216  0.0810 -0.1551
 2331SOL    HW118629   1.827   1.682  14.604 -0.6906  2.1160 -0.9702
 2331SOL    HW218630   1.677   1.687  14.596  0.9880  1.6285 -1.1017
 2332SOL     OW18631   4.121   1.828   5.398  0.0508  0.1286 -0.0356
 2332SOL    HW118632   4.042   1.774   5.392 -0.4424  1.3741 -4.2886
 2332SOL    HW218633   4.102   1.903   5.455 -0.9446 -0.5050  0.4594
 2333SOL     OW18634   2.859   2.881   3.190  0.3470 -0.5540 -0.4968
 2333SOL    HW118635   2.953   2.866   3.204  0.3866  0.7466  0.6552
 2333SOL    HW218636   2.819   2.795   3.196  0.8793 -0.6881  1.1681
 2334SOL     OW18637   1.049   1.900   4.257  0.2044 -0.3031 -0.4044
 2334SOL    HW118638   1.040   1.840   4.332 -1.6223 -1.3842 -1.4883
 2334SOL    HW218639   0.998   1.975   4.290  0.3911 -0.9035  1.2831
 2335SOL     OW18640   3.193   0.865   7.147 -0.5978  0.0409 -0.2333
 2335SOL    HW118641   3.229   0.952   7.161  0.0645 -0.0995 -1.0588
 2335SOL    HW218642   3.253   0.828   7.082  0.7157  0.9473  0.4705
 2336SOL     OW18643   3.379   1.262   2.353  0.3557  0.3134 -0.5541
 2336SOL    HW118644   3.416   1.287   2.268  4.5263  0.0839  1.1756
 2336SOL    HW218645   3.313   1.329   2.370  0.6893  0.5615 -0.2338
 2337SOL     OW18646   3.715   4.444  15.235 -0.2088 -0.4826 -0.4062
 2337SOL    HW118647   3.627   4.405  15.242  0.2705 -1.4701  0.1370
 2337SOL    HW218648   3.714   4.475  15.145  1.1422  1.1849  0.1483
 2338SOL     OW18649   2.746   4.179   3.820  0.2742 -0.5849 -0.0962
 2338SOL    HW118650   2.657   4.164   3.853  0.3875 -1.9459 -0.4103
 2338SOL    HW218651   2.747   4.112   3.752 -0.9951 -0.7021 -0.0124
 2339SOL     OW18652   1.119   0.697   3.580  0.1560 -0.4363  0.0027
 2339SOL    HW118653   1.042   0.743   3.548 -0.5141 -1.5877 -0.0369
 2339SOL    HW218654   1.095   0.605   3.595 -2.7300  0.0461 -1.7745
 2340SOL     OW18655   3.448   2.249   8.099  0.2298  0.0146 -0.3401
 2340SOL    HW118656   3.542   2.264   8.095  0.1542  0.3876 -0.7617
 2340SOL    HW218657   3.446   2.184   8.169  2.3664  1.8911  1.4232
 2341SOL     OW18658   2.258   1.973   4.987 -0.3751  1.1523  0.5650
 2341SOL    HW118659   2.334   2.017   4.950  1.2479 -1.9852  0.2402
 2341SOL    HW218660   2.233   2.035   5.056 -0.6599  0.4303  1.1148
 2342SOL     OW18661   0.763   2.629   3.513  0.1947 -0.5502  0.5415
 2342SOL    HW118662   0.754   2.688   3.588 -1.2941 -1.5286  1.1203
 2342SOL    HW218663   0.837   2.570   3.530 -1.3678 -1.6767  3.3032
 2343SOL     OW18664   4.334   0.330   3.185  0.1158  0.3296  0.1628
 2343SOL    HW118665   4.370   0.373   3.107  0.2021  0.0715  0.0610
 2343SOL    HW218666   4.404   0.356   3.245  0.8763 -0.3570 -0.4306
 2344SOL     OW18667   3.465   3.508  10.231  0.3158 -0.0331  0.3421
 2344SOL    HW118668   3.371   3.526  10.226  0.2179 -0.7430 -0.2945
 2344SOL    HW218669   3.491   3.568  10.162 -2.5646 -0.6451 -1.3036
 2345SOL     OW18670   4.725   1.648   3.529 -0.1883 -0.0128 -1.1878
 2345SOL    HW118671   4.697   1.557   3.521  1.4556 -0.9490  3.2665
 2345SOL    HW218672   4.656   1.683   3.585  1.4864  0.3713  0.6513
 2346SOL     OW18673   3.458   1.200   8.130 -0.8676 -0.1403  0.1124
 2346SOL    HW118674   3.510   1.120   8.123 -0.2556  0.5271 -2.8714
 2346SOL    HW218675   3.463   1.204   8.225 -0.6391 -0.1823  0.1018
 2347SOL     OW18676   2.114   1.623  15.094  0.2851 -0.1891  0.2331
 2347SOL    HW118677   2.023   1.638  15.119 -0.7406  0.0883 -3.5990
 2347SOL    HW218678   2.104   1.662  15.007  1.3906 -2.3494 -0.8685
 2348SOL     OW18679   2.897   3.295   6.383 -0.6090 -0.4695 -0.2353
 2348SOL    HW118680   2.986   3.330   6.385 -1.3376  1.3879 -0.2805
 2348SOL    HW218681   2.876   3.286   6.290 -2.2815  2.4783 -0.1400
 2349SOL     OW18682   4.587   1.919   4.735  0.1036 -0.4943  0.6030
 2349SOL    HW118683   4.654   1.977   4.771 -1.2580  0.5280  1.5041
 2349SOL    HW218684   4.544   1.879   4.809 -0.5321  1.5897  1.3748
 2350SOL     OW18685   1.106   2.507  15.593 -0.1413 -0.0312  0.0837
 2350SOL    HW118686   1.197   2.492  15.567  0.6684  1.5255  1.9913
 2350SOL    HW218687   1.097   2.439  15.660 -1.3965  0.2573  0.1944
 2351SOL     OW18688   3.738   2.595   1.451 -0.1290  0.0282 -0.0583
 2351SOL    HW118689   3.742   2.563   1.361 -0.7941 -2.5056  0.8036
 2351SOL    HW218690   3.756   2.688   1.436  0.4579  0.0707  0.8898
 2352SOL     OW18691   4.003   0.682   8.357  0.2509  0.0311  0.9293
 2352SOL    HW118692   4.076   0.740   8.339  2.0059 -2.3254  0.3829
 2352SOL    HW218693   4.013   0.667   8.452  0.4641  2.5624  1.3107
 2353SOL     OW18694   4.122   0.778   0.955  0.0085  0.1239  0.4177
 2353SOL    HW118695   4.215   0.786   0.935  0.0210  0.7745  0.7471
 2353SOL    HW218696   4.121   0.682   0.963  1.2405  0.0666 -0.0486
 2354SOL     OW18697   1.355   3.563  15.252 -0.5596  0.3253 -0.0492
 2354SOL    HW118698   1.351   3.467  15.251  1.4465  0.2507 -0.2492
 2354SOL    HW218699   1.272   3.591  15.214 -0.4984  0.9537  0.2814
 2355SOL     OW18700   3.380   3.627   7.173 -0.7398 -0.4610  0.4785
 2355SOL    HW118701   3.394   3.596   7.263 -1.6142 -0.5562  0.5905
 2355SOL    HW218702   3.464   3.666   7.152 -1.0590 -0.1214 -0.1440
 2356SOL     OW18703   2.060   1.374  11.644  0.2128  0.1898  0.1959
 2356SOL    HW118704   2.138   1.404  11.598  0.7722 -1.0091  0.3513
 2356SOL    HW218705   2.008   1.347  11.569  0.8355 -0.3440 -0.0389
 2357SOL     OW18706   4.026   2.350   2.770 -0.8306 -0.3606  0.2087
 2357SOL    HW118707   4.002   2.351   2.677 -1.4489 -0.1389  0.3707
 2357SOL    HW218708   3.938   2.356   2.807 -0.4833 -0.4383  1.0421
 2358SOL     OW18709   2.841   2.852   9.723  0.2715  0.5447  0.0473
 2358SOL    HW118710   2.906   2.846   9.653 -0.1828 -2.3759 -0.1283
 2358SOL    HW218711   2.868   2.936   9.759 -0.1724 -0.6822  3.2104
 2359SOL     OW18712   3.601   1.496   4.913 -0.3982 -0.4099  0.3946
 2359SOL    HW118713   3.594   1.402   4.933 -1.7171 -0.4574 -0.3126
 2359SOL    HW218714   3.547   1.495   4.834 -0.7736  1.2070  0.6274
 2360SOL     OW18715   0.762   0.796   9.081 -0.2498 -0.3223  0.2379
 2360SOL    HW118716   0.801   0.759   9.002  2.4716 -1.1915  1.9796
 2360SOL    HW218717   0.763   0.721   9.141  1.0897 -0.6380 -0.1736
 2361SOL     OW18718   3.609   3.645   8.802  0.5237  0.4223  0.0832
 2361SOL    HW118719   3.586   3.673   8.890 -0.5080  1.4904 -0.5266
 2361SOL    HW218720   3.675   3.578   8.817 -0.7601 -0.7510  0.4588
 2362SOL     OW18721   0.675   0.749   3.191  0.1398 -0.5726 -0.0639
 2362SOL    HW118722   0.704   0.710   3.274 -2.0006 -1.7982  0.1149
 2362SOL    HW218723   0.723   0.693   3.130 -0.6821  0.2790 -1.4789
 2363SOL     OW18724   1.783   0.961   4.056  0.0168 -0.0478  0.3951
 2363SOL    HW118725   1.872   0.951   4.089  0.4814  2.2039 -0.1878
 2363SOL    HW218726   1.756   1.047   4.087  1.0526  0.7253 -0.8828
 2364SOL     OW18727   1.059   1.439   4.980  0.1210  0.3444  0.0372
 2364SOL    HW118728   1.142   1.394   4.998 -1.4114 -1.8473  1.6212
 2364SOL    HW218729   1.053   1.444   4.884  0.4432  0.1634  0.0051
 2365SOL     OW18730   2.815   0.846  16.320 -0.1905  0.1190 -0.0942
 2365SOL    HW118731   2.729   0.832  16.360 -0.2545 -0.6099 -0.4956
 2365SOL    HW218732   2.851   0.760  16.343  2.8755  2.2285  2.9813
 2366SOL     OW18733   0.252   4.119   4.989  0.2726  0.5286  0.2925
 2366SOL    HW118734   0.240   4.100   5.082 -1.4882  0.2182  0.0034
 2366SOL    HW218735   0.161   4.135   4.963  0.7032  0.5883 -1.1672
 2367SOL     OW18736   3.054   4.585   3.101 -0.8106  0.2190 -0.1123
 2367SOL    HW118737   3.118   4.522   3.066 -1.1947  0.6238 -1.5314
 2367SOL    HW218738   3.017   4.527   3.168 -0.0168 -1.5121 -1.1479
 2368SOL     OW18739   1.693   1.678   3.967 -0.5096  0.1867  0.3183
 2368SOL    HW118740   1.599   1.660   3.972 -0.5567  0.0652 -0.9475
 2368SOL    HW218741   1.727   1.696   4.055  0.7060 -3.5363  0.6251
 2369SOL     OW18742   3.264   1.257   9.011 -0.4291 -0.0621 -0.4186
 2369SOL    HW118743   3.344   1.264   8.958 -1.6149 -0.7551 -2.2955
 2369SOL    HW218744   3.285   1.310   9.088  0.0090 -1.8680  0.6948
 2370SOL     OW18745   3.345   2.017   5.823 -0.0091  0.3252  0.0930
 2370SOL    HW118746   3.256   2.022   5.857  0.5378  0.7301  1.4662
 2370SOL    HW218747   3.388   1.974   5.897  0.9568 -1.2183 -1.3530
 2371SOL     OW18748   4.672   1.555   8.839 -0.2419  0.2597  0.2350
 2371SOL    HW118749   0.005   1.616   8.811  0.2868 -1.3611 -1.9766
 2371SOL    HW218750   4.643   1.513   8.758  0.3886  3.1823 -1.4896
 2372SOL     OW18751   0.934   1.821   8.230 -0.0228 -0.5343  0.0889
 2372SOL    HW118752   0.984   1.896   8.263  0.9951 -1.4657  0.6725
 2372SOL    HW218753   0.851   1.836   8.276 -0.9034 -1.8957 -1.0375
 2373SOL     OW18754   1.432   3.728  14.402 -0.8853 -0.3189 -0.2690
 2373SOL    HW118755   1.439   3.806  14.456 -0.6167  0.5039 -1.4844
 2373SOL    HW218756   1.443   3.769  14.316  1.6460 -1.7386 -0.6250
 2374SOL     OW18757   1.404   4.620   2.717  0.1970  0.4575 -0.2858
 2374SOL    HW118758   1.373   4.698   2.671 -0.1755  0.7116  0.4000
 2374SOL    HW218759   1.411   4.560   2.642 -2.2620 -0.6076  0.3430
 2375SOL     OW18760   1.470   4.164   4.165  0.1719  0.4637  0.3686
 2375SOL    HW118761   1.392   4.195   4.211  0.6785  0.5768  1.1450
 2375SOL    HW218762   1.528   4.238   4.182 -2.0059  2.4106 -0.7593
 2376SOL     OW18763   3.030   0.477   7.474  0.1803 -0.0885  0.2918
 2376SOL    HW118764   3.068   0.562   7.450 -0.2868  0.3461  1.1160
 2376SOL    HW218765   2.938   0.484   7.449  0.7368 -2.3629 -2.4054
 2377SOL     OW18766   1.066   0.694   2.040 -0.3072 -0.5595 -0.0680
 2377SOL    HW118767   1.150   0.659   2.068  0.6750  3.2993  1.8436
 2377SOL    HW218768   1.014   0.634   2.093 -0.3012 -0.2707  0.2646
 2378SOL     OW18769   3.973   3.653  10.062  0.0583  0.2275  0.7056
 2378SOL    HW118770   3.918   3.728  10.084  0.0974  0.2942  0.5791
 2378SOL    HW218771   3.937   3.630   9.977  2.1972  1.0439 -0.4269
 2379SOL     OW18772   1.918   1.411   5.468  0.1175  0.0799 -0.3587
 2379SOL    HW118773   1.953   1.337   5.518 -3.4689 -0.4378  1.4116
 2379SOL    HW218774   1.891   1.479   5.530 -0.0097 -1.1208  0.9112
 2380SOL     OW18775   2.362   2.170   0.051 -0.2561 -0.1557  0.4838
 2380SOL    HW118776   2.279   2.190   0.006 -0.4463 -1.1654  0.3814
 2380SOL    HW218777   2.424   2.229   0.008 -1.1589  0.5360  0.1155
 2381SOL     OW18778   3.166   2.938   3.827  0.4303 -0.1023  0.7066
 2381SOL    HW118779   3.233   2.987   3.875  0.5713 -0.0822  0.4879
 2381SOL    HW218780   3.211   2.929   3.743  1.0906 -0.6581  1.1087
 2382SOL     OW18781   2.176   2.886   9.368 -0.2770 -0.9060  0.2165
 2382SOL    HW118782   2.109   2.860   9.431 -0.7037  1.1775  0.6334
 2382SOL    HW218783   2.162   2.980   9.358  0.2694 -0.6754  1.5928
 2383SOL     OW18784   4.557   1.365   8.678  0.5171 -0.0760  0.4956
 2383SOL    HW118785   4.532   1.323   8.760  1.4438 -0.7228  0.4380
 2383SOL    HW218786   4.510   1.449   8.679  0.8119  0.0932  0.2128
 2384SOL     OW18787   1.177   2.129   2.369  0.6403 -0.1896 -0.0457
 2384SOL    HW118788   1.095   2.081   2.383  1.6414 -2.3049 -1.5162
 2384SOL    HW218789   1.199   2.079   2.291 -2.1137 -0.5972 -0.5590
 2385SOL     OW18790   2.314   1.961   9.435  0.2025 -0.0861  0.0296
 2385SOL    HW118791   2.373   1.995   9.368  3.0888  0.1714  2.6840
 2385SOL    HW218792   2.360   1.988   9.515 -1.2448 -2.5066  1.6625
 2386SOL     OW18793   0.399   3.389  15.011 -0.9649  0.1894  0.1022
 2386SOL    HW118794   0.456   3.338  15.068  2.1784  1.2708 -2.1070
 2386SOL    HW218795   0.458   3.410  14.938 -0.2615 -1.3555  0.2363
 2387SOL     OW18796   4.289   1.055   5.793 -0.5070  0.6237 -0.0407
 2387SOL    HW118797   4.374   1.016   5.773 -1.9673 -2.6025  0.0668
 2387SOL    HW218798   4.316   1.111   5.867 -0.2723  0.1438  0.2378
 2388SOL     OW18799   2.337   0.563   1.134  0.0671  0.0561 -0.1831
 2388SOL    HW118800   2.312   0.617   1.059  0.5266 -0.4288 -0.6851
 2388SOL    HW218801   2.370   0.482   1.097  1.9628  0.9995 -0.5487
 2389SOL     OW18802   1.351   3.487   6.434  0.3969  0.4679  0.0546
 2389SOL    HW118803   1.366   3.396   6.459  1.3861  0.2330 -1.4150
 2389SOL    HW218804   1.291   3.519   6.502 -1.3943  0.6883 -1.6187
 2390SOL     OW18805   4.506   3.399   3.984  0.1791  0.0125  0.0432
 2390SOL    HW118806   4.458   3.476   4.016  1.7873  0.9033  0.3309
 2390SOL    HW218807   4.460   3.380   3.903 -0.3488  0.6862  0.1891
 2391SOL     OW18808   1.834   2.748   6.745  0.2189  0.2498  0.6098
 2391SOL    HW118809   1.891   2.704   6.682 -1.3431 -0.3642 -0.3802
 2391SOL    HW218810   1.824   2.826   6.689  1.3669  0.8822  1.3005
 2392SOL     OW18811   0.785   1.720  11.946  0.0080  0.0384  0.2993
 2392SOL    HW118812   0.795   1.695  12.038 -0.7573  0.0195  0.3804
 2392SOL    HW218813   0.775   1.635  11.902 -0.0864  0.0408  0.3166
 2393SOL     OW18814   2.624   4.308   1.960  0.5513 -0.0482  0.0741
 2393SOL    HW118815   2.700   4.363   1.980  0.7115 -0.0080 -0.6378
 2393SOL    HW218816   2.568   4.313   2.037  0.4712  1.1345 -0.0692
 2394SOL     OW18817   1.602   3.122  12.390 -0.2278  0.1536 -0.3485
 2394SOL    HW118818   1.532   3.058  12.402  0.7298 -0.2077  3.2789
 2394SOL    HW218819   1.562   3.206  12.412 -2.1178 -0.8747  0.1057
 2395SOL     OW18820   0.995   3.519  10.266 -0.1054 -0.0398  0.6314
 2395SOL    HW118821   0.987   3.423  10.267 -0.3511 -0.0454 -3.8947
 2395SOL    HW218822   1.027   3.543  10.180  0.6407  2.3034  1.5743
 2396SOL     OW18823   4.520   0.829   9.231  0.4089 -0.1688 -0.5585
 2396SOL    HW118824   4.484   0.912   9.199 -0.1140 -0.4906 -0.7998
 2396SOL    HW218825   4.612   0.847   9.213  0.2822 -0.8878 -1.9979
 2397SOL     OW18826   1.199   1.276   8.520 -0.4328 -0.2962 -0.2602
 2397SOL    HW118827   1.292   1.273   8.496  0.2508  1.4394  2.1290
 2397SOL    HW218828   1.183   1.186   8.550 -1.3761  0.6068  1.8948
 2398SOL     OW18829   0.223   3.708   8.825 -0.7035 -0.2832 -0.2195
 2398SOL    HW118830   0.194   3.797   8.808 -0.2091 -0.1742 -0.5205
 2398SOL    HW218831   0.175   3.691   8.906 -1.3889 -0.2529 -0.6233
 2399SOL     OW18832   0.467   2.156  12.088  0.0094 -0.3024 -0.2474
 2399SOL    HW118833   0.430   2.241  12.110 -1.2819 -0.8278 -0.4151
 2399SOL    HW218834   0.513   2.181  12.008 -1.6487  1.8651 -0.4959
 2400SOL     OW18835   4.071   4.532   3.389 -0.3278 -0.0510 -0.5941
 2400SOL    HW118836   4.045   4.453   3.436 -1.4400 -0.5174 -1.9990
 2400SOL    HW218837   4.035   4.515   3.302  1.0957 -2.1353 -0.7764
 2401SOL     OW18838   4.595   1.629   1.787 -0.0076 -0.1484 -0.2115
 2401SOL    HW118839   4.615   1.544   1.826  0.4250 -0.6447 -1.5141
 2401SOL    HW218840   4.598   1.596   1.697 -0.4200  2.7912 -1.3000
 2402SOL     OW18841   2.165   4.231  15.109 -0.2784  0.0353 -0.1399
 2402SOL    HW118842   2.142   4.278  15.029  2.8292  0.4801 -0.7714
 2402SOL    HW218843   2.173   4.141  15.078 -2.4330 -1.2068  2.8644
 2403SOL     OW18844   2.920   3.455   0.271  0.1702  0.2663 -0.0565
 2403SOL    HW118845   2.977   3.450   0.194 -0.7052 -1.4848 -0.5744
 2403SOL    HW218846   2.892   3.364   0.270  2.3631 -0.3892 -1.5939
 2404SOL     OW18847   3.177   0.403   8.441  0.3196 -0.3897 -0.4664
 2404SOL    HW118848   3.090   0.374   8.415  0.3865 -1.9505  1.0644
 2404SOL    HW218849   3.166   0.435   8.530  1.6641  0.8257 -0.7334
 2405SOL     OW18850   0.324   2.206   0.217 -0.1167 -0.7528  0.0912
 2405SOL    HW118851   0.377   2.146   0.270  0.6330 -0.9201 -0.8601
 2405SOL    HW218852   0.285   2.263   0.283 -0.0146 -0.7526  0.1518
 2406SOL     OW18853   3.511   2.109   5.187 -0.2432  0.0339 -0.1451
 2406SOL    HW118854   3.553   2.156   5.115 -2.6959  2.0546 -0.2508
 2406SOL    HW218855   3.494   2.025   5.145  0.3645  0.0357 -0.3917
 2407SOL     OW18856   1.724   3.037   5.161 -0.3947  0.6196  0.4699
 2407SOL    HW118857   1.738   3.019   5.254 -0.0976  0.5249  0.4079
 2407SOL    HW218858   1.629   3.036   5.161 -0.3683 -1.3143  0.0597
 2408SOL     OW18859   2.739   2.478  17.509  0.2317  0.1582 -0.0820
 2408SOL    HW118860   2.774   2.453  17.424 -0.7340  0.8777 -0.6902
 2408SOL    HW218861   2.811   2.494  17.570 -0.2866  2.1245  0.0044
 2409SOL     OW18862   0.358   2.980   3.613  0.2433  0.0008  0.4031
 2409SOL    HW118863   0.433   3.031   3.643 -0.2452  1.4268 -0.7864
 2409SOL    HW218864   0.281   3.012   3.660  0.2674 -0.6322  0.8790
 2410SOL     OW18865   2.750   2.457   2.349 -0.5490 -0.2936  0.4633
 2410SOL    HW118866   2.832   2.506   2.360 -0.7685  0.0624  0.5068
 2410SOL    HW218867   2.743   2.386   2.413  0.1545 -0.7917 -0.0114
 2411SOL     OW18868   2.524   4.173   9.291 -0.4651 -0.0102  0.9768
 2411SOL    HW118869   2.534   4.190   9.385 -0.8770 -1.5758  1.3004
 2411SOL    HW218870   2.586   4.104   9.270  0.3088  0.7744  0.6847
 2412SOL     OW18871   3.961   2.885   3.521  0.7561 -0.1746 -0.3962
 2412SOL    HW118872   4.051   2.861   3.543  0.7367  0.8331  0.8138
 2412SOL    HW218873   3.982   2.953   3.456 -0.2174  0.7470  0.2518
 2413SOL     OW18874   4.143   1.736  15.862 -0.0189 -0.4877 -0.0433
 2413SOL    HW118875   4.130   1.649  15.901 -1.2494  0.5623  1.8909
 2413SOL    HW218876   4.199   1.774  15.930  0.1607 -0.1781 -0.3676
 2414SOL     OW18877   2.223   0.166  15.140  0.0282 -0.7800 -0.3142
 2414SOL    HW118878   2.169   0.101  15.185 -1.1269  0.4957  0.1436
 2414SOL    HW218879   2.235   0.118  15.058  1.9100  1.2607 -1.2420
 2415SOL     OW18880   1.877   1.410  11.885 -0.0873 -0.3215 -0.3226
 2415SOL    HW118881   1.930   1.406  11.806  1.5040  0.6968  0.6937
 2415SOL    HW218882   1.877   1.319  11.916 -0.7810 -0.3304 -0.3639
 2416SOL     OW18883   0.969   2.150   4.336  0.7101 -0.3579 -0.0561
 2416SOL    HW118884   0.913   2.183   4.265  0.1835 -0.7420  0.1842
 2416SOL    HW218885   0.899   2.131   4.399  1.8064  1.6680  1.7471
 2417SOL     OW18886   3.735   1.767   0.121  0.4530  0.6397 -0.3993
 2417SOL    HW118887   3.749   1.813   0.203 -2.5442  0.5953  0.1458
 2417SOL    HW218888   3.643   1.740   0.123  0.9658 -0.9292  1.1571
 2418SOL     OW18889   2.602   3.490  15.724 -0.3122  0.1302 -0.8342
 2418SOL    HW118890   2.573   3.444  15.804 -0.9054 -1.1862 -1.8021
 2418SOL    HW218891   2.612   3.580  15.755 -0.2562  0.1187 -0.8189
 2419SOL     OW18892   2.360   0.267   2.464  0.0735 -0.6768 -0.3033
 2419SOL    HW118893   2.339   0.357   2.487 -0.2773 -0.8759  0.1447
 2419SOL    HW218894   2.290   0.217   2.507  1.2132 -0.5847  1.6266
 2420SOL     OW18895   3.745   1.797   7.534 -0.4984 -0.0638 -0.4897
 2420SOL    HW118896   3.715   1.855   7.604 -0.4170 -0.5249 -0.0743
 2420SOL    HW218897   3.781   1.724   7.585  0.6760 -0.3091 -1.6504
 2421SOL     OW18898   0.250   3.962   9.548 -0.0733 -0.3074  0.5944
 2421SOL    HW118899   0.341   3.975   9.524 -0.4508 -2.1739 -1.9679
 2421SOL    HW218900   0.229   3.870   9.530 -0.3638  0.3126 -2.3147
 2422SOL     OW18901   0.395   0.003  15.500  0.0662 -0.3479 -0.6260
 2422SOL    HW118902   0.386   0.076  15.439  0.0079 -0.1413 -0.3689
 2422SOL    HW218903   0.482   0.020  15.538 -0.6285  1.1448  0.3070
 2423SOL     OW18904   1.520   2.436   1.961 -0.5829 -0.1812  0.0222
 2423SOL    HW118905   1.566   2.505   1.912 -1.8584 -1.2334 -2.6443
 2423SOL    HW218906   1.596   2.390   1.996 -1.8186 -0.7289  2.0249
 2424SOL     OW18907   2.438   1.175   6.512  0.1300 -0.0096 -0.3018
 2424SOL    HW118908   2.360   1.150   6.562  0.2641  1.3695  0.6041
 2424SOL    HW218909   2.402   1.175   6.424  0.1252  0.2744 -0.2990
 2425SOL     OW18910   2.703   3.890  15.500  0.6519 -0.2777 -0.7126
 2425SOL    HW118911   2.726   3.936  15.419 -2.1446  0.1389 -1.2705
 2425SOL    HW218912   2.627   3.838  15.473  1.1709 -0.2086 -2.3252
 2426SOL     OW18913   3.689   0.975  12.144  0.1562 -0.1928  0.0207
 2426SOL    HW118914   3.667   0.974  12.051  2.2406 -0.2652 -0.4681
 2426SOL    HW218915   3.605   0.962  12.189  0.2908 -2.9284 -0.5122
 2427SOL     OW18916   3.368   2.872   2.006  0.5744 -0.2227 -0.8972
 2427SOL    HW118917   3.348   2.945   2.066 -1.3190 -0.9608 -0.6092
 2427SOL    HW218918   3.368   2.792   2.058 -1.2252 -0.1889 -0.8449
 2428SOL     OW18919   2.398   1.422   3.470 -0.2844  0.2100 -0.2124
 2428SOL    HW118920   2.444   1.501   3.499  1.2657 -0.2360 -1.4969
 2428SOL    HW218921   2.419   1.364   3.543 -0.8411  2.3684  1.6867
 2429SOL     OW18922   4.540   1.840   8.553  0.3312 -0.0415  0.4489
 2429SOL    HW118923   4.535   1.745   8.561  0.7523 -0.0569  0.5703
 2429SOL    HW218924   4.473   1.862   8.618 -0.4140  0.8840 -0.6305
 2430SOL     OW18925   0.506   2.403   0.157 -0.0185 -0.1746 -0.3148
 2430SOL    HW118926   0.458   2.320   0.158 -0.4558  0.0775 -1.1084
 2430SOL    HW218927   0.440   2.471   0.166 -1.3731 -1.3411 -1.4558
 2431SOL     OW18928   2.313   1.925  15.642 -0.2155  0.1758  0.5214
 2431SOL    HW118929   2.395   1.948  15.684  1.0706 -0.4151 -1.6674
 2431SOL    HW218930   2.246   1.957  15.703 -0.5019 -1.0633  0.8662
 2432SOL     OW18931   0.914   3.069   7.903 -0.3825  0.6704 -0.4528
 2432SOL    HW118932   0.864   3.012   7.962  0.9298 -0.4203 -0.4132
 2432SOL    HW218933   0.987   3.012   7.880 -1.0518  0.2518 -1.5242
 2433SOL     OW18934   2.741   2.227  11.034 -0.0225 -0.6806 -0.2204
 2433SOL    HW118935   2.721   2.166  10.963 -1.5962 -2.8709  2.1161
 2433SOL    HW218936   2.710   2.193  11.118  0.4960 -2.8256 -0.9016
 2434SOL     OW18937   3.743   3.767   1.928  0.0599  0.4197  0.0523
 2434SOL    HW118938   3.732   3.725   2.013 -0.9858 -1.6610 -1.1055
 2434SOL    HW218939   3.676   3.834   1.938  0.4514  0.4368  2.7071
 2435SOL     OW18940   2.722   1.140  10.817 -0.2921 -0.3497 -0.0596
 2435SOL    HW118941   2.641   1.186  10.836  0.1131  0.4420 -0.2681
 2435SOL    HW218942   2.708   1.083  10.741  2.9989 -1.6061  0.2575
 2436SOL     OW18943   2.901   1.281   4.005 -0.2508  0.1651  0.1221
 2436SOL    HW118944   2.867   1.204   3.961  2.4163 -0.8499 -0.1634
 2436SOL    HW218945   2.885   1.350   3.940  0.6236  0.3167  0.0605
 2437SOL     OW18946   3.670   1.276   5.535  0.3114  0.2318  0.1195
 2437SOL    HW118947   3.749   1.223   5.527  1.1417  1.5999 -0.6988
 2437SOL    HW218948   3.616   1.217   5.589 -0.6788  0.9965 -0.0291
 2438SOL     OW18949   1.809   4.093  13.420 -0.2231  0.4775 -0.3847
 2438SOL    HW118950   1.729   4.089  13.368 -1.3720  1.4673  1.2970
 2438SOL    HW218951   1.875   4.050  13.365 -2.3764 -1.2028 -1.6442
 2439SOL     OW18952   0.793   3.328   0.843 -0.1642 -0.3725  0.2120
 2439SOL    HW118953   0.757   3.282   0.767  0.1347  2.7755 -1.8240
 2439SOL    HW218954   0.715   3.380   0.862 -1.0866 -2.0418  0.9708
 2440SOL     OW18955   3.446   3.453   8.993  0.0663 -0.5536  0.2052
 2440SOL    HW118956   3.436   3.368   9.035 -1.1101 -0.5394 -0.0516
 2440SOL    HW218957   3.429   3.428   8.902 -1.4404 -1.3831  0.7183
 2441SOL     OW18958   3.237   0.825   9.579 -0.0497 -0.1785 -0.4587
 2441SOL    HW118959   3.181   0.897   9.550  0.2061  0.5018  0.7479
 2441SOL    HW218960   3.307   0.828   9.514 -0.1183 -2.1123 -0.6123
 2442SOL     OW18961   4.682   0.535  13.164 -0.3812 -0.2899 -0.8716
 2442SOL    HW118962   4.720   0.493  13.087  1.8960 -1.4971  0.9172
 2442SOL    HW218963   4.677   0.620  13.120  1.0153 -0.9186 -2.2429
 2443SOL     OW18964   1.911   4.577   8.668  0.1130 -0.0780 -0.6734
 2443SOL    HW118965   1.954   4.653   8.630 -0.2628 -0.0549 -1.0588
 2443SOL    HW218966   1.844   4.556   8.602 -0.5389 -0.0428 -0.0206
 2444SOL     OW18967   2.689   4.734   5.437  0.6542 -0.2456 -0.2071
 2444SOL    HW118968   2.600   4.699   5.450  0.5739  0.1743  0.3560
 2444SOL    HW218969   2.707   0.033   5.524  1.0091  0.5060 -0.5870
 2445SOL     OW18970   1.269   0.940   0.131  0.4147 -0.4667 -0.1020
 2445SOL    HW118971   1.363   0.922   0.130  0.9349  2.2033 -0.1078
 2445SOL    HW218972   1.262   0.963   0.224  2.4757 -0.3414  0.0141
 2446SOL     OW18973   2.399   1.843  17.160 -0.0619 -0.2559 -0.3636
 2446SOL    HW118974   2.457   1.850  17.236 -3.0316 -2.2123  2.0775
 2446SOL    HW218975   2.328   1.895  17.198  1.0204  0.7006  0.3789
 2447SOL     OW18976   4.185   0.339   1.451  0.9576 -0.4511 -0.3412
 2447SOL    HW118977   4.243   0.402   1.494 -0.7677  0.6136  0.4381
 2447SOL    HW218978   4.134   0.316   1.529 -1.1917  0.8182 -1.3654
 2448SOL     OW18979   0.162   3.888   4.745 -0.2350  0.0066  0.2302
 2448SOL    HW118980   0.218   3.818   4.779  0.2253 -1.7194 -4.1293
 2448SOL    HW218981   0.223   3.949   4.702 -3.5062  3.0873 -0.0557
 2449SOL     OW18982   2.879   2.042  11.408  0.1144  0.0071 -0.4149
 2449SOL    HW118983   2.968   2.078  11.414  0.1187 -0.2496  1.1296
 2449SOL    HW218984   2.869   2.039  11.503 -1.6791 -0.7664 -0.6419
 2450SOL     OW18985   2.381   1.696   6.433 -0.2460  1.0194  0.8290
 2450SOL    HW118986   2.371   1.656   6.347  0.5121  0.3221  1.0593
 2450SOL    HW218987   2.393   1.787   6.409  0.8208  0.2827 -1.4694
 2451SOL     OW18988   2.585   4.138   7.781  0.1685 -0.6049 -0.1784
 2451SOL    HW118989   2.642   4.128   7.857 -3.0459 -1.5570  2.1065
 2451SOL    HW218990   2.649   4.128   7.710  0.3790 -0.3004 -0.0360
 2452SOL     OW18991   2.743   3.884   6.594 -0.0568 -0.3115  0.5475
 2452SOL    HW118992   2.820   3.940   6.601  1.2835 -2.2946  1.5353
 2452SOL    HW218993   2.773   3.808   6.543  1.0654  0.9876 -0.7183
 2453SOL     OW18994   4.349   0.069   1.483  0.4708 -0.1623  0.0220
 2453SOL    HW118995   4.344   0.017   1.563 -0.3473  4.0580  2.7106
 2453SOL    HW218996   4.395   0.149   1.507  0.7530 -0.5280  0.6997
 2454SOL     OW18997   1.453   4.433   5.720 -0.3497  0.2309  0.0800
 2454SOL    HW118998   1.403   4.493   5.774  0.8885  0.1418  1.3367
 2454SOL    HW218999   1.405   4.422   5.638  1.4938  2.6969 -1.3374
 2455SOL     OW19000   3.236   2.066   3.509  0.0182 -0.0095 -0.2566
 2455SOL    HW119001   3.272   2.101   3.428 -0.0330 -1.5953 -0.9539
 2455SOL    HW219002   3.264   2.139   3.565  0.9821  0.5378 -1.4473
 2456SOL     OW19003   3.197   1.880   5.433 -0.8372 -0.1212  0.2862
 2456SOL    HW119004   3.178   1.825   5.509  4.9152 -0.7837  1.2494
 2456SOL    HW219005   3.182   1.820   5.360 -0.5725 -0.0984  0.2147
 2457SOL     OW19006   2.340   0.712   2.556 -0.2910  0.1050 -0.2647
 2457SOL    HW119007   2.262   0.748   2.513  1.5541  0.4263 -3.3344
 2457SOL    HW219008   2.336   0.762   2.637  0.1551 -0.1666 -0.0749
 2458SOL     OW19009   2.329   1.653   5.875  0.3288  0.0131 -0.1100
 2458SOL    HW119010   2.382   1.687   5.803 -0.2322  3.1298  0.9249
 2458SOL    HW219011   2.251   1.620   5.830 -0.0425  2.3772 -1.2212
 2459SOL     OW19012   0.318   2.849   2.825  0.6442 -0.0676  0.1071
 2459SOL    HW119013   0.307   2.819   2.916 -0.6756  0.0716 -0.0014
 2459SOL    HW219014   0.350   2.770   2.782  1.8555  1.9767 -2.7182
 2460SOL     OW19015   1.788   2.499   0.331  0.6321 -0.0035 -0.1181
 2460SOL    HW119016   1.798   2.404   0.343  1.9255  0.2513  0.6975
 2460SOL    HW219017   1.809   2.516   0.422 -0.2524  0.1154  0.0651
 2461SOL     OW19018   2.948   4.716   3.680 -0.0108  0.3651  0.1836
 2461SOL    HW119019   2.967   0.070   3.652  1.8035  0.5211  1.9010
 2461SOL    HW219020   2.901   0.007   3.759 -1.4250 -1.1531 -0.1460
 2462SOL     OW19021   0.637   3.558   7.578 -0.6520 -0.8471 -0.7045
 2462SOL    HW119022   0.683   3.489   7.529 -0.8245 -0.0875 -1.9378
 2462SOL    HW219023   0.585   3.507   7.639 -1.4808 -0.8661 -1.4324
 2463SOL     OW19024   4.596   4.202   2.841 -0.2272  0.2799  0.6496
 2463SOL    HW119025   4.651   4.144   2.788 -1.3913 -0.9233  0.7768
 2463SOL    HW219026   4.512   4.183   2.799  0.4738 -3.0397  0.8137
 2464SOL     OW19027   2.751   3.857   5.536 -0.4008 -0.9063 -0.3574
 2464SOL    HW119028   2.770   3.924   5.602 -1.9719  1.0738 -1.9387
 2464SOL    HW219029   2.677   3.809   5.575 -1.0178  0.2680 -0.0491
 2465SOL     OW19030   1.701   1.711  17.621 -0.3623  0.2721  0.2602
 2465SOL    HW119031   1.693   1.767  17.698 -2.5321 -0.3161  0.4634
 2465SOL    HW219032   1.608   1.692  17.616 -0.0560 -1.0763 -0.4163
 2466SOL     OW19033   1.457   4.450   2.494  0.1298  0.5300 -0.1724
 2466SOL    HW119034   1.492   4.375   2.542 -1.0151  0.1819  0.1253
 2466SOL    HW219035   1.533   4.497   2.462 -0.7032  2.7109  1.0361
 2467SOL     OW19036   0.045   0.631   5.123 -0.0762  0.1749 -0.0823
 2467SOL    HW119037   0.044   0.610   5.030  0.9680 -3.0361  0.6402
 2467SOL    HW219038   0.062   0.543   5.157  1.1534  0.8229  0.9869
 2468SOL     OW19039   0.293   2.247  10.796  0.1522 -0.6055  0.0358
 2468SOL    HW119040   0.214   2.300  10.787  0.4004  0.2656  3.2989
 2468SOL    HW219041   0.255   2.173  10.749 -1.3054  0.6393 -0.7426
 2469SOL     OW19042   0.623   2.524   1.803  1.2440  0.6034  0.0784
 2469SOL    HW119043   0.569   2.561   1.733 -0.3324 -0.2837  0.8191
 2469SOL    HW219044   0.656   2.443   1.765 -0.7666  0.7665 -2.0315
 2470SOL     OW19045   4.444   0.947  10.812 -0.2568  0.0920 -0.0136
 2470SOL    HW119046   4.465   0.892  10.888 -0.1991 -1.2892 -1.0238
 2470SOL    HW219047   4.357   0.981  10.830  0.1587  0.9816  0.3438
 2471SOL     OW19048   1.288   2.982  10.051  0.2659 -0.6070 -0.1424
 2471SOL    HW119049   1.231   2.949  10.121  1.4114  0.8667  1.4936
 2471SOL    HW219050   1.223   3.039  10.010  1.2128 -1.6806 -3.1071
 2472SOL     OW19051   4.047   4.001   6.629  0.4910 -0.2145 -0.9459
 2472SOL    HW119052   4.077   3.915   6.657 -0.7367 -0.4235 -0.3154
 2472SOL    HW219053   3.984   3.974   6.562 -0.3431  0.2656 -0.3547
 2473SOL     OW19054   2.853   1.057   3.523  0.1230 -0.1349 -0.4001
 2473SOL    HW119055   2.919   1.106   3.473  1.3259  1.4378  2.7381
 2473SOL    HW219056   2.901   1.045   3.605 -1.8085  1.0652  0.9069
 2474SOL     OW19057   2.882   2.196  12.532  0.1265 -0.3770  0.8636
 2474SOL    HW119058   2.912   2.286  12.540 -2.1323  0.6674 -2.4717
 2474SOL    HW219059   2.805   2.200  12.590  0.5476 -0.0394  1.4019
 2475SOL     OW19060   4.240   1.653   8.261  0.2601  0.0828 -0.3190
 2475SOL    HW119061   4.318   1.598   8.250 -0.6203 -1.4553  0.9809
 2475SOL    HW219062   4.281   1.736   8.237 -1.5858  1.3246  0.8293
 2476SOL     OW19063   2.290   3.479   4.398  0.1138 -0.3686  0.0912
 2476SOL    HW119064   2.362   3.542   4.402  1.3351 -1.7153 -0.7471
 2476SOL    HW219065   2.228   3.527   4.453  0.8573 -0.8835  1.3912
 2477SOL     OW19066   0.731   3.197   0.600 -0.4335 -0.6170 -0.0930
 2477SOL    HW119067   0.731   3.145   0.519  1.6301 -1.5482  0.4955
 2477SOL    HW219068   0.635   3.199   0.609 -0.5698  1.7360 -2.1692
 2478SOL     OW19069   1.065   0.478  13.322  0.2118 -0.2606 -0.0370
 2478SOL    HW119070   1.052   0.432  13.239  2.0338  0.6952 -0.8621
 2478SOL    HW219071   1.065   0.408  13.387 -1.7242  0.1924  0.4470
 2479SOL     OW19072   1.913   1.417   7.169 -0.1789 -0.1625 -0.1173
 2479SOL    HW119073   2.006   1.437   7.155  0.3297 -0.9050  2.1985
 2479SOL    HW219074   1.883   1.500   7.207  3.7352  1.1468  0.2238
 2480SOL     OW19075   4.507   0.251   4.011  0.6685  0.6630 -0.0926
 2480SOL    HW119076   4.451   0.205   4.073  1.2069  0.2492  0.0879
 2480SOL    HW219077   4.536   0.319   4.072  1.0203  1.8004 -1.5384
 2481SOL     OW19078   1.482   0.406   0.580 -0.4836  0.8154  0.6210
 2481SOL    HW119079   1.468   0.394   0.673  0.9399  1.1752  0.8820
 2481SOL    HW219080   1.414   0.355   0.536  1.2733 -0.3266 -0.8117
 2482SOL     OW19081   0.513   4.391   8.805 -0.7735  0.3205 -0.6519
 2482SOL    HW119082   0.420   4.371   8.814 -0.5039 -0.4120  0.5251
 2482SOL    HW219083   0.541   4.356   8.721  1.0019 -1.6088  0.7479
 2483SOL     OW19084   2.526   1.909   4.273  0.6947 -0.2088 -0.2027
 2483SOL    HW119085   2.564   1.821   4.281 -2.8694 -1.7211  0.4256
 2483SOL    HW219086   2.596   1.959   4.315  1.7003 -0.2535 -1.8182
 2484SOL     OW19087   2.684   1.310   1.875  0.0422  0.0101 -0.3330
 2484SOL    HW119088   2.612   1.308   1.939 -0.5469  1.4940 -0.9619
 2484SOL    HW219089   2.759   1.314   1.935 -1.2839  2.6378  1.1792
 2485SOL     OW19090   3.392   2.170   4.246 -0.1116 -0.1589 -0.0254
 2485SOL    HW119091   3.311   2.218   4.229  0.6525  0.2456 -2.5956
 2485SOL    HW219092   3.419   2.171   4.154 -0.5799  0.7609 -0.1531
 2486SOL     OW19093   0.022   2.461   1.164 -0.1160  0.2906  0.4242
 2486SOL    HW119094   0.014   2.424   1.076  2.8152 -0.3241  0.4171
 2486SOL    HW219095   0.018   2.554   1.139 -1.5704  0.2467  0.4980
 2487SOL     OW19096   2.313   0.441  15.612  0.8852 -0.0896 -0.0322
 2487SOL    HW119097   2.357   0.512  15.567  0.1662  0.3878  0.0223
 2487SOL    HW219098   2.320   0.370  15.548  0.6092  0.5093 -0.7128
 2488SOL     OW19099   2.236   4.417   4.222 -0.2799  0.5474  0.7945
 2488SOL    HW119100   2.200   4.345   4.275  1.7483 -1.2807 -0.3443
 2488SOL    HW219101   2.323   4.441   4.252 -0.1880 -0.1537  1.0943
 2489SOL     OW19102   3.918   2.476  12.855  0.3453 -0.3958  0.3886
 2489SOL    HW119103   3.950   2.419  12.926 -0.2810  0.3537  1.2747
 2489SOL    HW219104   3.894   2.549  12.913  1.0172 -1.2696  1.7786
 2490SOL     OW19105   2.833   2.379   8.604  0.1074 -0.2611 -0.1877
 2490SOL    HW119106   2.765   2.447   8.604 -0.3794 -0.7420 -1.1697
 2490SOL    HW219107   2.911   2.435   8.606 -0.1933  0.1044  1.9237
 2491SOL     OW19108   0.405   0.916   7.219  0.0292 -0.0298  0.4408
 2491SOL    HW119109   0.442   0.830   7.196 -0.7837 -0.6086  1.3137
 2491SOL    HW219110   0.471   0.969   7.175 -0.9504  0.3142 -0.6238
 2492SOL     OW19111   1.890   1.216  12.892 -0.7193 -0.2342  0.0116
 2492SOL    HW119112   1.857   1.284  12.951 -1.7006 -0.0486 -0.7459
 2492SOL    HW219113   1.902   1.276  12.819 -0.0260 -1.5890 -0.9858
 2493SOL     OW19114   1.304   0.752   1.632  0.3638 -0.2782  0.2338
 2493SOL    HW119115   1.365   0.825   1.624 -0.3692  0.3459  0.4585
 2493SOL    HW219116   1.346   0.674   1.668 -0.6964 -0.7863  0.3753
 2494SOL     OW19117   0.223   1.241  16.966 -0.2070 -0.0769  0.7482
 2494SOL    HW119118   0.175   1.290  16.899  0.0595  1.3785  1.6266
 2494SOL    HW219119   0.314   1.268  16.948 -0.1651  0.9333  2.5334
 2495SOL     OW19120   2.897   1.464   7.387  0.1010  0.0831 -0.8539
 2495SOL    HW119121   2.983   1.507   7.386 -1.1452  2.5499 -1.2394
 2495SOL    HW219122   2.922   1.375   7.414  0.1388 -0.1061 -1.4947
 2496SOL     OW19123   3.095   1.524   8.631  0.3929 -0.0972  0.1492
 2496SOL    HW119124   3.024   1.459   8.637 -1.0861  1.4321 -0.5677
 2496SOL    HW219125   3.114   1.547   8.721  0.8872 -0.8667  0.2413
 2497SOL     OW19126   1.046   3.663   6.249  0.0439  0.0489  0.3896
 2497SOL    HW119127   1.070   3.712   6.328 -2.7200 -1.0063  1.8849
 2497SOL    HW219128   0.951   3.656   6.255 -0.0426  0.6460 -0.3481
 2498SOL     OW19129   1.746   4.665   5.434 -0.7481 -0.0197 -0.4969
 2498SOL    HW119130   1.720   4.578   5.403  0.9587  0.1089 -2.3014
 2498SOL    HW219131   1.795   4.639   5.511 -0.4645  0.0828 -0.6436
 2499SOL     OW19132   4.477   0.628   8.601  0.1218 -0.2227  0.3095
 2499SOL    HW119133   4.454   0.589   8.686  0.4179 -0.3075  0.3516
 2499SOL    HW219134   4.556   0.671   8.634  0.9159 -0.9180 -0.7035
 2500SOL     OW19135   1.780   4.431   6.904 -0.4458 -0.1144  0.3976
 2500SOL    HW119136   1.840   4.504   6.890 -1.3278  0.3180 -1.0981
 2500SOL    HW219137   1.801   4.401   6.992 -1.9487 -0.3933  0.6633
 2501SOL     OW19138   1.867   1.595   3.780 -0.1956 -0.2955  0.1553
 2501SOL    HW119139   1.823   1.632   3.856  0.4054  0.1623  0.2834
 2501SOL    HW219140   1.797   1.590   3.715  0.4658  1.7608 -0.7321
 2502SOL     OW19141   4.514   3.961   3.648  0.0161 -0.2291  0.5970
 2502SOL    HW119142   4.495   3.915   3.566  2.8320 -0.1750 -0.0879
 2502SOL    HW219143   4.529   3.887   3.706  2.7977  0.8827  1.2960
 2503SOL     OW19144   2.131   1.937   7.757 -0.3435  0.2519 -0.3299
 2503SOL    HW119145   2.047   1.961   7.796  0.6934  2.8416  0.2638
 2503SOL    HW219146   2.178   1.906   7.835  1.0509  2.0460 -0.4476
 2504SOL     OW19147   0.695   3.109   6.014  0.5238  0.7300  0.6263
 2504SOL    HW119148   0.604   3.080   6.000  0.6284  0.6766  0.0413
 2504SOL    HW219149   0.695   3.188   5.960  3.1820 -0.0609 -0.5139
 2505SOL     OW19150   1.374   1.784  13.760  0.4962  0.5946  0.4228
 2505SOL    HW119151   1.286   1.755  13.737  1.3769 -2.0686  0.4218
 2505SOL    HW219152   1.389   1.737  13.842 -1.4383 -1.5815 -0.4623
 2506SOL     OW19153   3.634   1.921   9.617  0.0025 -0.1046  0.1637
 2506SOL    HW119154   3.576   1.937   9.692  0.8307  2.3233  0.2920
 2506SOL    HW219155   3.711   1.966   9.652  0.3199 -1.1498  0.7944
 2507SOL     OW19156   0.062   0.286   4.208  0.0578  0.2333  0.1530
 2507SOL    HW119157   0.051   0.206   4.157  1.9409 -0.0863  0.2677
 2507SOL    HW219158   4.708   0.319   4.212  0.4216  1.3322 -0.8410
 2508SOL     OW19159   2.461   1.722   3.273 -0.7162  0.0451  0.1954
 2508SOL    HW119160   2.514   1.775   3.332 -0.5023 -1.0230  0.9597
 2508SOL    HW219161   2.535   1.697   3.218 -0.0316  1.3410  0.5393
 2509SOL     OW19162   1.764   4.182  10.825 -0.2084  0.3268 -0.4504
 2509SOL    HW119163   1.710   4.236  10.768  0.3923  3.7321  2.2307
 2509SOL    HW219164   1.722   4.216  10.904  0.3356  0.3314 -0.1659
 2510SOL     OW19165   3.779   4.271   8.198 -0.6892 -0.2034 -0.5774
 2510SOL    HW119166   3.808   4.234   8.115 -0.5448 -0.4654 -0.4097
 2510SOL    HW219167   3.702   4.219   8.221  0.2573 -2.5252 -2.7952
 2511SOL     OW19168   0.053   3.402   3.650  0.4423  0.3961  0.0272
 2511SOL    HW119169   0.113   3.364   3.715 -1.0001 -1.2830  0.3717
 2511SOL    HW219170   0.086   3.370   3.567  2.6264  3.3275 -0.2342
 2512SOL     OW19171   4.611   2.672   0.450  0.1439 -0.9632 -0.1288
 2512SOL    HW119172   4.629   2.593   0.501  0.8285 -1.0692 -0.5331
 2512SOL    HW219173   4.638   2.633   0.367 -2.2767 -3.4051  0.2471
 2513SOL     OW19174   3.473   3.372   9.384  0.1545  0.6635  0.3739
 2513SOL    HW119175   3.438   3.292   9.346  0.1021  1.0594 -0.4193
 2513SOL    HW219176   3.501   3.347   9.472 -3.2165 -0.3534  1.1482
 2514SOL     OW19177   3.073   3.958   8.044 -0.6243  0.0992  0.2924
 2514SOL    HW119178   3.023   4.017   8.101 -0.0889  2.7417 -1.9760
 2514SOL    HW219179   3.023   3.876   8.042  0.6370 -0.6992  1.4232
 2515SOL     OW19180   1.822   1.157   5.293  0.1950  0.3653  0.1648
 2515SOL    HW119181   1.846   1.241   5.333 -1.0209 -0.5925  2.9318
 2515SOL    HW219182   1.756   1.143   5.361 -0.6228  0.5908 -0.5805
 2516SOL     OW19183   4.706   0.084   4.457  0.2735 -0.0866 -0.4871
 2516SOL    HW119184   0.042   0.108   4.516 -0.3417 -0.5100  0.4266
 2516SOL    HW219185   4.673   0.172   4.438  0.3041  0.0431  0.0750
 2517SOL     OW19186   2.802   2.128   5.035 -0.2043 -0.5211  0.4020
 2517SOL    HW119187   2.876   2.187   5.026 -0.7176  0.2261  0.9934
 2517SOL    HW219188   2.733   2.178   4.990  0.3190 -1.1596 -1.0849
 2518SOL     OW19189   2.494   0.315   7.317  0.3575 -0.2409 -0.2014
 2518SOL    HW119190   2.401   0.309   7.296  0.9413 -0.5416 -2.7489
 2518SOL    HW219191   2.486   0.311   7.412 -0.9048  0.7901 -0.2620
 2519SOL     OW19192   0.138   2.130  15.697  0.1770 -0.1897  0.2068
 2519SOL    HW119193   0.203   2.171  15.754  1.6572 -1.3508 -0.6457
 2519SOL    HW219194   0.081   2.207  15.706  0.2829  0.0363 -0.9620
 2520SOL     OW19195   1.967   1.761   2.313  0.1474 -0.6767 -0.4776
 2520SOL    HW119196   2.049   1.712   2.309 -0.2679 -1.4561  0.7088
 2520SOL    HW219197   1.990   1.817   2.387  0.9271  0.7506 -1.8016
 2521SOL     OW19198   2.862   4.311   5.136 -0.2183  0.7089  0.0395
 2521SOL    HW119199   2.773   4.333   5.165 -0.8922  0.7227 -2.0744
 2521SOL    HW219200   2.855   4.216   5.127  0.2838  0.4858  1.9492
 2522SOL     OW19201   1.406   2.780   2.106  0.1606  0.5197  0.0026
 2522SOL    HW119202   1.411   2.875   2.101  1.1121  0.3989 -1.4022
 2522SOL    HW219203   1.343   2.759   2.037  0.0051 -0.3227  0.4038
 2523SOL     OW19204   1.312   3.720   3.473 -0.1124  0.0069  0.1487
 2523SOL    HW119205   1.337   3.629   3.461  0.0957  0.3328 -1.9667
 2523SOL    HW219206   1.332   3.749   3.384 -2.8833 -0.4276 -0.6195
 2524SOL     OW19207   2.877   3.653   6.047  0.0823 -0.3262  0.1711
 2524SOL    HW119208   2.956   3.604   6.067  1.2769  1.5204 -0.0000
 2524SOL    HW219209   2.846   3.668   6.136 -0.8811  0.2109 -0.2498
 2525SOL     OW19210   4.180   4.478   7.421  0.2519  0.2684 -0.3719
 2525SOL    HW119211   4.235   4.402   7.402 -0.2644  0.1134 -1.2556
 2525SOL    HW219212   4.212   4.500   7.509 -2.7298 -0.6973  0.9597
 2526SOL     OW19213   3.581   3.757   3.489 -1.2281 -0.0099  0.3593
 2526SOL    HW119214   3.523   3.823   3.527 -2.2940  0.0696 -1.4183
 2526SOL    HW219215   3.511   3.694   3.473 -0.0989 -1.6351  1.8420
 2527SOL     OW19216   1.396   3.283   3.302  0.2125  0.6405  0.0008
 2527SOL    HW119217   1.422   3.192   3.314 -0.1164  0.8886  2.5337
 2527SOL    HW219218   1.323   3.279   3.240  0.8162  0.4960 -0.7112
 2528SOL     OW19219   2.944   2.220   2.771 -0.4184  0.1011  0.0300
 2528SOL    HW119220   2.874   2.207   2.835 -1.2590  1.2379 -0.6632
 2528SOL    HW219221   2.965   2.303   2.814  1.2771  0.2045 -0.9916
 2529SOL     OW19222   4.131   2.356   7.243 -0.3256  0.2912 -0.1851
 2529SOL    HW119223   4.158   2.334   7.332 -0.6338 -0.5718 -0.3013
 2529SOL    HW219224   4.046   2.313   7.232  0.6049 -1.9442  1.5367
 2530SOL     OW19225   0.695   4.020   7.917  0.2102  0.2307 -0.4254
 2530SOL    HW119226   0.775   3.990   7.873  0.2863  0.8282 -0.6883
 2530SOL    HW219227   0.681   3.932   7.953  1.5704 -0.0964 -0.6840
 2531SOL     OW19228   3.583   1.102   6.301 -0.4739 -0.0488  0.0432
 2531SOL    HW119229   3.586   1.191   6.265 -0.4433  0.1524  0.5405
 2531SOL    HW219230   3.623   1.115   6.387 -0.3159  2.0987 -0.3334
 2532SOL     OW19231   2.943   4.719   6.640  0.1634  0.2054  0.0149
 2532SOL    HW119232   2.856   0.020   6.626  0.4610  1.6662  1.9512
 2532SOL    HW219233   2.981   4.720   6.552  1.0244 -0.8389  0.3716
 2533SOL     OW19234   3.764   4.405   0.115 -0.1018 -0.2558 -0.0091
 2533SOL    HW119235   3.724   4.352   0.185  1.1626  3.8033  3.8169
 2533SOL    HW219236   3.771   4.494   0.150 -0.1359 -0.4920  0.6072
 2534SOL     OW19237   3.353   4.256   8.189  0.0484  0.2104 -0.0528
 2534SOL    HW119238   3.279   4.257   8.249  0.0499  0.5886 -0.0538
 2534SOL    HW219239   3.395   4.341   8.206 -1.2118  1.1101 -1.4168
 2535SOL     OW19240   4.345   0.479  13.567  0.2260 -0.1001  0.5684
 2535SOL    HW119241   4.370   0.419  13.638  0.7348  0.0851  0.5476
 2535SOL    HW219242   4.395   0.437  13.496 -0.0629  1.3570 -0.4838
 2536SOL     OW19243   3.877   4.596   7.249 -0.4324 -0.3801 -0.0953
 2536SOL    HW119244   3.868   4.582   7.155 -1.4974 -0.2869 -0.0103
 2536SOL    HW219245   3.785   4.591   7.276  0.0890 -1.5350  1.4874
 2537SOL     OW19246   3.183   2.620   9.625  0.3911  0.0388 -0.4175
 2537SOL    HW119247   3.173   2.557   9.696 -1.6326 -0.0567 -0.7860
 2537SOL    HW219248   3.238   2.687   9.666 -1.0344  0.9914 -0.0757
 2538SOL     OW19249   3.240   3.783   1.692 -0.8001  0.1308 -0.4213
 2538SOL    HW119250   3.287   3.860   1.722  0.4036 -0.9059  0.3726
 2538SOL    HW219251   3.316   3.729   1.668 -0.9795 -1.3143  2.2331
 2539SOL     OW19252   3.126   3.327   8.780 -0.0249 -0.0767 -0.3613
 2539SOL    HW119253   3.070   3.309   8.855  0.2655  0.6126  0.0180
 2539SOL    HW219254   3.158   3.416   8.796 -0.8375 -0.1505  1.6441
 2540SOL     OW19255   1.708   0.433   1.574 -0.0294 -0.4781  0.5587
 2540SOL    HW119256   1.700   0.496   1.502  0.0159  0.0957  1.0498
 2540SOL    HW219257   1.711   0.353   1.521 -0.1202 -0.9580  1.2823
 2541SOL     OW19258   1.276   0.088   8.389  0.1404  0.3491 -0.7783
 2541SOL    HW119259   1.362   0.129   8.397 -0.0671  0.1079  2.5062
 2541SOL    HW219260   1.226   0.150   8.441  2.8972  1.1791  0.8487
 2542SOL     OW19261   4.297   1.644   7.261 -0.0175 -0.5273  0.0379
 2542SOL    HW119262   4.363   1.610   7.200 -0.1081 -2.0642  0.7961
 2542SOL    HW219263   4.232   1.581   7.230 -2.4072  1.5051  0.9768
 2543SOL     OW19264   3.520   3.719   4.684 -0.3311  0.1836 -0.0473
 2543SOL    HW119265   3.462   3.794   4.688 -1.3599 -0.5363 -1.6385
 2543SOL    HW219266   3.516   3.675   4.770 -1.5384 -0.6507 -0.5353
 2544SOL     OW19267   0.335   0.871   4.386  0.7486  0.1095  0.2739
 2544SOL    HW119268   0.283   0.808   4.337  2.2054 -2.0316  1.5154
 2544SOL    HW219269   0.395   0.817   4.437 -0.9316 -0.3722  1.7597
 2545SOL     OW19270   3.694   3.115   7.353 -0.0384 -0.6104 -0.2068
 2545SOL    HW119271   3.664   3.181   7.415  0.7319 -0.5483  0.1001
 2545SOL    HW219272   3.787   3.123   7.376 -0.1540 -0.9262  0.3715
 2546SOL     OW19273   2.382   1.182   6.902 -0.4070  0.4072 -0.1579
 2546SOL    HW119274   2.372   1.181   6.807  1.9505  1.0807 -0.3915
 2546SOL    HW219275   2.446   1.113   6.920 -1.0563  0.4366  2.2812
 2547SOL     OW19276   2.115   1.107   8.020  0.0259 -0.0643  0.1267
 2547SOL    HW119277   2.048   1.039   8.024  1.2687 -1.2608  0.2717
 2547SOL    HW219278   2.080   1.179   7.966 -1.0902  0.5185  1.6419
 2548SOL     OW19279   3.674   0.445  16.455 -0.2107  0.1032  0.3623
 2548SOL    HW119280   3.581   0.441  16.476 -0.7185  2.3374 -1.4426
 2548SOL    HW219281   3.673   0.415  16.365  1.1807  0.0993  0.3548
 2549SOL     OW19282   3.570   1.117   2.032  0.0032  0.7095 -0.0947
 2549SOL    HW119283   3.559   1.207   2.061  1.4534  0.1051  2.2545
 2549SOL    HW219284   3.524   1.066   2.098 -1.5924  0.7265 -1.1729
 2550SOL     OW19285   4.128   0.453  12.773  0.2333  0.1863  0.1648
 2550SOL    HW119286   4.121   0.359  12.790 -0.4830  0.5568  1.9368
 2550SOL    HW219287   4.134   0.446  12.678 -1.3371  2.1779 -0.0957
 2551SOL     OW19288   3.806   3.657   3.312 -0.6596 -0.2826  0.0070
 2551SOL    HW119289   3.772   3.726   3.369  1.2393  1.5273 -1.0479
 2551SOL    HW219290   3.854   3.598   3.371 -0.4050  0.6795  0.7598
 2552SOL     OW19291   3.718   2.088   0.000 -0.0474  0.3390  0.1766
 2552SOL    HW119292   3.737   2.000   0.035 -2.5950 -0.0752  0.5379
 2552SOL    HW219293   3.623   2.078  17.734  0.0648 -0.7451  0.1423
 2553SOL     OW19294   2.400   3.200  13.119  0.1897 -0.3772 -0.1186
 2553SOL    HW119295   2.402   3.241  13.033  0.3024  1.0238  0.5582
 2553SOL    HW219296   2.350   3.269  13.163  2.0635 -0.1320  1.6380
 2554SOL     OW19297   0.504   1.595   5.576  0.5019  0.1450 -0.5144
 2554SOL    HW119298   0.438   1.542   5.531  0.2735 -1.7783  2.1130
 2554SOL    HW219299   0.590   1.559   5.556  0.2946  1.1285 -3.2549
 2555SOL     OW19300   1.707   3.421   2.137  0.3128 -0.3750  0.2695
 2555SOL    HW119301   1.721   3.475   2.215  0.0067  1.5583 -1.0242
 2555SOL    HW219302   1.741   3.334   2.157  2.1082  0.4856  1.0043
 2556SOL     OW19303   2.883   4.427   1.600 -0.3398 -0.1158  0.1181
 2556SOL    HW119304   2.892   4.437   1.505 -1.4583  0.1240  0.0432
 2556SOL    HW219305   2.959   4.480   1.625  0.1220  0.1347 -1.8076
 2557SOL     OW19306   4.205   0.541   9.720  0.4190  0.2662  0.0008
 2557SOL    HW119307   4.131   0.541   9.660 -0.3151  1.7074  0.9278
 2557SOL    HW219308   4.252   0.619   9.691 -0.4364  0.8665  0.2458
 2558SOL     OW19309   1.359   4.214   6.996 -0.0275  0.2380  0.0573
 2558SOL    HW119310   1.294   4.198   6.928 -1.2199 -0.9898  1.4888
 2558SOL    HW219311   1.425   4.266   6.951  2.9591 -3.1196  0.6247
 2559SOL     OW19312   3.058   0.769  12.072  0.4717  0.3100 -0.5537
 2559SOL    HW119313   3.045   0.817  12.153 -1.1675 -3.1072  1.2312
 2559SOL    HW219314   3.005   0.690  12.084  3.1182 -1.3322  0.2962
 2560SOL     OW19315   2.136   2.551   5.748  0.3080 -0.3132  0.0346
 2560SOL    HW119316   2.166   2.593   5.829  1.6002  0.0828 -0.6482
 2560SOL    HW219317   2.220   2.532   5.706 -0.6562 -1.6585 -1.2748
 2561SOL     OW19318   4.270   3.022  12.419  0.0617 -0.3880  0.0949
 2561SOL    HW119319   4.197   3.084  12.430 -1.9340 -2.5622 -0.9441
 2561SOL    HW219320   4.276   3.019  12.324  0.7370 -0.8723  0.1518
 2562SOL     OW19321   3.127   0.723   5.482  0.0146  0.6643 -0.2194
 2562SOL    HW119322   3.056   0.678   5.525 -0.5367  1.9218  0.1803
 2562SOL    HW219323   3.184   0.654   5.447  0.1214  1.3136 -1.3577
 2563SOL     OW19324   0.219   1.993  12.517  0.2535 -0.0591  0.0213
 2563SOL    HW119325   0.198   2.049  12.592 -0.1063 -1.6204  1.0915
 2563SOL    HW219326   0.131   1.965  12.492  0.0498  0.5872  0.0282
 2564SOL     OW19327   2.950   3.378   7.493 -0.1363  0.1166  0.1221
 2564SOL    HW119328   2.870   3.365   7.545  0.5766 -0.2938  1.1237
 2564SOL    HW219329   3.010   3.320   7.540  0.8266  0.5255 -0.6049
 2565SOL     OW19330   1.192   2.918   6.770 -0.1443  0.1014 -0.5641
 2565SOL    HW119331   1.182   2.928   6.864 -0.3323 -1.8381 -0.3882
 2565SOL    HW219332   1.173   3.010   6.750 -0.1768 -0.0953 -1.4787
 2566SOL     OW19333   1.324   1.284   4.030 -0.2587 -0.6659 -0.4895
 2566SOL    HW119334   1.353   1.201   3.992  0.8434  1.0581 -3.3628
 2566SOL    HW219335   1.291   1.326   3.951 -0.2062 -1.0342 -0.7061
 2567SOL     OW19336   0.294   0.548  13.273  0.5501 -0.2153  0.4838
 2567SOL    HW119337   0.256   0.542  13.361 -0.5577 -2.0391 -0.1144
 2567SOL    HW219338   0.374   0.497  13.281  0.1056 -1.0982 -0.6483
 2568SOL     OW19339   2.916   4.475   7.334 -0.2782  0.3001  0.0101
 2568SOL    HW119340   2.927   4.524   7.253 -1.0070  1.1904  0.4529
 2568SOL    HW219341   2.980   4.520   7.390  0.1695 -0.1867 -0.1024
 2569SOL     OW19342   4.247   3.054   9.527 -0.1781 -0.3261 -0.4653
 2569SOL    HW119343   4.291   3.049   9.442 -0.2766  1.0356 -0.6028
 2569SOL    HW219344   4.317   3.018   9.582  0.0994  1.1203  0.1259
 2570SOL     OW19345   1.820   2.969  15.637  0.1532 -0.1335 -0.3326
 2570SOL    HW119346   1.897   2.946  15.585  0.2676  0.4993 -0.4497
 2570SOL    HW219347   1.746   2.982  15.579  1.5870  2.7248 -1.5647
 2571SOL     OW19348   1.141   4.272   3.925 -0.2059  0.4149  0.0165
 2571SOL    HW119349   1.158   4.280   4.019 -2.4855 -0.5663  0.5077
 2571SOL    HW219350   1.220   4.301   3.879 -0.8507 -1.3825 -2.2212
 2572SOL     OW19351   0.572   0.712   8.644  0.5161 -0.1821 -0.1136
 2572SOL    HW119352   0.622   0.760   8.710 -0.2446  1.5336 -0.7889
 2572SOL    HW219353   0.534   0.786   8.597  0.2507 -0.3233 -0.1234
 2573SOL     OW19354   3.704   1.617  14.480 -0.3180  0.3224 -0.2943
 2573SOL    HW119355   3.660   1.605  14.565 -1.3642  1.1150 -0.7225
 2573SOL    HW219356   3.725   1.526  14.461  2.2759  0.9317 -0.3321
 2574SOL     OW19357   2.773   4.049   6.946 -0.4969 -0.4025  0.0611
 2574SOL    HW119358   2.805   4.135   6.974 -1.4497  0.7278 -2.3312
 2574SOL    HW219359   2.836   3.992   6.990  0.2946  0.6759  0.3257
 2575SOL     OW19360   4.125   0.452   7.249  0.5198 -0.2918  0.1686
 2575SOL    HW119361   4.164   0.389   7.310 -1.8557 -0.1671  1.8177
 2575SOL    HW219362   4.169   0.528   7.287 -0.5630  0.4290 -0.0171
 2576SOL     OW19363   4.390   3.807   8.546 -0.0342 -0.2424 -0.1947
 2576SOL    HW119364   4.325   3.757   8.595 -1.4236  0.4566 -1.3298
 2576SOL    HW219365   4.445   3.736   8.513 -0.9632 -1.2351  0.4015
 2577SOL     OW19366   3.859   0.092   5.950 -0.2959  0.5678 -0.1156
 2577SOL    HW119367   3.946   0.103   5.989 -1.2024 -3.4165  3.0891
 2577SOL    HW219368   3.802   0.088   6.028 -2.5691  1.3109 -1.7287
 2578SOL     OW19369   0.619   2.554   6.066  0.6072  0.1326 -0.0872
 2578SOL    HW119370   0.527   2.531   6.080  0.3280  2.0881  1.3793
 2578SOL    HW219371   0.623   2.540   5.971 -1.3963 -1.6162  0.0942
 2579SOL     OW19372   1.850   3.135  13.762 -0.1573 -0.2659 -0.0617
 2579SOL    HW119373   1.835   3.085  13.682 -0.1136 -1.9708  0.9948
 2579SOL    HW219374   1.769   3.186  13.767 -0.9739 -1.6830  1.2233
 2580SOL     OW19375   0.760   2.217   1.336  0.2793 -0.3543  0.1350
 2580SOL    HW119376   0.771   2.257   1.422  0.8405  1.9211 -0.9794
 2580SOL    HW219377   0.666   2.227   1.324  0.1467 -1.1002  0.5474
 2581SOL     OW19378   2.195   4.301   3.890  0.1030  0.7828 -0.3160
 2581SOL    HW119379   2.271   4.289   3.948 -0.6136 -0.8550  0.2752
 2581SOL    HW219380   2.175   4.393   3.908  0.1622  0.8424 -0.5658
 2582SOL     OW19381   3.833   3.592   9.009  0.5326 -0.3227 -0.6524
 2582SOL    HW119382   3.750   3.636   9.028  1.0161 -0.0949  0.8661
 2582SOL    HW219383   3.882   3.656   8.958 -0.8740 -0.2226 -1.8676
 2583SOL     OW19384   4.121   1.793   9.151  0.1131  0.4716 -0.0252
 2583SOL    HW119385   4.160   1.786   9.238 -0.3936 -1.5421  0.0246
 2583SOL    HW219386   4.198   1.809   9.096 -0.8174  1.5053 -1.0386
 2584SOL     OW19387   3.743   2.050  14.025  0.6935  0.2860 -0.5260
 2584SOL    HW119388   3.662   2.099  14.020  0.8551  0.2881 -3.0775
 2584SOL    HW219389   3.796   2.096  13.959 -0.6388  1.0443 -1.0619
 2585SOL     OW19390   3.851   1.141   2.970  0.2376  0.8288  0.2030
 2585SOL    HW119391   3.851   1.072   3.037  0.7938  1.3554  0.7425
 2585SOL    HW219392   3.880   1.212   3.026 -0.4245  1.9769 -0.9210
 2586SOL     OW19393   0.811   4.083   0.336 -0.0645 -0.1206  0.0572
 2586SOL    HW119394   0.775   4.046   0.256 -0.5429  0.5561 -0.0430
 2586SOL    HW219395   0.860   4.008   0.369 -0.8333 -1.2577 -1.4534
 2587SOL     OW19396   3.579   3.295   4.443  0.4014 -0.2091  0.1313
 2587SOL    HW119397   3.632   3.271   4.368 -0.5694  2.4562 -1.3923
 2587SOL    HW219398   3.620   3.243   4.512 -2.6542 -0.5725  1.7052
 2588SOL     OW19399   3.030   4.673   6.370 -0.1709  0.0736  0.1115
 2588SOL    HW119400   2.996   0.008   6.315  0.1553 -1.0530 -1.5474
 2588SOL    HW219401   3.021   4.596   6.314  1.2392 -0.9754  1.3110
 2589SOL     OW19402   1.251   4.506   4.657  0.3315  0.2447  0.0957
 2589SOL    HW119403   1.215   4.428   4.699 -1.5992  1.1480  0.1391
 2589SOL    HW219404   1.198   4.514   4.578 -1.2047 -0.1707  1.0821
 2590SOL     OW19405   2.727   3.709  10.901  0.2662 -0.7157  0.1485
 2590SOL    HW119406   2.762   3.741  10.984 -1.3226 -2.0143  1.2952
 2590SOL    HW219407   2.749   3.618  10.918  2.5256 -0.3923 -0.9145
 2591SOL     OW19408   0.078   2.977   8.279 -0.2656 -0.4889  0.3431
 2591SOL    HW119409   0.051   2.900   8.230  0.0502 -0.4346  0.0840
 2591SOL    HW219410   0.035   2.957   8.362  0.6953  0.6233  1.1101
 2592SOL     OW19411   3.357   3.493   9.902  0.0560  0.1387  0.3461
 2592SOL    HW119412   3.270   3.517   9.870 -0.5996 -1.3340  1.0336
 2592SOL    HW219413   3.391   3.582   9.911 -1.3020  0.7898 -1.1051
 2593SOL     OW19414   1.183   2.230   6.809  0.0389  0.1798  0.6874
 2593SOL    HW119415   1.174   2.302   6.872  1.2590  1.1151 -0.1973
 2593SOL    HW219416   1.096   2.192   6.818  0.3037 -1.2098 -2.6590
 2594SOL     OW19417   1.715   0.405   4.517  0.7916 -0.2580  0.1187
 2594SOL    HW119418   1.684   0.480   4.567  2.5316 -0.0108  0.8444
 2594SOL    HW219419   1.642   0.402   4.455  0.8898 -1.3848  0.0575
 2595SOL     OW19420   0.235   3.304   3.821 -0.2837 -0.3852 -0.2878
 2595SOL    HW119421   0.296   3.342   3.885 -1.2791 -0.1943  0.5597
 2595SOL    HW219422   0.225   3.216   3.856 -2.6604 -0.1648 -0.4632
 2596SOL     OW19423   3.349   3.144   0.038 -0.4952 -0.4834  0.0317
 2596SOL    HW119424   3.327   3.220  17.725  0.2911 -1.7798 -2.0763
 2596SOL    HW219425   3.282   3.161   0.104 -1.3239 -0.6402 -0.7693
 2597SOL     OW19426   3.545   1.839  14.040  0.6486 -0.4072 -0.2601
 2597SOL    HW119427   3.607   1.839  14.113  2.4235  1.7590 -1.7968
 2597SOL    HW219428   3.603   1.883  13.978  0.7344  1.7739  1.3845
 2598SOL     OW19429   2.397   3.495   6.397  0.3485 -0.0224 -0.2687
 2598SOL    HW119430   2.371   3.410   6.432  1.5158  0.5270  1.8954
 2598SOL    HW219431   2.317   3.515   6.348 -1.1431  0.3946  2.3273
 2599SOL     OW19432   2.548   0.929   5.066 -0.2122 -0.5358  0.0247
 2599SOL    HW119433   2.624   0.874   5.088 -0.7361 -1.8136 -1.4236
 2599SOL    HW219434   2.502   0.883   4.997 -1.8222  0.7790  0.2269
 2600SOL     OW19435   2.061   3.677   4.962  0.6884  0.1932 -0.7262
 2600SOL    HW119436   2.149   3.641   4.957  1.1519  1.3428 -0.7889
 2600SOL    HW219437   2.023   3.641   4.881 -1.2225 -1.6523  0.9879
 2601SOL     OW19438   3.598   0.405   5.401 -0.1691  0.2827  0.4848
 2601SOL    HW119439   3.530   0.347   5.367 -0.5807  0.3521  1.1998
 2601SOL    HW219440   3.542   0.449   5.465  0.9058  0.3502  1.3742
 2602SOL     OW19441   1.808   4.353   2.484 -0.1999 -0.3461 -0.1194
 2602SOL    HW119442   1.737   4.417   2.481 -0.0348 -0.0459  2.7378
 2602SOL    HW219443   1.770   4.278   2.437  1.0081  0.5039 -2.4612
 2603SOL     OW19444   1.719   1.982   3.315  0.4184 -0.0180 -0.0393
 2603SOL    HW119445   1.655   2.017   3.254  0.9565 -2.0140 -1.7205
 2603SOL    HW219446   1.794   2.039   3.299 -0.2383  0.7578 -0.3622
 2604SOL     OW19447   2.284   0.874   7.485 -0.4328 -0.1361  0.1306
 2604SOL    HW119448   2.228   0.936   7.438  0.7114  1.3229  0.6881
 2604SOL    HW219449   2.363   0.927   7.473 -1.8247  1.6957 -0.9623
 2605SOL     OW19450   0.769   0.367   6.232 -0.2950  0.2110  0.1155
 2605SOL    HW119451   0.695   0.336   6.179  0.7261 -1.7826 -0.1617
 2605SOL    HW219452   0.834   0.305   6.200 -0.7888  0.4977 -1.4367
 2606SOL     OW19453   1.082   0.402   0.049  0.7965 -0.0081  0.2164
 2606SOL    HW119454   1.038   0.344   0.111 -0.8613  1.7696  0.6969
 2606SOL    HW219455   1.084   0.484   0.098 -0.6215  0.0585  0.1629
 2607SOL     OW19456   0.895   4.398  17.186 -0.1646  0.0432 -0.4709
 2607SOL    HW119457   0.950   4.373  17.260 -0.0940  2.0352  0.1611
 2607SOL    HW219458   0.817   4.425  17.234 -0.5120  0.6902 -1.4060
 2608SOL     OW19459   3.669   4.555   6.495 -0.0364  0.5043  0.3888
 2608SOL    HW119460   3.675   4.586   6.405  0.7108 -0.7015  0.0322
 2608SOL    HW219461   3.574   4.546   6.509  0.1387  0.3610  1.5525
 2609SOL     OW19462   2.716   0.617  14.341  0.0556  0.3872 -0.8551
 2609SOL    HW119463   2.714   0.569  14.258  0.5847  1.5566 -1.5491
 2609SOL    HW219464   2.808   0.630  14.367 -0.6140  2.0776  0.6287
 2610SOL     OW19465   2.981   0.788   2.278 -0.0167  0.2499  0.1554
 2610SOL    HW119466   2.993   0.750   2.365  3.2032  0.4173 -0.1891
 2610SOL    HW219467   2.904   0.744   2.242 -0.5479  0.9646  0.4310
 2611SOL     OW19468   0.080   0.276   6.603 -0.5299  0.1177  0.2352
 2611SOL    HW119469   0.088   0.185   6.632  1.6725 -0.1047 -1.0302
 2611SOL    HW219470   0.113   0.313   6.685 -1.5890 -1.9932  1.6314
 2612SOL     OW19471   1.036   1.913   1.152  0.5876  0.4182  0.9266
 2612SOL    HW119472   1.042   1.916   1.057  0.1477  1.3272  0.9216
 2612SOL    HW219473   1.055   1.820   1.159  0.2311  0.2591 -0.3416
 2613SOL     OW19474   1.323   1.792   0.399 -0.1821 -0.1888 -0.6394
 2613SOL    HW119475   1.350   1.704   0.375  2.1158 -0.1402  1.7463
 2613SOL    HW219476   1.407   1.837   0.392  1.2295 -2.7038  0.2279
 2614SOL     OW19477   2.341   3.717  15.548 -0.4776  0.1882 -0.2771
 2614SOL    HW119478   2.353   3.769  15.628  0.3965 -0.0511 -0.2498
 2614SOL    HW219479   2.285   3.644  15.575  2.0041 -0.8859  1.9109
 2615SOL     OW19480   2.053   1.980   6.167  0.4155 -0.2214  0.8892
 2615SOL    HW119481   2.001   2.046   6.121  1.0904 -0.4832 -0.2500
 2615SOL    HW219482   2.118   2.037   6.208  0.3329  0.9590 -0.6009
 2616SOL     OW19483   2.035   2.414   5.448 -0.3000  0.2904 -0.1945
 2616SOL    HW119484   1.960   2.371   5.488 -0.7519  2.1429  0.9742
 2616SOL    HW219485   2.023   2.508   5.461  1.9903  0.5450  0.1106
 2617SOL     OW19486   1.710   3.363   6.310  0.0005 -0.3365 -0.4297
 2617SOL    HW119487   1.792   3.371   6.261  0.8292 -0.6579  0.8676
 2617SOL    HW219488   1.641   3.364   6.244  1.2573 -1.0080 -1.7448
 2618SOL     OW19489   3.924   3.137  17.400  0.1314 -0.2073  0.5793
 2618SOL    HW119490   3.839   3.125  17.442 -1.1184  0.3920 -1.8055
 2618SOL    HW219491   3.910   3.209  17.339  0.0623 -0.5324  0.2164
 2619SOL     OW19492   0.136   2.034  10.737  0.4653 -0.2294  0.3206
 2619SOL    HW119493   0.196   1.967  10.703 -0.5852 -0.8612 -0.3104
 2619SOL    HW219494   0.088   1.979  10.799 -0.5325 -1.1953 -1.2723
 2620SOL     OW19495   2.422   0.367   9.224  0.0418 -0.4496  0.3823
 2620SOL    HW119496   2.355   0.388   9.158  1.0428  0.8466 -0.2141
 2620SOL    HW219497   2.430   0.442   9.282  0.0137 -1.0965  1.2226
 2621SOL     OW19498   2.968   4.480   6.185  0.1971  0.6671 -0.3997
 2621SOL    HW119499   3.000   4.402   6.140  1.9639  0.7521  0.7387
 2621SOL    HW219500   2.874   4.472   6.165  0.0808  2.7375 -0.7186
 2622SOL     OW19501   0.008   1.307   2.517  0.4742  0.1317  0.4901
 2622SOL    HW119502   4.656   1.289   2.550  0.7037 -1.8962 -0.0044
 2622SOL    HW219503   0.011   1.246   2.443 -2.0216  0.4667  0.1147
 2623SOL     OW19504   1.379   2.375  17.181  0.2661 -0.0525 -0.4160
 2623SOL    HW119505   1.453   2.315  17.186  0.2758  0.2396  3.2761
 2623SOL    HW219506   1.311   2.313  17.158 -0.4302  0.4114  0.3633
 2624SOL     OW19507   2.587   1.379   6.622  0.3619 -0.0531 -0.1495
 2624SOL    HW119508   2.638   1.397   6.544 -1.7158  0.2737 -1.4135
 2624SOL    HW219509   2.533   1.304   6.596  1.0197 -0.3839 -0.5574
 2625SOL     OW19510   3.058   2.986   5.403 -0.4470  0.8044  0.5791
 2625SOL    HW119511   3.026   3.055   5.345  0.2346 -0.3429 -1.1664
 2625SOL    HW219512   2.980   2.947   5.442 -1.8084  0.1369 -2.7480
 2626SOL     OW19513   3.593   1.339   3.468  0.0101 -0.2759 -0.3993
 2626SOL    HW119514   3.582   1.405   3.399  1.2802 -0.9563 -1.2361
 2626SOL    HW219515   3.684   1.353   3.491 -0.2960  0.8704  0.1539
 2627SOL     OW19516   1.478   0.561   5.933  0.0691 -0.3046 -0.0989
 2627SOL    HW119517   1.405   0.499   5.934  1.0900 -1.5091  0.0969
 2627SOL    HW219518   1.539   0.527   5.999 -2.4200 -2.1997  1.2420
 2628SOL     OW19519   3.753   3.506   5.184 -0.6408 -0.1984  0.0719
 2628SOL    HW119520   3.758   3.554   5.266 -2.3130 -1.3512  0.8493
 2628SOL    HW219521   3.812   3.431   5.195 -0.0791  0.2850  0.3870
 2629SOL     OW19522   4.475   1.491   3.630  0.2018 -0.0758  0.7484
 2629SOL    HW119523   4.525   1.428   3.578 -1.3967 -0.0787 -0.7778
 2629SOL    HW219524   4.389   1.450   3.624  0.8872 -1.0614 -2.0582
 2630SOL     OW19525   4.687   3.874   6.486 -0.6807 -0.4084  0.0585
 2630SOL    HW119526   4.694   3.818   6.564 -1.6083 -0.1979  0.2851
 2630SOL    HW219527   0.045   3.886   6.466 -0.6844 -1.0992 -0.3580
 2631SOL     OW19528   4.535   2.558  17.336  0.6668 -0.3948 -0.2704
 2631SOL    HW119529   4.472   2.581  17.405 -0.4494  1.3592 -1.8734
 2631SOL    HW219530   4.600   2.525  17.398  0.6798 -1.6886 -0.9790
 2632SOL     OW19531   2.433   2.717   4.655  0.0098  0.3273 -0.4283
 2632SOL    HW119532   2.355   2.710   4.710 -0.3399  0.0967 -0.9493
 2632SOL    HW219533   2.449   2.624   4.638 -2.0602 -0.1821  0.3490
 2633SOL     OW19534   3.199   4.340   3.069  0.3421 -0.5926  0.0310
 2633SOL    HW119535   3.283   4.323   3.026  1.4248  0.9716  1.5232
 2633SOL    HW219536   3.219   4.310   3.158  0.5154 -1.6637 -0.3732
 2634SOL     OW19537   3.192   0.563   2.517  0.0000 -0.0001 -0.6304
 2634SOL    HW119538   3.127   0.629   2.542  0.1541  0.5353 -1.6319
 2634SOL    HW219539   3.240   0.538   2.595 -1.1900 -1.1220 -0.2523
 2635SOL     OW19540   0.789   0.931  13.821  0.4996 -0.4019 -0.3838
 2635SOL    HW119541   0.716   0.877  13.853 -1.0630  1.4197 -0.8503
 2635SOL    HW219542   0.830   0.859  13.772 -0.4036 -1.2853  0.1409
 2636SOL     OW19543   2.373   0.265   8.849  0.3551  0.3965 -0.4672
 2636SOL    HW119544   2.338   0.345   8.808 -3.5185 -1.1671 -0.2463
 2636SOL    HW219545   2.315   0.250   8.923 -0.5683 -0.9843 -1.4718
 2637SOL     OW19546   3.314   2.814  15.078  0.6999  0.8742 -0.2253
 2637SOL    HW119547   3.346   2.724  15.079  1.8338  1.2966  0.4586
 2637SOL    HW219548   3.300   2.836  14.986  1.9902  1.1277 -0.3538
 2638SOL     OW19549   1.876   2.700   3.147 -0.3010  0.5041  0.3821
 2638SOL    HW119550   1.781   2.700   3.145 -0.3492 -0.9447  2.0898
 2638SOL    HW219551   1.899   2.625   3.093  0.4984 -1.1253  2.9438
 2639SOL     OW19552   2.031   4.583   6.891  0.4195 -0.3110  0.2055
 2639SOL    HW119553   2.098   4.522   6.921  2.7551  1.5829 -1.1393
 2639SOL    HW219554   2.033   4.642   6.966  0.4022 -0.5614  0.4029
 2640SOL     OW19555   0.989   0.699   5.167 -0.3039  0.2586 -0.1050
 2640SOL    HW119556   0.901   0.698   5.130 -0.8769 -0.1535  1.2720
 2640SOL    HW219557   0.980   0.614   5.210 -1.8835  0.6608  0.3514
 2641SOL     OW19558   0.967   3.233   3.526 -0.2489 -0.0804 -0.0566
 2641SOL    HW119559   1.055   3.207   3.553 -0.1967  1.4916  1.2915
 2641SOL    HW219560   0.976   3.215   3.433 -3.5955  3.3527 -1.0669
 2642SOL     OW19561   2.646   0.852   1.986  0.6415  0.4028  0.8261
 2642SOL    HW119562   2.735   0.887   1.979  0.5501  0.6245  0.7673
 2642SOL    HW219563   2.645   0.807   2.071  0.1860 -0.0088  0.5967
 2643SOL     OW19564   2.878   3.860   8.245 -0.0846 -0.3232 -0.2215
 2643SOL    HW119565   2.808   3.804   8.212 -1.0191  0.2728  0.7974
 2643SOL    HW219566   2.871   3.838   8.338 -1.1879  0.7361 -0.0619
 2644SOL     OW19567   0.970   0.273  16.387  0.4423  0.5254 -0.3259
 2644SOL    HW119568   1.028   0.312  16.322  1.6165  2.8198  2.0799
 2644SOL    HW219569   0.882   0.275  16.349  0.0995  1.4780  0.5060
 2645SOL     OW19570   3.402   0.614  16.274 -0.1883 -0.2367 -0.4216
 2645SOL    HW119571   3.406   0.581  16.364  3.0935  2.1374  0.3283
 2645SOL    HW219572   3.425   0.707  16.279 -0.2409 -0.2399 -0.0893
 2646SOL     OW19573   3.413   1.638   3.490  0.1688  0.1004 -0.6036
 2646SOL    HW119574   3.456   1.720   3.516  1.6276 -1.0130  0.4853
 2646SOL    HW219575   3.474   1.569   3.516  0.7125  1.5636  1.9893
 2647SOL     OW19576   4.215   0.435  14.813  0.5472 -0.0149 -0.0917
 2647SOL    HW119577   4.289   0.497  14.814  0.2014  0.3875  0.4562
 2647SOL    HW219578   4.212   0.412  14.906  2.1984 -2.9833 -0.7656
 2648SOL     OW19579   2.176   3.523  15.622  0.5249  0.6942  0.0697
 2648SOL    HW119580   2.091   3.556  15.651  0.4532  1.8264 -1.4817
 2648SOL    HW219581   2.166   3.429  15.639  2.6406  0.3140 -0.7915
 2649SOL     OW19582   4.405   3.337   2.933 -0.3526  0.1570 -0.5228
 2649SOL    HW119583   4.408   3.388   3.014  1.1616 -0.7985  0.0357
 2649SOL    HW219584   4.401   3.412   2.874 -0.5863 -1.5216 -2.6295
 2650SOL     OW19585   4.137   3.224   7.886 -0.1793 -0.0820 -0.3320
 2650SOL    HW119586   4.152   3.157   7.819 -0.7044 -0.1957 -0.3392
 2650SOL    HW219587   4.103   3.298   7.836 -0.1439  0.2454  0.1334
 2651SOL     OW19588   3.603   2.274   4.955  0.4220 -0.7092  0.0389
 2651SOL    HW119589   3.657   2.353   4.959  1.5217 -1.4008 -1.4085
 2651SOL    HW219590   3.663   2.226   4.899 -1.9569 -0.8789 -2.3658
 2652SOL     OW19591   1.631   0.409   6.104  0.2169 -0.0549 -0.3378
 2652SOL    HW119592   1.637   0.499   6.136 -0.1237 -0.8369  1.8882
 2652SOL    HW219593   1.726   0.400   6.103  0.1323 -0.9971  0.9290
 2653SOL     OW19594   2.607   3.908   4.796 -0.1806  0.0984 -0.3794
 2653SOL    HW119595   2.674   3.964   4.758 -2.5620  1.6384 -2.2807
 2653SOL    HW219596   2.559   3.962   4.859  0.3926  0.7977 -0.5485
 2654SOL     OW19597   2.333   3.219   4.387  0.1072  0.4139  0.5082
 2654SOL    HW119598   2.328   3.311   4.363 -3.6043  0.6319  2.0851
 2654SOL    HW219599   2.426   3.202   4.401  0.2236  0.5112 -0.1389
 2655SOL     OW19600   4.268   0.795   9.550 -0.0599  0.1266  0.3480
 2655SOL    HW119601   4.217   0.821   9.473 -2.5380 -2.9925  0.9556
 2655SOL    HW219602   4.218   0.824   9.626 -1.6699  0.1343 -0.7303
 2656SOL     OW19603   0.736   3.175   8.230 -0.8230  0.1326 -0.4634
 2656SOL    HW119604   0.694   3.093   8.255  0.3879 -1.3813 -3.3585
 2656SOL    HW219605   0.772   3.201   8.315  1.8627 -0.1275 -1.5002
 2657SOL     OW19606   1.556   0.662   0.849 -0.7239 -0.3612 -0.0195
 2657SOL    HW119607   1.599   0.579   0.827 -0.1158 -0.1245  0.2850
 2657SOL    HW219608   1.556   0.641   0.942 -2.1849 -3.0838 -0.6283
 2658SOL     OW19609   2.241   4.125  16.372  0.0451  0.4160 -0.3865
 2658SOL    HW119610   2.289   4.206  16.391  0.4143 -0.5760  2.9845
 2658SOL    HW219611   2.176   4.151  16.307 -0.6094  0.7744  0.4126
 2659SOL     OW19612   2.810   3.562   4.300 -0.0497 -0.1425  0.4570
 2659SOL    HW119613   2.757   3.563   4.221 -0.7559  0.7324  0.9433
 2659SOL    HW219614   2.859   3.642   4.283  0.1739  0.0497  1.9688
 2660SOL     OW19615   2.542   4.008   8.282  0.2338  1.1671 -0.5550
 2660SOL    HW119616   2.597   3.959   8.343  0.3419 -0.7515 -2.2065
 2660SOL    HW219617   2.509   3.935   8.229  2.3200 -0.1215 -0.0565
 2661SOL     OW19618   1.846   2.427   7.708  0.2340 -0.4196  0.1617
 2661SOL    HW119619   1.804   2.405   7.625  2.1661  0.6416 -1.1181
 2661SOL    HW219620   1.783   2.389   7.768 -1.0155  3.1395  1.0477
 2662SOL     OW19621   2.697   1.166   8.443  0.2674  0.2159 -0.0017
 2662SOL    HW119622   2.664   1.165   8.353  0.4825 -2.6592 -0.0527
 2662SOL    HW219623   2.672   1.255   8.464  2.6126  0.4370  1.8614
 2663SOL     OW19624   0.253   3.142  13.240  0.1601 -0.0705 -0.3867
 2663SOL    HW119625   0.216   3.115  13.324 -0.0270 -0.1863 -0.5048
 2663SOL    HW219626   0.320   3.203  13.270 -0.0619  0.2194 -0.4752
 2664SOL     OW19627   2.698   2.962   7.892 -0.1003 -0.2186 -0.4325
 2664SOL    HW119628   2.610   2.984   7.922 -0.7464 -0.4542 -2.1436
 2664SOL    HW219629   2.679   2.901   7.821 -1.8462 -0.0513 -0.0926
 2665SOL     OW19630   3.708   2.984   1.984  0.0525  0.0796  0.0222
 2665SOL    HW119631   3.725   2.894   1.955  1.2930  0.5949 -0.8185
 2665SOL    HW219632   3.785   3.027   1.947 -1.1020  0.4296 -1.9877
 2666SOL     OW19633   4.549   2.230   6.213  0.3662 -0.0972 -0.1707
 2666SOL    HW119634   4.619   2.296   6.213  1.7739 -1.6015 -0.2789
 2666SOL    HW219635   4.531   2.219   6.307 -0.0443 -1.0993 -0.3708
 2667SOL     OW19636   3.694   1.457   1.124 -0.3841 -0.5219  0.5689
 2667SOL    HW119637   3.756   1.516   1.080 -0.6519  0.5211  1.5722
 2667SOL    HW219638   3.618   1.469   1.067 -1.1212 -1.2383  1.4123
 2668SOL     OW19639   2.289   0.750  17.308  0.2080 -0.1371  0.0161
 2668SOL    HW119640   2.378   0.780  17.290  0.0310 -0.1001 -0.7889
 2668SOL    HW219641   2.262   0.704  17.228 -0.3574  1.5893 -0.7963
 2669SOL     OW19642   0.110   1.909   6.312  0.0346 -0.3793  0.3118
 2669SOL    HW119643   0.135   1.826   6.272 -0.1086  1.0590 -2.8131
 2669SOL    HW219644   0.147   1.983   6.264 -2.2591  0.7561  0.2463
 2670SOL     OW19645   0.245   2.102  16.429 -0.3379 -0.6335 -0.2408
 2670SOL    HW119646   0.189   2.175  16.404 -1.1738 -1.7403 -1.6001
 2670SOL    HW219647   0.320   2.149  16.465 -0.4581  0.4006 -1.3718
 2671SOL     OW19648   1.584   1.542   8.502 -0.9492  0.2321 -0.1521
 2671SOL    HW119649   1.553   1.509   8.418 -0.0186 -0.8038 -0.0888
 2671SOL    HW219650   1.674   1.512   8.501 -1.7891 -2.3289  0.5520
 2672SOL     OW19651   4.366   3.535   5.153  0.1611 -0.1332 -0.2082
 2672SOL    HW119652   4.456   3.509   5.170 -0.5259 -3.8071 -2.2048
 2672SOL    HW219653   4.374   3.607   5.091  0.7942  1.1211  1.3329
 2673SOL     OW19654   1.098   0.810  16.552  0.3321  0.4096  0.6354
 2673SOL    HW119655   1.058   0.729  16.520  1.2745 -1.0515  3.1660
 2673SOL    HW219656   1.156   0.817  16.476  1.4013 -0.6718  1.3391
 2674SOL     OW19657   1.052   2.625   5.780 -0.4378  0.1491  0.0358
 2674SOL    HW119658   1.017   2.551   5.730 -0.9045  0.1919  0.3101
 2674SOL    HW219659   1.065   2.586   5.866  0.5508 -2.1199 -1.1390
 2675SOL     OW19660   0.157   2.544   8.563  0.4636 -0.3997  0.7163
 2675SOL    HW119661   0.097   2.580   8.628  0.4722 -0.1583  0.5887
 2675SOL    HW219662   0.191   2.460   8.593 -2.8479 -1.3219  1.8443
 2676SOL     OW19663   4.291   2.041   2.264  0.5785 -0.2845  0.0753
 2676SOL    HW119664   4.344   2.116   2.237 -0.7217  0.7064  0.2566
 2676SOL    HW219665   4.354   1.969   2.263 -1.2500 -1.8665 -2.4608
 2677SOL     OW19666   3.748   3.418  17.346  0.1325 -0.1634  0.0320
 2677SOL    HW119667   3.741   3.379  17.259 -0.0269  2.1997 -1.0150
 2677SOL    HW219668   3.750   3.511  17.326 -2.2903 -0.2848 -0.7818
 2678SOL     OW19669   0.996   0.386   4.919  0.4664  0.2545 -0.2080
 2678SOL    HW119670   1.065   0.426   4.866  1.5598  1.9104  2.4649
 2678SOL    HW219671   0.951   0.340   4.848  2.4941 -1.0109 -0.6920
 2679SOL     OW19672   0.164   0.768  16.088  0.1454 -0.2405 -0.2431
 2679SOL    HW119673   0.078   0.789  16.050  0.1956 -0.3524 -0.4221
 2679SOL    HW219674   0.183   0.847  16.137 -2.6570 -0.9740  2.0233
 2680SOL     OW19675   4.064   4.458   8.283 -0.1145 -0.3056 -0.0759
 2680SOL    HW119676   4.066   4.551   8.306  3.6014 -0.2544 -0.6409
 2680SOL    HW219677   4.124   4.429   8.352  0.1426  1.4926  0.4466
 2681SOL     OW19678   4.094   1.903   0.449  0.2297  0.4668  0.0850
 2681SOL    HW119679   4.176   1.928   0.407  0.7437  0.9897  1.3959
 2681SOL    HW219680   4.037   1.971   0.413  1.4102  1.5368  0.2299
 2682SOL     OW19681   4.066   3.476   2.519 -0.4020 -0.2651  0.5115
 2682SOL    HW119682   3.999   3.412   2.541 -0.1260 -0.5452  0.5469
 2682SOL    HW219683   4.139   3.443   2.572 -0.4039 -0.7757  0.1984
 2683SOL     OW19684   3.723   1.869   0.957 -0.0868  0.3774  0.3440
 2683SOL    HW119685   3.631   1.842   0.946  0.2581 -0.6469 -0.0522
 2683SOL    HW219686   3.754   1.791   1.003 -0.1166  0.0486 -0.1938
 2684SOL     OW19687   4.220   0.727   9.959  0.0426  0.3826 -0.5998
 2684SOL    HW119688   4.191   0.705  10.047  1.0703  3.3572  0.4528
 2684SOL    HW219689   4.304   0.681   9.952 -0.0152 -0.0954  1.8062
 2685SOL     OW19690   2.443   2.608   1.289  0.2766  0.2187 -0.3687
 2685SOL    HW119691   2.367   2.550   1.297  0.4751 -0.0410 -0.3806
 2685SOL    HW219692   2.402   2.692   1.312  3.1145  1.4285  0.1896
 2686SOL     OW19693   1.319   2.369   2.357 -0.4253  0.2798 -0.4986
 2686SOL    HW119694   1.276   2.384   2.441  2.0653  0.1336  0.8073
 2686SOL    HW219695   1.279   2.282   2.345  1.1996 -0.5341 -0.0418
 2687SOL     OW19696   4.407   3.986   8.852 -0.0892 -0.6759 -0.7097
 2687SOL    HW119697   4.390   3.991   8.758  2.1940  0.3999 -1.0671
 2687SOL    HW219698   4.432   4.077   8.866 -0.4330 -0.8165  0.8017
 2688SOL     OW19699   0.016   4.091   6.141 -0.4995 -0.0861 -0.3722
 2688SOL    HW119700   0.013   4.113   6.047  0.4286  0.1239 -0.3498
 2688SOL    HW219701   0.053   4.166   6.187  0.2826  0.2657 -1.5839
 2689SOL     OW19702   4.089   4.640   2.520 -0.5392 -0.2091  0.1790
 2689SOL    HW119703   4.163   4.604   2.471 -0.6633  0.1965 -0.3071
 2689SOL    HW219704   4.041   4.566   2.557 -1.3157  0.9150  1.4105
 2690SOL     OW19705   3.835   4.301   5.870  0.4622  0.1810 -0.2106
 2690SOL    HW119706   3.905   4.334   5.927  0.0928 -1.2403  1.0689
 2690SOL    HW219707   3.866   4.232   5.812 -2.0122 -1.0258 -0.0775
 2691SOL     OW19708   1.593   3.012  17.153  0.2806 -0.0530 -0.2810
 2691SOL    HW119709   1.541   2.957  17.211 -0.8691  0.7430 -0.5548
 2691SOL    HW219710   1.554   3.096  17.179 -1.3114 -1.9291  3.4402
 2692SOL     OW19711   3.076   3.264   9.610  0.5607  0.5510 -0.4131
 2692SOL    HW119712   3.034   3.265   9.524 -1.3977 -0.1795  0.5366
 2692SOL    HW219713   3.087   3.358   9.621 -0.3936  1.1240 -4.3396
 2693SOL     OW19714   4.461   0.008   2.105 -0.0034 -0.2406 -0.2920
 2693SOL    HW119715   4.473   4.722   2.198 -0.3665 -2.3226 -0.7297
 2693SOL    HW219716   4.373   0.045   2.100 -0.2971 -0.4912  2.7040
 2694SOL     OW19717   2.941   0.178   2.249  0.4904  0.0045 -0.7510
 2694SOL    HW119718   2.953   0.221   2.334  1.6388  0.5762 -1.1995
 2694SOL    HW219719   2.954   0.255   2.193 -2.0183  0.6085 -0.5093
 2695SOL     OW19720   0.275   3.000   4.994 -0.3819  0.1099  0.7831
 2695SOL    HW119721   0.191   3.015   4.951  0.0375  0.6059  0.1419
 2695SOL    HW219722   0.255   2.921   5.045 -0.0648 -0.0196  0.7083
 2696SOL     OW19723   0.588   4.715  10.792 -0.0393  0.5603 -0.2219
 2696SOL    HW119724   0.653   4.684  10.856  1.6910 -0.9288 -2.7102
 2696SOL    HW219725   0.594   0.074  10.807 -0.5368  0.3958  1.0057
 2697SOL     OW19726   2.544   1.211   5.460 -0.5053 -0.6357  0.1622
 2697SOL    HW119727   2.525   1.165   5.379 -0.3019 -2.7932  1.3463
 2697SOL    HW219728   2.524   1.138   5.519  2.7603  0.0838  2.1437
 2698SOL     OW19729   4.693   3.676   8.563  0.4143  0.5858 -0.3993
 2698SOL    HW119730   4.649   3.593   8.548  0.4020  0.4632  0.3102
 2698SOL    HW219731   4.687   3.705   8.472 -0.7270 -1.4818 -0.9847
 2699SOL     OW19732   2.470   4.116   1.820 -1.0380 -0.0263 -0.2878
 2699SOL    HW119733   2.527   4.040   1.833  0.9706  1.7030  1.0195
 2699SOL    HW219734   2.527   4.189   1.845 -0.2990 -0.7047  0.0606
 2700SOL     OW19735   2.093   1.692   6.167 -0.1911  0.0324  0.3636
 2700SOL    HW119736   2.069   1.785   6.175 -0.1175  0.2269 -1.8369
 2700SOL    HW219737   2.007   1.659   6.141  0.3053 -0.4674 -0.6202
 2701SOL     OW19738   2.070   0.065   3.198 -0.5343 -0.6107 -0.1516
 2701SOL    HW119739   2.017   0.052   3.119 -0.1891 -0.7428 -0.3596
 2701SOL    HW219740   2.007   0.116   3.248 -0.9810 -2.1877  0.8814
 2702SOL     OW19741   2.228   0.454   9.041  0.4206  0.2958  0.3893
 2702SOL    HW119742   2.210   0.547   9.031 -1.3055  0.1538  2.2311
 2702SOL    HW219743   2.143   0.416   9.058  0.9837 -1.4843 -0.7854
 2703SOL     OW19744   2.108   1.697   3.890  0.0086  0.2132  0.3743
 2703SOL    HW119745   2.035   1.667   3.836 -0.7771  0.3291  1.3742
 2703SOL    HW219746   2.178   1.635   3.872 -0.7827 -0.7177  0.5041
 2704SOL     OW19747   4.143   2.255  14.168  0.1286  0.4082  0.0318
 2704SOL    HW119748   4.236   2.263  14.145 -0.4450  0.0322 -2.3918
 2704SOL    HW219749   4.147   2.179  14.225 -2.7082  0.0423 -0.2660
 2705SOL     OW19750   4.567   0.318   4.447  0.1011 -0.1727 -0.0515
 2705SOL    HW119751   4.531   0.365   4.372 -3.1786  0.7526  2.0829
 2705SOL    HW219752   4.489   0.321   4.503 -0.8120 -3.0004 -1.1735
 2706SOL     OW19753   2.016   3.453   6.946  0.1145  0.3247 -0.6397
 2706SOL    HW119754   1.970   3.398   6.882  1.2129 -1.3595  0.0178
 2706SOL    HW219755   2.101   3.465   6.904  1.2024  1.0286  1.8140
 2707SOL     OW19756   3.419   3.882   6.688 -0.2971  0.2660 -0.1632
 2707SOL    HW119757   3.444   3.842   6.771 -0.4477  0.1432 -0.1780
 2707SOL    HW219758   3.468   3.965   6.686 -0.4851  0.3914  0.3998
 2708SOL     OW19759   4.150   1.181   4.520  0.1047 -0.6181  0.3675
 2708SOL    HW119760   4.169   1.117   4.589 -0.1338 -1.2999 -0.2096
 2708SOL    HW219761   4.154   1.131   4.439  0.8604 -1.0977  0.7002
 2709SOL     OW19762   1.390   2.062   6.339 -0.0977  0.3368 -0.7716
 2709SOL    HW119763   1.338   2.121   6.284 -0.1023  1.4156  0.3905
 2709SOL    HW219764   1.388   2.105   6.424  1.9779 -1.6975  0.3158
 2710SOL     OW19765   1.443   4.566   6.548  0.2985 -0.5201 -0.5392
 2710SOL    HW119766   1.400   4.651   6.552  1.8481  0.2408 -0.1853
 2710SOL    HW219767   1.524   4.591   6.503  0.2118 -1.6360 -1.3160
 2711SOL     OW19768   2.684   0.995  10.594 -0.1195  0.2270 -0.0168
 2711SOL    HW119769   2.618   0.949  10.542  1.3380 -1.7220 -0.0962
 2711SOL    HW219770   2.727   0.921  10.636  1.1171  1.7236  1.3666
 2712SOL     OW19771   3.067   3.583   9.610 -0.3043  0.3688 -0.2511
 2712SOL    HW119772   3.018   3.653   9.567 -1.7822  0.8842  2.2301
 2712SOL    HW219773   3.056   3.526   9.534  0.9189 -0.4642  0.1926
 2713SOL     OW19774   1.621   1.268   4.693  0.0710  0.0311  0.1927
 2713SOL    HW119775   1.610   1.359   4.666  1.5932  0.6662  1.7206
 2713SOL    HW219776   1.672   1.282   4.773  1.1035 -0.0493 -0.4412
 2714SOL     OW19777   3.821   3.222   7.604 -0.3098 -0.1276 -0.3871
 2714SOL    HW119778   3.787   3.250   7.689  1.3710 -1.6920  0.8009
 2714SOL    HW219779   3.847   3.132   7.622  0.5188  0.1184 -0.3317
 2715SOL     OW19780   0.421   1.335   3.243 -0.3002  0.3821 -0.1335
 2715SOL    HW119781   0.487   1.372   3.302 -0.9880  3.3705 -1.2520
 2715SOL    HW219782   0.361   1.306   3.312  0.9175 -0.9820  0.3382
 2716SOL     OW19783   0.022   2.239   1.687 -0.0503 -0.3695 -0.0187
 2716SOL    HW119784   4.699   2.277   1.621  0.0069  0.8717  0.6373
 2716SOL    HW219785   0.094   2.220   1.628  0.7966 -1.0715  1.2570
 2717SOL     OW19786   3.353   2.317   3.151  0.1499  0.6792 -0.4669
 2717SOL    HW119787   3.269   2.346   3.185 -0.7207 -3.7793  1.1431
 2717SOL    HW219788   3.356   2.223   3.165 -0.5736  0.5832 -0.9881
 2718SOL     OW19789   0.233   0.785   2.573 -0.0944  0.0988  0.3094
 2718SOL    HW119790   0.138   0.790   2.587 -0.4972 -2.0829 -1.5570
 2718SOL    HW219791   0.240   0.860   2.514  2.1055 -0.9155 -0.6934
 2719SOL     OW19792   1.535   2.269   2.208  0.3699  0.5003  0.1408
 2719SOL    HW119793   1.480   2.327   2.260 -0.1658  0.4982 -0.4331
 2719SOL    HW219794   1.474   2.237   2.142 -1.0184  0.7613  1.2916
 2720SOL     OW19795   4.277   4.488   6.210  0.3782  0.2971 -0.2191
 2720SOL    HW119796   4.277   4.451   6.299  0.1430 -0.6507 -0.6100
 2720SOL    HW219797   4.300   4.577   6.236 -1.8253  1.0420 -0.9051
 2721SOL     OW19798   2.971   1.013   8.058  0.0176  0.2659  0.6618
 2721SOL    HW119799   3.019   0.976   8.132 -0.6844 -2.2315 -0.1515
 2721SOL    HW219800   2.880   0.986   8.068  0.9359 -2.7872  0.5571
 2722SOL     OW19801   0.436   2.575   6.772 -0.0432 -0.2749 -0.2535
 2722SOL    HW119802   0.527   2.577   6.801 -0.6402 -1.6903  1.7161
 2722SOL    HW219803   0.452   2.537   6.685 -0.3209  1.1338 -0.9162
 2723SOL     OW19804   1.233   3.635   6.666 -0.4886 -0.1761  0.3364
 2723SOL    HW119805   1.160   3.573   6.671 -1.0531  0.3537 -1.2821
 2723SOL    HW219806   1.196   3.717   6.632  0.7596  1.3753  2.6857
 2724SOL     OW19807   0.392   0.001   3.583  0.5370  0.8142  0.7494
 2724SOL    HW119808   0.308   0.010   3.628 -0.6124 -2.0478 -0.8036
 2724SOL    HW219809   0.365   4.664   3.526 -0.6753  0.7731  1.3746
 2725SOL     OW19810   1.866   4.340   2.780 -0.4647 -0.2759 -0.4725
 2725SOL    HW119811   1.850   4.350   2.686 -2.3763  2.8715  0.1789
 2725SOL    HW219812   1.823   4.419   2.814  0.8938 -0.5351  1.8729
 2726SOL     OW19813   2.504   0.792  12.695 -1.0326 -0.6093 -0.5617
 2726SOL    HW119814   2.502   0.885  12.719  0.7516 -0.6194 -0.3305
 2726SOL    HW219815   2.594   0.800  12.664 -1.1067 -0.0761 -0.6411
 2727SOL     OW19816   0.769   4.197   8.823 -0.1540  0.1513 -0.3438
 2727SOL    HW119817   0.825   4.194   8.901 -0.6555 -0.4171 -0.0104
 2727SOL    HW219818   0.717   4.118   8.836  1.1132 -0.4966  0.7649
 2728SOL     OW19819   1.515   4.522   4.698 -0.4514 -0.1964  0.8727
 2728SOL    HW119820   1.421   4.525   4.684 -0.5492  1.0516  1.8303
 2728SOL    HW219821   1.528   4.547   4.790  0.8005  4.1808 -0.4696
 2729SOL     OW19822   2.019   1.612  16.635 -0.0733 -0.1981  0.0172
 2729SOL    HW119823   2.007   1.517  16.635  2.2093 -0.4852 -0.1235
 2729SOL    HW219824   2.113   1.614  16.654 -0.0197  0.6324 -0.3502
 2730SOL     OW19825   1.748   1.310  13.499 -0.8439  0.4916  0.3075
 2730SOL    HW119826   1.809   1.252  13.543 -1.0110 -0.3549 -0.5634
 2730SOL    HW219827   1.755   1.284  13.407  0.8646 -0.6353  0.7582
 2731SOL     OW19828   3.768   4.708   1.638  0.3872 -0.5367  0.4726
 2731SOL    HW119829   3.835   4.720   1.570  0.0204 -1.3654 -0.0402
 2731SOL    HW219830   3.703   0.040   1.620  0.6584 -0.2691  0.4992
 2732SOL     OW19831   2.535   3.193   6.089 -0.3309 -0.0736 -0.4573
 2732SOL    HW119832   2.536   3.156   6.000 -0.2370 -1.1971  0.0212
 2732SOL    HW219833   2.482   3.126   6.132 -1.2614 -0.3917 -2.0720
 2733SOL     OW19834   3.384   1.369   9.234  0.1246  0.5160 -0.7673
 2733SOL    HW119835   3.403   1.326   9.317 -0.7719  0.9252 -0.3517
 2733SOL    HW219836   3.373   1.462   9.255 -1.2772  0.0071  0.7281
 2734SOL     OW19837   0.531   3.339  14.668 -0.3927  0.4385  0.2575
 2734SOL    HW119838   0.587   3.349  14.591  0.5487 -0.5448  0.8231
 2734SOL    HW219839   0.446   3.315  14.633 -0.1197  0.5242 -0.4661
 2735SOL     OW19840   2.073   0.900   9.131 -0.4890  0.3242  0.1091
 2735SOL    HW119841   2.095   0.842   9.204  0.3992  0.0428 -0.3809
 2735SOL    HW219842   2.139   0.871   9.068  0.9751  0.3015  1.6598
 2736SOL     OW19843   3.148   2.126  13.364 -0.3661 -0.1165 -0.3589
 2736SOL    HW119844   3.215   2.128  13.297  1.8949 -0.0799  1.9088
 2736SOL    HW219845   3.071   2.091  13.319 -1.5401 -0.4044  1.8287
 2737SOL     OW19846   2.291   4.532   7.497  0.3652  0.2836  0.3708
 2737SOL    HW119847   2.272   4.459   7.556  0.5338  1.2510  1.6326
 2737SOL    HW219848   2.345   4.494   7.428  0.4819  0.2013  0.5073
 2738SOL     OW19849   3.126   0.004  16.713  0.4865  0.2308  0.3388
 2738SOL    HW119850   3.193   4.684  16.753  0.8958  0.1401 -0.4627
 2738SOL    HW219851   3.069   0.019  16.788 -0.2120 -0.5742 -0.0255
 2739SOL     OW19852   1.902   4.479  14.259  0.3365  0.5886 -0.1814
 2739SOL    HW119853   1.877   4.528  14.181 -0.4258  0.4846 -0.0060
 2739SOL    HW219854   1.982   4.517  14.294 -0.6043  2.4311 -0.0395
 2740SOL     OW19855   2.647   2.105  17.098 -0.4871 -0.2614 -0.3048
 2740SOL    HW119856   2.620   2.041  17.032 -2.0438  0.3474 -0.2750
 2740SOL    HW219857   2.730   2.070  17.130 -1.2794 -1.9891 -0.1328
 2741SOL     OW19858   2.112   3.644  14.854  0.0850  0.5645 -0.5568
 2741SOL    HW119859   2.181   3.612  14.912  1.2987 -0.1909 -2.4126
 2741SOL    HW219860   2.154   3.626  14.770  0.5065 -2.9176  0.4091
 2742SOL     OW19861   3.383   3.766   3.091 -0.4515  0.3548  0.7537
 2742SOL    HW119862   3.338   3.847   3.118  0.4184  1.7202 -1.9200
 2742SOL    HW219863   3.357   3.776   2.999  2.9579  0.1264 -0.2356
 2743SOL     OW19864   3.075   1.687  14.952 -0.5293  0.0802  0.2442
 2743SOL    HW119865   2.996   1.734  14.925  1.0229  2.6755  0.2591
 2743SOL    HW219866   3.037   1.600  14.942  0.6182 -0.4070  0.1082
 2744SOL     OW19867   0.857   2.885  16.220  0.2422  0.7193 -0.1254
 2744SOL    HW119868   0.840   2.893  16.314 -0.7166  1.6114 -0.3796
 2744SOL    HW219869   0.829   2.971  16.190  2.5151  1.1774 -0.9766
 2745SOL     OW19870   2.311   4.662  17.303 -0.6434  0.9882  0.1827
 2745SOL    HW119871   2.392   4.676  17.352 -0.3366 -0.2104  0.0135
 2745SOL    HW219872   2.247   4.690  17.369  2.5584  2.9136  2.4449
 2746SOL     OW19873   1.559   3.582  16.186  0.7675  0.5936  0.3134
 2746SOL    HW119874   1.503   3.517  16.145  0.1850  2.7879 -2.3122
 2746SOL    HW219875   1.644   3.539  16.182 -0.4048 -1.6085 -0.6898
 2747SOL     OW19876   0.508   3.657   3.881 -0.2399 -0.0908  0.3792
 2747SOL    HW119877   0.594   3.633   3.846  0.1811  1.3466  0.4386
 2747SOL    HW219878   0.475   3.697   3.801  1.2775 -1.3179 -0.8653
 2748SOL     OW19879   0.302   3.698   3.680 -0.4566  0.2456 -0.3500
 2748SOL    HW119880   0.232   3.763   3.673 -1.3330 -0.6205  0.2940
 2748SOL    HW219881   0.278   3.667   3.593 -1.6920 -1.1584  0.4822
 2749SOL     OW19882   1.522   3.017  14.935  0.2184 -0.4442 -0.4417
 2749SOL    HW119883   1.490   2.975  14.855 -3.5414  0.5292  0.5532
 2749SOL    HW219884   1.537   3.106  14.906 -1.1164 -0.3862 -0.9504
 2750SOL     OW19885   4.020   4.200   8.972  0.8918  0.2431 -0.3208
 2750SOL    HW119886   4.076   4.143   9.025 -0.9395 -1.7110 -0.4956
 2750SOL    HW219887   3.984   4.133   8.915  1.6324  1.6293 -2.4024
 2751SOL     OW19888   4.203   0.002   8.714 -0.3041  0.4831  0.1282
 2751SOL    HW119889   4.179   4.667   8.654  2.7206 -1.2816  1.0124
 2751SOL    HW219890   4.151   0.076   8.681 -0.9505  0.1068  0.3129
 2752SOL     OW19891   1.276   4.537   1.614 -0.2548  0.3428  0.4354
 2752SOL    HW119892   1.357   4.571   1.577 -0.2451 -0.3927 -0.2112
 2752SOL    HW219893   1.217   4.562   1.543 -1.6704  1.3964  1.9799
 2753SOL     OW19894   1.246   2.255   4.411  0.3778 -0.5882 -0.1015
 2753SOL    HW119895   1.230   2.172   4.454  1.4241  0.6272  2.6095
 2753SOL    HW219896   1.167   2.246   4.358 -0.8000 -2.5565  2.0246
 2754SOL     OW19897   4.639   1.901   5.591  0.1759  0.6032 -0.4154
 2754SOL    HW119898   4.733   1.906   5.576  0.2260  2.1477  0.4508
 2754SOL    HW219899   4.619   1.994   5.580 -1.0374  0.1578 -2.1638
 2755SOL     OW19900   4.514   0.217  16.463 -0.1796  0.5236 -0.5565
 2755SOL    HW119901   4.425   0.210  16.431 -0.6256  1.5492  0.4739
 2755SOL    HW219902   4.529   0.306  16.432  2.8711  0.1356 -0.2529
 2756SOL     OW19903   0.098   4.493   4.262 -0.2644 -0.0426 -0.0896
 2756SOL    HW119904   0.025   4.539   4.221 -1.4763 -1.1551  0.8008
 2756SOL    HW219905   0.161   4.565   4.267 -1.7133  1.2239 -0.3873
 2757SOL     OW19906   3.393   1.905   7.930 -0.0954  0.0518  0.2629
 2757SOL    HW119907   3.479   1.944   7.921  0.3855 -1.1126 -0.2650
 2757SOL    HW219908   3.408   1.857   8.011 -0.5853  2.2053  1.6287
 2758SOL     OW19909   4.290   1.148  11.402  0.0602 -0.3428  0.0856
 2758SOL    HW119910   4.300   1.219  11.465  1.8298 -0.9029  0.4293
 2758SOL    HW219911   4.258   1.082  11.463  1.7865 -0.5831  0.7353
 2759SOL     OW19912   2.071   2.550   7.682 -0.8112  0.5757 -0.7855
 2759SOL    HW119913   2.132   2.478   7.664 -1.9252 -0.4461 -0.4145
 2759SOL    HW219914   1.988   2.505   7.698  0.0450 -0.0538  2.0407
 2760SOL     OW19915   1.949   0.487  13.948 -0.0089 -0.2449  0.6839
 2760SOL    HW119916   1.944   0.514  14.040 -2.7787  1.3029  0.0690
 2760SOL    HW219917   1.997   0.560  13.909 -0.8801 -0.0193  0.0166
 2761SOL     OW19918   2.777   2.083   6.025 -0.3198 -0.0124  0.2665
 2761SOL    HW119919   2.809   2.144   5.958  0.4743  1.9965  2.4961
 2761SOL    HW219920   2.761   2.011   5.963  3.5346 -1.7741  1.3103
 2762SOL     OW19921   3.951   3.983  15.616  0.2823 -0.7153 -0.0289
 2762SOL    HW119922   3.964   4.027  15.700  1.1387 -1.8358  0.4210
 2762SOL    HW219923   4.038   3.995  15.578  0.2215 -0.9608 -0.2408
 2763SOL     OW19924   3.727   2.320   8.030 -0.1838 -0.2208  0.2818
 2763SOL    HW119925   3.677   2.364   7.961  2.1152 -0.9602 -1.8486
 2763SOL    HW219926   3.818   2.309   8.004 -0.5585 -0.2636 -0.9966
 2764SOL     OW19927   3.726   1.907   0.361  0.0585  0.0115 -0.1430
 2764SOL    HW119928   3.759   1.877   0.446 -3.5126  1.0282  1.6085
 2764SOL    HW219929   3.714   2.002   0.370 -0.3404  0.1191 -1.8969
 2765SOL     OW19930   1.779   2.798   0.344  0.3015  0.1214  0.4249
 2765SOL    HW119931   1.769   2.796   0.249 -1.2377 -2.1777  0.6315
 2765SOL    HW219932   1.771   2.704   0.361 -0.4786 -0.4327 -3.1793
 2766SOL     OW19933   1.783   0.564   8.537  0.4685  0.2483 -0.2606
 2766SOL    HW119934   1.773   0.514   8.457  0.8087 -0.7181  0.3022
 2766SOL    HW219935   1.702   0.557   8.588  0.1351 -2.8339 -1.2265
 2767SOL     OW19936   0.926   3.692   1.818  0.1153 -0.3907 -0.0741
 2767SOL    HW119937   0.882   3.677   1.902 -2.7398 -0.6908 -1.6114
 2767SOL    HW219938   0.934   3.788   1.821 -2.6208 -0.1275 -1.0206
 2768SOL     OW19939   2.668   1.042   6.310  0.1066 -0.1799 -0.2083
 2768SOL    HW119940   2.603   0.975   6.329 -0.2932 -0.2253 -1.7727
 2768SOL    HW219941   2.657   1.057   6.217 -1.6806 -1.3886 -0.1737
 2769SOL     OW19942   4.457   3.298   0.509  0.3369 -0.0093 -0.3686
 2769SOL    HW119943   4.446   3.269   0.418 -0.0252 -0.3148 -0.2264
 2769SOL    HW219944   4.413   3.222   0.547 -2.7951  0.5102 -2.8839
 2770SOL     OW19945   1.056   1.090   5.066 -0.3170 -0.4317 -0.1255
 2770SOL    HW119946   1.120   1.074   5.135 -0.4582 -0.3595  0.0211
 2770SOL    HW219947   1.113   1.057   4.996 -0.2925  0.0294 -0.3258
 2771SOL     OW19948   3.552   4.326   3.703  0.3065  0.1885  0.0470
 2771SOL    HW119949   3.593   4.383   3.767 -2.1751  1.2295  0.6945
 2771SOL    HW219950   3.607   4.341   3.625  0.2137  0.6403  0.0672
 2772SOL     OW19951   4.063   0.448  15.226 -0.5181 -0.2633 -0.8691
 2772SOL    HW119952   4.087   0.532  15.264 -0.2024 -1.2978  1.2255
 2772SOL    HW219953   4.137   0.434  15.166  1.7596  0.5142  1.7975
 2773SOL     OW19954   0.871   0.846   3.480  0.1534  0.3024 -0.1551
 2773SOL    HW119955   0.801   0.817   3.538 -0.1370  2.0055  0.3464
 2773SOL    HW219956   0.866   0.942   3.485  0.7848  0.2622  1.2725
 2774SOL     OW19957   1.216   2.692   1.934 -0.0740 -0.0730  0.4437
 2774SOL    HW119958   1.230   2.607   1.893 -0.1610 -0.6972  1.6998
 2774SOL    HW219959   1.144   2.730   1.885 -0.8161  0.1090  1.6861
 2775SOL     OW19960   2.826   3.599  17.396 -0.2605  0.2803  0.2551
 2775SOL    HW119961   2.805   3.632  17.308  0.5034 -0.6647 -0.2876
 2775SOL    HW219962   2.807   3.680  17.442 -0.4908  0.8515 -0.8346
 2776SOL     OW19963   1.876   0.209   6.479  0.3425  0.5401 -0.6452
 2776SOL    HW119964   1.804   0.272   6.470 -2.2272 -2.1905  0.7019
 2776SOL    HW219965   1.910   0.197   6.390  0.7549  4.2576 -0.9786
 2777SOL     OW19966   1.350   4.533  14.022 -0.1552  0.1188 -0.2380
 2777SOL    HW119967   1.402   4.461  13.985  2.9682  2.0593  0.3318
 2777SOL    HW219968   1.297   4.557  13.946 -1.5072 -1.3078  0.2539
 2778SOL     OW19969   1.378   4.480  13.348 -0.1574  0.2223 -0.1238
 2778SOL    HW119970   1.401   4.573  13.351 -0.6841  0.4101 -1.9890
 2778SOL    HW219971   1.371   4.462  13.254 -1.4649  2.4127 -0.4345
 2779SOL     OW19972   0.955   2.434   0.858 -0.2016  0.0138 -0.4045
 2779SOL    HW119973   0.922   2.403   0.774 -0.8388 -0.1233 -0.1054
 2779SOL    HW219974   0.907   2.379   0.921  0.3295 -2.1861 -1.9142
 2780SOL     OW19975   3.358   3.535  13.108 -0.2280  0.0043 -0.2615
 2780SOL    HW119976   3.411   3.608  13.075 -1.2913  0.0687 -1.8195
 2780SOL    HW219977   3.432   3.490  13.150  1.3898  3.5910  0.7968
 2781SOL     OW19978   3.634   2.134   0.958  0.0779 -0.1595  0.7753
 2781SOL    HW119979   3.665   2.051   0.994 -0.5460 -1.4898 -1.7568
 2781SOL    HW219980   3.568   2.113   0.891  1.2171  0.3967 -0.5122
 2782SOL     OW19981   1.484   1.514  14.913 -0.4789 -0.1817 -0.3507
 2782SOL    HW119982   1.399   1.472  14.926 -1.3537  1.6709 -0.0927
 2782SOL    HW219983   1.459   1.601  14.943 -0.3045  0.0178 -0.7791
 2783SOL     OW19984   1.694   0.751   2.888  0.1662 -0.0353 -0.3017
 2783SOL    HW119985   1.613   0.752   2.940  0.7580 -0.3415  0.6277
 2783SOL    HW219986   1.710   0.845   2.885  1.0117 -0.1322  1.2553
 2784SOL     OW19987   4.330   0.938   8.518 -0.3091 -0.4667  0.1387
 2784SOL    HW119988   4.407   0.947   8.463 -0.0593 -0.2923  0.5200
 2784SOL    HW219989   4.368   0.891   8.592 -0.0179  0.4529  0.5609
 2785SOL     OW19990   1.905   0.975   3.450  0.6932 -0.0375  0.1508
 2785SOL    HW119991   1.866   1.062   3.461  0.1121 -0.3617  0.6699
 2785SOL    HW219992   1.851   0.929   3.515  0.3753  0.3451  0.1552
 2786SOL     OW19993   3.530   3.845   1.390  0.3047 -0.3988 -0.1987
 2786SOL    HW119994   3.447   3.800   1.378  1.2676 -1.8845 -1.3141
 2786SOL    HW219995   3.555   3.822   1.479  0.6247 -0.5152 -0.3167
 2787SOL     OW19996   1.346   2.713   4.541  0.3449 -0.4514  0.0880
 2787SOL    HW119997   1.355   2.764   4.460 -0.6037  1.5347  1.2314
 2787SOL    HW219998   1.266   2.758   4.568 -0.1084 -0.4368 -1.2780
 2788SOL     OW19999   3.181   4.637   4.055  0.2392 -0.1713 -0.5625
 2788SOL    HW120000   3.164   4.704   3.988 -1.1014 -0.0302 -0.0804
 2788SOL    HW220001   3.268   4.610   4.027 -1.1918 -4.8385 -0.5036
 2789SOL     OW20002   2.947   4.115   8.240 -0.2110  0.1107 -0.2640
 2789SOL    HW120003   2.994   4.136   8.320  0.8571  0.4194 -0.9791
 2789SOL    HW220004   2.902   4.033   8.262 -0.1789  0.0374 -0.4738
 2790SOL     OW20005   1.334   2.663   6.920  0.2728 -0.2932 -0.0355
 2790SOL    HW120006   1.422   2.675   6.884 -0.2023  0.5133 -0.9052
 2790SOL    HW220007   1.346   2.728   6.990  1.9707  0.5320 -1.1074
 2791SOL     OW20008   3.918   1.271   1.831  0.0046  0.6492 -0.0650
 2791SOL    HW120009   3.936   1.296   1.741 -1.4389  2.3520  0.1273
 2791SOL    HW220010   3.896   1.180   1.809 -1.9453  1.0246  0.3281
 2792SOL     OW20011   2.083   3.906  15.239 -0.2088  0.1245 -0.4837
 2792SOL    HW120012   2.007   3.954  15.207  0.5330  1.7969  0.2715
 2792SOL    HW220013   2.133   3.880  15.161  0.4896 -1.3191  0.4410
 2793SOL     OW20014   3.578   3.108  11.737  0.4932 -0.1411  0.3803
 2793SOL    HW120015   3.542   3.096  11.825 -0.7428  0.3080 -0.0628
 2793SOL    HW220016   3.673   3.114  11.749  0.8423 -0.8198 -2.0324
 2794SOL     OW20017   1.556   0.408  17.672  0.5388 -0.2163  0.0826
 2794SOL    HW120018   1.583   0.413   0.023  0.0466  0.8329  0.1697
 2794SOL    HW220019   1.630   0.356  17.641  1.4359 -0.1204  2.0410
 2795SOL     OW20020   3.373   2.562   0.861 -0.2777  0.2354  0.4192
 2795SOL    HW120021   3.461   2.524   0.860 -0.3607  0.1445 -2.2785
 2795SOL    HW220022   3.332   2.503   0.797 -0.9758  1.0294  0.1350
 2796SOL     OW20023   1.090   3.825   6.498 -0.5728 -0.1086 -0.2389
 2796SOL    HW120024   0.996   3.844   6.488 -0.8117 -1.5910 -0.8783
 2796SOL    HW220025   1.132   3.909   6.514  2.1319 -1.6253  0.6425
 2797SOL     OW20026   2.007   1.141   6.121  0.4224  0.0773 -0.3145
 2797SOL    HW120027   2.025   1.159   6.214 -1.1864  0.1509 -0.0233
 2797SOL    HW220028   1.922   1.099   6.125  0.7233 -0.6861 -2.0701
 2798SOL     OW20029   3.572   4.625   2.968  0.3468  0.1724  0.4723
 2798SOL    HW120030   3.555   4.715   2.996  2.1246  0.5473  0.3627
 2798SOL    HW220031   3.542   4.626   2.877 -1.4560  1.3137  1.0731
 2799SOL     OW20032   4.273   1.166   1.764  0.3761  0.0365  0.4157
 2799SOL    HW120033   4.283   1.213   1.847  0.1582  0.2091  0.3434
 2799SOL    HW220034   4.261   1.079   1.800  0.6029 -0.2682 -0.2459
 2800SOL     OW20035   4.152   2.139   2.873  0.3735 -0.1292 -1.0852
 2800SOL    HW120036   4.084   2.075   2.853  0.0496  0.2411 -1.1822
 2800SOL    HW220037   4.114   2.215   2.829 -0.3424 -0.1649 -0.5237
 2801SOL     OW20038   2.901   2.865   5.649  0.5447  0.5829 -0.1196
 2801SOL    HW120039   2.933   2.941   5.698  1.5668  1.0209 -1.4422
 2801SOL    HW220040   2.989   2.829   5.640  0.5077  0.4018  0.2802
 2802SOL     OW20041   3.828   1.682   8.849 -0.4622 -0.3280 -0.1191
 2802SOL    HW120042   3.917   1.676   8.817 -0.6669 -0.3881 -0.6668
 2802SOL    HW220043   3.804   1.590   8.860 -0.3647 -0.5790 -2.0316
 2803SOL     OW20044   3.856   3.197  11.302  0.1586 -0.6296 -0.0285
 2803SOL    HW120045   3.769   3.157  11.299 -0.5478  0.6067  4.0127
 2803SOL    HW220046   3.905   3.154  11.371 -1.7526 -0.7777  1.2220
 2804SOL     OW20047   1.533   0.446   4.320 -0.8301 -0.8842 -0.0609
 2804SOL    HW120048   1.452   0.462   4.272 -0.1122  0.5047 -0.8372
 2804SOL    HW220049   1.588   0.514   4.280 -1.9272  0.2163  0.3205
 2805SOL     OW20050   2.121   0.290  14.459 -0.0437 -0.3647  0.0760
 2805SOL    HW120051   2.066   0.293  14.537 -0.9345 -0.7333 -0.5450
 2805SOL    HW220052   2.055   0.309  14.393  0.5170  1.9195  0.1673
 2806SOL     OW20053   2.549   2.404  13.465 -0.7078 -0.4223 -0.5120
 2806SOL    HW120054   2.627   2.375  13.512  0.7215  1.3217 -1.8706
 2806SOL    HW220055   2.566   2.491  13.429 -4.9019 -0.2128 -1.9929
 2807SOL     OW20056   3.422   3.531   5.687  0.3596 -0.0708 -0.3950
 2807SOL    HW120057   3.362   3.468   5.646  0.2666 -0.5356  0.4587
 2807SOL    HW220058   3.357   3.586   5.731  2.6002  1.8407  0.4974
 2808SOL     OW20059   3.487   3.389   5.317  0.1282 -0.2729 -0.3469
 2808SOL    HW120060   3.525   3.414   5.233 -2.1364 -0.0134 -1.3076
 2808SOL    HW220061   3.548   3.318   5.338 -0.1797  0.3098  2.4968
 2809SOL     OW20062   0.543   0.137   7.470  0.0571 -0.3164 -0.6553
 2809SOL    HW120063   0.565   0.211   7.412 -0.6489  0.3752 -0.0326
 2809SOL    HW220064   0.506   0.079   7.403  0.9071 -1.5583 -0.0412
 2810SOL     OW20065   3.301   2.402  17.666 -0.3659  0.8584 -0.3200
 2810SOL    HW120066   3.299   2.382   0.019 -3.3173 -1.3245 -0.8523
 2810SOL    HW220067   3.229   2.347  17.635 -0.3949  1.1279 -0.7325
 2811SOL     OW20068   0.347   2.910   4.630  0.3634  0.3292  0.1606
 2811SOL    HW120069   0.413   2.849   4.597 -1.4851 -1.6951  0.2175
 2811SOL    HW220070   0.292   2.926   4.554 -1.1769 -1.3242  0.9107
 2812SOL     OW20071   2.113   4.059   3.999  0.0953  0.2034  0.4349
 2812SOL    HW120072   2.201   4.084   3.973 -0.7960  1.9258 -1.0039
 2812SOL    HW220073   2.070   4.142   4.020 -0.0727  0.9352 -2.8238
 2813SOL     OW20074   3.603   0.756   8.280 -0.2518  0.3412 -0.8017
 2813SOL    HW120075   3.551   0.694   8.229  1.9001  0.0124 -2.6113
 2813SOL    HW220076   3.646   0.698   8.343  0.9471  0.5427 -1.4353
 2814SOL     OW20077   3.815   2.350  17.551 -0.0962 -0.5230  0.3541
 2814SOL    HW120078   3.792   2.401  17.473 -0.5519  0.2309  0.9912
 2814SOL    HW220079   3.729   2.342  17.592 -0.2562 -0.5268  0.0252
 2815SOL     OW20080   1.356   4.170   4.850 -0.5546 -0.1831  0.5044
 2815SOL    HW120081   1.368   4.253   4.897  1.1343  1.2340 -2.3920
 2815SOL    HW220082   1.293   4.119   4.900 -1.1314 -1.9233 -2.0136
 2816SOL     OW20083   1.860   3.975   5.493  0.0336  0.0115 -0.3264
 2816SOL    HW120084   1.845   3.882   5.506 -0.2209  0.5206  2.9584
 2816SOL    HW220085   1.781   4.000   5.445 -0.3683  1.7672  1.2173
 2817SOL     OW20086   0.657   3.135  14.818  0.0678  0.2590  0.2437
 2817SOL    HW120087   0.573   3.102  14.849  0.3766 -0.6750  0.0638
 2817SOL    HW220088   0.632   3.181  14.738  3.0072 -1.4583 -1.6341
 2818SOL     OW20089   4.276   0.515  16.217 -0.7191 -0.3519  1.1819
 2818SOL    HW120090   4.218   0.450  16.256 -1.7762  0.7422  1.4198
 2818SOL    HW220091   4.351   0.517  16.277 -0.7340  2.1641  1.0923
 2819SOL     OW20092   2.400   4.720   5.527 -0.2553 -0.2217 -0.2114
 2819SOL    HW120093   2.343   4.654   5.488  2.0396 -0.8416 -2.5565
 2819SOL    HW220094   2.351   0.057   5.490  0.9466  0.6571 -0.0965
 2820SOL     OW20095   4.097   4.009   3.150  0.3253 -0.0364  0.2239
 2820SOL    HW120096   4.063   4.031   3.063  1.4279  0.6284 -0.0398
 2820SOL    HW220097   4.065   3.919   3.144  3.1123 -1.1101  1.4447
 2821SOL     OW20098   3.348   2.286  14.625 -0.8060 -0.2027 -0.0727
 2821SOL    HW120099   3.344   2.353  14.556 -1.9703  1.3536  1.5125
 2821SOL    HW220100   3.427   2.234  14.605 -1.1998 -0.1618 -1.7724
 2822SOL     OW20101   1.100   1.563   6.398 -0.4302 -0.4731 -0.9110
 2822SOL    HW120102   1.095   1.554   6.303  0.6088 -0.3692 -0.9703
 2822SOL    HW220103   1.188   1.531   6.415 -0.5803 -0.2638  0.2431
 2823SOL     OW20104   1.587   1.170  17.454 -0.0154  0.1570 -0.0380
 2823SOL    HW120105   1.652   1.130  17.512  0.8332  1.9786  0.2361
 2823SOL    HW220106   1.600   1.119  17.374  2.0561 -0.0864  0.4723
 2824SOL     OW20107   3.009   0.209   7.506 -0.1294 -0.5232 -0.2478
 2824SOL    HW120108   2.999   0.304   7.492 -0.5276 -0.6495 -0.8166
 2824SOL    HW220109   3.000   0.185   7.414 -1.2589 -0.4109 -0.1690
 2825SOL     OW20110   2.638   0.633   9.153 -0.3930 -0.2742  0.3559
 2825SOL    HW120111   2.598   0.557   9.109 -3.0444  2.5182 -2.0436
 2825SOL    HW220112   2.559   0.682   9.174  0.7728  1.0183  1.7676
 2826SOL     OW20113   2.604   2.841   7.343  0.1437  0.2818  0.0863
 2826SOL    HW120114   2.614   2.758   7.297 -4.1830 -2.4395  3.9734
 2826SOL    HW220115   2.685   2.884   7.317  2.5274 -1.6132  4.1674
 2827SOL     OW20116   0.010   3.780   5.986  0.2439 -0.6021 -0.1294
 2827SOL    HW120117   4.690   3.717   5.940  1.7993 -3.0682  1.4315
 2827SOL    HW220118   4.711   3.775   6.075 -1.1058  2.4003 -0.4864
 2828SOL     OW20119   0.195   0.393  12.593  0.2444  0.2612  0.0055
 2828SOL    HW120120   0.183   0.414  12.501 -1.1717 -0.0581  0.1213
 2828SOL    HW220121   0.228   0.304  12.599  0.0202 -0.0038 -2.7605
 2829SOL     OW20122   4.130   0.300   9.075 -0.3617 -0.2728 -0.4456
 2829SOL    HW120123   4.143   0.205   9.070 -0.8599 -0.3325 -0.6326
 2829SOL    HW220124   4.176   0.333   8.998 -0.3975  0.1750 -0.2769
 2830SOL     OW20125   1.387   4.023  14.516 -0.0872  0.3318 -0.2703
 2830SOL    HW120126   1.480   4.045  14.503 -0.5275  2.0657 -0.4908
 2830SOL    HW220127   1.352   4.112  14.514  1.1193  0.8304  0.3386
 2831SOL     OW20128   4.089   2.708   9.197  0.4167 -0.2948 -0.5006
 2831SOL    HW120129   4.004   2.717   9.241  2.1085 -1.7738  3.0676
 2831SOL    HW220130   4.072   2.639   9.133 -1.3104 -0.0205 -0.3539
 2832SOL     OW20131   0.027   4.572  13.717  0.2751  0.1086  0.4582
 2832SOL    HW120132   0.069   4.494  13.679 -1.4909  0.0444 -1.3612
 2832SOL    HW220133   4.669   4.554  13.707  0.7382 -2.0818 -0.0592
 2833SOL     OW20134   2.645   4.708   6.206  0.4406  0.2147  0.3296
 2833SOL    HW120135   2.558   4.669   6.219  1.1130 -1.3629  0.1193
 2833SOL    HW220136   2.696   4.650   6.262  0.6259  0.2678  0.2155
 2834SOL     OW20137   3.266   3.420  15.537 -0.7182 -0.0124 -0.2330
 2834SOL    HW120138   3.294   3.491  15.479 -1.9556 -0.6031 -1.5485
 2834SOL    HW220139   3.335   3.427  15.602 -0.0367  1.8676 -1.1409
 2835SOL     OW20140   1.381   1.422   9.422  0.5788  0.1965  0.0007
 2835SOL    HW120141   1.361   1.485   9.352 -1.4364 -1.1132 -0.5930
 2835SOL    HW220142   1.353   1.475   9.498  0.3828 -0.4898  0.4043
 2836SOL     OW20143   3.428   0.648   7.565  0.2480 -0.2775 -0.1148
 2836SOL    HW120144   3.355   0.588   7.549  0.8383 -1.2034  0.6011
 2836SOL    HW220145   3.420   0.663   7.659 -1.3556 -0.2255 -0.2649
 2837SOL     OW20146   2.257   2.821   5.206  0.3936  0.1264  0.0574
 2837SOL    HW120147   2.270   2.726   5.202 -2.8990 -0.3173  0.2560
 2837SOL    HW220148   2.165   2.830   5.180 -0.0816  1.7522  2.3001
 2838SOL     OW20149   0.508   3.057   4.841  0.5967  0.6424  0.4780
 2838SOL    HW120150   0.540   2.982   4.792 -0.7256  2.0344 -2.4718
 2838SOL    HW220151   0.434   3.014   4.884 -0.6703  0.3782 -1.9985
 2839SOL     OW20152   1.527   4.596   8.758 -0.3792 -0.0158  0.0747
 2839SOL    HW120153   1.460   4.584   8.691 -1.5797 -0.4024  1.3324
 2839SOL    HW220154   1.520   4.690   8.777 -2.6603 -0.3383  0.7890
 2840SOL     OW20155   2.509   2.904  12.821 -0.1044 -0.0812 -0.1924
 2840SOL    HW120156   2.486   2.970  12.755 -1.1465  1.3042  1.5709
 2840SOL    HW220157   2.447   2.838  12.790  1.7859 -1.8618 -0.1879
 2841SOL     OW20158   1.185   4.682   9.795  0.1959 -0.2461 -0.0501
 2841SOL    HW120159   1.092   4.670   9.814  0.3334 -0.5810  0.3997
 2841SOL    HW220160   1.192   4.608   9.734 -0.8043 -0.6601  0.3513
 2842SOL     OW20161   2.209   1.660   2.779 -0.1759 -0.3012 -0.2864
 2842SOL    HW120162   2.266   1.714   2.724  1.5558 -0.6117  1.2292
 2842SOL    HW220163   2.243   1.659   2.868  0.0344 -2.8588 -0.3989
 2843SOL     OW20164   0.096   1.340   3.215  0.3747  0.0760 -0.1099
 2843SOL    HW120165   0.171   1.308   3.165  1.2876  2.6729 -0.3591
 2843SOL    HW220166   0.141   1.401   3.274 -0.0000  1.5000 -1.2970
 2844SOL     OW20167   2.093   3.171   4.515 -0.3052  0.4083  0.7930
 2844SOL    HW120168   2.172   3.176   4.461 -0.1276  0.7053  1.0813
 2844SOL    HW220169   2.144   3.155   4.594  2.4054  2.1491 -0.5951
 2845SOL     OW20170   0.949   3.483   8.991 -0.4235  0.0777  0.1815
 2845SOL    HW120171   0.982   3.553   8.934 -0.3346 -0.9859 -1.0974
 2845SOL    HW220172   0.970   3.533   9.070  1.6648 -1.4743  0.6206
 2846SOL     OW20173   2.186   1.380   8.523 -1.0449 -0.3829 -0.1944
 2846SOL    HW120174   2.197   1.473   8.505  2.5079 -0.7866 -0.1997
 2846SOL    HW220175   2.232   1.346   8.446  1.4942 -0.1424  1.2111
 2847SOL     OW20176   2.213   3.403   5.155  0.2051 -0.6058  0.3184
 2847SOL    HW120177   2.241   3.440   5.072  0.6984 -1.6959  0.0023
 2847SOL    HW220178   2.190   3.479   5.209  0.3896  0.7928 -1.5466
 2848SOL     OW20179   0.572   0.646  14.633 -0.5891 -1.0749  0.0902
 2848SOL    HW120180   0.558   0.579  14.700  0.5009 -2.6778 -1.2846
 2848SOL    HW220181   0.503   0.628  14.569  0.1527  1.7969 -1.5614
 2849SOL     OW20182   4.091   1.219   3.226 -0.5919 -0.0737  0.1403
 2849SOL    HW120183   4.153   1.287   3.250 -0.7901  0.1783 -0.0602
 2849SOL    HW220184   4.015   1.269   3.196  0.6274  1.9786  0.5337
 2850SOL     OW20185   1.120   1.240  17.562  0.4423 -0.2221  0.6191
 2850SOL    HW120186   1.152   1.284  17.483 -0.0758  1.5483  1.3990
 2850SOL    HW220187   1.179   1.166  17.557  0.3144 -0.4329  2.1091
 2851SOL     OW20188   0.892   1.979   8.681 -0.0779 -0.3211  0.0342
 2851SOL    HW120189   0.980   1.946   8.662  0.9275  1.5312  1.4949
 2851SOL    HW220190   0.859   1.899   8.722 -1.1714  0.4686  0.6820
 2852SOL     OW20191   0.354   4.533   0.115 -0.3662  0.4308  0.2102
 2852SOL    HW120192   0.376   4.473   0.186 -1.9715  0.3680  0.6497
 2852SOL    HW220193   0.339   4.617   0.159  0.5105  0.0447  1.2522
 2853SOL     OW20194   0.059   2.067  15.441  0.1367  0.0263  0.1648
 2853SOL    HW120195   0.037   1.979  15.471 -0.4794  0.3405  0.6375
 2853SOL    HW220196   0.098   2.090  15.525 -1.8320  0.4712  0.9563
 2854SOL     OW20197   4.198   4.233   3.622  0.3858 -0.4046 -0.3608
 2854SOL    HW120198   4.242   4.318   3.623  1.1718 -0.8157  0.8768
 2854SOL    HW220199   4.206   4.220   3.528  0.8273  0.9430 -0.5018
 2855SOL     OW20200   2.826   3.538  14.798 -0.4069 -0.0730 -0.6195
 2855SOL    HW120201   2.814   3.552  14.892 -1.4929 -1.7787 -0.5145
 2855SOL    HW220202   2.743   3.505  14.764 -1.8108  0.8030  2.0029
 2856SOL     OW20203   0.601   3.272   1.523 -1.1202 -0.4572 -0.7494
 2856SOL    HW120204   0.675   3.300   1.577  0.4613 -0.7836 -2.7196
 2856SOL    HW220205   0.639   3.193   1.484 -2.3317 -0.5311 -1.7817
 2857SOL     OW20206   2.018   0.730  14.638 -0.2789  0.2780 -0.2161
 2857SOL    HW120207   2.113   0.726  14.641 -0.3410  0.4710  1.9573
 2857SOL    HW220208   1.993   0.691  14.722  1.1728 -2.6908 -1.1595
 2858SOL     OW20209   3.393   0.321   4.223  0.0413  0.0436 -0.0973
 2858SOL    HW120210   3.309   0.275   4.213  0.9931 -1.3423 -1.8131
 2858SOL    HW220211   3.371   0.402   4.177 -2.2462 -0.0840  0.7790
 2859SOL     OW20212   0.746   4.683  17.428 -0.3252 -0.2619  0.6012
 2859SOL    HW120213   0.666   4.734  17.410  0.4816  1.1939  1.1330
 2859SOL    HW220214   0.738   4.606  17.372  2.3550  1.0560 -1.5513
 2860SOL     OW20215   3.102   3.652   7.719  0.2319  0.2981  0.4593
 2860SOL    HW120216   3.014   3.632   7.749  0.0966 -0.5144 -0.4682
 2860SOL    HW220217   3.097   3.747   7.729 -1.3517  0.4577 -1.9649
 2861SOL     OW20218   2.447   1.589  12.897  0.4914 -0.3163  0.8570
 2861SOL    HW120219   2.469   1.591  12.990  1.3556 -3.1934  0.7363
 2861SOL    HW220220   2.527   1.561  12.853  1.7813 -0.0056  2.9959
 2862SOL     OW20221   4.115   3.019   8.369 -0.5978  0.4657 -0.1510
 2862SOL    HW120222   4.119   3.066   8.285  2.2858 -0.7971 -0.7142
 2862SOL    HW220223   4.108   2.929   8.337 -0.3666  0.8308 -1.2380
 2863SOL     OW20224   2.256   2.154   5.205  0.2862  0.2046  0.1566
 2863SOL    HW120225   2.329   2.188   5.256  0.3574 -0.7218  0.6679
 2863SOL    HW220226   2.198   2.230   5.213  0.1751 -0.0327  1.4722
 2864SOL     OW20227   0.398   3.036   1.301 -0.0470 -0.1827  0.1367
 2864SOL    HW120228   0.494   3.038   1.296  0.0242  0.2196  1.6510
 2864SOL    HW220229   0.392   2.941   1.313  0.6968 -0.3242 -0.6082
 2865SOL     OW20230   2.304   1.602   7.513 -0.4369 -0.6297  0.1003
 2865SOL    HW120231   2.330   1.688   7.545 -0.2377  0.1455 -2.1876
 2865SOL    HW220232   2.347   1.589   7.429 -4.1942 -0.9740 -1.7630
 2866SOL     OW20233   0.102   4.359   1.013 -0.2106 -0.2278 -0.5989
 2866SOL    HW120234   0.142   4.380   1.097 -0.6273 -1.2150 -0.1565
 2866SOL    HW220235   0.142   4.272   1.002  1.0655  0.3662 -0.6907
 2867SOL     OW20236   1.311   0.508  17.641 -0.0883 -0.4197  0.0897
 2867SOL    HW120237   1.401   0.479  17.657  0.3139  0.2923 -0.9119
 2867SOL    HW220238   1.260   0.467  17.711 -0.6608  1.4249  0.7407
 2868SOL     OW20239   2.752   4.152  15.807  0.2545  0.1488 -0.2096
 2868SOL    HW120240   2.735   4.220  15.741  0.9767 -0.0071 -0.5568
 2868SOL    HW220241   2.821   4.198  15.856 -0.8953  2.2317 -0.5305
 2869SOL     OW20242   1.115   4.158   3.476 -0.1564  0.2881 -0.1501
 2869SOL    HW120243   1.148   4.127   3.392  1.4906 -2.1642  1.3905
 2869SOL    HW220244   1.188   4.124   3.528 -1.7649  0.2197  2.0532
 2870SOL     OW20245   2.580   1.956  15.727 -0.2370  0.6870 -0.6341
 2870SOL    HW120246   2.574   2.050  15.744  1.4642  0.1152  3.2560
 2870SOL    HW220247   2.671   1.944  15.703 -0.3643  1.1890 -1.3637
 2871SOL     OW20248   0.097   0.080   5.498 -0.4154 -0.1699 -0.0704
 2871SOL    HW120249   0.091   0.067   5.403 -0.3922  1.1669 -0.2472
 2871SOL    HW220250   0.020   0.132   5.520  0.0509  0.5417 -0.1216
 2872SOL     OW20251   3.960   3.576   7.902  0.1982 -0.1648  0.2563
 2872SOL    HW120252   3.900   3.516   7.946 -2.2926 -0.1065 -3.0660
 2872SOL    HW220253   3.971   3.537   7.815 -0.9617  1.0335 -0.4230
 2873SOL     OW20254   3.489   1.470   2.926 -0.2045 -0.4835  0.4544
 2873SOL    HW120255   3.539   1.471   2.845  0.1388 -0.2840  0.6731
 2873SOL    HW220256   3.407   1.500   2.886 -0.8346 -2.6202  0.1476
 2874SOL     OW20257   0.858   2.863   3.329  0.7301  0.7100  0.2305
 2874SOL    HW120258   0.809   2.943   3.315  1.2249  1.5307  3.2189
 2874SOL    HW220259   0.795   2.806   3.373  0.5736  0.5396 -0.2142
 2875SOL     OW20260   3.717   3.001   3.876  0.0753  0.3569 -0.9676
 2875SOL    HW120261   3.779   3.062   3.914  1.5959 -1.1708 -0.9740
 2875SOL    HW220262   3.783   2.946   3.834  0.9561 -1.0394  2.2645
 2876SOL     OW20263   0.452   1.576   5.847 -0.0755  0.3879  0.0468
 2876SOL    HW120264   0.489   1.488   5.860  1.2648  0.7454 -1.4683
 2876SOL    HW220265   0.463   1.608   5.758 -1.5088  1.1940  0.1577
 2877SOL     OW20266   4.090   3.519   3.366 -0.2362  0.2178 -0.5953
 2877SOL    HW120267   4.116   3.567   3.287 -2.3830  1.5733 -0.4914
 2877SOL    HW220268   4.019   3.468   3.326 -0.2116 -0.7005  0.5376
 2878SOL     OW20269   0.928   3.163  10.150  0.0355 -0.1721  0.2274
 2878SOL    HW120270   0.955   3.177  10.059 -2.3311 -0.2412 -0.4779
 2878SOL    HW220271   0.885   3.078  10.154  0.3974 -0.3174  1.1198
 2879SOL     OW20272   3.227   0.387   6.417  0.1264  0.0410 -0.4584
 2879SOL    HW120273   3.134   0.366   6.425 -0.0171  0.5743 -0.7022
 2879SOL    HW220274   3.241   0.412   6.326 -0.4042 -1.1051 -0.8507
 2880SOL     OW20275   3.702   0.623   2.657  0.1642 -0.5892  0.6328
 2880SOL    HW120276   3.652   0.644   2.579  0.8972 -0.3103  0.2386
 2880SOL    HW220277   3.790   0.623   2.620 -0.1139 -0.3201 -0.0238
 2881SOL     OW20278   0.892   3.845   0.470  0.3587 -0.0867 -0.5546
 2881SOL    HW120279   0.948   3.854   0.547 -0.3550  0.7674 -0.1193
 2881SOL    HW220280   0.833   3.777   0.501 -1.8096  1.9533 -0.1911
 2882SOL     OW20281   1.356   2.046   6.939 -0.0957  0.0821 -0.6888
 2882SOL    HW120282   1.307   1.965   6.943 -0.8096  0.4173 -3.0250
 2882SOL    HW220283   1.302   2.117   6.904 -1.1991 -0.0037  0.8478
 2883SOL     OW20284   1.175   3.305  13.441 -0.3084 -0.1667 -0.1619
 2883SOL    HW120285   1.150   3.332  13.529 -2.0291  1.7661 -1.2443
 2883SOL    HW220286   1.258   3.261  13.462 -0.2525  0.5361  1.0571
 2884SOL     OW20287   4.033   3.283   9.182 -0.5183  0.1185 -0.8244
 2884SOL    HW120288   4.032   3.342   9.107  0.1799  1.5723  0.2806
 2884SOL    HW220289   4.032   3.200   9.135 -0.6692  0.0373 -0.6789
 2885SOL     OW20290   0.407   3.081  14.835  0.7034 -0.1209  0.3249
 2885SOL    HW120291   0.375   3.033  14.911  0.4716 -0.8863 -0.2468
 2885SOL    HW220292   0.328   3.124  14.803  0.3565  0.8725  2.5543
 2886SOL     OW20293   2.906   0.484   8.318  0.4100 -0.6724  0.5299
 2886SOL    HW120294   2.866   0.492   8.231  2.3590 -0.3662 -0.3498
 2886SOL    HW220295   2.829   0.449   8.363 -0.3742  0.7890  0.2905
 2887SOL     OW20296   0.444   3.535   2.142  0.7674  0.2040 -0.1634
 2887SOL    HW120297   0.423   3.543   2.235 -0.8469 -1.5576 -0.3684
 2887SOL    HW220298   0.381   3.468   2.116 -0.5048  1.1362  0.5840
 2888SOL     OW20299   0.650   1.412  11.932  0.7405 -0.4674 -0.7775
 2888SOL    HW120300   0.564   1.448  11.908  0.5709 -0.0043  0.4962
 2888SOL    HW220301   0.626   1.319  11.936  0.4375 -0.3709 -0.3964
 2889SOL     OW20302   3.567   2.555  17.045  0.5129 -0.3124 -0.2734
 2889SOL    HW120303   3.613   2.472  17.060  0.5930  0.0372  1.4416
 2889SOL    HW220304   3.640   2.613  17.025 -0.2182  0.8754  0.4390
 2890SOL     OW20305   4.172   2.175  15.430  0.0120  0.0183  0.2571
 2890SOL    HW120306   4.215   2.250  15.472  0.2742  0.4169 -0.7152
 2890SOL    HW220307   4.250   2.127  15.401 -1.4230 -2.3248  0.3273
 2891SOL     OW20308   2.746   0.047   8.687 -0.0790  0.3607 -0.1590
 2891SOL    HW120309   2.749   0.140   8.708  3.0737  0.1136  0.5454
 2891SOL    HW220310   2.807   0.039   8.613  0.9460 -0.6115  0.7748
 2892SOL     OW20311   1.651   1.587   3.625 -0.3162 -0.3215 -0.0700
 2892SOL    HW120312   1.689   1.655   3.569  1.5522 -0.3648  1.1350
 2892SOL    HW220313   1.606   1.531   3.562 -2.4442 -0.3663  1.4910
 2893SOL     OW20314   3.020   2.134   9.763  0.3289  0.2879 -0.4708
 2893SOL    HW120315   3.111   2.107   9.753 -0.0082 -0.6701 -0.9741
 2893SOL    HW220316   3.022   2.224   9.797 -0.7790  0.0292  0.2992
 2894SOL     OW20317   3.360   1.751  10.495 -0.2508 -0.3433 -0.0674
 2894SOL    HW120318   3.335   1.834  10.535  2.2880 -0.0563  0.9157
 2894SOL    HW220319   3.453   1.737  10.514 -0.6756 -3.5511 -0.2842
 2895SOL     OW20320   2.250   2.004   7.998  0.5759 -0.1408  0.3629
 2895SOL    HW120321   2.221   1.974   8.085 -2.6719 -0.3518 -0.8080
 2895SOL    HW220322   2.313   2.072   8.023 -2.3312  2.8791 -0.5759
 2896SOL     OW20323   0.021   3.326   4.294  0.2403  0.2867 -0.3261
 2896SOL    HW120324   0.002   3.276   4.373  2.1683  0.2389  0.1201
 2896SOL    HW220325   4.693   3.397   4.293 -0.5878 -0.4604 -0.2759
 2897SOL     OW20326   1.374   4.631  15.388 -0.0983 -0.1308  0.5643
 2897SOL    HW120327   1.355   4.716  15.348  0.3072 -0.1647  0.3076
 2897SOL    HW220328   1.285   4.615  15.419 -0.6524  1.0448 -0.3744
 2898SOL     OW20329   1.445   0.081   0.341  0.1414  0.2275  0.0165
 2898SOL    HW120330   1.362   0.035   0.354 -0.8838  2.0531 -0.1067
 2898SOL    HW220331   1.500   0.060   0.416 -1.4778 -1.3603  0.7749
 2899SOL     OW20332   3.672   3.560   0.708  0.0252  0.8310  0.4181
 2899SOL    HW120333   3.603   3.615   0.669 -0.5534  0.4550  0.9143
 2899SOL    HW220334   3.618   3.491   0.746  1.3917 -0.3639  0.1563
 2900SOL     OW20335   3.914   0.181  14.264  0.1866 -0.1057  0.0905
 2900SOL    HW120336   3.843   0.118  14.256  0.6382 -0.9167  2.6372
 2900SOL    HW220337   3.966   0.143  14.193 -0.6305 -2.2595  0.6532
 2901SOL     OW20338   2.344   2.040   8.698  0.7766  0.1757  0.0091
 2901SOL    HW120339   2.288   1.990   8.757 -1.7619  1.1048 -1.5865
 2901SOL    HW220340   2.294   2.122   8.690 -0.2050 -0.5046 -0.8359
 2902SOL     OW20341   0.414   3.191   6.005  0.2010  0.5907  0.4952
 2902SOL    HW120342   0.327   3.222   6.032  0.1619  1.9056 -1.1404
 2902SOL    HW220343   0.389   3.173   5.915 -0.5573 -1.3391  1.1031
 2903SOL     OW20344   2.103   4.142  13.692 -0.8520 -0.2601  0.0842
 2903SOL    HW120345   2.042   4.205  13.653  1.2946  2.1953  0.6822
 2903SOL    HW220346   2.190   4.176  13.672 -1.5279  1.7964  0.6644
 2904SOL     OW20347   3.773   2.849  15.498  0.5899 -0.2663 -0.6188
 2904SOL    HW120348   3.868   2.841  15.510  0.0331  1.1757  4.4781
 2904SOL    HW220349   3.768   2.863  15.403  2.4424 -1.7550 -0.9512
 2905SOL     OW20350   3.622   1.417  14.632  0.7448 -0.8162 -0.2469
 2905SOL    HW120351   3.666   1.332  14.639  3.0068  0.3527  0.0708
 2905SOL    HW220352   3.533   1.383  14.632  0.5609 -0.3380 -0.5310
 2906SOL     OW20353   4.303   3.068  10.889  0.3016 -0.6206 -0.0596
 2906SOL    HW120354   4.299   3.074  10.984 -0.4937 -1.1376 -0.0598
 2906SOL    HW220355   4.324   2.977  10.865 -1.5520 -2.1570  4.2040
 2907SOL     OW20356   2.609   4.463   3.743 -0.3782  0.7179 -0.0478
 2907SOL    HW120357   2.666   4.426   3.811 -0.8209 -0.0604 -0.0900
 2907SOL    HW220358   2.610   4.389   3.682 -1.9953 -0.2483  1.0667
 2908SOL     OW20359   3.761   2.512   2.774  0.4898 -0.0353 -0.1227
 2908SOL    HW120360   3.674   2.551   2.783  0.4145 -0.5178  1.3189
 2908SOL    HW220361   3.785   2.539   2.686 -0.9965 -0.7723 -0.7505
 2909SOL     OW20362   3.875   0.966   8.380  0.2927  0.1541 -0.0160
 2909SOL    HW120363   3.918   0.908   8.443 -1.6381  0.7948  1.9001
 2909SOL    HW220364   3.928   0.956   8.301 -3.5781  0.2420 -2.6151
 2910SOL     OW20365   3.820   2.351  10.695  0.0188 -0.7531  0.3649
 2910SOL    HW120366   3.821   2.258  10.673  0.3090 -0.9796  1.3563
 2910SOL    HW220367   3.750   2.363  10.759 -0.9171 -1.3965 -0.5318
 2911SOL     OW20368   1.560   2.415   7.803 -0.0345  0.3120 -0.1574
 2911SOL    HW120369   1.526   2.339   7.756 -0.6300  0.3760  0.1674
 2911SOL    HW220370   1.511   2.487   7.765  1.9533  1.0605 -1.3079
 2912SOL     OW20371   1.548   0.936  12.060 -0.2208  0.7375 -0.3067
 2912SOL    HW120372   1.616   0.964  11.998 -1.0386  3.6051  0.0720
 2912SOL    HW220373   1.473   0.989  12.033 -1.3136 -0.8626 -0.3505
 2913SOL     OW20374   0.512   0.135   3.014  0.4864 -0.0863 -0.2559
 2913SOL    HW120375   0.420   0.146   3.040  0.4084 -0.7874 -0.2431
 2913SOL    HW220376   0.503   0.128   2.919  1.4483 -0.3754 -0.3165
 2914SOL     OW20377   1.684   2.356   7.488  0.1580 -0.0656 -0.0032
 2914SOL    HW120378   1.609   2.311   7.527 -0.4820  0.6394 -0.4187
 2914SOL    HW220379   1.713   2.289   7.425 -0.2930 -1.3739  1.1655
 2915SOL     OW20380   2.440   1.891  12.385  0.1484  0.2059  0.8240
 2915SOL    HW120381   2.527   1.900  12.424  0.7977  1.2800 -0.8800
 2915SOL    HW220382   2.391   1.943  12.449  1.4517  1.5905  0.6994
 2916SOL     OW20383   3.367   1.845   7.418  0.4331 -0.0123 -0.2789
 2916SOL    HW120384   3.406   1.771   7.464  1.5763 -1.0609 -2.9393
 2916SOL    HW220385   3.403   1.909   7.480 -0.8383 -0.2597  0.6930
 2917SOL     OW20386   0.118   3.570   3.027  0.0381  0.2413  0.7572
 2917SOL    HW120387   0.112   3.477   3.006  0.8173  0.5892 -0.9824
 2917SOL    HW220388   0.082   3.599   2.943  0.0312 -2.7833 -0.2727
 2918SOL     OW20389   3.024   3.130  13.850 -0.4950 -0.0662 -0.7185
 2918SOL    HW120390   3.027   3.113  13.944  0.6149 -2.7883 -1.2668
 2918SOL    HW220391   3.116   3.149  13.830  0.3147 -0.4061  2.7314
 2919SOL     OW20392   0.241   0.861   0.368 -0.9123  0.4276 -0.2828
 2919SOL    HW120393   0.167   0.832   0.315  1.2480 -0.2330 -2.9328
 2919SOL    HW220394   0.305   0.856   0.297  0.7118 -0.1991  1.2291
 2920SOL     OW20395   2.428   4.373   9.135  0.6378  0.4556  0.7750
 2920SOL    HW120396   2.446   4.301   9.195  1.1552  0.8232  1.0646
 2920SOL    HW220397   2.454   4.457   9.173  1.2167  1.4355 -1.7750
 2921SOL     OW20398   2.779   1.424   9.048  0.0602 -0.4320 -0.1044
 2921SOL    HW120399   2.864   1.395   9.017  1.3224  3.1321  0.0607
 2921SOL    HW220400   2.723   1.361   9.002  0.1412 -1.5350  1.3079
 2922SOL     OW20401   0.012   4.089   2.629  0.0953  0.0871  0.1732
 2922SOL    HW120402   0.023   4.126   2.541  0.0426 -1.0987 -0.3334
 2922SOL    HW220403   0.063   4.008   2.620  1.4008  0.5295  3.5566
 2923SOL     OW20404   4.456   3.512   9.955 -0.3493  0.0753  0.7682
 2923SOL    HW120405   4.409   3.501   9.873 -0.0615 -0.8578  0.7206
 2923SOL    HW220406   4.477   3.420   9.972 -0.1019 -0.0783 -0.3448
 2924SOL     OW20407   3.751   4.223   8.570 -0.0564 -0.4213 -0.1176
 2924SOL    HW120408   3.840   4.201   8.543 -0.0638 -0.7958  0.1670
 2924SOL    HW220409   3.705   4.143   8.544  1.4566 -1.5426  0.6538
 2925SOL     OW20410   1.154   2.177   5.582  0.1431  0.2079 -0.5870
 2925SOL    HW120411   1.111   2.144   5.661  0.4480  1.5835  0.1488
 2925SOL    HW220412   1.242   2.140   5.584  0.6458  1.4446  0.6317
 2926SOL     OW20413   3.991   4.203   8.442  0.5557 -0.3811  0.1738
 2926SOL    HW120414   4.007   4.148   8.365 -0.5658  0.6140 -0.7739
 2926SOL    HW220415   3.976   4.286   8.398  0.7068 -0.7010 -0.4798
 2927SOL     OW20416   1.387   0.293   1.440  0.5402  0.4724 -0.0557
 2927SOL    HW120417   1.366   0.275   1.531  3.0700  0.4074  0.5086
 2927SOL    HW220418   1.304   0.323   1.402 -0.5023 -3.5105 -1.0083
 2928SOL     OW20419   1.176   4.230   6.788  0.0440 -0.0299  0.1807
 2928SOL    HW120420   1.083   4.228   6.767 -0.0884 -0.4503  0.8116
 2928SOL    HW220421   1.211   4.266   6.707 -2.4763 -2.3881 -1.9448
 2929SOL     OW20422   4.159   0.989   7.813 -0.1014 -0.4509 -0.0616
 2929SOL    HW120423   4.223   0.921   7.792 -0.3361 -0.4591 -0.7528
 2929SOL    HW220424   4.119   0.995   7.726 -0.3116  0.2160  0.0821
 2930SOL     OW20425   0.339   4.310   3.158 -0.0898 -0.3868  0.2453
 2930SOL    HW120426   0.272   4.379   3.157  0.3282  0.0245  0.2120
 2930SOL    HW220427   0.313   4.258   3.082  2.6020  0.0442 -0.9635
 2931SOL     OW20428   3.388   4.669   4.430  0.3993  0.6161  0.1568
 2931SOL    HW120429   3.430   4.618   4.362 -0.0164  0.9053 -0.3180
 2931SOL    HW220430   3.346   4.600   4.481  0.7013  0.3443  0.0318
 2932SOL     OW20431   3.260   4.125   9.699  0.0103 -0.4460 -0.3087
 2932SOL    HW120432   3.282   4.216   9.717 -0.6850 -0.1505 -0.9735
 2932SOL    HW220433   3.325   4.097   9.634 -0.4842 -0.1350 -0.9393
 2933SOL     OW20434   4.167   0.287   2.183  0.0559 -0.2991 -0.2501
 2933SOL    HW120435   4.260   0.306   2.191 -0.2328  0.8192  0.4845
 2933SOL    HW220436   4.169   0.192   2.188  1.8224 -0.2184  0.4235
 2934SOL     OW20437   3.826   1.027   1.665  0.1313  0.3442 -0.1492
 2934SOL    HW120438   3.761   0.993   1.603  0.5568  0.7516 -0.8228
 2934SOL    HW220439   3.813   0.982   1.748 -1.8054 -1.4694 -1.4346
 2935SOL     OW20440   4.721   4.041  13.057 -0.1207  0.0611 -0.3290
 2935SOL    HW120441   4.701   4.134  13.041  0.5753 -0.0252 -1.7389
 2935SOL    HW220442   4.653   4.004  13.001  1.5900 -0.6565 -1.9481
 2936SOL     OW20443   0.700   4.106   4.315 -0.7262  0.0409  0.2447
 2936SOL    HW120444   0.660   4.191   4.336 -0.2126  0.3322  0.0408
 2936SOL    HW220445   0.708   4.063   4.400 -1.1747 -0.6075 -0.0415
 2937SOL     OW20446   2.246   3.619   9.358 -0.0998  0.0160  0.1036
 2937SOL    HW120447   2.196   3.666   9.291  1.6196 -1.0228 -1.9440
 2937SOL    HW220448   2.175   3.597   9.418 -2.0971 -0.8298 -2.5350
 2938SOL     OW20449   1.725   3.891   4.132 -0.5677  0.2641  0.2938
 2938SOL    HW120450   1.795   3.831   4.108 -0.5694  0.6185 -0.5971
 2938SOL    HW220451   1.688   3.833   4.198  0.2214  0.3176  0.7869
 2939SOL     OW20452   1.457   2.163   4.699 -0.1356 -0.2509 -0.6248
 2939SOL    HW120453   1.526   2.214   4.741 -1.5341  1.5253 -0.4613
 2939SOL    HW220454   1.453   2.189   4.607 -0.8812  2.3146  0.1183
 2940SOL     OW20455   3.883   4.430   9.325  0.4011 -0.1290  0.0926
 2940SOL    HW120456   3.894   4.524   9.342  0.3434 -0.4014  1.7128
 2940SOL    HW220457   3.828   4.428   9.247 -0.4555  2.0793  0.6540
 2941SOL     OW20458   1.350   3.112  12.708 -0.2266  0.0983  0.2097
 2941SOL    HW120459   1.402   3.051  12.761 -1.9183 -0.9717  0.6594
 2941SOL    HW220460   1.281   3.050  12.685  0.3734 -0.9302  1.1905
 2942SOL     OW20461   0.510   1.434  17.609 -0.7917  0.7508  0.2743
 2942SOL    HW120462   0.527   1.344  17.637 -1.7816 -0.0650 -1.7895
 2942SOL    HW220463   0.555   1.491  17.672  0.2168  2.2194 -1.7933
 2943SOL     OW20464   3.337   3.719  11.927 -0.1360 -0.2710 -0.2999
 2943SOL    HW120465   3.296   3.804  11.936  1.2574  0.4169 -0.4882
 2943SOL    HW220466   3.350   3.722  11.832  0.4177  0.4403 -0.1995
 2944SOL     OW20467   2.906   0.698  12.785  0.0147 -0.4630 -0.1903
 2944SOL    HW120468   2.995   0.682  12.754 -0.0700 -3.0246  0.8642
 2944SOL    HW220469   2.860   0.737  12.711 -1.1569  0.3946  0.9924
 2945SOL     OW20470   0.162   0.033   6.901  0.5684 -0.3484 -0.0347
 2945SOL    HW120471   0.139   0.004   6.989 -2.2671 -0.8639 -0.9523
 2945SOL    HW220472   0.257   0.028   6.909  0.9061  2.6280 -2.1072
 2946SOL     OW20473   3.625   0.638   4.117 -0.6567 -0.2453  0.2454
 2946SOL    HW120474   3.556   0.603   4.061  0.0024  1.2129 -1.4800
 2946SOL    HW220475   3.577   0.716   4.145  0.6658  0.4605  0.5413
 2947SOL     OW20476   1.980   0.223  14.730 -0.2940 -0.3703  0.0342
 2947SOL    HW120477   1.917   0.256  14.795  0.6061 -1.4489  1.4276
 2947SOL    HW220478   1.927   0.215  14.650 -0.2900 -0.9677  0.0911
 2948SOL     OW20479   2.906   0.348   9.144 -0.1683 -0.0120  0.1237
 2948SOL    HW120480   2.846   0.322   9.214 -0.0789  1.6143  0.8046
 2948SOL    HW220481   2.992   0.317   9.172  0.7451  0.4155 -2.2034
 2949SOL     OW20482   0.260   0.104   4.525  0.2397  0.2455 -0.1268
 2949SOL    HW120483   0.242   0.059   4.443  0.4589  0.5703 -0.3521
 2949SOL    HW220484   0.349   0.075   4.546  0.2616 -0.4529 -1.2135
 2950SOL     OW20485   3.553   0.380   1.949 -0.0685  0.0540 -0.2280
 2950SOL    HW120486   3.621   0.353   2.011  0.0383 -0.9248 -0.7566
 2950SOL    HW220487   3.594   0.441   1.888  2.1994 -0.1258  1.1558
 2951SOL     OW20488   3.390   3.628  12.725 -0.3767 -0.3804  0.4880
 2951SOL    HW120489   3.449   3.617  12.650  0.4732 -0.9174  1.2444
 2951SOL    HW220490   3.383   3.537  12.756  0.2597 -0.3185  0.7906
 2952SOL     OW20491   2.829   3.262  16.097 -0.2118  0.4912 -0.2693
 2952SOL    HW120492   2.887   3.264  16.173 -1.3047 -3.8305  0.6991
 2952SOL    HW220493   2.740   3.255  16.133 -0.5645  0.2838 -1.1721
 2953SOL     OW20494   0.831   1.239  15.333 -0.2264 -0.5576 -0.0053
 2953SOL    HW120495   0.858   1.189  15.255  0.8798  0.9421 -0.5906
 2953SOL    HW220496   0.800   1.317  15.286 -0.5361 -0.2669  0.6853
 2954SOL     OW20497   1.029   4.336  14.827  0.5359 -0.7384 -0.0131
 2954SOL    HW120498   1.121   4.336  14.801  0.0928  1.1401 -1.5599
 2954SOL    HW220499   0.997   4.277  14.760 -1.8643  1.5078 -0.8130
 2955SOL     OW20500   2.522   0.985   2.512  0.2399 -0.9318  0.3345
 2955SOL    HW120501   2.501   0.903   2.465 -0.2416 -0.6803  0.1078
 2955SOL    HW220502   2.447   1.035   2.479 -0.0654 -1.3415  0.3958
 2956SOL     OW20503   4.688   0.226   5.696 -0.5069 -0.1341  0.9684
 2956SOL    HW120504   4.597   0.239   5.723 -1.0876  0.4357 -1.1788
 2956SOL    HW220505   4.731   0.252   5.777  0.0227 -0.2718  0.7340
 2957SOL     OW20506   1.885   1.062  13.645 -0.0777  0.5341 -0.9203
 2957SOL    HW120507   1.893   1.013  13.727  0.0678  0.1578 -1.1608
 2957SOL    HW220508   1.843   1.002  13.584  1.1899 -1.7772  0.4354
 2958SOL     OW20509   0.216   0.732   3.550  0.0615  0.3438 -0.8633
 2958SOL    HW120510   0.250   0.665   3.491  1.5649  2.5046 -2.4678
 2958SOL    HW220511   0.151   0.774   3.495  0.3703  2.6579  0.5144
 2959SOL     OW20512   3.977   4.691   3.827  0.1026  0.0854  0.3823
 2959SOL    HW120513   4.000   0.006   3.905 -2.7170  1.1836  0.4998
 2959SOL    HW220514   4.045   4.625   3.833 -0.5722 -0.8170 -2.1346
 2960SOL     OW20515   3.889   0.694  16.812 -0.4091  0.4755 -0.0440
 2960SOL    HW120516   3.955   0.692  16.881  1.8354 -1.6636 -2.2254
 2960SOL    HW220517   3.822   0.653  16.867  0.3122  1.7917  1.8297
 2961SOL     OW20518   4.018   1.990   4.167 -0.1909 -0.3043  0.0045
 2961SOL    HW120519   4.016   2.065   4.108  2.3615  0.5029  0.9569
 2961SOL    HW220520   3.931   1.993   4.208  0.1056  0.2766  0.5903
 2962SOL     OW20521   4.009   3.353  11.167  0.6381 -0.0541  0.1092
 2962SOL    HW120522   3.993   3.295  11.093  0.1683  0.7317 -0.4085
 2962SOL    HW220523   3.944   3.309  11.222  0.5559 -0.7081 -0.5101
 2963SOL     OW20524   2.145   1.604   3.087 -0.3158  0.9824 -0.3558
 2963SOL    HW120525   2.211   1.556   3.137  0.3765  0.0653 -2.1299
 2963SOL    HW220526   2.174   1.693   3.103  2.0414  0.0568  0.4468
 2964SOL     OW20527   2.262   3.642   3.349 -0.1381 -0.1186 -0.7805
 2964SOL    HW120528   2.289   3.562   3.304  0.5737 -0.1326 -0.3343
 2964SOL    HW220529   2.208   3.602   3.418 -0.4085  4.4647  1.6043
 2965SOL     OW20530   2.246   0.210  15.917  0.5943  0.0551 -0.0701
 2965SOL    HW120531   2.314   0.149  15.888 -0.0875 -0.1733 -1.1854
 2965SOL    HW220532   2.173   0.175  15.866  0.0477 -1.4714  1.7676
 2966SOL     OW20533   1.187   1.379   5.752  0.4053  0.3970  0.2909
 2966SOL    HW120534   1.118   1.316   5.733 -2.7272  3.8085  0.3591
 2966SOL    HW220535   1.267   1.328   5.765  0.5699  0.5550 -0.1080
 2967SOL     OW20536   4.078   2.869   9.610 -0.7439  0.1537  0.2399
 2967SOL    HW120537   4.166   2.905   9.617 -0.2067 -1.2403  0.6531
 2967SOL    HW220538   4.096   2.795   9.553 -0.8231  0.9823 -0.8572
 2968SOL     OW20539   3.894   2.663   3.289 -0.2668  0.1508 -0.4010
 2968SOL    HW120540   3.855   2.687   3.205  0.7841 -0.5401 -1.0740
 2968SOL    HW220541   3.918   2.742   3.337 -2.6096  2.3296 -2.8062
 2969SOL     OW20542   4.612   2.134   8.875  0.0730 -0.2976  0.1954
 2969SOL    HW120543   4.653   2.049   8.893 -1.1488 -0.4865  2.0629
 2969SOL    HW220544   4.617   2.129   8.779 -1.1383  2.6314 -0.0300
 2970SOL     OW20545   3.352   0.387  11.060 -0.1284  0.0198 -0.9705
 2970SOL    HW120546   3.269   0.361  11.018 -0.1532 -1.1704 -0.1841
 2970SOL    HW220547   3.320   0.454  11.120 -1.8215  0.7282 -2.6566
 2971SOL     OW20548   0.387   1.665   6.094  0.7978  0.4360  0.4585
 2971SOL    HW120549   0.480   1.683   6.108  0.8952  0.8582 -0.7451
 2971SOL    HW220550   0.393   1.622   6.009  0.5636  0.1144  0.6046
 2972SOL     OW20551   2.753   0.914   4.459 -0.7689  0.6421  0.2770
 2972SOL    HW120552   2.810   0.938   4.386  0.4867 -0.1074  1.0061
 2972SOL    HW220553   2.742   0.993   4.512 -1.2150 -1.5925  3.5230
 2973SOL     OW20554   2.938   2.184   1.064 -0.4473  0.3455 -0.0227
 2973SOL    HW120555   2.922   2.279   1.069 -4.7353 -0.3499 -0.2723
 2973SOL    HW220556   2.963   2.172   0.972 -1.3930 -0.7863 -0.1246
 2974SOL     OW20557   2.469   1.509   9.023  0.4132 -0.7388 -0.3786
 2974SOL    HW120558   2.432   1.460   9.097  1.3650  1.8237  1.7924
 2974SOL    HW220559   2.541   1.548   9.073  1.0427 -0.7243 -1.3046
 2975SOL     OW20560   1.784   2.156  11.267  0.0509 -0.4303 -0.0074
 2975SOL    HW120561   1.704   2.106  11.253 -0.3320 -0.8481  3.6109
 2975SOL    HW220562   1.783   2.220  11.196  0.1819 -0.3456  0.0679
 2976SOL     OW20563   1.155   4.672   7.681  0.4944 -0.1855  0.4314
 2976SOL    HW120564   1.080   4.635   7.634  0.1618  1.9441 -0.6739
 2976SOL    HW220565   1.120   4.722   7.755 -1.3616  0.8144 -1.1304
 2977SOL     OW20566   3.707   2.960   4.360 -0.2337  0.1274  0.4742
 2977SOL    HW120567   3.694   3.029   4.295 -0.8144 -0.2361  0.2005
 2977SOL    HW220568   3.642   2.893   4.338 -0.5001 -0.2948  2.5619
 2978SOL     OW20569   4.300   1.559   9.430 -0.1108  0.2293 -0.1479
 2978SOL    HW120570   4.275   1.505   9.356 -1.5603  1.4369 -0.5359
 2978SOL    HW220571   4.319   1.493   9.497 -1.7885 -1.2394 -1.1179
 2979SOL     OW20572   1.510   2.623  15.855 -0.5064  0.1162 -0.3770
 2979SOL    HW120573   1.421   2.650  15.876  0.1530  1.7873  0.3049
 2979SOL    HW220574   1.546   2.712  15.852 -2.3644  0.9934  3.4363
 2980SOL     OW20575   0.909   1.325   7.664 -0.3598 -0.3323 -0.5302
 2980SOL    HW120576   0.880   1.236   7.645  3.1382 -1.2878 -1.2333
 2980SOL    HW220577   0.958   1.323   7.746 -0.5811 -3.1327 -0.4682
 2981SOL     OW20578   3.253   4.158   3.294  0.4083 -0.4139 -0.0339
 2981SOL    HW120579   3.346   4.138   3.309  0.0797 -1.0544  1.1290
 2981SOL    HW220580   3.208   4.105   3.360 -0.6831  1.9286  1.0813
 2982SOL     OW20581   0.473   0.756   1.682 -0.2171 -0.3502  0.1605
 2982SOL    HW120582   0.548   0.703   1.655 -2.0078 -3.8079  1.9436
 2982SOL    HW220583   0.442   0.784   1.596 -0.4193  1.6540  0.8869
 2983SOL     OW20584   1.146   1.954   8.546 -0.8014 -1.0038 -0.1017
 2983SOL    HW120585   1.099   1.954   8.463 -0.8608  0.5208 -0.0575
 2983SOL    HW220586   1.189   2.037   8.530 -2.1602 -0.3270 -0.2172
 2984SOL     OW20587   4.718   0.471   4.617 -0.3756  0.0871  0.3590
 2984SOL    HW120588   4.646   0.426   4.572  0.2937  0.0873 -0.7141
 2984SOL    HW220589   0.056   0.439   4.565 -0.6803 -1.7890  1.0826
 2985SOL     OW20590   2.735   3.319   2.902 -0.3817  0.1594  0.2555
 2985SOL    HW120591   2.697   3.249   2.848  0.5257  2.3223 -3.2006
 2985SOL    HW220592   2.759   3.255   2.969 -2.9384 -2.7733 -1.5863
 2986SOL     OW20593   2.260   3.807   8.534  0.3990 -0.2947 -0.0925
 2986SOL    HW120594   2.247   3.764   8.619 -0.4781 -2.0274 -1.1113
 2986SOL    HW220595   2.355   3.804   8.525  0.6083 -0.7255  2.3083
 2987SOL     OW20596   4.193   0.667   2.277  0.3848 -0.0927  0.0347
 2987SOL    HW120597   4.127   0.726   2.312 -1.0283 -1.8160  0.2981
 2987SOL    HW220598   4.167   0.592   2.330  0.3846 -1.3059 -1.6598
 2988SOL     OW20599   4.131   1.338   0.189  0.0557 -0.0618 -0.3626
 2988SOL    HW120600   4.081   1.410   0.228  1.7087  0.4863  0.7393
 2988SOL    HW220601   4.209   1.344   0.243  0.1789  0.5037 -0.6051
 2989SOL     OW20602   4.499   3.160  16.892 -0.4841 -0.1928 -0.2014
 2989SOL    HW120603   4.463   3.077  16.924 -2.8525  0.6502 -0.7500
 2989SOL    HW220604   4.479   3.222  16.962 -1.1765 -1.4895  0.7451
 2990SOL     OW20605   4.187   4.730   5.513 -0.2541 -0.1153 -0.3719
 2990SOL    HW120606   4.125   0.067   5.519 -0.2837 -0.0532 -1.4078
 2990SOL    HW220607   4.206   4.713   5.606  0.0139  0.9185 -0.2448
 2991SOL     OW20608   0.341   0.366  16.969  0.1369  0.0337 -0.2420
 2991SOL    HW120609   0.262   0.420  16.964  0.0325 -0.1128 -0.1712
 2991SOL    HW220610   0.307   0.283  17.003  0.7694  0.7068  2.0207
 2992SOL     OW20611   3.838   0.017   4.425 -0.2245  0.5529  0.4040
 2992SOL    HW120612   3.795   0.099   4.401 -0.7922  0.3980  0.8970
 2992SOL    HW220613   3.796   4.733   4.509 -1.1359 -0.5672 -0.3331
 2993SOL     OW20614   3.731   1.012  17.400 -0.5085  0.4696  0.3436
 2993SOL    HW120615   3.731   0.948  17.471  0.7801  1.2885  1.0907
 2993SOL    HW220616   3.645   1.054  17.400 -1.2020 -0.9716  0.5105
 2994SOL     OW20617   4.595   3.441   6.510  0.1729  0.0378 -0.1137
 2994SOL    HW120618   4.513   3.471   6.550  0.3763  1.1564 -0.5414
 2994SOL    HW220619   4.584   3.347   6.499  1.9887 -0.4031  1.8392
 2995SOL     OW20620   4.528   3.320   6.018  0.3024 -0.0928 -0.2351
 2995SOL    HW120621   4.545   3.344   6.110 -2.5214  2.5642 -0.4180
 2995SOL    HW220622   4.579   3.239   6.012 -4.2974 -3.2063  2.1522
 2996SOL     OW20623   0.706   1.701   4.573  0.4676  0.4502  0.3619
 2996SOL    HW120624   0.686   1.658   4.656 -3.2823 -0.6313 -1.1185
 2996SOL    HW220625   0.619   1.735   4.556  0.3394 -0.2041 -0.2614
 2997SOL     OW20626   0.610   1.632   5.235  0.0517  0.3373  0.4767
 2997SOL    HW120627   0.557   1.552   5.245  2.1715 -1.1490 -0.0933
 2997SOL    HW220628   0.699   1.605   5.257 -0.0718  0.2303  0.8484
 2998SOL     OW20629   3.309   4.497   4.641 -0.1419 -0.1557 -0.6161
 2998SOL    HW120630   3.358   4.444   4.703  0.2804  0.4570 -0.4232
 2998SOL    HW220631   3.298   4.576   4.693 -0.1707 -0.6659  0.1430
 2999SOL     OW20632   0.775   2.965  13.906 -0.5182  0.2637 -0.0059
 2999SOL    HW120633   0.687   2.932  13.893  0.4876 -1.9011 -1.2521
 2999SOL    HW220634   0.809   2.878  13.928  1.5699  1.0386 -0.1645
 3000SOL     OW20635   1.258   0.182   3.293 -0.1085 -0.2026 -0.0758
 3000SOL    HW120636   1.174   0.209   3.329  0.4821  0.4248  0.8358
 3000SOL    HW220637   1.320   0.236   3.342 -0.8148 -1.2534  1.9770
 3001SOL     OW20638   2.935   0.637  11.622  0.4279  0.1530 -0.1261
 3001SOL    HW120639   2.925   0.694  11.698  0.3676  2.0342 -1.5376
 3001SOL    HW220640   2.846   0.634  11.586  0.2361 -1.6251  0.4990
 3002SOL     OW20641   3.399   1.004   6.010 -0.2272  0.0204 -0.3736
 3002SOL    HW120642   3.484   1.037   5.980  0.0871 -1.3818 -1.0432
 3002SOL    HW220643   3.341   1.071   5.973  0.0439 -1.0264 -2.7015
 3003SOL     OW20644   2.509   1.516  16.820  0.5446 -0.1885 -0.3723
 3003SOL    HW120645   2.556   1.442  16.858 -0.0794 -0.2687  0.2357
 3003SOL    HW220646   2.521   1.572  16.896  1.9546 -1.3831  0.2728
 3004SOL     OW20647   4.052   3.106   3.807  0.0679  0.1150 -0.3053
 3004SOL    HW120648   4.083   3.044   3.873  1.5280  0.0113 -1.0950
 3004SOL    HW220649   4.135   3.128   3.765  0.8685 -2.0087  0.1587
 3005SOL     OW20650   3.541   2.904   3.143 -0.2478  0.1400 -0.1814
 3005SOL    HW120651   3.590   2.857   3.210  2.7823  0.7895 -1.8873
 3005SOL    HW220652   3.614   2.951   3.102  0.2741  0.5606  1.2268
 3006SOL     OW20653   3.109   1.763   4.556  0.7046 -0.6404 -0.5854
 3006SOL    HW120654   3.087   1.815   4.633  0.5841  0.1899 -1.1858
 3006SOL    HW220655   3.168   1.825   4.513 -1.0875  1.8417  0.5532
 3007SOL     OW20656   4.120   1.187   7.594  0.1119 -0.1226 -0.0853
 3007SOL    HW120657   4.101   1.132   7.518 -0.1215  0.2503 -0.2972
 3007SOL    HW220658   4.029   1.209   7.615 -0.3467 -0.6137 -1.5554
 3008SOL     OW20659   2.499   0.197  12.400  0.1594 -0.1090 -0.1388
 3008SOL    HW120660   2.511   0.109  12.435  0.2924 -0.1901 -0.3904
 3008SOL    HW220661   2.578   0.203  12.347 -0.0862  0.7502 -0.4118
 3009SOL     OW20662   0.044   3.849   1.850  0.2783 -0.2727  0.7298
 3009SOL    HW120663   0.068   3.757   1.845 -1.5476 -0.7361  0.4901
 3009SOL    HW220664   0.117   3.892   1.805 -1.2920  0.0922 -1.4892
 3010SOL     OW20665   1.554   4.633   1.593 -0.1589  0.3564  0.3437
 3010SOL    HW120666   1.551   4.688   1.514 -0.6812  0.0167  0.1258
 3010SOL    HW220667   1.640   4.594   1.582 -0.9750 -1.5342  0.6402
 3011SOL     OW20668   4.167   4.099   1.810  0.0936  0.3626  0.4550
 3011SOL    HW120669   4.246   4.150   1.828  0.5763 -0.1295 -0.2523
 3011SOL    HW220670   4.181   4.030   1.875  0.9265 -0.4161 -0.5534
 3012SOL     OW20671   1.668   2.486  16.143 -0.2432  0.0313  0.7795
 3012SOL    HW120672   1.691   2.576  16.121 -0.1449 -0.0840  0.4152
 3012SOL    HW220673   1.736   2.447  16.089 -0.7926 -0.8575  0.7238
 3013SOL     OW20674   0.655   4.412   9.445  0.0730 -0.0897 -0.1625
 3013SOL    HW120675   0.646   4.342   9.510  0.1629  0.6562  0.6459
 3013SOL    HW220676   0.606   4.479   9.492 -0.3280 -0.4923 -0.0081
 3014SOL     OW20677   0.142   4.363   6.283 -0.2454  0.0247  0.7289
 3014SOL    HW120678   0.200   4.410   6.343  0.2667  0.0522  0.2090
 3014SOL    HW220679   0.070   4.342   6.343 -0.3085 -2.1876 -0.1241
 3015SOL     OW20680   3.269   3.109   2.179 -0.7774  0.3909  0.2079
 3015SOL    HW120681   3.230   3.078   2.261 -0.5977 -0.6780 -0.1143
 3015SOL    HW220682   3.361   3.085   2.185  0.0317  3.8499  1.7701
 3016SOL     OW20683   0.918   3.219   8.973 -0.5370  0.9775  0.0145
 3016SOL    HW120684   0.916   3.315   8.973 -2.4136  0.9433  0.0129
 3016SOL    HW220685   0.875   3.198   9.056  2.1526  1.2174  1.4484
 3017SOL     OW20686   1.945   4.726   5.654  0.2553  0.3056 -0.0955
 3017SOL    HW120687   1.969   4.700   5.743 -2.9706  4.0335  1.8225
 3017SOL    HW220688   1.875   0.054   5.667 -0.0546 -0.4205  1.7365
 3018SOL     OW20689   0.863   2.507   6.197  0.0199 -0.2568  0.5926
 3018SOL    HW120690   0.861   2.559   6.278 -0.0143 -0.1921  0.5500
 3018SOL    HW220691   0.783   2.536   6.154  0.6732 -3.8140 -2.9716
 3019SOL     OW20692   0.606   3.819   5.206  0.0356  0.1003 -0.2737
 3019SOL    HW120693   0.633   3.902   5.166  1.0522 -0.0832  0.0289
 3019SOL    HW220694   0.662   3.752   5.166  0.9078  0.4323  0.3957
 3020SOL     OW20695   1.392   0.584   3.282 -0.2357  0.1800 -0.0170
 3020SOL    HW120696   1.383   0.662   3.338  2.2401  1.7652 -1.8152
 3020SOL    HW220697   1.385   0.515   3.348 -2.8674 -0.4167 -0.8981
 3021SOL     OW20698   2.073   2.678   8.701 -0.4556 -0.2686  0.2988
 3021SOL    HW120699   1.998   2.688   8.642  0.3225  1.0577 -0.4581
 3021SOL    HW220700   2.053   2.602   8.755  0.4998 -1.1628 -0.5970
 3022SOL     OW20701   4.574   3.722   9.623  0.1500  0.0765  0.4959
 3022SOL    HW120702   4.527   3.684   9.549  1.2645  0.4962 -0.4293
 3022SOL    HW220703   4.502   3.785   9.632  0.1063  0.2247 -0.9560
 3023SOL     OW20704   2.291   3.910   9.949  0.6956  0.1474 -0.2190
 3023SOL    HW120705   2.289   3.826   9.904 -2.9242 -1.1805  2.4845
 3023SOL    HW220706   2.205   3.924   9.987  0.1198 -1.0044 -1.0980
 3024SOL     OW20707   0.822   3.672   3.305 -0.4709  0.1835 -0.0451
 3024SOL    HW120708   0.843   3.592   3.353  1.4535  1.4149  1.1746
 3024SOL    HW220709   0.789   3.714   3.383 -0.2953 -0.6276  0.4689
 3025SOL     OW20710   4.668   2.839   6.173 -0.0814 -0.0513 -0.7560
 3025SOL    HW120711   4.649   2.749   6.201  0.4912  0.3989  1.0922
 3025SOL    HW220712   4.727   2.826   6.099  0.5303 -1.3075 -0.0430
 3026SOL     OW20713   1.990   3.296   7.473  0.1896  0.0224 -0.2500
 3026SOL    HW120714   2.005   3.291   7.379  0.8174  2.1241 -0.2543
 3026SOL    HW220715   1.920   3.231   7.468  1.0189 -0.8620 -0.4530
 3027SOL     OW20716   2.816   2.185   5.747  0.1814  0.3489 -0.7594
 3027SOL    HW120717   2.909   2.170   5.763 -0.5370 -0.7426  2.4236
 3027SOL    HW220718   2.797   2.114   5.685 -0.5232  1.7152 -2.1256
 3028SOL     OW20719   1.235   1.116   7.965  0.6617 -0.4033 -0.3628
 3028SOL    HW120720   1.241   1.064   7.885 -2.0474 -1.1491 -0.0581
 3028SOL    HW220721   1.327   1.123   7.989  0.3277  1.2274  0.4327
 3029SOL     OW20722   0.200   1.900   4.485  0.3327 -0.2653  0.3218
 3029SOL    HW120723   0.114   1.860   4.491  0.3134 -0.6504 -2.4316
 3029SOL    HW220724   0.237   1.868   4.403 -2.4525 -0.5465 -0.8201
 3030SOL     OW20725   1.548   1.741   2.281 -0.1687  0.6603 -0.4326
 3030SOL    HW120726   1.576   1.824   2.321  0.8040 -0.3070  0.8751
 3030SOL    HW220727   1.592   1.730   2.197 -0.7682  0.1632 -0.6744
 3031SOL     OW20728   1.950   4.432   3.082 -0.1772 -0.3320 -0.4801
 3031SOL    HW120729   1.937   4.474   3.167 -0.1975 -1.8580  0.2796
 3031SOL    HW220730   1.971   4.491   3.009 -0.8710  0.7005  0.1586
 3032SOL     OW20731   3.775   0.719   8.732 -0.4426  0.6042 -0.7437
 3032SOL    HW120732   3.845   0.776   8.699 -0.8222  1.3911 -0.1806
 3032SOL    HW220733   3.695   0.768   8.710 -0.2323  0.7500 -1.1927
 3033SOL     OW20734   1.242   0.899   0.960 -0.0387  0.1374  0.7102
 3033SOL    HW120735   1.185   0.871   1.032 -1.6798 -1.9926 -1.4468
 3033SOL    HW220736   1.323   0.858   0.990 -0.3745 -1.2474 -0.2659
 3034SOL     OW20737   0.085   2.529  16.615  0.2786 -0.1821  0.0372
 3034SOL    HW120738   0.144   2.604  16.630  2.0719 -1.7731  0.9305
 3034SOL    HW220739   0.011   2.579  16.581  1.6951  1.7094 -0.2637
 3035SOL     OW20740   2.793   2.886   8.188  0.0932  0.1527 -0.4408
 3035SOL    HW120741   2.800   2.901   8.093  2.3229  2.0915  0.0403
 3035SOL    HW220742   2.715   2.939   8.205  0.7454  0.6305  0.9928
 3036SOL     OW20743   4.040   0.495   9.515  0.0388 -1.0391  0.3944
 3036SOL    HW120744   3.973   0.504   9.447  0.9026 -0.4419 -0.3810
 3036SOL    HW220745   4.094   0.435   9.463  0.5264 -0.3916  0.1418
 3037SOL     OW20746   1.749   2.972   2.031 -0.3426  0.0476 -0.2852
 3037SOL    HW120747   1.725   3.036   1.963 -0.4803 -0.3404 -0.6001
 3037SOL    HW220748   1.843   2.987   2.041 -0.5288  0.7605  0.4404
 3038SOL     OW20749   4.196   2.529   4.806  0.8877 -0.0194 -0.1165
 3038SOL    HW120750   4.157   2.494   4.886 -0.3967 -0.9703 -1.1533
 3038SOL    HW220751   4.240   2.607   4.838 -0.3789  1.3693 -1.7540
 3039SOL     OW20752   1.226   4.527  10.123 -0.2129  0.7241 -0.2854
 3039SOL    HW120753   1.141   4.569  10.106 -1.3655 -1.1799  0.7424
 3039SOL    HW220754   1.196   4.439  10.147  1.3688  0.6381  1.3160
 3040SOL     OW20755   0.727   2.434   7.415  0.0924  0.2123  0.4810
 3040SOL    HW120756   0.772   2.412   7.334  3.8053  0.6451  2.4497
 3040SOL    HW220757   0.799   2.417   7.476  1.7190 -2.0733 -2.0802
 3041SOL     OW20758   3.079   2.215  11.839 -0.2144 -0.2586 -0.6248
 3041SOL    HW120759   3.124   2.133  11.820 -1.0290 -0.9543  0.4399
 3041SOL    HW220760   3.110   2.278  11.774  0.2657  0.3394  0.1885
 3042SOL     OW20761   1.860   2.406  14.168  0.3825  0.8208  0.1492
 3042SOL    HW120762   1.774   2.401  14.209  0.0549 -1.3394 -0.8058
 3042SOL    HW220763   1.898   2.435  14.251  0.4129  0.6067  0.2127
 3043SOL     OW20764   3.840   4.274  16.064 -0.3585  0.0193  0.1103
 3043SOL    HW120765   3.748   4.300  16.062 -0.7431 -1.4386 -0.6054
 3043SOL    HW220766   3.860   4.295  15.973 -1.1746 -2.4544 -0.6386
 3044SOL     OW20767   2.916   3.843   2.462  0.0389 -0.4889  0.2630
 3044SOL    HW120768   2.944   3.874   2.376  0.9579 -2.7742 -0.2554
 3044SOL    HW220769   3.002   3.816   2.493  0.1620 -1.6745 -1.1405
 3045SOL     OW20770   0.704   0.687   3.637 -0.5300 -0.1054  0.0944
 3045SOL    HW120771   0.621   0.719   3.671 -0.9221 -2.4956  1.3521
 3045SOL    HW220772   0.714   0.606   3.686  1.9147  0.4057  0.4600
 3046SOL     OW20773   4.002   2.365   6.412  0.5341  0.7683  0.3279
 3046SOL    HW120774   4.027   2.282   6.371 -2.2720  1.3174 -2.5176
 3046SOL    HW220775   4.068   2.361   6.481  0.8890 -0.4462 -0.0779
 3047SOL     OW20776   1.910   1.672  15.404 -0.0224 -0.0992  0.5794
 3047SOL    HW120777   1.926   1.750  15.350  0.0805 -0.6121 -0.1332
 3047SOL    HW220778   1.993   1.673  15.452  0.2853 -2.9557  0.0891
 3048SOL     OW20779   1.846   0.076   1.000  0.2928 -0.2144  0.2857
 3048SOL    HW120780   1.844   0.039   1.088  2.5581  1.2002  0.9491
 3048SOL    HW220781   1.872   0.166   1.023 -2.3351  0.3443  0.9749
 3049SOL     OW20782   2.040   0.087   7.038 -1.0779  0.2035 -0.0914
 3049SOL    HW120783   2.039   0.022   7.108 -3.3024 -1.7537 -1.9744
 3049SOL    HW220784   1.984   0.156   7.074 -0.4453  0.1817  0.9360
 3050SOL     OW20785   0.229   2.384   0.384 -0.6540 -0.0102 -0.3940
 3050SOL    HW120786   0.251   2.425   0.467 -0.4495  0.5932 -0.7493
 3050SOL    HW220787   0.237   2.456   0.322  3.2269 -0.6396 -0.6535
 3051SOL     OW20788   1.642   3.246   9.398 -0.1113  0.0901 -0.1682
 3051SOL    HW120789   1.708   3.314   9.402 -1.2527  1.0657  2.2805
 3051SOL    HW220790   1.660   3.216   9.309 -0.5141  0.8810 -0.5129
 3052SOL     OW20791   4.643   1.834   5.932  0.5534  0.0028  0.8132
 3052SOL    HW120792   4.733   1.855   5.907  0.5352  0.5626  1.2119
 3052SOL    HW220793   4.664   1.772   6.002  1.7264  1.9706  2.1998
 3053SOL     OW20794   0.504   3.766   7.814 -0.0536  0.0470 -0.5500
 3053SOL    HW120795   0.595   3.761   7.841 -0.5804 -0.2689  1.1869
 3053SOL    HW220796   0.462   3.691   7.856 -0.7575  0.4489 -0.5346
 3054SOL     OW20797   2.102   2.026   5.458 -0.0334 -0.1000  0.2912
 3054SOL    HW120798   2.131   1.958   5.398  0.6924  0.4238  0.0501
 3054SOL    HW220799   2.170   2.094   5.461 -0.3289  0.2567 -1.1839
 3055SOL     OW20800   3.632   3.211   8.782  0.3154  0.0321  0.3050
 3055SOL    HW120801   3.657   3.221   8.874 -1.3319  3.5887  0.3553
 3055SOL    HW220802   3.561   3.275   8.778 -0.4099 -0.8450 -1.0529
 3056SOL     OW20803   4.401   1.586   4.835 -0.5764 -0.8727  0.2063
 3056SOL    HW120804   4.354   1.512   4.798 -1.5472 -0.4977  0.6696
 3056SOL    HW220805   4.490   1.557   4.856 -0.1279  0.7716  0.6010
 3057SOL     OW20806   3.385   0.896   2.474  0.3863 -0.1470  0.1329
 3057SOL    HW120807   3.303   0.856   2.446  0.5013  1.0991 -2.0419
 3057SOL    HW220808   3.364   0.942   2.555  0.7346  0.3436 -0.0479
 3058SOL     OW20809   1.935   1.896   4.304 -0.5900  0.6306  0.2220
 3058SOL    HW120810   1.954   1.959   4.235  1.3108 -0.5318 -0.3342
 3058SOL    HW220811   2.027   1.872   4.316 -0.6836 -0.9625 -2.5038
 3059SOL     OW20812   1.543   0.896  11.736  0.1725  0.1709 -0.7044
 3059SOL    HW120813   1.596   0.958  11.785 -0.8327  0.8432 -0.4548
 3059SOL    HW220814   1.460   0.894  11.784 -0.4272  1.3180 -1.7142
 3060SOL     OW20815   2.956   0.120   4.641  0.2913  0.1625  0.1821
 3060SOL    HW120816   2.887   0.088   4.582  1.0440  0.6572 -0.9764
 3060SOL    HW220817   2.978   0.043   4.692  1.2393  0.3290  0.0155
 3061SOL     OW20818   0.740   0.590   2.497  0.0511 -0.0075  0.7522
 3061SOL    HW120819   0.738   0.499   2.525 -1.6201 -0.4346 -0.7331
 3061SOL    HW220820   0.645   0.604   2.488  0.0838 -0.4844 -0.3227
 3062SOL     OW20821   0.957   1.214  14.808  0.1953 -0.6373  0.4397
 3062SOL    HW120822   1.030   1.253  14.759 -1.7806  1.5730 -0.7367
 3062SOL    HW220823   0.998   1.141  14.854 -2.0067 -2.0259  0.2240
 3063SOL     OW20824   3.612   1.643   8.425 -0.0314  0.3370 -0.5245
 3063SOL    HW120825   3.521   1.670   8.432  0.9129  3.6318 -0.6098
 3063SOL    HW220826   3.608   1.564   8.478 -1.2704 -0.4880 -1.8508
 3064SOL     OW20827   3.087   4.537  13.382 -0.1161 -0.0611  0.3461
 3064SOL    HW120828   3.087   4.584  13.299  0.6201 -0.2539  0.2429
 3064SOL    HW220829   3.104   4.605  13.448 -2.3605  0.5132  0.3521
 3065SOL     OW20830   2.136   2.366   4.290  0.3575  0.0377  0.1042
 3065SOL    HW120831   2.105   2.295   4.346 -1.0032  0.0532 -0.6052
 3065SOL    HW220832   2.131   2.439   4.352  0.7511 -0.6374  0.9288
 3066SOL     OW20833   0.911   1.052   7.631 -0.2110 -0.5483  0.8958
 3066SOL    HW120834   0.923   0.973   7.577  2.3527 -0.2909  1.0674
 3066SOL    HW220835   0.896   1.014   7.717  0.4227  0.6043  1.5184
 3067SOL     OW20836   3.693   4.636   6.233  0.2821 -0.3215  0.2233
 3067SOL    HW120837   3.714   4.730   6.228  0.7363 -0.4201  0.2632
 3067SOL    HW220838   3.685   4.610   6.142  0.5158  1.4703 -0.3090
 3068SOL     OW20839   0.062   1.265  13.695  0.0840 -0.4607 -0.2462
 3068SOL    HW120840   0.074   1.195  13.759  1.6121  1.4116  1.5450
 3068SOL    HW220841   4.725   1.317  13.731 -0.8557 -1.1822 -1.1234
 3069SOL     OW20842   0.493   2.992   3.987  0.2317 -0.6168 -0.2409
 3069SOL    HW120843   0.512   3.022   3.898 -1.9578 -2.5027 -1.3557
 3069SOL    HW220844   0.484   3.075   4.033 -2.4100 -0.2440 -1.4101
 3070SOL     OW20845   0.343   1.353   8.419  0.5322  0.3025  0.2035
 3070SOL    HW120846   0.360   1.430   8.364 -0.2187 -0.0208 -0.4947
 3070SOL    HW220847   0.259   1.373   8.461  1.3495  0.0184  1.9339
 3071SOL     OW20848   2.120   0.156   4.192  0.0829  0.2402 -0.8963
 3071SOL    HW120849   2.107   0.197   4.107 -0.7799  0.6645 -0.5650
 3071SOL    HW220850   2.025   0.146   4.206 -0.0924  2.0493 -0.8833
 3072SOL     OW20851   1.426   2.878  14.691 -0.2232  0.0717  0.6647
 3072SOL    HW120852   1.510   2.833  14.695 -0.9690 -1.7495 -3.6488
 3072SOL    HW220853   1.457   2.949  14.634  0.1314 -2.5888 -2.4673
 3073SOL     OW20854   0.798   3.527   3.106  0.0271 -0.3163  0.3359
 3073SOL    HW120855   0.703   3.522   3.121 -0.4776 -0.0482 -2.6982
 3073SOL    HW220856   0.816   3.598   3.166 -1.4340  0.1259  0.2525
 3074SOL     OW20857   1.209   2.662   6.682 -0.0206 -0.7263  0.4270
 3074SOL    HW120858   1.202   2.757   6.673 -0.2391 -0.8365 -0.5681
 3074SOL    HW220859   1.256   2.654   6.765 -0.8444 -0.2530  0.9326
 3075SOL     OW20860   4.258   1.374   6.637  0.5254  0.1153  0.4108
 3075SOL    HW120861   4.278   1.355   6.728 -1.5093 -2.2218  0.3411
 3075SOL    HW220862   4.164   1.363   6.644  0.0889  2.6536 -1.3545
 3076SOL     OW20863   3.281   3.284  13.794 -0.7477 -0.3781 -0.0446
 3076SOL    HW120864   3.369   3.321  13.787 -0.7060 -0.6064 -0.7106
 3076SOL    HW220865   3.225   3.345  13.746  1.1301  1.6771  0.3440
 3077SOL     OW20866   3.412   1.690  11.489 -0.1694  0.6049 -0.3652
 3077SOL    HW120867   3.329   1.651  11.462 -0.9843  0.9656  1.6503
 3077SOL    HW220868   3.447   1.625  11.551 -0.1742 -0.2959 -1.3091
 3078SOL     OW20869   1.494   4.662   9.868 -0.2803 -0.1937 -0.0219
 3078SOL    HW120870   1.400   4.644   9.860  0.1450 -1.5812 -2.0208
 3078SOL    HW220871   1.528   4.589   9.815 -0.2124 -1.5431  1.8616
 3079SOL     OW20872   1.005   1.720   3.361 -0.0900  0.2863  0.5334
 3079SOL    HW120873   1.006   1.756   3.273  1.6887 -0.7515  0.1336
 3079SOL    HW220874   1.023   1.805   3.403  2.0152 -0.6419  1.5283
 3080SOL     OW20875   1.336   4.403   3.078  0.3556 -0.1841 -0.0609
 3080SOL    HW120876   1.369   4.384   3.166 -0.7565  1.3879  0.6880
 3080SOL    HW220877   1.249   4.431   3.103  0.7043  0.3027  0.6052
 3081SOL     OW20878   4.070   4.178  16.706  0.4177  0.6630  0.2285
 3081SOL    HW120879   4.143   4.175  16.644  0.8381  1.6887  0.6622
 3081SOL    HW220880   4.047   4.089  16.733 -0.1997  1.3531  1.9992
 3082SOL     OW20881   0.535   2.745  14.316  0.0688  0.0174 -0.3638
 3082SOL    HW120882   0.572   2.813  14.260 -0.8023  1.2928  0.6086
 3082SOL    HW220883   0.588   2.761  14.394  0.2603 -1.4667 -0.1895
 3083SOL     OW20884   4.186   0.870   8.283  0.6113  0.5735 -0.4614
 3083SOL    HW120885   4.239   0.868   8.363  0.3411  1.0656 -0.2675
 3083SOL    HW220886   4.211   0.959   8.258 -2.0418  0.6020 -2.9976
 3084SOL     OW20887   2.782   2.205   2.507  0.3222  0.0836  0.6296
 3084SOL    HW120888   2.842   2.183   2.435 -1.0149  2.8028 -1.3237
 3084SOL    HW220889   2.847   2.209   2.576 -0.0415 -2.8552  1.1370
 3085SOL     OW20890   1.886   1.999  17.066 -0.3704 -0.2230 -0.1772
 3085SOL    HW120891   1.918   2.064  17.129 -0.4137  0.5272 -0.9386
 3085SOL    HW220892   1.934   2.028  16.988  1.2247  0.6299  1.1129
 3086SOL     OW20893   1.574   4.333   6.408 -0.0896 -0.4247 -1.1959
 3086SOL    HW120894   1.598   4.264   6.470 -0.0402 -0.1215 -0.8725
 3086SOL    HW220895   1.499   4.369   6.456  2.1281  2.6841 -0.0399
 3087SOL     OW20896   0.119   2.671   4.890  0.2928  0.0241  0.3148
 3087SOL    HW120897   0.093   2.697   4.802 -0.7143  0.0407  0.6260
 3087SOL    HW220898   0.210   2.647   4.871 -0.0230 -2.6071  1.9821
 3088SOL     OW20899   4.426   2.928   1.621 -0.6186  0.7282  0.6563
 3088SOL    HW120900   4.457   2.847   1.661 -0.6761 -0.2105 -1.1997
 3088SOL    HW220901   4.347   2.888   1.583 -0.1087 -1.3297  1.7770
 3089SOL     OW20902   1.038   1.935   6.436 -0.4870  0.2346 -0.1883
 3089SOL    HW120903   1.015   1.847   6.468  2.1415  0.5560  2.5504
 3089SOL    HW220904   1.105   1.957   6.500 -0.8461  2.9729 -0.7914
 3090SOL     OW20905   2.350   4.656   2.413  0.0325  0.3816 -0.6217
 3090SOL    HW120906   2.415   4.726   2.423 -0.4019  0.4651  1.5726
 3090SOL    HW220907   2.395   4.582   2.373  1.7423  0.0733  1.8525
 3091SOL     OW20908   1.060   2.230   4.749 -0.3038 -0.3388 -0.1621
 3091SOL    HW120909   1.075   2.291   4.821 -0.0297 -1.0741  0.4020
 3091SOL    HW220910   1.090   2.290   4.680 -1.4365  0.7964  0.3380
 3092SOL     OW20911   2.176   3.487  12.137  0.4163  0.3555 -0.3898
 3092SOL    HW120912   2.097   3.436  12.117 -0.4794  2.0102 -1.0402
 3092SOL    HW220913   2.191   3.461  12.227 -0.0715 -0.3968 -0.5200
 3093SOL     OW20914   3.638   2.239   7.120 -0.3064 -0.0379 -0.2609
 3093SOL    HW120915   3.565   2.223   7.179  0.0108 -0.8489 -0.0924
 3093SOL    HW220916   3.615   2.178   7.049  0.8585 -3.2651  2.1383
 3094SOL     OW20917   3.363   2.107   0.682 -0.0438 -0.4736 -0.2621
 3094SOL    HW120918   3.451   2.075   0.661  0.6417  0.9134  0.4619
 3094SOL    HW220919   3.363   2.065   0.769 -0.9130  2.0202  0.9381
 3095SOL     OW20920   4.506   3.727  13.343  0.2845 -0.5852 -0.1014
 3095SOL    HW120921   4.525   3.640  13.309  5.0315  0.0813  0.7600
 3095SOL    HW220922   4.416   3.714  13.372  0.5775  0.0506  1.0903
 3096SOL     OW20923   3.948   1.726   3.288  0.1544 -0.1318  0.2851
 3096SOL    HW120924   3.888   1.690   3.222 -1.5246  0.9596  1.2154
 3096SOL    HW220925   3.927   1.673   3.365 -2.2703  1.4214  0.6754
 3097SOL     OW20926   2.707   4.121   6.301  0.4645  0.2559 -0.0487
 3097SOL    HW120927   2.793   4.084   6.322  0.4952 -0.4497 -1.4017
 3097SOL    HW220928   2.695   4.105   6.207  0.5926 -1.7779  0.2926
 3098SOL     OW20929   1.867   2.451   4.487 -0.8366 -0.1228  0.5005
 3098SOL    HW120930   1.789   2.402   4.511 -0.7432  0.9336  2.9548
 3098SOL    HW220931   1.914   2.455   4.571  0.8706 -0.3638 -0.4343
 3099SOL     OW20932   0.380   4.435   4.841 -0.8634 -0.1207 -0.1484
 3099SOL    HW120933   0.417   4.411   4.756  0.5657  1.9154 -0.0841
 3099SOL    HW220934   0.297   4.389   4.827 -0.6684 -0.7092  0.6329
 3100SOL     OW20935   1.723   2.933   6.584  0.2028 -0.0899 -0.1481
 3100SOL    HW120936   1.631   2.911   6.594  0.3124  0.4597  1.9693
 3100SOL    HW220937   1.724   2.992   6.508  0.6860 -0.0267 -0.0938
 3101SOL     OW20938   0.726   1.182   7.861 -0.7227  0.0915  0.2168
 3101SOL    HW120939   0.705   1.106   7.916 -0.8479  0.3767  0.5615
 3101SOL    HW220940   0.820   1.183   7.882 -0.6059 -0.3496 -0.2802
 3102SOL     OW20941   2.628   3.886   8.709 -0.2338 -0.2315 -0.4433
 3102SOL    HW120942   2.687   3.879   8.784 -0.5190  0.7475 -0.1197
 3102SOL    HW220943   2.626   3.982   8.699 -0.5038 -0.5266 -3.1699
 3103SOL     OW20944   4.485   1.257   2.524  0.9766 -0.4109 -0.0440
 3103SOL    HW120945   4.413   1.263   2.586  2.4036 -0.9132  1.6591
 3103SOL    HW220946   4.460   1.302   2.443 -0.3848  0.4455  0.8646
 3104SOL     OW20947   3.196   0.630  11.794  0.1986  0.1928  0.6174
 3104SOL    HW120948   3.185   0.724  11.810 -0.0003  0.8276 -3.3887
 3104SOL    HW220949   3.233   0.621  11.882 -0.8465  1.1284  1.1510
 3105SOL     OW20950   0.849   1.110  16.908  0.4923  0.1733 -0.2595
 3105SOL    HW120951   0.771   1.066  16.941  0.6312  0.0587 -0.0810
 3105SOL    HW220952   0.819   1.183  16.854  0.4728 -1.4805 -2.4667
 3106SOL     OW20953   4.143   4.099   8.662  0.2541  0.2245 -0.6110
 3106SOL    HW120954   4.067   4.112   8.605 -1.2650  0.0669  1.3806
 3106SOL    HW220955   4.174   4.184   8.693 -0.3222  1.1481 -2.5081
 3107SOL     OW20956   3.820   0.531   9.697  0.3209 -0.1210  0.2482
 3107SOL    HW120957   3.847   0.590   9.766 -0.6955  1.4384 -0.6926
 3107SOL    HW220958   3.907   0.511   9.662 -0.1881 -1.5634 -0.1847
 3108SOL     OW20959   3.441   3.706   2.065 -0.4257  0.4376  0.2044
 3108SOL    HW120960   3.354   3.673   2.042 -0.5474  1.1199 -0.3339
 3108SOL    HW220961   3.490   3.632   2.032  1.1266  1.8428 -0.6391
 3109SOL     OW20962   2.771   3.465   8.350  0.0880 -0.3355 -0.2501
 3109SOL    HW120963   2.849   3.482   8.403  0.7633 -0.3047 -1.2302
 3109SOL    HW220964   2.706   3.477   8.418  1.2634 -0.1136  0.8341
 3110SOL     OW20965   0.586   1.327  10.103 -0.4625 -0.0209  0.3265
 3110SOL    HW120966   0.598   1.373  10.186 -1.1193 -0.3461  0.6016
 3110SOL    HW220967   0.509   1.280  10.134 -0.8639  0.2347 -0.2878
 3111SOL     OW20968   0.374   2.876   7.334  0.2023 -0.0694 -0.3490
 3111SOL    HW120969   0.312   2.826   7.280  1.4884 -2.4270  0.3382
 3111SOL    HW220970   0.313   2.934   7.379 -0.5107  0.3257 -1.8028
 3112SOL     OW20971   0.235   3.911   6.062 -0.1744 -0.4823 -0.2814
 3112SOL    HW120972   0.182   3.946   6.133  4.0184  0.1571  2.5030
 3112SOL    HW220973   0.167   3.869   6.009 -2.1001  2.6800 -0.3171
 3113SOL     OW20974   4.499   2.069   7.953  0.0532  0.3953  0.3203
 3113SOL    HW120975   4.564   2.125   7.995  1.1137  2.3082 -3.8361
 3113SOL    HW220976   4.420   2.088   8.004 -0.8916  0.2613 -1.1082
 3114SOL     OW20977   1.558   3.851   0.854 -0.1702  0.2234  0.0013
 3114SOL    HW120978   1.505   3.787   0.901  0.9339 -0.7287 -0.0415
 3114SOL    HW220979   1.497   3.914   0.816  0.0765  0.1260 -0.5665
 3115SOL     OW20980   0.446   4.328   9.076 -0.3298 -0.0239 -0.2517
 3115SOL    HW120981   0.482   4.336   8.988  1.4938  1.7312  0.6457
 3115SOL    HW220982   0.478   4.412   9.109 -0.1608 -0.1007 -0.2223
 3116SOL     OW20983   4.266   3.079   3.095  0.3125  0.0061  0.5323
 3116SOL    HW120984   4.317   3.064   3.174  1.0207 -4.3560 -0.7208
 3116SOL    HW220985   4.233   2.990   3.079  2.4449 -1.0018  1.7197
 3117SOL     OW20986   4.524   0.992   8.354  0.3163  0.0532 -0.4941
 3117SOL    HW120987   4.584   0.932   8.311  1.2881  1.2625 -0.8230
 3117SOL    HW220988   4.572   1.072   8.332  1.2289 -0.6818 -1.1310
 3118SOL     OW20989   2.247   0.511   0.086  0.0090  0.1535 -0.0873
 3118SOL    HW120990   2.247   0.422   0.052 -0.0160  0.2251 -0.2752
 3118SOL    HW220991   2.217   0.558   0.008 -0.9815 -1.8722 -0.9284
 3119SOL     OW20992   0.313   3.257   1.077 -0.5190 -0.4577 -0.5630
 3119SOL    HW120993   0.378   3.201   1.119 -1.2619  0.8021  2.3134
 3119SOL    HW220994   0.353   3.280   0.993  1.3743  0.1814  0.5182
 3120SOL     OW20995   2.263   3.078   5.927 -0.0099 -0.2193  0.0810
 3120SOL    HW120996   2.225   3.061   5.841 -2.3331 -2.3036  1.4823
 3120SOL    HW220997   2.222   3.007   5.977 -0.4530  1.6874  2.4270
 3121SOL     OW20998   3.674   3.711   3.049 -0.2432  0.1038 -0.5824
 3121SOL    HW120999   3.672   3.661   3.131 -2.7402 -0.3556 -0.9192
 3121SOL    HW221000   3.579   3.722   3.047 -0.3525 -1.1190 -1.4563
 3122SOL     OW21001   2.314   1.368   5.673 -0.4303 -0.5745  0.0185
 3122SOL    HW121002   2.344   1.339   5.758  1.0291 -0.7418 -0.5631
 3122SOL    HW221003   2.271   1.449   5.698 -2.1287 -1.0628 -1.2847
 3123SOL     OW21004   2.686   0.859  11.982 -0.0479  0.5951 -0.3959
 3123SOL    HW121005   2.665   0.900  12.066 -1.0254  0.4181 -0.5597
 3123SOL    HW221006   2.609   0.889  11.933 -0.5249 -0.8961 -0.5524
 3124SOL     OW21007   4.407   0.149   4.760  0.2389 -0.4482  0.1672
 3124SOL    HW121008   4.454   0.069   4.785 -1.9372 -1.3927  1.3198
 3124SOL    HW221009   4.322   0.111   4.736  0.7070 -0.6223 -1.1875
 3125SOL     OW21010   0.850   3.803   6.015  0.0474  0.6920 -0.3843
 3125SOL    HW121011   0.841   3.862   5.940 -1.5791  1.4651  0.4138
 3125SOL    HW221012   0.943   3.802   6.037 -0.0245  0.8575 -0.0636
 3126SOL     OW21013   2.766   0.870   2.629 -0.2151 -0.1439  0.3357
 3126SOL    HW121014   2.689   0.905   2.584  1.2492 -0.4556 -2.4181
 3126SOL    HW221015   2.730   0.795   2.677 -0.2934  0.1300  0.7039
 3127SOL     OW21016   1.420   1.015   5.313  0.3435  0.4630  0.3359
 3127SOL    HW121017   1.436   1.077   5.241  1.0525  0.0130  0.1036
 3127SOL    HW221018   1.501   0.965   5.307  0.0595  0.0480 -0.0778
 3128SOL     OW21019   2.714   2.537  13.812  0.0563  0.2903 -0.3653
 3128SOL    HW121020   2.726   2.626  13.781  0.9857  0.4023  0.3144
 3128SOL    HW221021   2.752   2.491  13.738  1.7471  0.6733  0.2754
 3129SOL     OW21022   0.925   1.682   3.904  0.1626 -0.0848 -0.1761
 3129SOL    HW121023   0.996   1.678   3.968 -1.8088 -0.6077  1.9773
 3129SOL    HW221024   0.970   1.633   3.835 -0.6532  0.9656 -1.4763
 3130SOL     OW21025   2.593   3.157   4.361  0.1296  0.1870  0.2130
 3130SOL    HW121026   2.649   3.188   4.290  0.7909 -0.3727  0.4940
 3130SOL    HW221027   2.600   3.062   4.349  1.2860 -0.1349  3.6258
 3131SOL     OW21028   0.387   4.004   4.615 -0.0721 -0.3173 -0.1185
 3131SOL    HW121029   0.463   3.978   4.563  0.0877  0.0188 -0.0511
 3131SOL    HW221030   0.417   4.021   4.704 -0.6678  0.1277 -0.0015
 3132SOL     OW21031   1.516   1.333   5.417 -0.3599 -0.0368 -0.2056
 3132SOL    HW121032   1.584   1.271   5.444  1.1527  0.5878 -2.5281
 3132SOL    HW221033   1.515   1.389   5.494 -1.4481 -0.6542  0.2247
 3133SOL     OW21034   0.480   0.241   2.481 -0.6534 -0.4717 -0.5958
 3133SOL    HW121035   0.522   0.297   2.546 -1.2975 -1.8579  1.0061
 3133SOL    HW221036   0.543   0.252   2.409  1.9436  1.3206  1.9615
 3134SOL     OW21037   1.282   4.333   4.255 -0.0508  0.0773 -0.5233
 3134SOL    HW121038   1.223   4.375   4.317 -1.1764 -1.0290 -0.8501
 3134SOL    HW221039   1.299   4.403   4.191  0.7311  0.1947 -0.1810
 3135SOL     OW21040   3.727   0.953   2.582  0.2095  0.2183  0.2243
 3135SOL    HW121041   3.784   0.911   2.646  0.4064  1.0980  0.6388
 3135SOL    HW221042   3.693   0.874   2.541  0.7175 -0.3340  0.8590
 3136SOL     OW21043   2.121   0.617  10.696  0.3476  0.0316  0.0960
 3136SOL    HW121044   2.112   0.541  10.754  1.4969  0.4676  0.8417
 3136SOL    HW221045   2.027   0.635  10.690  0.4265  0.4215  0.0242
 3137SOL     OW21046   3.872   4.191   1.859  0.4645  0.1262 -0.5173
 3137SOL    HW121047   3.915   4.133   1.796  2.2859  1.2166 -0.2851
 3137SOL    HW221048   3.885   4.267   1.801 -1.3316 -0.2488 -1.4110
 3138SOL     OW21049   1.770   1.383   8.910  0.9285 -0.1953 -0.5173
 3138SOL    HW121050   1.852   1.366   8.864  3.0885  1.2477  2.8338
 3138SOL    HW221051   1.798   1.401   8.999  1.5828  1.6889 -1.0970
 3139SOL     OW21052   0.510   2.359  17.145  0.4871 -0.1328  0.0666
 3139SOL    HW121053   0.556   2.287  17.189 -1.3642 -2.1536 -1.3050
 3139SOL    HW221054   0.439   2.319  17.095 -0.3139 -1.0264  1.8984
 3140SOL     OW21055   3.907   2.568   5.201  0.8906 -0.7619 -0.4039
 3140SOL    HW121056   3.868   2.488   5.235 -0.8281  0.2810  0.0617
 3140SOL    HW221057   3.986   2.531   5.161  2.9682  0.7187  2.3151
 3141SOL     OW21058   1.427   2.411  11.635 -0.2053  0.3424  0.6475
 3141SOL    HW121059   1.443   2.503  11.616  0.5631  0.7134  3.0653
 3141SOL    HW221060   1.472   2.374  11.559 -0.2734  0.9717  0.3108
 3142SOL     OW21061   0.926   1.485   3.435 -0.0161 -0.1596  0.2058
 3142SOL    HW121062   0.948   1.575   3.410 -0.2748 -0.5705 -1.4683
 3142SOL    HW221063   0.835   1.476   3.408 -1.0015  1.4141  2.9479
 3143SOL     OW21064   0.710   0.942   4.566  0.1702 -0.1356  0.8559
 3143SOL    HW121065   0.782   1.005   4.564  1.3213 -1.4715  0.2548
 3143SOL    HW221066   0.649   0.994   4.513  1.3808  0.5037  0.1040
 3144SOL     OW21067   3.261   0.660  14.190 -0.1976  0.4646  0.0335
 3144SOL    HW121068   3.328   0.728  14.178 -0.2651  0.2612 -1.4358
 3144SOL    HW221069   3.229   0.705  14.268 -0.1128 -1.6562  1.3041
 3145SOL     OW21070   1.045   3.262   2.316 -0.2040  0.6732  0.2104
 3145SOL    HW121071   0.957   3.283   2.346 -0.5664  0.8167 -0.9648
 3145SOL    HW221072   1.043   3.170   2.290 -1.3003 -0.1470  3.2210
 3146SOL     OW21073   0.670   1.350   3.725  0.3301 -0.5940  0.1846
 3146SOL    HW121074   0.706   1.367   3.812  0.2740 -0.8115  0.2519
 3146SOL    HW221075   0.719   1.402   3.662  0.4048  0.0309  0.7613
 3147SOL     OW21076   3.197   2.159   6.635  0.1231 -0.3138 -0.0913
 3147SOL    HW121077   3.114   2.116   6.613 -1.1652  1.9447  0.3720
 3147SOL    HW221078   3.183   2.246   6.599 -3.7746 -0.2989  1.4565
 3148SOL     OW21079   3.361   4.694  14.191 -0.0533  0.7099  0.2743
 3148SOL    HW121080   3.357   0.053  14.176 -0.9317  0.2526 -2.4374
 3148SOL    HW221081   3.422   4.684  14.264  0.1602  2.7558  0.3805
 3149SOL     OW21082   0.931   0.637   5.692  0.0351 -0.4282 -0.0943
 3149SOL    HW121083   0.922   0.696   5.767 -1.4843 -1.0727  0.2314
 3149SOL    HW221084   0.886   0.681   5.620  3.9596  1.2378 -1.5550
 3150SOL     OW21085   1.192   1.896   2.238 -0.2146 -0.1859 -0.2678
 3150SOL    HW121086   1.139   1.818   2.250  0.6083 -0.6636  0.3254
 3150SOL    HW221087   1.195   1.896   2.143  0.3084 -0.9022 -0.2571
 3151SOL     OW21088   2.062   1.047   8.510  0.7169 -0.0340 -0.1061
 3151SOL    HW121089   2.035   0.957   8.495  0.4957 -0.1039  0.7327
 3151SOL    HW221090   2.037   1.061   8.601 -0.5593 -0.6064 -0.3714
 3152SOL     OW21091   0.335   2.139  11.046 -0.0193 -0.2978 -0.0896
 3152SOL    HW121092   0.333   2.121  10.952 -3.2629 -1.4361  0.1840
 3152SOL    HW221093   0.306   2.230  11.049 -0.0241 -0.2273 -1.7957
 3153SOL     OW21094   0.817   2.784   1.762  0.0337  0.7480  0.4067
 3153SOL    HW121095   0.733   2.800   1.806  1.5081  0.1771  3.4305
 3153SOL    HW221096   0.843   2.696   1.788  2.0458  0.9707 -0.8884
 3154SOL     OW21097   0.447   3.769   2.341 -0.2291 -0.2583 -0.0867
 3154SOL    HW121098   0.506   3.766   2.267  0.8999 -1.2966  0.8591
 3154SOL    HW221099   0.386   3.842   2.335  1.9537  1.3607 -2.2110
 3155SOL     OW21100   3.353   4.260   5.852 -0.3918 -0.2211 -0.1570
 3155SOL    HW121101   3.338   4.215   5.769  2.3861 -0.1627 -0.6829
 3155SOL    HW221102   3.433   4.308   5.828  0.0900 -1.1408 -0.3798
 3156SOL     OW21103   0.506   1.118   5.678  0.1809 -0.3961  0.2783
 3156SOL    HW121104   0.489   1.164   5.596 -2.2117  0.8606  1.4828
 3156SOL    HW221105   0.503   1.027   5.647  0.0140 -0.1489 -0.4287
 3157SOL     OW21106   2.969   2.174   0.800 -0.1275  0.1589 -1.2288
 3157SOL    HW121107   3.009   2.131   0.724  3.6119  0.7374  0.3967
 3157SOL    HW221108   3.003   2.262   0.781  0.7533 -0.0902 -0.8190
 3158SOL     OW21109   4.594   4.690   9.079  0.2713 -0.0439 -0.4920
 3158SOL    HW121110   4.582   4.600   9.050 -2.7043  0.1136  0.2834
 3158SOL    HW221111   4.516   4.728   9.039  0.8967  2.8539  1.0262
 3159SOL     OW21112   3.352   4.072   5.205 -0.2190 -0.3951  0.3635
 3159SOL    HW121113   3.388   3.984   5.218  1.7111  0.2045 -0.9931
 3159SOL    HW221114   3.282   4.076   5.270 -1.2001  1.5219 -0.8187
 3160SOL     OW21115   2.001   2.014   3.323 -0.1069 -0.0461 -0.0610
 3160SOL    HW121116   2.083   2.056   3.350  0.1260 -0.5212 -0.0389
 3160SOL    HW221117   1.994   1.957   3.400  0.7106  1.3794  1.0872
 3161SOL     OW21118   2.579   1.035  12.719 -0.4892  0.2803 -0.0079
 3161SOL    HW121119   2.596   1.050  12.626 -0.5230  0.0205 -0.0549
 3161SOL    HW221120   2.608   1.113  12.766 -1.9312  0.6570  0.2646
 3162SOL     OW21121   2.882   4.405   5.467 -0.1358 -0.1944 -0.2168
 3162SOL    HW121122   2.884   4.330   5.407 -1.1960  1.2612 -2.0675
 3162SOL    HW221123   2.809   4.391   5.528  0.9373  0.1383  1.1565
 3163SOL     OW21124   3.856   0.018   8.146  0.4857  0.0211 -0.3437
 3163SOL    HW121125   3.793   4.691   8.182  1.3892 -0.7318 -0.0853
 3163SOL    HW221126   3.933   0.005   8.201 -0.1146  0.0527  0.5052
 3164SOL     OW21127   4.558   0.813   5.049  0.0761  0.0684 -1.2843
 3164SOL    HW121128   4.466   0.810   5.076 -0.3788  1.0158 -2.6900
 3164SOL    HW221129   4.581   0.727   5.085  1.6935  1.2281  0.4322
 3165SOL     OW21130   0.617   3.686  16.566 -0.2760  0.0519  0.0522
 3165SOL    HW121131   0.554   3.665  16.498 -0.5596  2.8177 -0.5313
 3165SOL    HW221132   0.691   3.715  16.513 -0.9273  2.2599  0.3923
 3166SOL     OW21133   2.719   4.532   8.262 -0.0364 -0.4920  0.8123
 3166SOL    HW121134   2.634   4.548   8.304  0.5038  4.4287  0.1263
 3166SOL    HW221135   2.707   4.567   8.173 -1.6232 -1.6089  0.5932
 3167SOL     OW21136   0.665   1.865   5.041  0.4088  0.2806 -0.0943
 3167SOL    HW121137   0.624   1.809   5.107 -1.6762  1.2155 -0.5977
 3167SOL    HW221138   0.754   1.875   5.076  0.0315 -1.4014  1.3384
 3168SOL     OW21139   2.162   2.711   9.177  0.5177  0.4051  0.2097
 3168SOL    HW121140   2.160   2.778   9.246 -1.0277  0.3107  0.2555
 3168SOL    HW221141   2.185   2.634   9.228 -1.7054 -0.2559  0.2323
 3169SOL     OW21142   2.979   3.632   8.726  0.4896 -0.2398 -0.0098
 3169SOL    HW121143   2.909   3.615   8.790 -0.8582 -0.2721 -1.4973
 3169SOL    HW221144   3.059   3.627   8.779  1.8360 -0.7238 -2.1001
 3170SOL     OW21145   3.264   2.605   2.106 -0.2448  0.6918  0.2317
 3170SOL    HW121146   3.210   2.537   2.066  0.4129  1.3125 -1.7175
 3170SOL    HW221147   3.203   2.655   2.160 -2.2276 -0.8669 -0.5665
 3171SOL     OW21148   2.722   0.723   6.208 -0.6660  0.6217  0.1914
 3171SOL    HW121149   2.644   0.713   6.262 -0.3863 -0.6893  0.3431
 3171SOL    HW221150   2.675   0.771   6.140 -1.3408 -1.4039 -0.7674
 3172SOL     OW21151   0.730   1.045   7.276  0.6262  0.2725 -0.7455
 3172SOL    HW121152   0.826   1.043   7.284  0.8382  1.1459 -3.1878
 3172SOL    HW221153   0.706   1.123   7.326  0.5410  2.0499 -3.6083
 3173SOL     OW21154   2.087   1.495  12.048 -0.3556 -0.2115  0.1319
 3173SOL    HW121155   2.014   1.502  11.988  0.5135 -1.6332 -1.0774
 3173SOL    HW221156   2.144   1.439  11.995 -1.6323 -0.0643 -1.3754
 3174SOL     OW21157   2.695   1.063   3.938  0.3225 -0.4808 -0.2878
 3174SOL    HW121158   2.649   1.039   3.858 -2.1862  0.3382  0.9321
 3174SOL    HW221159   2.639   1.122   3.986 -1.0757 -1.5106 -0.6481
 3175SOL     OW21160   0.497   0.142   6.683  0.4250 -0.3628 -0.7102
 3175SOL    HW121161   0.591   0.139   6.699  0.5009 -4.0073 -1.7489
 3175SOL    HW221162   0.486   0.226   6.639  2.0041  1.2651  2.0483
 3176SOL     OW21163   2.644   0.388   0.717 -0.3130  0.3687  0.2542
 3176SOL    HW121164   2.706   0.452   0.751 -1.6800  1.2368  1.1170
 3176SOL    HW221165   2.561   0.410   0.761 -0.6453  0.3234 -0.3489
 3177SOL     OW21166   3.634   3.877  11.829  0.0523  0.4943 -0.2207
 3177SOL    HW121167   3.590   3.795  11.850 -0.4407  0.5841 -0.8917
 3177SOL    HW221168   3.645   3.876  11.734 -1.1104 -1.4807 -0.3298
 3178SOL     OW21169   1.614   4.710   3.393  0.1242 -0.2593  0.0354
 3178SOL    HW121170   1.531   4.713   3.346 -0.4132  0.1748  1.0159
 3178SOL    HW221171   1.585   0.030   3.465  1.3160  0.4595 -0.0524
 3179SOL     OW21172   4.680   2.111   2.845  0.3874  0.0276 -0.2796
 3179SOL    HW121173   4.599   2.128   2.795  1.1681  0.8861 -1.2623
 3179SOL    HW221174   4.648   2.104   2.935 -0.7389  1.8109 -0.5213
 3180SOL     OW21175   3.776   2.135   2.545  0.4899  0.5532  1.0434
 3180SOL    HW121176   3.715   2.136   2.619  1.4903 -0.5236  1.8744
 3180SOL    HW221177   3.799   2.228   2.540  3.3791 -0.2823 -1.6118
 3181SOL     OW21178   2.116   1.924  13.310 -0.1053  0.0345 -0.3803
 3181SOL    HW121179   2.149   1.997  13.363  1.1008 -2.2060  1.9934
 3181SOL    HW221180   2.026   1.942  13.285 -0.7157 -1.2488  0.8698
 3182SOL     OW21181   4.214   0.618  11.815 -0.1244 -0.0889  0.0808
 3182SOL    HW121182   4.296   0.656  11.784 -0.3318  2.5499  2.6779
 3182SOL    HW221183   4.203   0.641  11.908 -1.4076  0.1663 -0.1299
 3183SOL     OW21184   2.668   2.123   9.886 -0.4337  0.4038  0.8412
 3183SOL    HW121185   2.592   2.142   9.940 -1.1720 -0.0777 -0.0288
 3183SOL    HW221186   2.689   2.032   9.906  0.5609  0.4363 -0.0077
 3184SOL     OW21187   2.755   1.562   5.919 -0.2392  0.4165 -0.2957
 3184SOL    HW121188   2.804   1.603   5.848  1.2447 -0.5375  0.1735
 3184SOL    HW221189   2.755   1.635   5.981  0.6395 -1.1768  1.5719
 3185SOL     OW21190   3.577   3.453   7.653  0.1368 -0.2059  0.1181
 3185SOL    HW121191   3.636   3.493   7.717  1.6185 -0.8313 -0.8601
 3185SOL    HW221192   3.579   3.365   7.690  0.8231 -1.2294 -2.3689
 3186SOL     OW21193   2.991   2.339   9.533  0.4719  0.3875 -0.0422
 3186SOL    HW121194   3.086   2.350   9.532  0.3722  1.2557  0.5040
 3186SOL    HW221195   2.974   2.369   9.622 -2.2258  0.5452 -0.6009
 3187SOL     OW21196   2.997   2.608   8.592 -0.0847 -0.2903 -0.1031
 3187SOL    HW121197   2.983   2.694   8.552  2.0238  0.9410  1.7723
 3187SOL    HW221198   3.093   2.602   8.600 -0.1036  0.9615  1.0298
 3188SOL     OW21199   2.595   1.577   8.080  0.6238 -0.1651  0.1508
 3188SOL    HW121200   2.619   1.640   8.148  0.8091 -0.4046  0.3081
 3188SOL    HW221201   2.522   1.532   8.122  2.3519 -2.5913  0.6111
 3189SOL     OW21202   3.962   4.054   0.024 -0.5571  0.4268 -0.3531
 3189SOL    HW121203   3.881   4.105   0.024 -1.7026 -1.3868  0.8695
 3189SOL    HW221204   4.025   4.126   0.019 -1.1922  1.0632  0.8477
 3190SOL     OW21205   3.312   3.207   9.952 -0.2571 -0.0642 -0.1989
 3190SOL    HW121206   3.293   3.289   9.907 -1.2930  0.5577  1.3959
 3190SOL    HW221207   3.288   3.136   9.892 -0.6832  0.5894 -0.8089
 3191SOL     OW21208   3.415   3.117  11.990 -0.2730  0.0710 -0.2904
 3191SOL    HW121209   3.330   3.120  11.947 -0.5494 -0.2727  0.2310
 3191SOL    HW221210   3.413   3.025  12.018 -2.0885  0.5159  1.0515
 3192SOL     OW21211   3.758   2.743  16.439 -0.1716  0.4480  0.8919
 3192SOL    HW121212   3.782   2.695  16.359  2.4462  0.9553  1.3882
 3192SOL    HW221213   3.805   2.690  16.503 -1.3307 -0.8317  0.7094
 3193SOL     OW21214   4.717   4.635  15.997  0.2090  0.2644 -0.6933
 3193SOL    HW121215   0.037   4.698  16.043  1.5387 -0.7299 -0.9412
 3193SOL    HW221216   4.732   4.654  15.905 -0.3243 -1.8035 -1.1920
 3194SOL     OW21217   1.054   4.705  10.729  0.0160  0.7466  0.1674
 3194SOL    HW121218   0.994   0.018  10.786 -1.4105 -0.3541 -0.4033
 3194SOL    HW221219   1.032   4.616  10.754 -1.6108  1.1335  0.1613
 3195SOL     OW21220   2.827   2.575   8.030 -0.2991 -0.1274 -0.3676
 3195SOL    HW121221   2.756   2.639   8.022 -1.2913 -1.2177 -0.1882
 3195SOL    HW221222   2.783   2.510   8.084 -0.3450 -1.5034 -2.1059
 3196SOL     OW21223   0.802   3.077   4.232  0.2744  0.1177 -0.4196
 3196SOL    HW121224   0.776   3.076   4.324 -1.8940 -0.8094 -1.0564
 3196SOL    HW221225   0.770   3.166   4.214 -0.9471 -0.2126  0.1482
 3197SOL     OW21226   2.511   1.643   9.674  0.1818  0.2177 -0.1212
 3197SOL    HW121227   2.488   1.556   9.643 -1.5887  0.1218  1.4901
 3197SOL    HW221228   2.586   1.658   9.616  0.2664 -0.4754 -0.1893
 3198SOL     OW21229   0.947   1.948   5.051  0.5407  0.1192 -0.2904
 3198SOL    HW121230   0.981   1.999   5.124 -1.5529 -0.0575  0.7941
 3198SOL    HW221231   1.000   1.869   5.059  1.5969  1.0819  2.3529
 3199SOL     OW21232   3.657   1.825  13.436 -0.0180 -0.0750 -0.5338
 3199SOL    HW121233   3.596   1.799  13.506  0.4484 -0.7189 -0.3588
 3199SOL    HW221234   3.625   1.904  13.394  1.1996 -0.2191 -1.7425
 3200SOL     OW21235   3.966   4.145  10.543 -0.2894 -0.2187  0.3110
 3200SOL    HW121236   4.012   4.207  10.600  2.1027 -1.5755 -0.1467
 3200SOL    HW221237   4.043   4.097  10.512  1.1623  1.4622  1.3294
 3201SOL     OW21238   1.669   4.389   3.084  0.3177 -0.1707 -0.0158
 3201SOL    HW121239   1.597   4.339   3.123  0.1144  1.9720  2.4218
 3201SOL    HW221240   1.747   4.335   3.078 -2.1112 -3.5873 -0.7852
 3202SOL     OW21241   2.514   0.669   8.523  0.0665 -0.2008  0.0923
 3202SOL    HW121242   2.520   0.708   8.436 -2.2084 -0.0282 -0.0065
 3202SOL    HW221243   2.477   0.585   8.496 -2.5270  1.4339 -1.4922
 3203SOL     OW21244   4.281   2.627   8.384 -0.0675  0.1514  0.6824
 3203SOL    HW121245   4.258   2.539   8.415 -2.1005  0.4910  0.1457
 3203SOL    HW221246   4.318   2.610   8.298  2.8555  0.2059  1.9290
 3204SOL     OW21247   2.832   1.166   2.821  0.4442  0.0943  0.4464
 3204SOL    HW121248   2.863   1.202   2.904 -0.0799  3.0018 -0.6214
 3204SOL    HW221249   2.875   1.226   2.760 -1.1084 -0.8678 -1.5653
 3205SOL     OW21250   0.184   4.522   2.444  0.4852 -0.3839  0.2653
 3205SOL    HW121251   0.126   4.539   2.519 -1.7198 -0.8979 -1.3436
 3205SOL    HW221252   0.114   4.494   2.386  0.1117 -1.6497  1.3349
 3206SOL     OW21253   3.698   1.115   8.509  0.3420  0.1482  0.1683
 3206SOL    HW121254   3.615   1.071   8.493  0.0484 -0.3654  3.1737
 3206SOL    HW221255   3.751   1.053   8.458 -1.2918  0.9099 -2.4449
 3207SOL     OW21256   4.513   4.104   6.457 -0.7978  0.4505 -0.4866
 3207SOL    HW121257   4.449   4.035   6.441 -0.5492  0.1047  0.0096
 3207SOL    HW221258   4.575   4.045   6.501 -1.5619 -0.1166 -0.1740
 3208SOL     OW21259   2.530   4.173   1.498 -0.2303  0.1919 -0.2760
 3208SOL    HW121260   2.579   4.145   1.576 -1.7144 -2.1365 -0.1846
 3208SOL    HW221261   2.556   4.104   1.437  0.5532  0.4282 -0.2160
 3209SOL     OW21262   3.455   0.926  13.009 -0.0475 -0.5026  0.5097
 3209SOL    HW121263   3.416   1.013  13.020  0.0810  0.0212 -3.2734
 3209SOL    HW221264   3.441   0.893  13.098  2.4587 -1.0269  0.7060
 3210SOL     OW21265   3.166   3.412   6.829 -0.3962  0.7012  0.2906
 3210SOL    HW121266   3.084   3.451   6.798 -0.1546  2.5546  2.0289
 3210SOL    HW221267   3.132   3.329   6.864 -1.2539  1.6272  1.6322
 3211SOL     OW21268   1.643   0.773   5.835 -0.0957 -0.3468  0.3676
 3211SOL    HW121269   1.724   0.742   5.794 -1.2468 -2.3342 -0.3898
 3211SOL    HW221270   1.598   0.690   5.848 -1.5064  0.2401 -0.7371
 3212SOL     OW21271   0.175   1.771   4.234 -0.0048 -0.9284 -0.1337
 3212SOL    HW121272   0.233   1.698   4.212  1.1053 -0.3919  0.9815
 3212SOL    HW221273   0.089   1.735   4.212 -0.9326  0.6670  0.9446
 3213SOL     OW21274   4.319   3.458   6.227 -0.8991 -0.1817  0.0004
 3213SOL    HW121275   4.283   3.439   6.140  2.8963  1.1285 -1.8606
 3213SOL    HW221276   4.409   3.432   6.205 -1.0827 -2.0963  1.5653
 3214SOL     OW21277   1.326   0.114   3.871  0.0514 -0.2389 -0.6102
 3214SOL    HW121278   1.322   0.058   3.793 -3.1469 -0.3741 -0.3681
 3214SOL    HW221279   1.411   0.082   3.902  0.3983  1.7347  0.4702
 3215SOL     OW21280   0.433   2.142   1.836 -0.1205 -0.0676  0.4069
 3215SOL    HW121281   0.449   2.199   1.761  1.5655  0.0517  0.8535
 3215SOL    HW221282   0.400   2.062   1.796  2.0978 -0.1899 -1.1779
 3216SOL     OW21283   2.587   1.129   3.442  0.3522 -0.5451 -0.0785
 3216SOL    HW121284   2.660   1.071   3.464 -1.1627 -2.2409  0.4196
 3216SOL    HW221285   2.628   1.176   3.369 -0.2101  0.4548  0.2487
 3217SOL     OW21286   3.555   3.339  12.078  0.3075 -0.3557 -0.4277
 3217SOL    HW121287   3.503   3.265  12.048 -0.8893  0.3348 -0.0337
 3217SOL    HW221288   3.634   3.298  12.112 -0.1063  0.1536  1.1211
 3218SOL     OW21289   0.731   3.376  10.067  0.3721 -0.2995  0.0105
 3218SOL    HW121290   0.648   3.361  10.022  0.7263 -0.1929 -0.6710
 3218SOL    HW221291   0.767   3.289  10.052  1.0864 -0.2130  1.2386
 3219SOL     OW21292   1.876   3.814  17.409 -0.1583 -0.6705  0.7779
 3219SOL    HW121293   1.885   3.833  17.316 -0.8544  0.0732  0.8628
 3219SOL    HW221294   1.965   3.795  17.438  0.5545  0.7901 -0.4640
 3220SOL     OW21295   2.361   3.425   3.216 -0.1787  0.0941 -0.0706
 3220SOL    HW121296   2.429   3.419   3.148  0.4903  0.8047  0.5314
 3220SOL    HW221297   2.293   3.385   3.162 -0.9136 -0.5649  1.3565
 3221SOL     OW21298   3.966   0.376   3.000  0.2092 -0.0990 -0.0887
 3221SOL    HW121299   3.907   0.308   3.033 -0.5345  1.6066  2.0644
 3221SOL    HW221300   3.913   0.415   2.930 -2.7029 -1.2846  1.4642
 3222SOL     OW21301   1.573   0.447   2.825  0.2033  0.6842 -0.5824
 3222SOL    HW121302   1.559   0.512   2.894  0.8506  1.3105 -1.0364
 3222SOL    HW221303   1.653   0.477   2.782  0.2772 -0.2283 -1.0686
 3223SOL     OW21304   0.090   0.931  17.731 -0.5884 -0.4777 -0.6577
 3223SOL    HW121305   0.178   0.945  17.698  0.3882 -0.7353  1.8772
 3223SOL    HW221306   0.085   1.017   0.032  1.3702 -1.0261  0.6564
 3224SOL     OW21307   4.552   2.445   9.559 -0.4563 -0.8146 -0.7077
 3224SOL    HW121308   4.547   2.540   9.563 -0.1560 -0.9103  2.0104
 3224SOL    HW221309   4.625   2.432   9.499  0.0520 -0.3587 -0.1839
 3225SOL     OW21310   4.655   2.861   2.856  0.0718  0.5022  0.6748
 3225SOL    HW121311   4.695   2.915   2.924 -0.5878 -0.2876  1.6847
 3225SOL    HW221312   4.581   2.918   2.836 -0.2141 -0.5366 -1.2219
 3226SOL     OW21313   1.760   1.335   2.870 -0.2762 -0.2076 -0.0707
 3226SOL    HW121314   1.765   1.395   2.797  0.6520  0.9093  0.9121
 3226SOL    HW221315   1.671   1.348   2.904 -0.4285  1.1849 -1.0409
 3227SOL     OW21316   1.918   3.271   0.949  0.0826  0.4005  0.4025
 3227SOL    HW121317   1.888   3.181   0.940 -0.9266  0.7909 -0.1385
 3227SOL    HW221318   1.929   3.274   1.044 -0.9357 -1.8671  0.5970
 3228SOL     OW21319   1.050   1.591   1.909  0.4299 -0.1572  0.5752
 3228SOL    HW121320   1.120   1.554   1.855 -1.5087 -0.4695 -1.7471
 3228SOL    HW221321   0.976   1.599   1.848  2.7247 -0.5358 -2.2253
 3229SOL     OW21322   0.929   3.409  11.725  0.2388 -0.5651 -0.0996
 3229SOL    HW121323   1.012   3.432  11.767 -0.3594 -0.3475  0.9649
 3229SOL    HW221324   0.945   3.431  11.633  2.0738 -0.0425  0.3519
 3230SOL     OW21325   1.344   0.985   4.429 -0.3535 -0.7984  0.0920
 3230SOL    HW121326   1.373   0.995   4.338 -1.2602  1.9411  0.1093
 3230SOL    HW221327   1.421   1.033   4.460 -0.4645 -0.7632  0.3120
 3231SOL     OW21328   1.234   1.278   2.471  0.4959 -0.2099 -0.9910
 3231SOL    HW121329   1.158   1.315   2.426  0.7537  1.5947  0.0630
 3231SOL    HW221330   1.200   1.242   2.553  2.9823 -2.8472 -1.1071
 3232SOL     OW21331   0.430   0.031   6.923 -0.3417 -0.6255 -0.2148
 3232SOL    HW121332   0.488   4.690   6.926 -1.6096 -1.5794 -0.2838
 3232SOL    HW221333   0.461   0.081   6.847 -0.7381  0.5420  0.3964
 3233SOL     OW21334   2.937   0.680   8.509  0.4788 -0.0361 -0.3806
 3233SOL    HW121335   2.945   0.623   8.433  1.2838 -0.3597 -0.0420
 3233SOL    HW221336   2.914   0.616   8.576 -1.5611  0.4227 -0.6236
 3234SOL     OW21337   0.871   3.120  14.300 -0.0590  0.1019 -0.2047
 3234SOL    HW121338   0.836   3.187  14.242 -0.7198  0.0507  0.1276
 3234SOL    HW221339   0.843   3.159  14.383 -1.8795  1.8582 -1.6293
 3235SOL     OW21340   1.730   1.155   5.794  0.0395  0.2458  0.0914
 3235SOL    HW121341   1.704   1.085   5.854 -0.8854  0.4901 -0.0194
 3235SOL    HW221342   1.698   1.229   5.845  1.2384 -1.2568  3.0143
 3236SOL     OW21343   4.504   3.875   7.333 -0.0207 -0.6346 -0.3762
 3236SOL    HW121344   4.466   3.924   7.406 -0.0420  0.4998 -1.1692
 3236SOL    HW221345   4.591   3.850   7.362  0.0982 -0.5417 -0.6564
 3237SOL     OW21346   1.334   2.061   9.541 -0.2786  0.1259  0.2775
 3237SOL    HW121347   1.344   2.034   9.633  2.4082 -2.4144 -0.7632
 3237SOL    HW221348   1.421   2.036   9.510 -0.3391  1.4242 -0.9140
 3238SOL     OW21349   4.206   4.710   4.654  0.1150  0.4540 -0.6472
 3238SOL    HW121350   4.165   4.711   4.567 -0.6607 -0.2145 -0.2933
 3238SOL    HW221351   4.248   4.624   4.655 -1.8215 -0.5001 -1.3874
 3239SOL     OW21352   3.157   2.045   2.710 -0.2417 -0.6796 -0.1820
 3239SOL    HW121353   3.218   2.102   2.755 -0.2450 -1.8081  1.2479
 3239SOL    HW221354   3.074   2.092   2.713 -0.2286 -0.5039 -2.9554
 3240SOL     OW21355   4.567   0.948   3.948  0.5699 -0.0430  0.1815
 3240SOL    HW121356   4.567   0.928   4.042  3.8267 -0.6198  0.0627
 3240SOL    HW221357   4.661   0.946   3.933  0.5461  0.8862 -0.0827
 3241SOL     OW21358   1.454   1.888   4.771 -0.3043 -0.5647  0.6676
 3241SOL    HW121359   1.465   1.978   4.740  2.1478 -1.4258 -1.0152
 3241SOL    HW221360   1.359   1.883   4.763 -0.1381  2.2103 -3.3376
 3242SOL     OW21361   0.796   2.377   2.581  0.3211  0.3565 -0.6631
 3242SOL    HW121362   0.742   2.297   2.584  0.0669  0.4893 -2.1075
 3242SOL    HW221363   0.751   2.419   2.655  0.3606 -0.3633 -0.2213
 3243SOL     OW21364   3.281   3.951   8.997 -0.0733 -1.1511 -0.0021
 3243SOL    HW121365   3.339   3.892   8.950  0.5478 -0.8183  0.3534
 3243SOL    HW221366   3.289   4.032   8.945  1.9505 -0.4444  1.4161
 3244SOL     OW21367   4.606   0.730   5.769 -1.4131 -0.4957 -0.2787
 3244SOL    HW121368   4.566   0.762   5.688  1.0989 -0.0705 -1.3412
 3244SOL    HW221369   4.698   0.752   5.760 -1.7923  0.4906 -1.8657
 3245SOL     OW21370   0.136   0.759   2.852 -0.0799  0.0524 -0.0675
 3245SOL    HW121371   0.212   0.755   2.794 -1.5757  0.1495 -2.0487
 3245SOL    HW221372   0.064   0.758   2.788 -0.3544 -1.2098  0.2654
 3246SOL     OW21373   0.755   3.404   7.863 -0.1115 -0.0395 -0.0847
 3246SOL    HW121374   0.811   3.334   7.832  2.1734  1.3153  0.9933
 3246SOL    HW221375   0.689   3.356   7.914  0.9379 -1.7221 -0.3455
 3247SOL     OW21376   0.766   2.294   4.184 -0.3226 -0.0971 -0.3919
 3247SOL    HW121377   0.677   2.270   4.158 -1.5172  2.0673  1.5796
 3247SOL    HW221378   0.744   2.327   4.272 -0.7681  0.7725 -0.8234
 3248SOL     OW21379   4.129   1.127   4.056  0.6381  0.0920  0.0247
 3248SOL    HW121380   4.209   1.135   4.004  0.4909  0.8996 -0.0751
 3248SOL    HW221381   4.146   1.042   4.098  3.0573  0.2194 -0.6865
 3249SOL     OW21382   1.561   3.336   6.057  0.3882 -0.0190  0.0683
 3249SOL    HW121383   1.609   3.400   6.004 -2.1337  0.7980 -1.2337
 3249SOL    HW221384   1.502   3.295   5.994  0.1805  0.1762  0.1367
 3250SOL     OW21385   1.237   2.053  13.496 -0.0729 -0.1313 -0.2311
 3250SOL    HW121386   1.187   1.976  13.521  0.1693 -0.6648 -1.3606
 3250SOL    HW221387   1.188   2.087  13.421 -0.0722 -1.5955 -0.9054
 3251SOL     OW21388   1.262   0.673   1.368 -0.0457 -0.5224  0.5076
 3251SOL    HW121389   1.223   0.649   1.452 -2.4050  1.3453 -0.0597
 3251SOL    HW221390   1.229   0.598   1.317 -0.8865  0.5256 -0.4963
 3252SOL     OW21391   4.353   3.755   4.934 -0.1330  0.3390 -0.0409
 3252SOL    HW121392   4.272   3.769   4.983  0.0861 -0.2672  0.5065
 3252SOL    HW221393   4.417   3.804   4.988 -1.2591  1.3984  0.3388
 3253SOL     OW21394   1.338   4.010   6.186  0.0404 -0.1157  0.1965
 3253SOL    HW121395   1.416   3.990   6.237  0.1472 -1.0882 -0.3309
 3253SOL    HW221396   1.350   3.937   6.126 -1.4029  0.4221 -0.7570
 3254SOL     OW21397   0.919   4.648  16.312  0.2536 -0.1527 -0.0219
 3254SOL    HW121398   0.896   4.682  16.225  0.3789 -1.4197 -0.5510
 3254SOL    HW221399   0.845   4.587  16.320  0.7556 -0.6476  0.8348
 3255SOL     OW21400   4.458   1.277  13.436  0.3433  0.6687  0.5093
 3255SOL    HW121401   4.475   1.200  13.491 -0.1181  0.4662  0.3750
 3255SOL    HW221402   4.364   1.289  13.445  0.5207  3.6289 -1.6131
 3256SOL     OW21403   0.647   3.970   8.882  0.6908 -0.5393 -0.4840
 3256SOL    HW121404   0.690   3.907   8.939 -0.5129  0.7213  1.8185
 3256SOL    HW221405   0.560   3.988   8.918  1.8824  0.4869  1.8505
 3257SOL     OW21406   3.382   1.984  12.663  0.3550  0.4127  0.7909
 3257SOL    HW121407   3.296   2.021  12.643  1.1005  1.0517 -1.3095
 3257SOL    HW221408   3.404   2.019  12.749  1.3010  1.6359  0.0606
 3258SOL     OW21409   3.480   2.400   5.655  0.4010  0.0061  0.2495
 3258SOL    HW121410   3.436   2.318   5.631  1.4468  0.0476 -1.8229
 3258SOL    HW221411   3.569   2.379   5.625  0.3101 -1.5305  1.0445
 3259SOL     OW21412   3.972   3.138   0.095 -0.2540  0.6736  0.5799
 3259SOL    HW121413   3.882   3.106   0.084  0.1663 -0.6733  1.0244
 3259SOL    HW221414   3.962   3.230   0.072 -1.8327 -0.1578 -2.0735
 3260SOL     OW21415   3.210   0.116   0.330  0.6118 -0.0885  0.1626
 3260SOL    HW121416   3.118   0.119   0.357  0.5217 -2.5568  0.0806
 3260SOL    HW221417   3.248   0.194   0.369  1.5230  0.0650 -1.0582
 3261SOL     OW21418   2.147   1.951   8.227 -0.0521  0.4606  0.2155
 3261SOL    HW121419   2.064   1.983   8.264 -1.6591 -2.3122 -0.9698
 3261SOL    HW221420   2.209   1.940   8.298 -0.5890  0.4490  0.6856
 3262SOL     OW21421   1.857   0.637   5.788 -0.0251 -0.1996 -0.4022
 3262SOL    HW121422   1.889   0.675   5.706 -2.1709  2.2257 -0.1190
 3262SOL    HW221423   1.920   0.662   5.855 -1.2312 -0.2479  0.7419
 3263SOL     OW21424   1.709   1.758  14.907 -0.4329  0.5456 -0.0392
 3263SOL    HW121425   1.615   1.767  14.923 -0.4930 -0.8393  0.3354
 3263SOL    HW221426   1.706   1.737  14.813 -2.8615 -0.8472  0.3599
 3264SOL     OW21427   2.284   4.154   5.945  0.0679  0.5046 -0.0543
 3264SOL    HW121428   2.352   4.098   5.908  0.3782 -0.1370  1.5188
 3264SOL    HW221429   2.232   4.173   5.867  2.3400 -2.1067 -2.1962
 3265SOL     OW21430   4.672   3.258   1.751 -0.2721 -0.3568  0.1618
 3265SOL    HW121431   4.605   3.316   1.714 -1.8739 -2.2763  0.1070
 3265SOL    HW221432   0.012   3.315   1.734 -2.7576  3.1088  0.6185
 3266SOL     OW21433   3.257   3.250  14.073  0.3272 -0.1527  0.7454
 3266SOL    HW121434   3.331   3.265  14.131 -0.1792  2.3735  0.7684
 3266SOL    HW221435   3.281   3.310  14.002 -2.6362 -0.1471 -0.2748
 3267SOL     OW21436   3.360   1.841   3.022  0.6550  0.4902  0.4148
 3267SOL    HW121437   3.426   1.822   3.088  0.1609  1.8919  1.3082
 3267SOL    HW221438   3.286   1.790   3.055  0.0954  0.7979 -0.3623
 3268SOL     OW21439   1.392   4.176  15.558  0.0480  0.1071 -0.0046
 3268SOL    HW121440   1.373   4.150  15.467 -0.6038 -1.2507  0.5082
 3268SOL    HW221441   1.419   4.266  15.540  0.0923 -0.1502 -1.2247
 3269SOL     OW21442   0.442   3.609  16.350 -0.2218  0.7055  0.3870
 3269SOL    HW121443   0.366   3.649  16.392 -0.0783 -0.9640  2.2507
 3269SOL    HW221444   0.405   3.575  16.269 -0.7045 -0.5123  1.1099
 3270SOL     OW21445   4.683   0.891   6.714  0.1732 -0.0402  0.0758
 3270SOL    HW121446   4.625   0.851   6.649 -0.9954 -0.0785  1.1334
 3270SOL    HW221447   4.663   0.845   6.795 -2.1006 -2.1218 -1.6443
 3271SOL     OW21448   1.960   0.937   7.448 -0.1540 -1.1976 -0.0865
 3271SOL    HW121449   1.952   1.032   7.460 -1.3437 -0.8726 -3.3434
 3271SOL    HW221450   1.936   0.928   7.356  0.6758  1.0488 -0.5342
 3272SOL     OW21451   0.132   2.946   4.762 -0.0148 -0.6645 -0.1228
 3272SOL    HW121452   0.107   2.875   4.702 -0.5640  0.0044 -0.6729
 3272SOL    HW221453   0.227   2.939   4.754  0.1136  1.0834 -0.0075
 3273SOL     OW21454   3.470   1.854   5.044  0.0775 -0.1227  0.1163
 3273SOL    HW121455   3.400   1.793   5.067 -0.2332  0.8066  1.6370
 3273SOL    HW221456   3.538   1.796   5.078 -0.8986 -0.1797  1.9735
 3274SOL     OW21457   2.791   3.806  13.447 -0.0142 -0.0078  0.0860
 3274SOL    HW121458   2.747   3.721  13.448 -1.0896  0.5231 -1.7861
 3274SOL    HW221459   2.723   3.866  13.417  1.9378  2.1383 -0.0521
 3275SOL     OW21460   1.459   3.529   4.118 -0.0295  0.2121 -0.2220
 3275SOL    HW121461   1.521   3.587   4.073  2.2845 -0.4161  2.1146
 3275SOL    HW221462   1.515   3.452   4.130  2.4702  2.2011  1.1254
 3276SOL     OW21463   0.928   2.928   9.678  0.0508  0.3255  0.4959
 3276SOL    HW121464   1.015   2.891   9.668 -1.5333 -2.9445 -0.9737
 3276SOL    HW221465   0.908   2.877   9.757  1.6496  0.8487  1.2434
 3277SOL     OW21466   1.128   3.853   8.564 -0.2583 -0.0219 -0.5480
 3277SOL    HW121467   1.050   3.863   8.618  0.1173  0.4579 -0.0967
 3277SOL    HW221468   1.117   3.915   8.492  1.1407  0.7486 -0.0852
 3278SOL     OW21469   3.695   1.496   5.360  0.4911  0.1099 -0.6150
 3278SOL    HW121470   3.657   1.449   5.434  2.3041 -2.1826 -1.1774
 3278SOL    HW221471   3.724   1.421   5.309 -1.8323 -0.0577 -1.6954
 3279SOL     OW21472   4.538   1.324  10.942 -0.5404  0.6274  0.7572
 3279SOL    HW121473   4.469   1.259  10.932 -1.0082  1.0654  1.1507
 3279SOL    HW221474   4.602   1.274  10.993 -1.2899 -3.1802 -2.0623
 3280SOL     OW21475   2.173   4.343   6.369 -0.0796  0.0288  0.4963
 3280SOL    HW121476   2.235   4.386   6.427 -0.8450  1.1473  0.4663
 3280SOL    HW221477   2.236   4.333   6.297 -1.2045  0.9330 -0.6069
 3281SOL     OW21478   4.048   3.237   3.010  0.0482 -0.5251  0.7110
 3281SOL    HW121479   4.131   3.188   3.007 -0.3700 -1.1336 -1.1159
 3281SOL    HW221480   4.054   3.260   3.103  0.5698 -1.7959  0.9886
 3282SOL     OW21481   0.705   4.044   3.490  0.0913 -0.0480  0.3812
 3282SOL    HW121482   0.662   3.992   3.422  0.2813 -1.4848  1.3491
 3282SOL    HW221483   0.748   3.970   3.534  0.8508 -0.8584 -1.7219
 3283SOL     OW21484   1.411   0.293   0.192  0.0651 -0.0912 -0.1302
 3283SOL    HW121485   1.392   0.219   0.249  1.8087  0.2125  0.8777
 3283SOL    HW221486   1.347   0.356   0.225 -0.9799  0.2647 -2.8601
 3284SOL     OW21487   0.536   3.123   3.758  0.3173  0.2194  0.7439
 3284SOL    HW121488   0.508   3.194   3.700  0.6188 -0.7196 -0.5305
 3284SOL    HW221489   0.609   3.167   3.803  2.3969 -1.1321 -1.3340
 3285SOL     OW21490   0.121   4.667   4.998 -0.5190 -0.0414 -0.2238
 3285SOL    HW121491   0.136   4.667   4.903 -0.7094  0.4520 -0.2563
 3285SOL    HW221492   0.208   4.658   5.036 -0.0858  1.1621 -0.9224
 3286SOL     OW21493   3.685   4.094   3.855  0.4597 -0.2887 -0.1281
 3286SOL    HW121494   3.770   4.136   3.865  0.0760 -0.3543  3.4264
 3286SOL    HW221495   3.638   4.168   3.816  1.5677  0.7528  0.5177
 3287SOL     OW21496   4.290   3.974  12.560 -0.1077 -0.1650 -0.2529
 3287SOL    HW121497   4.341   4.018  12.492  2.0807 -0.6335  1.0787
 3287SOL    HW221498   4.267   3.893  12.514 -1.8759 -0.4925  1.2107
 3288SOL     OW21499   4.330   3.551  11.482 -0.8169 -0.1645 -0.2257
 3288SOL    HW121500   4.258   3.568  11.543  0.5425 -0.8224  1.5590
 3288SOL    HW221501   4.348   3.637  11.443 -0.1296 -1.1191 -1.9934
 3289SOL     OW21502   4.707   3.682   6.713 -0.3731 -0.3018  0.4471
 3289SOL    HW121503   0.000   3.603   6.668  0.8476 -0.4186  1.4381
 3289SOL    HW221504   4.631   3.655   6.764 -1.8911  1.0739 -1.0642
 3290SOL     OW21505   0.277   4.549  15.655  0.3343  0.2793  0.2426
 3290SOL    HW121506   0.323   4.616  15.604  1.6041 -1.0458 -0.3237
 3290SOL    HW221507   0.337   4.475  15.652 -0.2916 -0.3128  1.9508
 3291SOL     OW21508   3.621   3.076  11.320  0.5489 -0.3395 -0.2337
 3291SOL    HW121509   3.580   3.070  11.234  0.0607  1.4450 -0.1189
 3291SOL    HW221510   3.551   3.107  11.377  0.2642  0.2565 -0.8951
 3292SOL     OW21511   1.022   2.969   8.777 -0.1220 -0.2606 -0.3439
 3292SOL    HW121512   0.941   2.961   8.828  0.8651 -0.0110  1.2777
 3292SOL    HW221513   0.993   2.927   8.696  0.7447  1.4857 -1.5337
 3293SOL     OW21514   1.938   0.490   1.261  0.1352 -0.5662  0.9064
 3293SOL    HW121515   1.873   0.548   1.302 -0.4803 -2.0596  2.0361
 3293SOL    HW221516   2.017   0.545   1.255 -1.3800  1.2430 -2.0014
 3294SOL     OW21517   2.300   1.186   6.251 -0.6570 -0.0731  0.1517
 3294SOL    HW121518   2.272   1.264   6.202  2.3833  0.3385 -0.9549
 3294SOL    HW221519   2.223   1.173   6.307 -1.4977  0.8955 -0.7731
 3295SOL     OW21520   3.265   3.247   4.932  0.3750 -0.1452 -0.0605
 3295SOL    HW121521   3.259   3.153   4.913 -0.2672 -0.1113 -0.0226
 3295SOL    HW221522   3.340   3.266   4.875  0.5075 -0.1356  0.1168
 3296SOL     OW21523   3.343   4.104   5.615  0.5001 -0.2946 -0.0420
 3296SOL    HW121524   3.373   4.017   5.640  0.1491 -0.1582  0.8499
 3296SOL    HW221525   3.273   4.077   5.556 -2.1160  2.5754  1.7608
 3297SOL     OW21526   2.879   3.059   9.296 -0.0888  0.1086  0.2519
 3297SOL    HW121527   2.936   2.988   9.325  0.2299 -0.7549 -2.4184
 3297SOL    HW221528   2.886   3.049   9.201 -2.1741 -0.5462  0.1843
 3298SOL     OW21529   2.591   4.262   3.482 -0.1334  0.0590 -0.6244
 3298SOL    HW121530   2.678   4.222   3.476  0.2185  0.3188  2.7618
 3298SOL    HW221531   2.603   4.315   3.403  2.6310  0.0218 -0.2242
 3299SOL     OW21532   0.250   3.478   6.861 -0.0227  0.0015  0.2622
 3299SOL    HW121533   0.176   3.487   6.800 -0.6650 -0.5265  0.9545
 3299SOL    HW221534   0.324   3.509   6.810  1.2796 -0.3587  1.9115
 3300SOL     OW21535   0.519   0.158   0.007 -0.5643 -0.0252  0.0529
 3300SOL    HW121536   0.549   0.138   0.096  1.5034 -0.7381 -0.8065
 3300SOL    HW221537   0.606   0.163  17.707 -0.6212  0.1087 -0.0520
 3301SOL     OW21538   0.664   3.787   2.865  0.2708  0.1556  0.3645
 3301SOL    HW121539   0.587   3.732   2.878 -0.2413  1.0686  1.1616
 3301SOL    HW221540   0.667   3.839   2.945  0.6528  2.0417 -0.8449
 3302SOL     OW21541   2.492   2.588   7.756  0.4593  0.3329 -0.9624
 3302SOL    HW121542   2.582   2.556   7.763 -0.5665 -2.4804 -0.6941
 3302SOL    HW221543   2.446   2.505   7.769  0.9994  0.4300  1.6721
 3303SOL     OW21544   1.024   0.939  14.075 -0.0357  0.5423 -0.1465
 3303SOL    HW121545   1.046   0.949  13.982  3.0996 -1.9613  0.3220
 3303SOL    HW221546   0.959   0.869  14.081 -2.2241  2.3594 -2.6093
 3304SOL     OW21547   3.915   2.191   3.543  0.0624  0.6330  0.1603
 3304SOL    HW121548   3.985   2.126   3.537 -0.9845 -0.3018 -1.9899
 3304SOL    HW221549   3.947   2.253   3.609  0.5389  0.0432  0.4841
 3305SOL     OW21550   0.566   0.879   7.426  0.2246 -0.0346  0.3694
 3305SOL    HW121551   0.642   0.920   7.385  0.0238  0.7937  0.8071
 3305SOL    HW221552   0.497   0.885   7.361  0.2718  1.4746  0.4473
 3306SOL     OW21553   4.722   1.504   5.610 -0.1356  0.1418 -0.9537
 3306SOL    HW121554   4.641   1.551   5.629 -0.4855 -1.8439  2.5922
 3306SOL    HW221555   0.044   1.540   5.678 -1.7245 -0.7638  0.8530
 3307SOL     OW21556   2.596   4.229  17.657 -0.0787 -0.3535 -0.2706
 3307SOL    HW121557   2.602   4.248   0.009 -0.7836 -0.1918 -0.2560
 3307SOL    HW221558   2.679   4.182  17.646 -0.0254 -0.4206  0.4376
 3308SOL     OW21559   2.943   1.675   4.176  0.7531 -0.2618  0.7631
 3308SOL    HW121560   2.996   1.662   4.097 -1.3848  0.0593 -0.7234
 3308SOL    HW221561   2.926   1.768   4.167 -0.8040 -0.7207 -1.1012
 3309SOL     OW21562   2.195   2.517  15.394 -0.0146  0.9519 -0.2702
 3309SOL    HW121563   2.164   2.587  15.336 -0.0071  1.4681  0.3475
 3309SOL    HW221564   2.224   2.459  15.324 -1.9204  1.6416 -1.6253
 3310SOL     OW21565   3.286   4.336   2.688 -0.6213 -0.0363  0.2527
 3310SOL    HW121566   3.322   4.336   2.600  0.9271 -0.4410  0.8913
 3310SOL    HW221567   3.192   4.353   2.682 -0.2639  2.3343  1.0805
 3311SOL     OW21568   1.763   2.589   5.948 -0.0894  0.6359  0.9520
 3311SOL    HW121569   1.810   2.510   5.918 -1.2130 -0.8468  3.1013
 3311SOL    HW221570   1.829   2.657   5.962  1.1978 -0.2690 -0.7022
 3312SOL     OW21571   3.607   2.074  13.263 -0.1958 -0.5932  0.4392
 3312SOL    HW121572   3.684   2.085  13.319 -0.5319  0.0304  0.7738
 3312SOL    HW221573   3.648   2.016  13.198 -0.0581 -0.6088  0.5393
 3313SOL     OW21574   0.351   2.348   3.706 -0.5037  0.1078 -0.4437
 3313SOL    HW121575   0.284   2.382   3.646 -1.8457 -2.3789 -0.3395
 3313SOL    HW221576   0.436   2.363   3.666  0.1830  2.0891  1.7256
 3314SOL     OW21577   0.725   1.272   7.398 -0.0410 -0.4315  0.0577
 3314SOL    HW121578   0.693   1.314   7.317 -0.1524 -0.1213  0.2631
 3314SOL    HW221579   0.673   1.326   7.457  1.7171  0.8760  0.4131
 3315SOL     OW21580   1.485   1.878   3.749  0.4139 -0.2542  0.1309
 3315SOL    HW121581   1.451   1.810   3.808  1.0135 -1.7416 -1.2527
 3315SOL    HW221582   1.575   1.871   3.780  0.6753 -0.1669 -0.6250
 3316SOL     OW21583   0.054   1.180   0.116  0.3493 -0.1593  0.3624
 3316SOL    HW121584   4.709   1.226   0.094 -0.1018 -0.5134  1.2898
 3316SOL    HW221585   0.101   1.243   0.170  1.5572  0.8216 -1.8614
 3317SOL     OW21586   4.421   3.286   9.578 -0.4910  0.4237  0.3815
 3317SOL    HW121587   4.338   3.240   9.564  1.2378 -2.5127 -0.1144
 3317SOL    HW221588   4.391   3.365   9.621  0.8451  1.2456 -0.2011
 3318SOL     OW21589   0.030   3.244   4.582  0.0171  0.1249 -0.5371
 3318SOL    HW121590   4.713   3.238   4.662  1.3228  0.1009  0.3314
 3318SOL    HW221591   0.073   3.328   4.598  2.1306 -1.2081  0.8350
 3319SOL     OW21592   1.974   0.760   6.450 -0.3139  0.3286 -0.0212
 3319SOL    HW121593   1.949   0.790   6.363 -0.4863 -1.0695 -0.4557
 3319SOL    HW221594   1.884   0.759   6.484 -0.3180 -2.1086 -0.0741
 3320SOL     OW21595   4.081   0.057   1.546  0.6015  0.1311 -0.3456
 3320SOL    HW121596   4.158   0.096   1.503  0.8197  1.1207  0.9633
 3320SOL    HW221597   4.093   4.700   1.528  0.2013 -0.1245  0.7159
 3321SOL     OW21598   1.959   1.739  14.503  0.3830 -0.2395  0.1039
 3321SOL    HW121599   2.053   1.734  14.517  0.2358 -2.7419  0.3272
 3321SOL    HW221600   1.946   1.661  14.448 -1.3984  1.1831 -1.5194
 3322SOL     OW21601   1.816   4.644   3.613 -0.2775 -0.4621 -0.0466
 3322SOL    HW121602   1.869   4.568   3.637 -1.1944 -0.4458  2.0544
 3322SOL    HW221603   1.771   4.624   3.531 -1.2652  2.2321 -0.1707
 3323SOL     OW21604   0.049   3.006   3.696  0.0183  0.3283 -0.0141
 3323SOL    HW121605   0.081   3.016   3.786 -0.3115  0.4814  0.0874
 3323SOL    HW221606   0.049   2.911   3.682 -1.9640  0.0499  1.8780
 3324SOL     OW21607   0.639   1.025   5.917  0.0816 -0.2036  0.0853
 3324SOL    HW121608   0.598   1.030   5.831  2.7846 -0.5728 -1.2278
 3324SOL    HW221609   0.561   1.036   5.970 -1.0103 -1.9431 -1.1678
 3325SOL     OW21610   3.713   3.072   2.690 -0.2214 -0.1061 -0.3137
 3325SOL    HW121611   3.688   2.985   2.659 -0.7146 -0.0686 -0.0160
 3325SOL    HW221612   3.624   3.103   2.705  0.4110  1.7158 -0.3330
 3326SOL     OW21613   1.918   4.394   3.710 -0.2405  0.1272 -0.1524
 3326SOL    HW121614   1.999   4.415   3.663 -1.2356  1.5413 -1.2508
 3326SOL    HW221615   1.938   4.318   3.765  0.1829 -1.8665 -3.0893
 3327SOL     OW21616   1.036   4.678   8.323  0.1575  0.1065  0.1453
 3327SOL    HW121617   1.113   4.733   8.308  1.1518 -1.6406 -1.1699
 3327SOL    HW221618   0.996   0.009   8.379 -0.2767 -0.6587  0.7459
 3328SOL     OW21619   4.713   3.854  11.275 -0.5085  0.3527 -0.2870
 3328SOL    HW121620   0.030   3.786  11.233  1.5095  1.0009  1.1988
 3328SOL    HW221621   4.690   3.910  11.200  2.3504 -0.9077 -2.0704
 3329SOL     OW21622   4.164   3.344   8.476 -0.5278  0.2933  0.2962
 3329SOL    HW121623   4.219   3.273   8.443 -2.1032  0.8977 -3.6716
 3329SOL    HW221624   4.133   3.314   8.562 -1.3323  1.0982  0.2832
 3330SOL     OW21625   2.390   2.018   0.520 -0.5049  0.0936  0.0108
 3330SOL    HW121626   2.397   2.105   0.559  0.7860 -0.2501  0.5623
 3330SOL    HW221627   2.317   1.980   0.568 -1.2335 -1.3368 -2.2546
 3331SOL     OW21628   4.208   1.598   8.532  0.4347  0.2450 -0.2761
 3331SOL    HW121629   4.132   1.540   8.533 -0.8290  2.0016  3.1138
 3331SOL    HW221630   4.215   1.610   8.437  2.5615 -0.6589 -0.2488
 3332SOL     OW21631   3.957   3.046  11.499  0.1019 -0.5079 -0.0201
 3332SOL    HW121632   3.974   2.960  11.539  1.3712 -0.0098  0.5132
 3332SOL    HW221633   3.966   3.106  11.573 -0.9096 -1.1716  0.6497
 3333SOL     OW21634   2.425   1.020   5.277  0.3993 -0.3393 -0.1822
 3333SOL    HW121635   2.394   1.098   5.231  2.5445 -0.4500 -1.8307
 3333SOL    HW221636   2.466   0.975   5.204  1.2002 -0.9577  0.6501
 3334SOL     OW21637   4.466   0.002   3.026 -0.1960  0.1680 -0.1038
 3334SOL    HW121638   4.470   0.017   2.932  1.8534 -2.8661 -0.4865
 3334SOL    HW221639   4.559   4.727   3.046 -0.0387 -0.1844 -1.0036
 3335SOL     OW21640   0.883   4.027   2.566  0.1903 -0.3662  0.2530
 3335SOL    HW121641   0.798   4.005   2.605 -0.6054  1.5929 -0.3835
 3335SOL    HW221642   0.924   3.942   2.553 -0.5542 -0.9704  1.9375
 3336SOL     OW21643   3.553   3.532   6.567 -0.2604  0.3880 -0.0335
 3336SOL    HW121644   3.583   3.613   6.525  0.3182  0.8767  1.3078
 3336SOL    HW221645   3.522   3.568   6.650  0.8547  0.1710  0.4787
 3337SOL     OW21646   3.141   3.162  15.541 -0.5161 -0.0201  0.6627
 3337SOL    HW121647   3.145   3.144  15.635 -0.4525 -1.4152  0.3858
 3337SOL    HW221648   3.164   3.255  15.537  1.1410 -0.4797 -0.5931
 3338SOL     OW21649   4.224   2.820   3.506 -0.0058 -0.5952 -0.6463
 3338SOL    HW121650   4.239   2.815   3.600  0.1721  1.5867 -0.5471
 3338SOL    HW221651   4.293   2.761   3.475  0.9360 -0.3579  1.0137
 3339SOL     OW21652   0.598   0.514   2.945 -0.4817  0.6342 -0.1710
 3339SOL    HW121653   0.686   0.525   2.982 -0.9911  0.0953  1.2192
 3339SOL    HW221654   0.563   0.602   2.937 -0.1007  0.8292  0.2802
 3340SOL     OW21655   0.870   3.856   8.715  0.4306 -0.3484 -0.4632
 3340SOL    HW121656   0.829   3.900   8.790  0.9160 -0.9024  0.1214
 3340SOL    HW221657   0.804   3.800   8.675 -1.7020  1.1376  0.9555
 3341SOL     OW21658   4.458   1.718   6.391  0.6639  0.2177  0.1008
 3341SOL    HW121659   4.541   1.724   6.439  0.3274  2.7968  0.3734
 3341SOL    HW221660   4.482   1.646   6.333  0.9743 -1.3211  2.1461
 3342SOL     OW21661   4.405   2.456   3.245  0.0955  0.1666  0.5632
 3342SOL    HW121662   4.417   2.434   3.153  2.4491  0.6942  0.7475
 3342SOL    HW221663   4.395   2.550   3.238  0.8945 -0.0657 -3.7976
 3343SOL     OW21664   0.183   3.970   7.846  0.4110 -0.1097 -0.5594
 3343SOL    HW121665   0.115   3.924   7.895  1.0171 -0.3089  0.0771
 3343SOL    HW221666   0.235   4.015   7.912  1.2012  0.7286 -1.7553
 3344SOL     OW21667   0.637   3.441   5.171  0.5194 -0.0636 -0.0644
 3344SOL    HW121668   0.656   3.354   5.137  0.5062  0.3457 -1.1288
 3344SOL    HW221669   0.543   3.448   5.188  0.7385  1.7728  0.4854
 3345SOL     OW21670   1.759   0.375   4.880  0.0778  0.0504  0.2407
 3345SOL    HW121671   1.790   0.456   4.919  1.5996 -0.3001 -0.2093
 3345SOL    HW221672   1.755   0.404   4.789  0.3299 -1.0868 -0.1456
 3346SOL     OW21673   1.782   1.508   9.427 -0.6293 -0.0485 -0.6210
 3346SOL    HW121674   1.794   1.513   9.522 -0.8923  0.4618 -0.6159
 3346SOL    HW221675   1.806   1.597   9.402 -0.4299  0.4205  1.2296
 3347SOL     OW21676   1.856   1.322   6.498 -0.4354  0.5695 -0.2472
 3347SOL    HW121677   1.833   1.363   6.582 -3.3785  0.5086 -1.0149
 3347SOL    HW221678   1.912   1.385   6.453  0.9882 -0.8881 -0.4943
 3348SOL     OW21679   1.678   1.110   6.625  0.6319 -0.0158 -0.9629
 3348SOL    HW121680   1.636   1.195   6.639  0.3230 -0.3573  0.1490
 3348SOL    HW221681   1.676   1.064   6.708  3.4079  2.4740  0.4783
 3349SOL     OW21682   3.920   0.277   6.449 -0.8073 -0.4824  0.8110
 3349SOL    HW121683   3.976   0.342   6.490  0.8559 -1.7160  0.4778
 3349SOL    HW221684   3.973   0.200   6.468 -1.4640 -0.6780  1.8284
 3350SOL     OW21685   0.330   4.442   7.175  0.4227  0.6301 -0.3758
 3350SOL    HW121686   0.332   4.398   7.260  0.0945  1.0045 -0.1746
 3350SOL    HW221687   0.423   4.458   7.164  0.5262  1.1542  1.2209
 3351SOL     OW21688   0.783   0.514   0.139  0.5237 -0.4692  0.1751
 3351SOL    HW121689   0.800   0.426   0.106 -1.4251 -0.5065 -0.7435
 3351SOL    HW221690   0.752   0.550   0.056  2.2828 -0.4565 -0.4696
 3352SOL     OW21691   3.060   0.529   6.651 -0.1699 -0.0115 -0.2926
 3352SOL    HW121692   2.996   0.560   6.587 -0.1466 -0.3934 -0.5050
 3352SOL    HW221693   3.058   0.438   6.620 -2.3254  0.4777 -1.5641
 3353SOL     OW21694   2.568   4.225  12.794 -0.1394  0.2356 -0.0953
 3353SOL    HW121695   2.636   4.189  12.738  1.0423 -0.5992  1.8828
 3353SOL    HW221696   2.572   4.321  12.788  2.2232  0.2517  1.6257
 3354SOL     OW21697   0.244   0.324   6.385  0.1195  0.2122 -0.2607
 3354SOL    HW121698   0.205   0.322   6.472  0.2563 -0.8275 -0.2149
 3354SOL    HW221699   0.244   0.229   6.372  0.2512  0.4128 -1.7453
 3355SOL     OW21700   4.430   2.664   5.303  0.0151 -0.2017 -0.5691
 3355SOL    HW121701   4.397   2.594   5.246 -0.0166 -0.9569  0.3761
 3355SOL    HW221702   4.353   2.708   5.339  0.2379 -1.0521  0.9621
 3356SOL     OW21703   0.748   3.766  16.361  0.4158  0.3148  0.0958
 3356SOL    HW121704   0.739   3.811  16.278 -1.7781 -0.8079 -0.2552
 3356SOL    HW221705   0.810   3.826  16.404  0.5014 -1.0868  1.9603
 3357SOL     OW21706   4.131   0.915   9.764  0.1118 -0.3478 -0.1893
 3357SOL    HW121707   4.115   1.002   9.798  3.2046 -0.0150  0.3453
 3357SOL    HW221708   4.157   0.866   9.842 -0.2218  3.5199  2.2988
 3358SOL     OW21709   0.725   2.328   2.212 -0.6347  1.0705 -1.1657
 3358SOL    HW121710   0.683   2.278   2.142 -0.7563  1.2989 -1.2552
 3358SOL    HW221711   0.645   2.366   2.248 -0.2621  0.9230 -0.1800
 3359SOL     OW21712   4.685   0.956  15.980  0.3028 -0.5154  0.4806
 3359SOL    HW121713   4.625   1.030  15.967  0.8984  0.0476  0.9469
 3359SOL    HW221714   4.677   0.952  16.075 -1.9773  1.2215  0.3563
 3360SOL     OW21715   2.356   1.084   8.530 -0.2532  0.1669  0.4123
 3360SOL    HW121716   2.345   1.155   8.467 -2.7919  0.7566  1.5143
 3360SOL    HW221717   2.264   1.071   8.553  0.6215 -0.8666  3.4366
 3361SOL     OW21718   0.842   2.113   3.645 -0.0580 -0.9075 -0.3538
 3361SOL    HW121719   0.883   2.043   3.696 -1.2263 -1.4568 -0.1665
 3361SOL    HW221720   0.763   2.131   3.695 -0.6759 -2.4074 -0.8070
 3362SOL     OW21721   0.803   0.712   0.309  0.0740  0.0890  0.0678
 3362SOL    HW121722   0.800   0.632   0.257 -2.1304 -0.2384  0.6867
 3362SOL    HW221723   0.752   0.778   0.261 -0.0542  0.1933  0.3496
 3363SOL     OW21724   1.333   0.943   6.458 -0.2677 -0.0332 -0.5979
 3363SOL    HW121725   1.274   0.909   6.390 -0.5379  1.6342 -1.1991
 3363SOL    HW221726   1.267   1.008   6.482  0.3090 -0.3037  1.7020
 3364SOL     OW21727   1.499   2.642   5.381 -0.6725 -0.1008 -0.1201
 3364SOL    HW121728   1.535   2.554   5.384  0.5856  0.3548 -2.2181
 3364SOL    HW221729   1.483   2.663   5.473  2.6647  3.0755 -0.2552
 3365SOL     OW21730   0.616   1.019   4.089 -0.2844 -0.3249  0.5864
 3365SOL    HW121731   0.593   1.041   3.999  2.0257 -0.4653 -0.0382
 3365SOL    HW221732   0.583   1.098   4.131 -0.2800 -0.3560  0.6481
 3366SOL     OW21733   4.599   2.801  15.480  0.3440  0.1818  0.2177
 3366SOL    HW121734   4.579   2.887  15.442 -0.0769  0.5198  1.1982
 3366SOL    HW221735   4.508   2.775  15.495  0.5288 -0.7994 -0.4026
 3367SOL     OW21736   3.513   0.363   7.819  0.4032  0.0355  0.5071
 3367SOL    HW121737   3.493   0.457   7.813 -0.5344 -0.3201 -2.2221
 3367SOL    HW221738   3.540   0.351   7.728  0.9738  1.4291  0.4954
 3368SOL     OW21739   4.298   2.133   3.108 -0.2769 -0.1767  0.1509
 3368SOL    HW121740   4.217   2.167   3.146  0.3099  0.7219  0.5986
 3368SOL    HW221741   4.275   2.132   3.015 -1.7451  1.2810  0.5078
 3369SOL     OW21742   4.039   0.114   6.838 -0.0003 -0.1346 -0.3147
 3369SOL    HW121743   3.982   0.191   6.837 -1.7344 -1.4312 -0.3953
 3369SOL    HW221744   4.113   0.150   6.887 -0.0138 -0.2606 -0.2028
 3370SOL     OW21745   0.555   3.672   1.922  0.2928 -0.1715 -0.2306
 3370SOL    HW121746   0.496   3.630   1.985  1.9733 -1.2460  0.6385
 3370SOL    HW221747   0.636   3.631   1.953 -0.1506 -1.4174 -0.7064
 3371SOL     OW21748   0.931   4.401   8.293  0.2294  0.2933  0.6641
 3371SOL    HW121749   0.881   4.391   8.212  1.8042  0.0786 -0.2691
 3371SOL    HW221750   0.977   4.483   8.278 -1.9148  1.3158 -0.3393
 3372SOL     OW21751   1.450   2.465   4.504 -0.1170  0.5924 -0.2996
 3372SOL    HW121752   1.393   2.439   4.432  1.7920 -0.9317 -1.2546
 3372SOL    HW221753   1.425   2.553   4.532 -0.9873 -0.0606  0.9889
 3373SOL     OW21754   0.494   1.377   0.855  0.7009  0.4409 -0.4472
 3373SOL    HW121755   0.399   1.370   0.854  0.7217  0.2050 -0.7229
 3373SOL    HW221756   0.514   1.450   0.913  0.0137 -1.5000  2.1939
 3374SOL     OW21757   1.825   1.597   0.449  0.5896 -0.4142 -0.2009
 3374SOL    HW121758   1.904   1.642   0.420  1.1724 -0.8371  0.7178
 3374SOL    HW221759   1.797   1.557   0.367 -0.9774 -1.3755  0.7982
 3375SOL     OW21760   2.713   0.903   7.493 -0.1210 -0.1620 -0.1052
 3375SOL    HW121761   2.673   0.936   7.573 -0.0478  1.6247 -0.8048
 3375SOL    HW221762   2.806   0.928   7.496 -0.1827  0.4257 -2.9582
 3376SOL     OW21763   3.273   2.885  12.085 -0.3279 -0.2067 -0.2185
 3376SOL    HW121764   3.256   2.842  12.001  0.9851 -2.1209  0.5027
 3376SOL    HW221765   3.212   2.842  12.145  0.8541  0.5366  1.5018
 3377SOL     OW21766   2.852   1.662  12.308  0.0232 -0.0311  0.3012
 3377SOL    HW121767   2.783   1.649  12.242 -1.5628 -2.4501  2.4361
 3377SOL    HW221768   2.928   1.639  12.255 -0.3402 -0.1862 -0.1537
 3378SOL     OW21769   3.627   1.242   5.008  0.3640  0.7161 -0.3040
 3378SOL    HW121770   3.555   1.210   5.062  0.6654 -1.1171 -1.0042
 3378SOL    HW221771   3.688   1.269   5.076  0.5578 -1.1261  0.2384
 3379SOL     OW21772   0.052   2.724   3.305  0.0336 -0.1594 -0.1171
 3379SOL    HW121773   0.146   2.733   3.321 -0.0786  2.1099 -0.7636
 3379SOL    HW221774   0.044   2.650   3.245  0.3694 -0.4322  0.1781
 3380SOL     OW21775   3.511   0.862   4.242 -0.0360 -0.3099 -0.0472
 3380SOL    HW121776   3.560   0.944   4.241 -3.1915  1.6019  0.2359
 3380SOL    HW221777   3.459   0.869   4.162 -0.1953 -0.8391  0.0050
 3381SOL     OW21778   4.726   4.004  15.622  0.4269  0.0070 -0.0437
 3381SOL    HW121779   0.030   4.082  15.582 -2.0622 -0.1340 -2.7428
 3381SOL    HW221780   0.035   3.934  15.575  2.8868 -0.0548  2.3242
 3382SOL     OW21781   3.451   1.091   9.860 -0.0668  0.0190  0.4698
 3382SOL    HW121782   3.469   1.160   9.796 -0.8040 -2.3759 -2.2678
 3382SOL    HW221783   3.477   1.121   9.947 -0.2052 -1.3307  0.9768
 3383SOL     OW21784   0.558   3.419   0.479 -0.0221  0.0096  0.0852
 3383SOL    HW121785   0.501   3.364   0.533 -2.2701  2.5025  0.2686
 3383SOL    HW221786   0.629   3.356   0.464 -0.9857 -0.9874 -0.2889
 3384SOL     OW21787   1.896   0.856  15.375 -0.3619  0.0874 -0.6736
 3384SOL    HW121788   1.888   0.769  15.335 -0.2617 -0.9086  1.5028
 3384SOL    HW221789   1.946   0.830  15.452  0.3013  2.3493 -0.3261
 3385SOL     OW21790   0.910   0.401   9.022  0.3329  0.1551 -0.6480
 3385SOL    HW121791   0.898   0.313   8.985  0.9804 -0.7607  1.3315
 3385SOL    HW221792   1.002   0.397   9.048 -0.6797 -2.6851  2.5526
 3386SOL     OW21793   0.180   3.085   1.473 -0.3764 -0.1604 -0.3963
 3386SOL    HW121794   0.261   3.087   1.423 -1.0808 -0.2884 -1.5340
 3386SOL    HW221795   0.206   3.143   1.545  0.0418 -1.8754  0.8355
 3387SOL     OW21796   0.703   4.348   6.342  0.1431 -0.4584 -0.1314
 3387SOL    HW121797   0.631   4.295   6.309 -0.0236 -0.1325 -0.2898
 3387SOL    HW221798   0.721   4.301   6.423 -2.2547  0.1828  0.7489
 3388SOL     OW21799   0.335   0.858   3.148  0.1044  0.2229 -0.1351
 3388SOL    HW121800   0.240   0.855   3.150  0.2077 -1.4954  2.2887
 3388SOL    HW221801   0.353   0.918   3.220  0.6466  0.8056 -0.7617
 3389SOL     OW21802   4.461   1.027   0.825 -0.0515 -0.0937 -0.3357
 3389SOL    HW121803   4.492   1.001   0.738  0.7304  2.2292 -0.7416
 3389SOL    HW221804   4.367   1.029   0.810  0.2205 -0.7611 -2.1311
 3390SOL     OW21805   1.403   2.151   0.906  0.0206 -1.0482  0.0354
 3390SOL    HW121806   1.421   2.237   0.944 -0.1671 -0.0279 -2.1839
 3390SOL    HW221807   1.454   2.089   0.959  2.6659  1.0811  0.0250
 3391SOL     OW21808   2.155   1.742   9.469  0.2875 -0.3732 -0.0367
 3391SOL    HW121809   2.182   1.711   9.383 -1.3321 -0.5206 -0.5029
 3391SOL    HW221810   2.205   1.823   9.470 -1.6966  0.8708 -2.3538
 3392SOL     OW21811   0.557   4.550   6.754 -0.3163 -0.0338 -0.4268
 3392SOL    HW121812   0.605   4.467   6.764 -2.3699 -1.2065 -0.1869
 3392SOL    HW221813   0.626   4.600   6.711 -0.7757 -0.6248 -1.8552
 3393SOL     OW21814   2.464   0.873   3.005  0.6114 -0.3785 -0.9812
 3393SOL    HW121815   2.387   0.928   3.017  0.7908 -0.6713  1.5131
 3393SOL    HW221816   2.506   0.919   2.933 -0.5154  1.3608 -0.5125
 3394SOL     OW21817   0.032   2.362   6.379  0.3112  0.3649 -0.4024
 3394SOL    HW121818   0.102   2.422   6.405 -0.9018  1.1773  0.9654
 3394SOL    HW221819   0.054   2.289   6.437 -1.4187  0.0338 -0.1586
 3395SOL     OW21820   3.768   3.674   8.567 -0.1081 -0.3744 -0.0282
 3395SOL    HW121821   3.742   3.622   8.490 -0.1889  0.3033 -0.4594
 3395SOL    HW221822   3.695   3.658   8.626 -1.7838 -0.1502 -2.0127
 3396SOL     OW21823   1.204   0.807   3.797  0.4316 -0.7957  0.3507
 3396SOL    HW121824   1.159   0.765   3.724 -2.7423  3.4650 -0.1833
 3396SOL    HW221825   1.128   0.857   3.829 -0.0383 -1.5774  0.4600
 3397SOL     OW21826   1.743   2.203  17.626 -0.0038  0.4687 -0.2902
 3397SOL    HW121827   1.794   2.125  17.601  0.8326  1.0118 -0.2599
 3397SOL    HW221828   1.656   2.186  17.591 -0.3015  1.6799 -0.1354
 3398SOL     OW21829   2.291   3.298   8.336  0.1191 -0.4994 -0.2374
 3398SOL    HW121830   2.241   3.227   8.296 -1.0116  0.8999 -1.2819
 3398SOL    HW221831   2.226   3.366   8.348  0.4690 -0.0460 -0.9857
 3399SOL     OW21832   1.452   0.965   7.417 -0.2898 -0.6656 -0.2964
 3399SOL    HW121833   1.486   0.901   7.354 -0.5269  0.0479 -1.1463
 3399SOL    HW221834   1.510   0.932   7.485 -0.1711 -1.6952 -0.9031
 3400SOL     OW21835   1.562   4.618   1.145  0.9814  0.7247 -0.4230
 3400SOL    HW121836   1.651   4.609   1.179  1.3738  0.6398 -1.4842
 3400SOL    HW221837   1.562   4.549   1.078  0.0775  0.8681 -0.5729
 3401SOL     OW21838   4.578   3.159   1.492  0.2313 -0.1709 -0.6451
 3401SOL    HW121839   4.522   3.108   1.550 -2.1046  1.1510 -1.7337
 3401SOL    HW221840   4.652   3.177   1.550 -1.4923  0.1735  1.4450
 3402SOL     OW21841   3.955   0.461   2.101 -0.2456 -0.5147 -0.1031
 3402SOL    HW121842   4.013   0.479   2.027 -2.0122  0.0642 -1.3451
 3402SOL    HW221843   4.013   0.407   2.155  0.1967  1.6130  1.5539
 3403SOL     OW21844   1.474   0.514   2.435 -0.6258  0.4847  0.0145
 3403SOL    HW121845   1.557   0.561   2.427 -0.0656 -0.6397 -0.7449
 3403SOL    HW221846   1.424   0.572   2.493  0.2203  1.3857 -0.1455
 3404SOL     OW21847   1.677   3.966   8.527  0.0141 -0.0516  0.4329
 3404SOL    HW121848   1.596   4.016   8.514  1.0538  1.7630  0.8847
 3404SOL    HW221849   1.641   3.877   8.524  0.0840 -0.1378  2.2942
 3405SOL     OW21850   0.181   0.903  12.169  0.2035  0.2900  0.6988
 3405SOL    HW121851   0.227   0.827  12.203 -0.5740 -0.3122  0.3773
 3405SOL    HW221852   0.250   0.954  12.125 -1.3874  0.1329 -1.9242
 3406SOL     OW21853   0.422   1.166  16.675  0.2054 -1.1946  0.3008
 3406SOL    HW121854   0.471   1.102  16.727  2.2318  0.7554  0.7977
 3406SOL    HW221855   0.417   1.233  16.743  1.1069 -1.4190  0.5784
 3407SOL     OW21856   4.287   1.743   7.509 -0.8160  0.4232 -0.1817
 3407SOL    HW121857   4.301   1.701   7.424  0.5269 -0.4700  0.4955
 3407SOL    HW221858   4.298   1.665   7.563 -0.5659 -0.3437 -1.3444
 3408SOL     OW21859   0.504   1.706  16.073  0.4357  0.2343 -0.2524
 3408SOL    HW121860   0.411   1.726  16.062  0.4668  0.2221 -0.5380
 3408SOL    HW221861   0.549   1.790  16.081  2.4618 -0.9741  1.0789
 3409SOL     OW21862   4.060   3.122   3.361  0.3195 -0.5978 -0.1991
 3409SOL    HW121863   4.051   3.173   3.442 -1.4547 -0.0448 -0.7594
 3409SOL    HW221864   4.154   3.102   3.355  0.7665  1.3197  0.3187
 3410SOL     OW21865   4.024   2.957  12.025  0.5609 -0.5859 -0.4662
 3410SOL    HW121866   3.939   2.984  12.061  1.7749  0.8198  1.3012
 3410SOL    HW221867   4.028   3.006  11.944  1.3971  0.7136  0.3702
 3411SOL     OW21868   2.346   1.446   4.660 -0.0809  0.7292  1.0239
 3411SOL    HW121869   2.437   1.467   4.682  0.6113 -0.8182 -0.4218
 3411SOL    HW221870   2.322   1.386   4.731  1.4391 -1.7589 -0.6099
 3412SOL     OW21871   3.718   1.997  17.132 -0.3447 -0.4458  0.0882
 3412SOL    HW121872   3.767   2.056  17.074 -0.4389 -0.2213  0.2368
 3412SOL    HW221873   3.764   2.017  17.214  1.1883  0.6870 -1.0463
 3413SOL     OW21874   3.118   1.531  10.985 -0.5154 -0.3598  0.1102
 3413SOL    HW121875   3.082   1.508  10.899 -1.1259  1.1488 -0.0258
 3413SOL    HW221876   3.138   1.623  10.971 -0.0959 -0.4706 -0.0236
 3414SOL     OW21877   1.106   3.852   2.498 -0.0702 -0.0115 -0.4274
 3414SOL    HW121878   1.083   3.796   2.424 -0.6556 -2.1995  1.4124
 3414SOL    HW221879   1.077   3.798   2.572 -0.5113  1.1527  0.2585
 3415SOL     OW21880   2.188   3.294   1.571  0.2000 -0.2082  0.0353
 3415SOL    HW121881   2.186   3.327   1.661 -0.2414 -0.0283 -0.0389
 3415SOL    HW221882   2.095   3.277   1.558  0.3540 -0.8290 -0.2761
 3416SOL     OW21883   0.794   2.915   9.452  0.6053  0.1869  0.0822
 3416SOL    HW121884   0.838   2.924   9.537 -0.2587  3.0246  0.2251
 3416SOL    HW221885   0.708   2.947   9.479  0.3487 -1.9396  1.7954
 3417SOL     OW21886   3.782   2.630   1.183  0.0481 -0.1376  0.4585
 3417SOL    HW121887   3.819   2.577   1.113 -0.6753  1.5202 -1.1985
 3417SOL    HW221888   3.694   2.641   1.146  0.7396  3.3090 -0.1689
 3418SOL     OW21889   0.943   0.043   5.997 -0.1823  0.1923  0.4970
 3418SOL    HW121890   0.906   0.075   5.915 -0.9569 -1.4077  0.2150
 3418SOL    HW221891   0.873   4.733   6.044  0.6952  0.3440  1.9604
 3419SOL     OW21892   0.011   1.929  17.374 -0.2441  0.0069 -0.4313
 3419SOL    HW121893   0.060   1.907  17.454 -1.5180 -4.0475 -0.7376
 3419SOL    HW221894   4.729   2.022  17.388 -0.5234 -0.1020 -0.0563
 3420SOL     OW21895   4.053   3.116  11.827  0.3786  0.3416 -0.2485
 3420SOL    HW121896   4.149   3.114  11.823  0.2979 -0.0745 -1.8852
 3420SOL    HW221897   4.032   3.195  11.777  1.3896  1.0660  0.4709
 3421SOL     OW21898   1.680   0.807   8.532  0.1525 -0.0658  0.6926
 3421SOL    HW121899   1.706   0.716   8.536  0.2004 -0.0202  1.3398
 3421SOL    HW221900   1.751   0.829   8.472 -0.4388  2.9976  1.1133
 3422SOL     OW21901   1.238   3.368   6.991  0.1469  0.5643 -0.0366
 3422SOL    HW121902   1.163   3.381   7.049  1.0173  3.0360  0.5354
 3422SOL    HW221903   1.276   3.456   6.981 -1.8096  1.3870 -0.1617
 3423SOL     OW21904   0.423   2.236  11.307  0.3789 -0.0274  0.1407
 3423SOL    HW121905   0.448   2.161  11.253  1.8067 -0.9797  2.1238
 3423SOL    HW221906   0.436   2.192  11.391  1.0520  1.0838  0.6199
 3424SOL     OW21907   4.625   4.072  15.871  0.2872 -0.3556  0.2247
 3424SOL    HW121908   4.647   4.044  15.782 -4.2488 -0.0709 -0.9792
 3424SOL    HW221909   4.717   4.076  15.898  0.0540  0.1715  0.9463
 3425SOL     OW21910   3.070   4.649   7.453 -0.0130 -0.0090 -0.1294
 3425SOL    HW121911   3.149   4.682   7.410  0.4913  0.1397  0.9121
 3425SOL    HW221912   3.047   4.724   7.507  1.9576  0.9796 -0.6799
 3426SOL     OW21913   0.735   1.368   9.520  0.4840 -0.1913 -0.4538
 3426SOL    HW121914   0.788   1.382   9.441 -0.5434  2.1761 -0.7533
 3426SOL    HW221915   0.716   1.275   9.515 -0.9924  0.1058 -0.4590
 3427SOL     OW21916   3.619   3.249  13.863 -0.4391 -0.0104 -0.5081
 3427SOL    HW121917   3.591   3.322  13.919 -0.8894  0.3970 -1.2614
 3427SOL    HW221918   3.648   3.187  13.929  1.9632  1.8916  0.2199
 3428SOL     OW21919   0.352   4.687   5.499  0.0237  0.9708  0.4569
 3428SOL    HW121920   0.260   4.714   5.506 -0.0762  0.8038 -0.2525
 3428SOL    HW221921   0.341   4.602   5.456 -1.0501 -0.2215  3.0874
 3429SOL     OW21922   1.331   2.190   2.991  0.2661  0.2129  0.2188
 3429SOL    HW121923   1.359   2.281   2.986 -0.2205  0.2325 -2.1902
 3429SOL    HW221924   1.237   2.196   2.973  0.5239  2.6922 -0.1815
 3430SOL     OW21925   0.625   2.790   5.928 -0.2742 -1.0419 -0.6016
 3430SOL    HW121926   0.627   2.711   5.982 -0.9824 -0.9553 -0.4531
 3430SOL    HW221927   0.551   2.840   5.962  0.0344 -2.6657  2.4643
 3431SOL     OW21928   3.903   0.682   7.000 -0.4157 -0.7558  0.0765
 3431SOL    HW121929   3.810   0.706   7.001  0.2380  1.8351  0.1595
 3431SOL    HW221930   3.906   0.594   7.037 -0.8731 -0.5877  0.5194
 3432SOL     OW21931   3.415   3.137   7.663  0.0072  0.2667 -0.1115
 3432SOL    HW121932   3.332   3.183   7.667  0.8109  1.8313 -1.3261
 3432SOL    HW221933   3.413   3.091   7.747 -1.0096 -1.5704 -1.1413
 3433SOL     OW21934   0.860   2.628   4.073 -0.0833  0.1706 -0.6479
 3433SOL    HW121935   0.876   2.596   4.162 -2.0058  0.1157 -0.3206
 3433SOL    HW221936   0.818   2.713   4.090  1.2495  0.2908  2.0873
 3434SOL     OW21937   4.697   2.842   8.045 -0.3171  0.6122 -0.3093
 3434SOL    HW121938   4.714   2.859   7.952  1.6623  1.6113  0.2474
 3434SOL    HW221939   4.654   2.756   8.041 -0.8202  0.9541 -2.4036
 3435SOL     OW21940   1.787   0.521   8.853 -0.5202  0.0006  0.0806
 3435SOL    HW121941   1.793   0.545   8.946 -0.3774 -1.3205  0.4137
 3435SOL    HW221942   1.702   0.564   8.847 -0.4411  0.5480  2.6646
 3436SOL     OW21943   1.306   3.432   3.531  0.7633 -0.2865  0.2154
 3436SOL    HW121944   1.325   3.405   3.441 -1.5390 -1.3182  0.0257
 3436SOL    HW221945   1.254   3.360   3.565 -0.5831 -0.5429 -2.3487
 3437SOL     OW21946   0.884   2.063   2.475  0.6985  0.0739 -0.6542
 3437SOL    HW121947   0.839   2.002   2.533  2.5939  0.6564  1.4072
 3437SOL    HW221948   0.902   2.138   2.532  0.5734  0.3377 -0.9645
 3438SOL     OW21949   1.898   3.440   8.903  0.1171 -0.2366  0.0811
 3438SOL    HW121950   1.936   3.463   8.818 -2.1964  0.8429 -0.6573
 3438SOL    HW221951   1.840   3.372   8.869 -0.8598  0.0846  1.1184
 3439SOL     OW21952   2.576   2.019   2.529 -0.4024 -0.5250  0.6272
 3439SOL    HW121953   2.637   2.092   2.521  0.4136 -1.4255 -1.3083
 3439SOL    HW221954   2.624   1.951   2.483 -0.3066 -0.0305  0.0053
 3440SOL     OW21955   3.671   1.907   9.346  0.2965  0.6493 -0.1790
 3440SOL    HW121956   3.718   1.991   9.344 -2.4207  2.1408 -1.9279
 3440SOL    HW221957   3.642   1.921   9.436 -0.2908 -1.5051 -0.0355
 3441SOL     OW21958   1.529   2.698   6.520  0.2981  0.3364  0.1566
 3441SOL    HW121959   1.570   2.713   6.434 -2.0787  2.4466 -0.5783
 3441SOL    HW221960   1.486   2.779   6.545 -0.9628 -0.9753  2.2006
 3442SOL     OW21961   4.601   1.608  14.033  0.0515 -0.7645 -0.1667
 3442SOL    HW121962   4.585   1.693  14.073 -0.5736 -0.5759 -0.8054
 3442SOL    HW221963   4.513   1.570  14.041 -1.0303  1.6135 -0.7606
 3443SOL     OW21964   2.466   3.849   7.529 -0.0519 -0.2881  0.1907
 3443SOL    HW121965   2.410   3.910   7.481  1.1573  0.8576  0.2517
 3443SOL    HW221966   2.419   3.767   7.548  1.7021 -1.9551 -2.5368
 3444SOL     OW21967   1.425   4.648   8.205  0.4916  0.1802  0.2139
 3444SOL    HW121968   1.367   4.684   8.272 -1.0023 -2.0028  0.1074
 3444SOL    HW221969   1.486   4.721   8.191  0.2502  0.6559  1.6662
 3445SOL     OW21970   1.389   0.790   8.018  0.1126 -0.5701  0.4954
 3445SOL    HW121971   1.352   0.834   7.941 -0.0026  0.2942  1.0406
 3445SOL    HW221972   1.309   0.747   8.049  0.7805 -1.4873  0.9336
 3446SOL     OW21973   2.641   3.745   5.272  0.6422 -0.0187  0.3605
 3446SOL    HW121974   2.668   3.653   5.268  1.4617  0.1619  1.5598
 3446SOL    HW221975   2.662   3.772   5.362  2.3473 -0.6273  0.1406
 3447SOL     OW21976   1.060   0.848   1.308 -0.5731  0.0442 -0.4617
 3447SOL    HW121977   1.138   0.824   1.358 -0.7880  0.0811 -0.1112
 3447SOL    HW221978   1.045   0.779   1.243 -3.1387 -1.2057  1.4880
 3448SOL     OW21979   3.525   4.356  12.359  0.1022 -0.3723 -0.8039
 3448SOL    HW121980   3.535   4.415  12.285  1.0722  2.5055  1.6341
 3448SOL    HW221981   3.549   4.270  12.323 -2.1896 -0.8668 -1.1531
 3449SOL     OW21982   1.663   1.477   6.359  0.2100 -0.2188  0.6692
 3449SOL    HW121983   1.709   1.422   6.423 -0.7844 -1.8547 -0.0490
 3449SOL    HW221984   1.705   1.560   6.382  1.3431 -0.1603 -1.5927
 3450SOL     OW21985   0.665   4.526   0.681 -0.1702  0.4539  0.1247
 3450SOL    HW121986   0.615   4.528   0.599 -0.8213  2.5276  0.5672
 3450SOL    HW221987   0.751   4.495   0.653 -1.2110 -0.7201 -1.7655
 3451SOL     OW21988   0.032   1.148  15.077 -0.0725 -0.2243 -0.5310
 3451SOL    HW121989   0.076   1.225  15.114 -1.3383 -0.5966  1.7433
 3451SOL    HW221990   0.043   1.105  15.162 -1.3276  0.9479  0.2351
 3452SOL     OW21991   3.757   3.290   5.597  0.3734 -0.2764 -0.6208
 3452SOL    HW121992   3.704   3.270   5.520  0.2826  0.4663 -0.7493
 3452SOL    HW221993   3.844   3.289   5.556  0.0530  0.9124 -1.3195
 3453SOL     OW21994   2.542   3.024   8.229 -0.1555  0.0907  0.0734
 3453SOL    HW121995   2.471   2.975   8.271 -1.2762  0.1259 -1.7941
 3453SOL    HW221996   2.505   3.047   8.144 -0.3819 -3.0563 -0.6857
 3454SOL     OW21997   1.048   3.579   2.686 -0.9794  0.4893  0.1342
 3454SOL    HW121998   0.963   3.614   2.659 -2.0343 -1.4308  0.9395
 3454SOL    HW221999   1.032   3.555   2.778 -0.6902  0.2728  0.1283
 3455SOL     OW22000   0.731   0.726  10.703 -0.5008  0.0877 -0.3465
 3455SOL    HW122001   0.782   0.721  10.622  0.1613 -1.7303  0.1891
 3455SOL    HW222002   0.798   0.724  10.771 -1.3867  0.4482  0.5190
 3456SOL     OW22003   2.589   0.959  12.203 -0.2355 -0.2788  0.9140
 3456SOL    HW122004   2.583   1.055  12.204  1.4880 -0.1574 -1.1560
 3456SOL    HW222005   2.644   0.941  12.279  1.9646  1.2767 -0.3101
 3457SOL     OW22006   0.710   4.354   4.657  0.2226 -0.3553  0.4217
 3457SOL    HW122007   0.801   4.373   4.637  0.0465 -2.6415 -2.5531
 3457SOL    HW222008   0.722   4.286   4.724 -0.2518 -0.3364  0.5252
 3458SOL     OW22009   3.631   1.445   2.703 -0.2771 -0.1643 -0.0238
 3458SOL    HW122010   3.637   1.352   2.724 -0.9828  0.0744  1.2196
 3458SOL    HW222011   3.628   1.433   2.608 -1.1951 -0.7268  0.0773
 3459SOL     OW22012   4.292   3.822   2.417  0.3760 -0.3659  0.1680
 3459SOL    HW122013   4.253   3.777   2.342 -1.6735  0.8046  0.5187
 3459SOL    HW222014   4.385   3.804   2.408  0.5159  1.4187 -2.0599
 3460SOL     OW22015   0.428   3.316  17.537 -0.0378 -0.4884 -0.5865
 3460SOL    HW122016   0.402   3.387  17.596 -0.4855 -0.9640 -0.2141
 3460SOL    HW222017   0.508   3.348  17.495  1.2914  0.6608  2.8257
 3461SOL     OW22018   1.740   1.387  13.036 -0.5739  0.7931  0.4327
 3461SOL    HW122019   1.779   1.475  13.037  3.2444 -0.9160  1.7341
 3461SOL    HW222020   1.648   1.404  13.056 -0.0197  1.2094  2.5769
 3462SOL     OW22021   2.119   2.389   1.672  0.2214 -0.3547  0.1125
 3462SOL    HW122022   2.210   2.401   1.645 -0.0997 -1.5322 -1.4739
 3462SOL    HW222023   2.137   2.402   1.765  0.4686  1.5400 -0.1878
 3463SOL     OW22024   3.933   2.586   5.763  0.9708  0.5368 -0.2340
 3463SOL    HW122025   3.982   2.641   5.823  0.8630  1.3122 -0.8551
 3463SOL    HW222026   3.851   2.635   5.766  1.4029  1.1574  1.1763
 3464SOL     OW22027   0.489   1.966  11.188  0.2882  0.7788  0.3578
 3464SOL    HW122028   0.434   1.893  11.218 -0.9666  2.1068  1.2758
 3464SOL    HW222029   0.420   2.017  11.146 -1.1139 -0.1298  1.5818
 3465SOL     OW22030   4.187   0.097   9.394 -0.5657 -0.1929  0.0806
 3465SOL    HW122031   4.154   0.086   9.483 -1.5493 -0.9978 -0.3830
 3465SOL    HW222032   4.188   0.193   9.392 -1.6443 -0.1638  0.9101
 3466SOL     OW22033   2.869   0.567   9.003  0.0201  0.2335  0.2067
 3466SOL    HW122034   2.774   0.575   9.017 -0.0439  1.2044 -0.7740
 3466SOL    HW222035   2.870   0.491   9.060 -2.1325  0.0593  0.0368
 3467SOL     OW22036   2.727   1.414   2.288 -0.1953 -0.2516  0.2072
 3467SOL    HW122037   2.662   1.410   2.219 -1.0735  0.8772  0.9734
 3467SOL    HW222038   2.796   1.371   2.237 -0.2918  1.5357 -1.3894
 3468SOL     OW22039   4.163   4.046   9.158 -0.4951  0.2990 -0.3311
 3468SOL    HW122040   4.225   3.990   9.204 -1.5335  0.8719  1.7444
 3468SOL    HW222041   4.085   4.046   9.213 -0.3375 -1.1723 -0.1004
 3469SOL     OW22042   3.521   2.322  17.523  0.6722  0.7078  0.2962
 3469SOL    HW122043   3.527   2.237  17.567  2.0353 -0.9201 -3.0709
 3469SOL    HW222044   3.457   2.368  17.577  0.1883 -1.2628  1.4275
 3470SOL     OW22045   3.473   4.646   7.025  0.6222  0.4868 -0.4327
 3470SOL    HW122046   3.487   4.576   6.961 -2.2256  1.3949 -2.0447
 3470SOL    HW222047   3.389   4.624   7.067  1.8752  0.9226  2.3328
 3471SOL     OW22048   4.575   4.179   3.438 -0.6546  0.3319 -0.1905
 3471SOL    HW122049   4.552   4.272   3.444  0.2571  0.4612  1.2188
 3471SOL    HW222050   4.544   4.152   3.524 -1.3289  1.0682 -0.2022
 3472SOL     OW22051   1.329   3.847  16.999  0.1234  0.5306  0.3037
 3472SOL    HW122052   1.299   3.840  16.909 -0.7363  0.5123  0.5883
 3472SOL    HW222053   1.395   3.778  16.997 -1.3473 -0.8117 -1.5492
 3473SOL     OW22054   3.158   3.067   8.222  0.2923 -0.1844 -0.2111
 3473SOL    HW122055   3.069   3.061   8.257 -0.1279  1.8440 -0.9834
 3473SOL    HW222056   3.205   3.000   8.273  1.6760  1.0303  0.1075
 3474SOL     OW22057   0.123   3.195   5.355  0.1952  0.1102 -0.6450
 3474SOL    HW122058   0.147   3.114   5.401 -0.4784 -0.2895 -0.9872
 3474SOL    HW222059   0.188   3.209   5.287  0.7225 -1.9624 -0.5750
 3475SOL     OW22060   3.113   3.143  10.161 -0.1703  0.1910  0.1260
 3475SOL    HW122061   3.057   3.220  10.160 -2.6420 -1.6386 -2.0059
 3475SOL    HW222062   3.179   3.164  10.096 -0.1786 -0.6454 -0.1604
 3476SOL     OW22063   3.704   3.224  17.527  0.3925  0.3310 -0.5122
 3476SOL    HW122064   3.698   3.289  17.457 -0.7382 -1.8650 -2.4719
 3476SOL    HW222065   3.754   3.281  17.584  1.1172 -0.4194 -0.4053
 3477SOL     OW22066   3.950   1.115   8.884 -0.2126  0.5350  0.0876
 3477SOL    HW122067   3.931   1.124   8.977 -0.1888  1.9666 -0.0496
 3477SOL    HW222068   3.862   1.118   8.846 -0.6680 -1.0690  1.0489
 3478SOL     OW22069   0.578   0.943  12.261 -0.2440  0.1386  0.3542
 3478SOL    HW122070   0.618   0.866  12.300  0.4567 -0.0230 -0.6906
 3478SOL    HW222071   0.585   0.992  12.343  1.7594 -1.3125  1.0468
 3479SOL     OW22072   3.990   1.487   1.692  0.4598 -0.5109  0.4681
 3479SOL    HW122073   4.008   1.542   1.768  3.1581 -0.0471 -0.4905
 3479SOL    HW222074   4.072   1.493   1.643  0.7253  1.7047  1.1749
 3480SOL     OW22075   3.473   2.805   7.151 -0.2095 -0.1335 -0.0772
 3480SOL    HW122076   3.550   2.855   7.180  0.2953 -1.4740  0.9211
 3480SOL    HW222077   3.522   2.736   7.106 -1.0736  0.3289 -1.7111
 3481SOL     OW22078   1.031   1.064   0.145 -0.2243 -0.7250 -0.4759
 3481SOL    HW122079   1.118   1.024   0.144 -0.3030 -0.9451  1.2516
 3481SOL    HW222080   0.983   1.010   0.081  1.3780 -1.4356 -1.0712
 3482SOL     OW22081   4.730   3.625  14.379 -0.1835  0.2525  0.2335
 3482SOL    HW122082   4.692   3.537  14.382  0.0310  0.1656  0.3830
 3482SOL    HW222083   0.063   3.621  14.446 -0.4535 -0.8346  0.4400
 3483SOL     OW22084   1.429   1.294   6.541  0.2036  0.0595 -0.1252
 3483SOL    HW122085   1.360   1.240   6.501 -0.3883  0.1658  0.7504
 3483SOL    HW222086   1.413   1.377   6.495  1.4136 -0.3153 -1.2216
 3484SOL     OW22087   3.974   4.682  13.571 -0.0459 -0.5775  0.5248
 3484SOL    HW122088   4.000   4.623  13.642  1.2578  1.2376  1.5321
 3484SOL    HW222089   3.878   4.680  13.572 -0.0422 -1.4993 -0.7561
 3485SOL     OW22090   3.480   0.853   0.400 -0.5192 -0.2794 -0.0857
 3485SOL    HW122091   3.559   0.822   0.443 -0.3853 -0.7684 -0.6909
 3485SOL    HW222092   3.436   0.886   0.479  1.0948  0.1121  0.6467
 3486SOL     OW22093   2.633   4.201  16.553 -0.7825  0.6671  0.9880
 3486SOL    HW122094   2.567   4.197  16.622 -0.0761  0.1163  1.6430
 3486SOL    HW222095   2.611   4.279  16.502  0.8519 -1.0975 -2.4502
 3487SOL     OW22096   1.997   4.048   5.168  0.6052  0.0610  0.6398
 3487SOL    HW122097   2.072   4.105   5.152 -1.2155  1.8800 -1.4455
 3487SOL    HW222098   1.939   4.103   5.221 -1.0826  1.6676 -2.8571
 3488SOL     OW22099   1.672   4.497  14.418 -0.2798  0.2792  0.3877
 3488SOL    HW122100   1.636   4.553  14.349 -0.3533 -2.0697 -1.4885
 3488SOL    HW222101   1.762   4.491  14.386  0.1529  0.3634  1.6018
 3489SOL     OW22102   0.330   1.376   5.498  0.0791  0.3405 -0.4809
 3489SOL    HW122103   0.311   1.391   5.405  0.8571 -0.3044 -0.7356
 3489SOL    HW222104   0.274   1.301   5.519  1.5320 -0.5277  0.2383
 3490SOL     OW22105   2.512   0.824   1.751 -0.5269  0.4203 -0.1544
 3490SOL    HW122106   2.529   0.914   1.723  1.1465  0.4927  1.0843
 3490SOL    HW222107   2.553   0.834   1.838 -2.3707 -3.3921  1.1673
 3491SOL     OW22108   3.686   1.038   8.125  0.2447 -0.6220 -0.3984
 3491SOL    HW122109   3.770   1.004   8.093  0.6833 -0.1070  0.2134
 3491SOL    HW222110   3.650   0.961   8.170 -1.9259  0.9697  0.5524
 3492SOL     OW22111   1.219   3.726   7.108  0.3411  0.0005  0.6766
 3492SOL    HW122112   1.267   3.806   7.127 -0.0362 -0.0630  1.9359
 3492SOL    HW222113   1.220   3.683   7.194 -1.0884 -0.1219  0.6435
 3493SOL     OW22114   3.920   0.390  12.343 -0.0772  0.7998 -0.2646
 3493SOL    HW122115   3.871   0.337  12.406 -0.9624 -0.0797 -1.6833
 3493SOL    HW222116   4.010   0.379  12.373 -0.7732 -0.7763  1.2575
 3494SOL     OW22117   3.387   3.569   3.286 -0.0137  0.1037  0.5344
 3494SOL    HW122118   3.429   3.631   3.226 -0.7105 -1.3129 -1.4128
 3494SOL    HW222119   3.297   3.596   3.274  1.0988  2.1020 -3.1451
 3495SOL     OW22120   0.066   0.092  11.168  0.4596 -0.4356  0.0397
 3495SOL    HW122121   4.720   0.062  11.208 -0.7000  1.5447 -0.8189
 3495SOL    HW222122   0.030   0.109  11.081 -1.5544  0.0392  0.9626
 3496SOL     OW22123   4.510   2.249   0.649  0.5988  0.0007 -0.3717
 3496SOL    HW122124   4.534   2.157   0.653 -0.4287 -0.3679 -2.4709
 3496SOL    HW222125   4.432   2.253   0.703 -0.2913  2.2160 -1.8082
 3497SOL     OW22126   3.797   4.634   6.761 -0.0179  0.0131  0.2577
 3497SOL    HW122127   3.764   4.717   6.727 -0.2517  0.4211  1.4732
 3497SOL    HW222128   3.784   4.574   6.688  0.3244 -0.4941  0.6154
 3498SOL     OW22129   1.070   3.670   3.621 -0.0178 -1.0959 -0.5645
 3498SOL    HW122130   1.161   3.685   3.597  0.8661  0.4618  3.7176
 3498SOL    HW222131   1.085   3.656   3.714 -0.4113  2.5795  0.0579
 3499SOL     OW22132   0.882   2.579  13.500 -0.3599  0.7069 -0.5650
 3499SOL    HW122133   0.801   2.627  13.481 -0.9240 -0.0075  0.0272
 3499SOL    HW222134   0.866   2.502  13.444 -0.6295 -0.3139  0.9317
 3500SOL     OW22135   3.628   0.028   4.744 -0.5999  0.6232 -0.4509
 3500SOL    HW122136   3.553   0.048   4.687  0.8546  2.0918 -1.8431
 3500SOL    HW222137   3.660   0.117   4.760  0.8250  0.4622 -2.3674
 3501SOL     OW22138   2.286   3.582  15.076  0.1710 -0.5404 -0.2883
 3501SOL    HW122139   2.317   3.495  15.100  2.6899 -0.2850 -2.6528
 3501SOL    HW222140   2.358   3.643  15.089  0.0720 -1.0796  2.7236
 3502SOL     OW22141   2.433   3.285   2.986 -0.0194 -0.8395  0.0995
 3502SOL    HW122142   2.470   3.240   2.910 -2.2110 -1.6411 -0.4758
 3502SOL    HW222143   2.513   3.337   2.996 -0.2405 -0.3904 -0.4878
 3503SOL     OW22144   4.286   0.761   5.404  0.3633  0.4165 -0.3904
 3503SOL    HW122145   4.310   0.671   5.384  0.9276  0.3652  0.5166
 3503SOL    HW222146   4.192   0.751   5.418  0.2239  1.2819 -0.6714
 3504SOL     OW22147   1.270   4.684  11.017 -0.0361 -0.4027 -0.1016
 3504SOL    HW122148   1.285   0.025  11.072 -1.1963 -0.2610  0.0218
 3504SOL    HW222149   1.287   4.719  10.929  0.6646 -0.4201  0.0344
 3505SOL     OW22150   3.935   1.843  14.061 -0.8217  0.1027 -0.1792
 3505SOL    HW122151   3.906   1.791  14.135 -2.2916  1.3561  0.1293
 3505SOL    HW222152   3.881   1.922  14.073 -0.2942  0.3935  0.2582
 3506SOL     OW22153   2.306   4.468  15.167  0.1507  0.7497 -0.6429
 3506SOL    HW122154   2.226   4.515  15.192  0.9996  1.3126  1.0732
 3506SOL    HW222155   2.265   4.384  15.148  2.1089 -0.4811  0.4655
 3507SOL     OW22156   3.958   1.531   2.929  0.6774 -0.0936  0.1998
 3507SOL    HW122157   3.997   1.619   2.923  1.3483 -0.3156  1.2240
 3507SOL    HW222158   3.898   1.528   2.855 -0.9886  3.1564  1.4404
 3508SOL     OW22159   3.252   1.012   4.871 -0.7345  0.9614  0.2613
 3508SOL    HW122160   3.237   1.089   4.816 -4.4952  0.6397  0.8255
 3508SOL    HW222161   3.337   0.982   4.839 -0.2314  1.1778  1.4169
 3509SOL     OW22162   1.440   0.763  17.724  0.3613  0.6234 -0.1552
 3509SOL    HW122163   1.397   0.802  17.648  0.4068 -0.8347 -0.9307
 3509SOL    HW222164   1.396   0.678  17.729 -0.5055  1.1737  1.6400
 3510SOL     OW22165   3.739   2.889   1.578  0.3315 -0.3133  0.5038
 3510SOL    HW122166   3.667   2.947   1.603  0.8049  0.6272 -0.3251
 3510SOL    HW222167   3.814   2.946   1.593  0.8975 -1.0585  0.4877
 3511SOL     OW22168   2.524   2.848  10.974 -0.1563 -0.1898  0.0228
 3511SOL    HW122169   2.618   2.843  10.991  0.3144 -1.1246 -2.7751
 3511SOL    HW222170   2.515   2.924  10.916 -0.4698  0.2451  0.6370
 3512SOL     OW22171   1.102   3.532   5.873 -0.8517  0.2848  0.3874
 3512SOL    HW122172   1.076   3.613   5.917 -1.9073 -0.5470  1.3126
 3512SOL    HW222173   1.197   3.528   5.867 -0.7908  2.1701  0.1016
 3513SOL     OW22174   3.739   1.605   6.164 -0.3164  0.2005 -0.4895
 3513SOL    HW122175   3.758   1.689   6.122  2.7041  1.4431  3.3169
 3513SOL    HW222176   3.828   1.574   6.180 -0.1802  1.3734  1.0102
 3514SOL     OW22177   3.386   2.170   2.786 -0.0233 -0.0055  0.4611
 3514SOL    HW122178   3.473   2.131   2.795 -0.8183 -2.1143 -1.0319
 3514SOL    HW222179   3.402   2.226   2.710  1.7969 -0.1156  0.7611
 3515SOL     OW22180   4.610   3.457   6.234 -0.7031  0.5206  0.4927
 3515SOL    HW122181   4.619   3.447   6.329  1.5223 -0.5906  0.1563
 3515SOL    HW222182   4.693   3.504   6.224 -1.1119  1.2750  0.5926
 3516SOL     OW22183   2.097   3.578   4.566  0.2621  0.0742  0.0796
 3516SOL    HW122184   2.068   3.656   4.614 -0.0887  0.2787 -0.4615
 3516SOL    HW222185   2.010   3.551   4.536  0.9531 -0.0126 -1.8262
 3517SOL     OW22186   2.522   3.563  14.332  0.4487 -0.2880  0.2508
 3517SOL    HW122187   2.615   3.538  14.326  1.0178  2.0475 -0.7636
 3517SOL    HW222188   2.479   3.482  14.359 -0.4393 -0.0405 -0.4348
 3518SOL     OW22189   4.101   0.034   7.839 -0.0717  0.3062  0.3695
 3518SOL    HW122190   4.043   4.694   7.828 -0.2795  0.4102  0.7862
 3518SOL    HW222191   4.042   0.107   7.819  0.1589  0.7445  1.3218
 3519SOL     OW22192   2.674   4.650   4.784 -0.1771 -0.0508  0.5248
 3519SOL    HW122193   2.739   4.584   4.808 -0.6735 -2.1027 -3.8321
 3519SOL    HW222194   2.607   4.633   4.850  0.1518  0.9470  1.1163
 3520SOL     OW22195   0.230   3.452   4.446 -0.6022 -0.2918  0.3807
 3520SOL    HW122196   0.187   3.412   4.371  1.1840  0.9166 -1.2662
 3520SOL    HW222197   0.209   3.545   4.453  2.2291  0.2133  2.1339
 3521SOL     OW22198   1.910   0.194  13.889  0.5398 -0.2739 -0.7058
 3521SOL    HW122199   1.916   0.281  13.930  2.8789 -0.8561  0.1301
 3521SOL    HW222200   1.999   0.161  13.888  0.6017 -0.1344  0.8044
 3522SOL     OW22201   4.068   0.426   5.183  0.1045  0.6269 -0.3891
 3522SOL    HW122202   4.113   0.470   5.111 -0.1117  0.5695 -0.5612
 3522SOL    HW222203   3.988   0.477   5.200 -0.1570 -0.7990  2.5502
 3523SOL     OW22204   1.688   0.752   7.983 -0.3216 -0.1361 -0.4421
 3523SOL    HW122205   1.597   0.782   7.986  1.3371  4.6232  3.7180
 3523SOL    HW222206   1.732   0.837   7.986  1.5547 -1.0371 -2.4053
 3524SOL     OW22207   4.125   1.009  13.295  0.0113 -0.1751  0.4446
 3524SOL    HW122208   4.148   1.098  13.321  3.3552 -1.3049  1.3841
 3524SOL    HW222209   4.203   0.982  13.246 -1.0008 -0.2284 -1.1282
 3525SOL     OW22210   2.220   2.651  14.570  0.2550 -0.7127 -0.4422
 3525SOL    HW122211   2.174   2.631  14.489 -1.0144  0.1023  0.0827
 3525SOL    HW222212   2.245   2.741  14.548  0.9165 -0.8035 -0.0685
 3526SOL     OW22213   0.758   4.006  14.098  0.1411  0.8779  0.5568
 3526SOL    HW122214   0.757   4.101  14.087  0.9349  0.8368  0.1285
 3526SOL    HW222215   0.850   3.989  14.117  0.5937  2.1441 -0.5121
 3527SOL     OW22216   0.507   3.379   6.153  0.1766 -0.3251  0.2624
 3527SOL    HW122217   0.459   3.365   6.235 -0.0194 -0.5024  0.1181
 3527SOL    HW222218   0.469   3.312   6.096 -0.9675  0.0389  0.6002
 3528SOL     OW22219   3.675   1.875   2.273  0.0524 -0.1855 -0.6159
 3528SOL    HW122220   3.748   1.935   2.260 -0.5266  0.4959 -0.6984
 3528SOL    HW222221   3.690   1.865   2.367  2.4690 -0.0184 -0.9891
 3529SOL     OW22222   3.142   3.923   7.692  0.1812  0.7929  0.2988
 3529SOL    HW122223   3.182   3.967   7.617 -1.2648  0.2308 -0.7907
 3529SOL    HW222224   3.219   3.911   7.749 -0.1221 -1.1721  0.3148
 3530SOL     OW22225   1.526   2.943   2.368 -0.4414  0.2986  0.0203
 3530SOL    HW122226   1.520   2.880   2.296 -2.5231 -0.3374  0.7653
 3530SOL    HW222227   1.488   2.897   2.443 -0.3503 -0.9966 -0.7245
 3531SOL     OW22228   1.118   0.877  17.517  0.2923  0.4441  0.3281
 3531SOL    HW122229   1.185   0.915  17.573  1.0993 -1.4567  0.6595
 3531SOL    HW222230   1.171   0.833  17.451 -2.6156 -0.6871 -1.2367
 3532SOL     OW22231   0.969   1.091   1.241 -0.2315 -0.2246  0.5612
 3532SOL    HW122232   0.981   0.998   1.257  2.1439  0.3116  1.9021
 3532SOL    HW222233   1.054   1.113   1.279  0.0150 -1.0284  0.4735
 3533SOL     OW22234   0.812   2.956  10.632 -0.4817  0.2669  0.2591
 3533SOL    HW122235   0.746   3.021  10.608 -0.9332 -1.2976 -2.6233
 3533SOL    HW222236   0.762   2.875  10.633  1.2848 -0.8435 -1.2305
 3534SOL     OW22237   2.593   0.849   6.028  0.5821 -0.2643 -0.0922
 3534SOL    HW122238   2.575   0.824   5.938 -0.0409  0.4976 -0.1725
 3534SOL    HW222239   2.509   0.884   6.057  0.6709  0.4236 -0.6883
 3535SOL     OW22240   3.087   0.793   5.844  0.3446 -0.7562  0.0419
 3535SOL    HW122241   3.018   0.847   5.882 -0.6401  0.2369 -3.1416
 3535SOL    HW222242   3.039   0.721   5.802 -1.3681  0.7882 -0.6778
 3536SOL     OW22243   3.469   1.811   5.433 -0.9765  0.1456  0.2150
 3536SOL    HW122244   3.434   1.804   5.522  1.0437  1.7661  1.1517
 3536SOL    HW222245   3.388   1.824   5.384 -0.2177  0.0492 -1.0553
 3537SOL     OW22246   3.705   2.768   6.970 -0.8933 -0.6084 -0.3858
 3537SOL    HW122247   3.681   2.734   6.883  0.4761 -2.1803 -0.1416
 3537SOL    HW222248   3.708   2.858   6.938 -1.3174 -0.0071  1.2780
 3538SOL     OW22249   3.532   1.141   7.019  0.0293  0.6935 -0.4363
 3538SOL    HW122250   3.528   1.092   6.937 -0.0604  1.0645 -0.6557
 3538SOL    HW222251   3.609   1.194   7.001 -1.2997  2.5091 -0.7979
 3539SOL     OW22252   2.950   2.951   4.427 -0.6356  0.4569 -0.0940
 3539SOL    HW122253   2.947   3.039   4.389 -0.4833  0.0984 -0.9384
 3539SOL    HW222254   2.867   2.909   4.405  0.5353 -0.9435 -1.8008
 3540SOL     OW22255   4.550   4.438   9.025  0.1213 -0.1498 -0.1095
 3540SOL    HW122256   4.525   4.368   8.965  0.2969 -2.0161  1.9682
 3540SOL    HW222257   4.577   4.383   9.099  0.1707 -0.0728 -0.0706
 3541SOL     OW22258   0.924   4.033   7.029  0.0460 -0.2284 -0.2027
 3541SOL    HW122259   0.833   4.048   7.055  0.5856  0.1402  1.4541
 3541SOL    HW222260   0.976   4.048   7.108 -1.0069 -1.5342  0.7482
 3542SOL     OW22261   0.204   1.927  17.570  0.0174 -0.5270  0.2668
 3542SOL    HW122262   0.187   1.871  17.646  1.6495 -0.6566  0.5560
 3542SOL    HW222263   0.225   2.005  17.620  2.2969  0.0094 -1.5233
 3543SOL     OW22264   1.211   3.176   3.624  0.0900  0.0671 -0.3522
 3543SOL    HW122265   1.215   3.175   3.720  1.0128 -1.0289 -0.4061
 3543SOL    HW222266   1.276   3.109   3.601  0.6276 -0.1350  1.7397
 3544SOL     OW22267   2.986   4.380  14.859  0.1110 -0.8623 -0.3263
 3544SOL    HW122268   2.904   4.424  14.838  2.1017  3.3695  0.8991
 3544SOL    HW222269   2.987   4.310  14.793  0.0056 -0.3036 -0.9220
 3545SOL     OW22270   4.595   1.295   9.190 -0.3496 -0.4397  0.2904
 3545SOL    HW122271   4.564   1.378   9.153  1.3198  0.0663  0.0597
 3545SOL    HW222272   4.688   1.307   9.173 -0.5113  0.2961 -0.0721
 3546SOL     OW22273   1.657   4.240   6.152 -0.4059 -0.3439 -0.1984
 3546SOL    HW122274   1.745   4.221   6.183  0.1760  0.9803 -1.0516
 3546SOL    HW222275   1.620   4.281   6.231  0.9132 -1.6803  1.1307
 3547SOL     OW22276   2.770   3.680  10.362  0.2001 -0.3816 -0.1122
 3547SOL    HW122277   2.785   3.680  10.457  3.5655 -0.5448 -0.6623
 3547SOL    HW222278   2.676   3.698  10.354  0.7639  1.8590 -1.6023
 3548SOL     OW22279   1.126   2.947   7.335 -0.2326 -0.1072  0.3447
 3548SOL    HW122280   1.042   2.928   7.378 -0.0306 -0.3107  0.6498
 3548SOL    HW222281   1.116   3.042   7.327 -3.4009 -0.5062 -0.5606
 3549SOL     OW22282   1.691   0.662   6.162 -0.3198 -0.1464  0.0465
 3549SOL    HW122283   1.774   0.707   6.173 -0.8265  1.5497 -2.8956
 3549SOL    HW222284   1.668   0.688   6.251  1.3089  0.4770  0.2798
 3550SOL     OW22285   0.877   2.223   8.468 -0.0223 -0.1983  0.3579
 3550SOL    HW122286   0.907   2.241   8.557 -1.5960  0.1193  0.8176
 3550SOL    HW222287   0.858   2.129   8.468 -0.2468 -0.1482 -1.2056
 3551SOL     OW22288   1.702   2.020   2.148  0.3732 -0.2125  0.1145
 3551SOL    HW122289   1.715   1.977   2.232 -2.6041  0.5178  0.9642
 3551SOL    HW222290   1.667   2.106   2.173  1.0890  0.1224 -0.0366
 3552SOL     OW22291   4.386   4.001   7.024  0.6832 -0.1581  0.1872
 3552SOL    HW122292   4.450   4.022   7.092  0.3961 -0.8644  0.6735
 3552SOL    HW222293   4.444   3.956   6.964 -2.7038 -2.3653 -1.4676
 3553SOL     OW22294   3.299   2.488   4.289 -0.2404  0.1975 -0.5274
 3553SOL    HW122295   3.332   2.419   4.347 -1.1852  0.4823  0.3507
 3553SOL    HW222296   3.340   2.567   4.324 -0.2302  0.2343 -0.6217
 3554SOL     OW22297   3.767   1.873   6.014 -0.1949  0.1348 -0.0588
 3554SOL    HW122298   3.769   1.950   6.071 -0.1998  0.5462 -0.6091
 3554SOL    HW222299   3.802   1.907   5.932 -1.4784 -1.1293 -1.1481
 3555SOL     OW22300   3.699   1.094   4.268 -0.0901 -0.2663 -0.4409
 3555SOL    HW122301   3.780   1.112   4.316  1.0481  0.0224 -2.4632
 3555SOL    HW222302   3.732   1.079   4.179 -0.7270 -2.6542 -0.2916
 3556SOL     OW22303   2.661   3.169  10.206 -0.3060 -0.0737 -0.6378
 3556SOL    HW122304   2.736   3.183  10.264  0.7287 -0.0112 -1.9760
 3556SOL    HW222305   2.598   3.135  10.270 -0.6379 -0.3978 -1.1376
 3557SOL     OW22306   4.421   4.688  16.065 -0.5638  0.2765 -0.0769
 3557SOL    HW122307   4.449   4.719  16.151 -2.6217  1.5961  0.1232
 3557SOL    HW222308   4.505   4.657  16.032 -0.8169  1.5098 -1.9449
 3558SOL     OW22309   1.544   0.609   8.708 -0.1875  0.7056 -0.5358
 3558SOL    HW122310   1.475   0.558   8.751  0.9997 -0.7610 -0.3609
 3558SOL    HW222311   1.516   0.700   8.722 -3.3766  0.5040 -5.5838
 3559SOL     OW22312   0.174   1.902   5.960 -0.4054  0.1005  0.3574
 3559SOL    HW122313   0.187   1.971   6.025 -1.1278  0.6700 -0.1049
 3559SOL    HW222314   0.221   1.827   5.996  1.2724 -0.2364 -2.5568
 3560SOL     OW22315   4.164   2.789  13.970 -0.3378  0.4880 -0.6351
 3560SOL    HW122316   4.189   2.878  13.992 -1.6200  0.8842 -0.8009
 3560SOL    HW222317   4.071   2.785  13.990 -0.2824  1.9929 -0.1333
 3561SOL     OW22318   1.737   1.212   4.183 -0.4876  0.8731 -0.9954
 3561SOL    HW122319   1.760   1.252   4.267  2.7132  2.7538 -2.7941
 3561SOL    HW222320   1.789   1.258   4.117  1.8974 -0.6933 -0.2052
 3562SOL     OW22321   0.607   4.208   5.052 -0.1246 -0.1779  0.0070
 3562SOL    HW122322   0.635   4.206   4.961  1.9866 -0.6571  0.6640
 3562SOL    HW222323   0.636   4.297   5.073 -1.3163 -0.2451  1.9561
 3563SOL     OW22324   1.520   2.542   8.764 -0.8066  0.4082  0.1182
 3563SOL    HW122325   1.548   2.460   8.804 -0.6212 -0.9300 -2.7618
 3563SOL    HW222326   1.561   2.537   8.678 -0.2759  2.9608  0.2106
 3564SOL     OW22327   0.252   2.454   4.054  0.4939  0.0493  0.1386
 3564SOL    HW122328   0.307   2.376   4.048 -0.1529 -0.5476  1.9345
 3564SOL    HW222329   0.315   2.523   4.036 -0.0410  0.9252  1.5752
 3565SOL     OW22330   3.969   2.024   7.730  0.2217 -0.2980 -0.2103
 3565SOL    HW122331   4.011   2.000   7.648 -3.3033 -1.6750 -1.5967
 3565SOL    HW222332   3.988   2.117   7.736  1.4124 -0.6015  0.7148
 3566SOL     OW22333   2.547   0.544  11.668  0.1916  0.0079  0.1426
 3566SOL    HW122334   2.497   0.494  11.733 -1.7440  0.6990 -0.8285
 3566SOL    HW222335   2.630   0.510  11.700  0.1412  0.1361  0.4158
 3567SOL     OW22336   1.567   1.518   5.595 -0.3152  0.0287 -0.6234
 3567SOL    HW122337   1.660   1.535   5.583 -0.1614  1.8034  3.1956
 3567SOL    HW222338   1.531   1.607   5.596  0.3249  0.2613  0.7874
 3568SOL     OW22339   2.118   0.613   0.473 -0.1098 -0.3956  0.1799
 3568SOL    HW122340   2.198   0.575   0.436  0.1301  0.5429 -0.2475
 3568SOL    HW222341   2.060   0.610   0.397  2.2252 -0.7413 -1.5899
 3569SOL     OW22342   2.561   0.632   6.514  0.6087  0.3943  0.2467
 3569SOL    HW122343   2.600   0.635   6.601 -0.4223 -0.2975  0.7302
 3569SOL    HW222344   2.531   0.722   6.501 -2.9492 -0.5985  1.7634
 3570SOL     OW22345   2.326   4.112  11.717  0.1989  0.0686 -0.3618
 3570SOL    HW122346   2.293   4.029  11.750 -0.6479  1.2597  1.7633
 3570SOL    HW222347   2.295   4.111  11.627 -1.0850  1.9235  0.0743
 3571SOL     OW22348   1.616   2.289   8.823  0.4388 -0.4524 -0.5384
 3571SOL    HW122349   1.607   2.215   8.763 -0.7099 -1.1469  0.4934
 3571SOL    HW222350   1.643   2.244   8.902 -0.3407  1.8210  1.0100
 3572SOL     OW22351   1.940   2.073   5.071  0.6115  0.7247 -0.6932
 3572SOL    HW122352   1.872   2.139   5.059 -1.0596 -0.7436  0.6084
 3572SOL    HW222353   1.988   2.115   5.142  2.1893 -2.4074  0.0980
 3573SOL     OW22354   3.455   4.494   5.460  0.0010 -0.7014 -0.2672
 3573SOL    HW122355   3.504   4.568   5.496  0.4474 -0.7125 -0.8600
 3573SOL    HW222356   3.369   4.503   5.502 -0.2906  1.3051 -1.2945
 3574SOL     OW22357   4.262   0.357   6.136 -0.2343 -0.7982 -0.3506
 3574SOL    HW122358   4.356   0.346   6.123  0.0443 -0.7383  1.7413
 3574SOL    HW222359   4.262   0.452   6.123  2.2282 -0.9897 -1.7369
 3575SOL     OW22360   2.230   2.434   2.349 -0.2206  0.1843  0.0989
 3575SOL    HW122361   2.175   2.355   2.350  0.5761 -0.3697 -0.2467
 3575SOL    HW222362   2.314   2.388   2.355 -1.4231 -2.0853 -0.3559
 3576SOL     OW22363   3.060   2.638   3.710  0.1414 -0.6734  0.7490
 3576SOL    HW122364   3.100   2.696   3.645  0.2756 -1.3832  0.2061
 3576SOL    HW222365   2.976   2.679   3.732 -0.2339 -0.3246 -1.3232
 3577SOL     OW22366   2.798   1.710   7.423  0.4223 -0.2777  0.2851
 3577SOL    HW122367   2.822   1.617   7.424  1.3633 -0.0500 -0.7410
 3577SOL    HW222368   2.864   1.728   7.356 -0.2310  0.5511 -0.1404
 3578SOL     OW22369   0.576   4.471   4.004 -0.1019  0.3059 -0.6020
 3578SOL    HW122370   0.608   4.521   3.928  3.3541  0.3175  0.8575
 3578SOL    HW222371   0.637   4.398   4.011 -0.5501 -0.0371 -0.2811
 3579SOL     OW22372   2.034   2.600   6.549 -0.0582 -0.0949  0.1885
 3579SOL    HW122373   2.042   2.505   6.549  0.9896 -0.0075  0.5908
 3579SOL    HW222374   1.983   2.619   6.470  0.0221 -3.9370 -0.7642
 3580SOL     OW22375   4.195   2.347   6.593 -0.1226  1.1198  0.0400
 3580SOL    HW122376   4.253   2.372   6.665 -0.7794  0.9239  0.6298
 3580SOL    HW222377   4.141   2.283   6.638  0.4755  1.0860  0.7102
 3581SOL     OW22378   4.719   0.756   3.389 -0.2475 -0.2115 -0.0443
 3581SOL    HW122379   4.672   0.674   3.404 -1.9454  0.7282 -0.1701
 3581SOL    HW222380   4.704   0.753   3.294 -0.7702 -2.0431  0.0981
 3582SOL     OW22381   2.304   1.301   9.128 -0.5954 -0.3266  0.2357
 3582SOL    HW122382   2.308   1.245   9.051 -1.5664  0.1259 -0.1426
 3582SOL    HW222383   2.264   1.246   9.196  1.5688  0.3142  2.0321
 3583SOL     OW22384   2.148   4.182   1.916 -0.4323 -0.3092  0.1447
 3583SOL    HW122385   2.204   4.259   1.919  1.4148 -1.6089 -1.4096
 3583SOL    HW222386   2.191   4.125   1.980 -0.8305 -0.9390 -0.1505
 3584SOL     OW22387   0.472   2.259  16.505 -0.1046  0.4261  0.2416
 3584SOL    HW122388   0.485   2.236  16.597 -1.7477  0.0514  0.3812
 3584SOL    HW222389   0.511   2.346  16.501 -0.2392  0.4679 -0.1926
 3585SOL     OW22390   2.005   2.503  16.921  0.3018  0.8031  0.2415
 3585SOL    HW122391   2.080   2.445  16.929 -0.3865 -0.3148 -1.4071
 3585SOL    HW222392   1.998   2.488  16.827  0.7509 -4.5915  1.0605
 3586SOL     OW22393   1.735   1.411   4.887  0.7967  0.3350  0.2240
 3586SOL    HW122394   1.793   1.447   4.954  1.0964 -2.4253  1.4571
 3586SOL    HW222395   1.734   1.478   4.819  0.8464  2.5767  2.4719
 3587SOL     OW22396   1.839   2.195   2.837 -0.2975  0.3019  0.2760
 3587SOL    HW122397   1.751   2.197   2.800 -0.8061 -1.1753  1.4074
 3587SOL    HW222398   1.828   2.118   2.893  0.6008 -0.4246 -0.5397
 3588SOL     OW22399   3.481   1.069  13.352  0.0324 -0.0375 -0.0209
 3588SOL    HW122400   3.411   1.134  13.358  3.3119  3.4514 -0.4851
 3588SOL    HW222401   3.429   0.996  13.316  0.7159 -0.9213  0.7759
 3589SOL     OW22402   3.686   3.019   7.098 -0.6089  0.0591 -0.0027
 3589SOL    HW122403   3.650   3.053   7.179 -0.8466  3.0512 -1.3476
 3589SOL    HW222404   3.780   3.014   7.117 -0.8785 -0.4825  1.1821
 3590SOL     OW22405   0.600   1.002  17.061  0.0208  0.1181  0.1713
 3590SOL    HW122406   0.684   0.993  17.106  0.1903 -0.1413 -0.1889
 3590SOL    HW222407   0.564   1.080  17.102 -0.2405  1.9670 -3.5148
 3591SOL     OW22408   4.636   3.978   9.056 -0.2370  0.1065 -0.2887
 3591SOL    HW122409   4.648   4.039   8.984  2.3755 -1.3756 -1.1016
 3591SOL    HW222410   4.550   3.938   9.041  0.9690 -1.5345 -2.7767
 3592SOL     OW22411   2.777   4.372   4.478 -0.2897  0.0269 -0.1537
 3592SOL    HW122412   2.856   4.419   4.503 -0.2031 -0.8075  1.1487
 3592SOL    HW222413   2.753   4.416   4.396  0.2523 -2.0517 -1.4317
 3593SOL     OW22414   2.757   2.340   2.938  1.2573 -0.1983  0.2393
 3593SOL    HW122415   2.669   2.324   2.905  1.7215 -1.1230 -0.5532
 3593SOL    HW222416   2.767   2.435   2.930  0.8927 -0.1313  0.5588
 3594SOL     OW22417   0.408   0.088   2.726 -0.1407  0.2416 -0.6426
 3594SOL    HW122418   0.424   0.161   2.667  0.4739  0.8800  0.3180
 3594SOL    HW222419   0.317   0.104   2.751 -0.8726 -1.3534 -2.2634
 3595SOL     OW22420   2.968   4.290  15.940 -0.2339 -0.3549  0.1143
 3595SOL    HW122421   2.942   4.382  15.945 -2.1182 -0.9804  1.8514
 3595SOL    HW222422   3.062   4.303  15.932 -0.4592 -1.0189 -3.5711
 3596SOL     OW22423   3.474   4.222   2.256 -0.6525 -0.4243  0.1296
 3596SOL    HW122424   3.468   4.196   2.348  1.4919 -0.1027  0.3536
 3596SOL    HW222425   3.531   4.157   2.215  0.9165  0.3614  1.0747
 3597SOL     OW22426   4.519   0.305  12.420  0.2533 -0.2530  0.1343
 3597SOL    HW122427   4.549   0.372  12.482 -0.1339 -0.7589  0.8630
 3597SOL    HW222428   4.506   0.355  12.339  1.4789 -0.4472 -0.1902
 3598SOL     OW22429   0.773   0.853   7.834 -0.0370  0.1084 -0.0860
 3598SOL    HW122430   0.811   0.775   7.794  2.2262  0.7517  0.7621
 3598SOL    HW222431   0.783   0.836   7.928 -2.2919 -1.4464 -0.1424
 3599SOL     OW22432   4.067   1.106   1.540  0.0750  0.6102 -0.0015
 3599SOL    HW122433   4.115   1.148   1.611 -2.8488 -0.7038  2.7323
 3599SOL    HW222434   3.982   1.085   1.577  0.9946  1.2803  2.5054
 3600SOL     OW22435   0.162   1.025   7.500 -0.2829 -0.4661 -0.0291
 3600SOL    HW122436   0.194   0.965   7.567  2.8271  1.0083 -0.2071
 3600SOL    HW222437   0.111   0.967   7.443 -0.7013  0.3117 -0.4436
 3601SOL     OW22438   1.051   3.716   8.871  0.1299 -0.3299 -0.0857
 3601SOL    HW122439   1.095   3.757   8.946  0.7910  1.4822 -1.4595
 3601SOL    HW222440   0.998   3.783   8.828  0.1693 -1.2759 -1.6099
 3602SOL     OW22441   0.817   3.724   2.660 -0.2426 -0.1035 -0.8374
 3602SOL    HW122442   0.746   3.708   2.598 -0.7190  1.2808 -0.6709
 3602SOL    HW222443   0.764   3.744   2.738 -0.0006 -0.4446 -0.5855
 3603SOL     OW22444   3.187   2.807   2.677  0.6188 -0.2740  1.0285
 3603SOL    HW122445   3.243   2.827   2.753 -0.9638  3.0010  1.3273
 3603SOL    HW222446   3.161   2.892   2.643 -0.7786  0.0626  2.9593
 3604SOL     OW22447   1.429   2.267   6.638 -0.4486 -0.3054 -0.2890
 3604SOL    HW122448   1.387   2.349   6.611  0.7715  1.2616  2.6708
 3604SOL    HW222449   1.381   2.243   6.717  1.2319  0.5119  0.9661
 3605SOL     OW22450   2.316   2.278  14.026 -0.3854 -0.1475  0.1283
 3605SOL    HW122451   2.257   2.324  13.966 -1.6317  1.4149  2.5324
 3605SOL    HW222452   2.307   2.185  14.005  2.3588 -0.8369  2.0640
 3606SOL     OW22453   0.564   3.798   4.226 -0.4060 -0.2841 -0.0484
 3606SOL    HW122454   0.556   3.875   4.169 -1.4312 -0.9296 -0.7749
 3606SOL    HW222455   0.474   3.811   4.256 -0.7773  0.5959 -1.5298
 3607SOL     OW22456   0.386   3.157   1.654  0.2992  0.1014  0.2270
 3607SOL    HW122457   0.467   3.125   1.691 -0.1310  0.8844  1.8223
 3607SOL    HW222458   0.424   3.204   1.580 -0.3622  0.2775 -0.0059
 3608SOL     OW22459   1.547   3.087  13.309  0.1725  0.5157 -0.1032
 3608SOL    HW122460   1.496   3.008  13.294 -0.8954  1.3608 -0.8674
 3608SOL    HW222461   1.584   3.110  13.224 -1.7064  0.7412 -0.8519
 3609SOL     OW22462   1.392   4.145   5.690 -0.2996  0.6394  0.1843
 3609SOL    HW122463   1.448   4.220   5.710  0.2061  0.1139  0.7519
 3609SOL    HW222464   1.360   4.142   5.780 -0.9984  1.0401 -0.0571
 3610SOL     OW22465   0.323   3.965   2.188  0.0255  0.4913 -0.0901
 3610SOL    HW122466   0.316   4.060   2.189 -0.5187  0.4521  0.3380
 3610SOL    HW222467   0.379   3.954   2.111  2.7980 -1.2269  2.1592
 3611SOL     OW22468   2.225   4.629   8.367  0.2148 -0.0807 -0.1702
 3611SOL    HW122469   2.217   4.687   8.442  0.9093  1.5826 -1.3757
 3611SOL    HW222470   2.219   4.543   8.408 -1.1797 -0.3962 -1.0488
 3612SOL     OW22471   1.202   1.455  13.828  0.0038 -0.0895 -0.4295
 3612SOL    HW122472   1.150   1.382  13.861  0.6685 -0.8005 -0.9770
 3612SOL    HW222473   1.133   1.513  13.796 -0.1841  0.5998  1.2049
 3613SOL     OW22474   3.171   1.177   4.675 -0.1786 -0.2182 -0.2088
 3613SOL    HW122475   3.078   1.196   4.687 -0.3460 -1.2601  0.0955
 3613SOL    HW222476   3.192   1.229   4.597 -1.8825  0.6706 -0.0868
 3614SOL     OW22477   0.848   3.735  10.629  0.0891 -0.0747 -0.1557
 3614SOL    HW122478   0.811   3.756  10.715  2.5397 -1.9602  1.3265
 3614SOL    HW222479   0.902   3.810  10.604  2.5709 -2.3938 -1.8226
 3615SOL     OW22480   2.939   2.051   2.118 -0.1739  0.5003 -0.4509
 3615SOL    HW122481   2.885   2.003   2.055  0.0247 -0.4318  0.1037
 3615SOL    HW222482   3.004   1.984   2.139  0.6623  1.6909  0.7511
 3616SOL     OW22483   2.727   4.495   7.528 -0.5537 -0.0198 -0.0513
 3616SOL    HW122484   2.758   4.437   7.598  0.2335 -1.7670 -1.8525
 3616SOL    HW222485   2.803   4.482   7.472  0.9348  0.0916  1.9482
 3617SOL     OW22486   2.996   0.959   4.304  0.2640 -0.3073 -0.5063
 3617SOL    HW122487   3.080   1.001   4.322  0.3078 -0.7394  0.3155
 3617SOL    HW222488   2.987   0.961   4.209  0.3900  0.4227 -0.5019
 3618SOL     OW22489   1.824   0.412   8.293  0.0898 -0.1121 -0.4215
 3618SOL    HW122490   1.762   0.430   8.223  0.8971  0.9564 -0.8572
 3618SOL    HW222491   1.884   0.355   8.245  0.1038 -0.0378 -0.4910
 3619SOL     OW22492   3.215   3.964  16.097  0.0277  0.6102  0.6179
 3619SOL    HW122493   3.189   3.957  16.006 -2.3401  1.2239  1.2488
 3619SOL    HW222494   3.154   4.035  16.117 -2.0249 -0.5893 -1.3307
 3620SOL     OW22495   4.730   4.560   7.914  0.0655 -0.3067 -0.1892
 3620SOL    HW122496   4.649   4.570   7.862 -0.0824  1.6971  0.4210
 3620SOL    HW222497   0.031   4.478   7.881 -0.8120 -1.3404  1.4287
 3621SOL     OW22498   2.278   2.641   5.504 -0.0751 -0.0447 -0.5859
 3621SOL    HW122499   2.307   2.648   5.413  0.7622 -1.7531 -0.4659
 3621SOL    HW222500   2.334   2.575   5.545  0.9794 -0.0911 -2.0834
 3622SOL     OW22501   2.322   4.061   3.155  0.2658  0.8903  0.0021
 3622SOL    HW122502   2.417   4.061   3.143 -0.2102 -1.1184 -3.6770
 3622SOL    HW222503   2.329   4.079   3.249 -0.9168 -0.6448  0.3840
 3623SOL     OW22504   1.035   1.538   2.693 -0.3052  0.1001 -0.4078
 3623SOL    HW122505   0.974   1.473   2.727  1.2519 -1.2656 -0.2066
 3623SOL    HW222506   1.114   1.515   2.743 -0.7010  0.9983  0.6372
 3624SOL     OW22507   0.130   0.777   6.354  0.0106  0.2425  0.3617
 3624SOL    HW122508   0.096   0.863   6.378 -1.1734 -0.2516  0.4635
 3624SOL    HW222509   0.038   0.755   6.335  0.4150 -0.7616 -0.4906
 3625SOL     OW22510   1.707   3.063   9.578 -0.7845  0.4200  0.1742
 3625SOL    HW122511   1.692   3.150   9.541  0.2615  1.2115  1.5739
 3625SOL    HW222512   1.660   3.005   9.518  1.2560 -0.8672 -0.1933
 3626SOL     OW22513   0.625   2.154   2.044 -0.2413 -0.6112  0.2145
 3626SOL    HW122514   0.630   2.059   2.043 -2.2206 -0.7265 -0.4720
 3626SOL    HW222515   0.547   2.159   1.987 -0.6497  2.2969  1.0241
 3627SOL     OW22516   3.790   1.330  10.414  0.4810  0.2622 -0.2504
 3627SOL    HW122517   3.772   1.331  10.508  0.1726 -1.1481 -0.2977
 3627SOL    HW222518   3.711   1.382  10.397  0.4222  0.1420 -0.3426
 3628SOL     OW22519   1.025   0.211   6.581  0.1764 -0.5733  0.0451
 3628SOL    HW122520   0.948   0.263   6.558  1.4694  1.0973 -0.4805
 3628SOL    HW222521   1.017   0.141   6.517 -1.1258  0.4674 -0.9307
 3629SOL     OW22522   3.137   0.863   6.761  0.0691 -0.9540 -0.1010
 3629SOL    HW122523   3.114   0.776   6.794  1.6199 -0.7371  1.6016
 3629SOL    HW222524   3.199   0.827   6.697 -0.1393 -0.5508 -0.5225
 3630SOL     OW22525   2.704   0.749   5.248 -0.1537  0.0588  0.3850
 3630SOL    HW122526   2.749   0.783   5.326  0.1067 -3.3328  1.7112
 3630SOL    HW222527   2.776   0.691   5.221  0.4387  0.5244  0.9438
 3631SOL     OW22528   2.947   4.519   0.521 -0.2904 -0.2050 -0.0602
 3631SOL    HW122529   3.026   4.571   0.535 -0.6586  0.3022  0.1794
 3631SOL    HW222530   2.981   4.438   0.483  0.5348 -0.2534  0.7923
 3632SOL     OW22531   0.588   2.200   2.644  0.0180 -0.1261  0.4338
 3632SOL    HW122532   0.617   2.159   2.726  1.3037  1.0113  0.5380
 3632SOL    HW222533   0.519   2.264   2.664  0.0566  0.2223 -0.5921
 3633SOL     OW22534   3.464   1.446   3.715  0.0968  0.0773 -0.0823
 3633SOL    HW122535   3.491   1.471   3.803  2.3145  0.8963 -1.0041
 3633SOL    HW222536   3.538   1.394   3.685  0.1417  0.2792 -0.3200
 3634SOL     OW22537   0.053   3.258   3.348  0.0196 -0.1487  0.3849
 3634SOL    HW122538   4.720   3.204   3.308  1.3396 -1.0218 -0.6621
 3634SOL    HW222539   0.006   3.340   3.362  0.8299  0.6354 -1.5599
 3635SOL     OW22540   2.086   4.711  14.639  0.2388  0.2772  0.0024
 3635SOL    HW122541   2.137   4.668  14.708 -0.5144 -1.1606 -0.3399
 3635SOL    HW222542   2.030   0.032  14.693  1.1664  2.3964 -1.2679
 3636SOL     OW22543   2.067   2.402   3.785 -0.3466  0.3391 -0.1250
 3636SOL    HW122544   2.005   2.374   3.852  0.4694  0.1572  0.5559
 3636SOL    HW222545   2.135   2.442   3.839  0.1943 -0.4747 -0.2024
 3637SOL     OW22546   1.117   2.464   4.530 -1.1278 -0.2446  0.1121
 3637SOL    HW122547   1.176   2.538   4.544 -0.5888 -0.6714  0.0908
 3637SOL    HW222548   1.172   2.397   4.490  0.7595  1.5253 -0.2476
 3638SOL     OW22549   0.684   1.891   2.663  0.3965  0.4634 -0.4633
 3638SOL    HW122550   0.604   1.865   2.710  1.4652 -2.4186 -0.2247
 3638SOL    HW222551   0.694   1.818   2.602  1.7481  1.4984 -1.4701
 3639SOL     OW22552   4.111   1.069   2.917 -0.6908 -0.2612 -0.6575
 3639SOL    HW122553   4.144   1.022   2.993 -0.9525  0.3507 -0.1572
 3639SOL    HW222554   4.073   1.144   2.964 -0.1687 -1.7832  2.2437
 3640SOL     OW22555   3.542   4.174   6.936 -0.1356  0.1462  0.2278
 3640SOL    HW122556   3.491   4.117   6.994  1.0120 -0.5121  0.5909
 3640SOL    HW222557   3.580   4.238   6.995 -0.4719  3.0938 -2.7819
 3641SOL     OW22558   1.666   3.387   4.557  0.0347  0.0997  0.2962
 3641SOL    HW122559   1.634   3.306   4.598  1.7557 -0.8632 -0.2729
 3641SOL    HW222560   1.687   3.449   4.627  0.5669  2.4314 -1.9245
 3642SOL     OW22561   1.056   0.785   8.588  0.2942 -0.0394  0.0866
 3642SOL    HW122562   1.025   0.775   8.678 -0.0813 -1.1864 -0.1689
 3642SOL    HW222563   1.117   0.858   8.595  0.3073 -0.1938  1.6771
 3643SOL     OW22564   4.651   4.242   9.191  0.5093  0.2028 -0.2472
 3643SOL    HW122565   4.644   4.157   9.147  0.8872 -0.5380  1.1013
 3643SOL    HW222566   4.691   4.216   9.274  0.4411  1.4192  0.1584
 3644SOL     OW22567   0.011   0.324   6.185  0.7326  0.7653  0.0666
 3644SOL    HW122568   0.023   0.232   6.210  0.0680  0.3700 -1.0776
 3644SOL    HW222569   4.718   0.380   6.258 -0.3626 -1.7841  1.6158
 3645SOL     OW22570   0.822   2.716   4.574  0.1692 -0.3945  0.0946
 3645SOL    HW122571   0.866   2.721   4.489  0.0479  4.1194  0.2692
 3645SOL    HW222572   0.845   2.628   4.602 -3.2507 -1.1227  0.6706
 3646SOL     OW22573   2.736   2.611   5.099  0.7633 -0.2462 -0.7709
 3646SOL    HW122574   2.783   2.543   5.050  1.6501  0.2956 -0.6735
 3646SOL    HW222575   2.648   2.623   5.065 -0.1348 -1.3717  1.1935
 3647SOL     OW22576   0.296   0.466   4.882  0.3709  0.0012 -0.5985
 3647SOL    HW122577   0.202   0.471   4.871  0.2550 -1.3414 -0.2696
 3647SOL    HW222578   0.309   0.371   4.888 -1.1426 -0.1602 -0.0272
 3648SOL     OW22579   3.657   1.981  10.341 -0.7889 -0.2180 -0.0496
 3648SOL    HW122580   3.564   1.979  10.319 -1.1315  2.0778  1.2164
 3648SOL    HW222581   3.665   1.937  10.426  0.5373  1.2394  0.5738
 3649SOL     OW22582   0.267   3.631   1.271 -0.1872 -0.5357 -0.0401
 3649SOL    HW122583   0.292   3.582   1.349 -0.6189 -1.3246 -0.3909
 3649SOL    HW222584   0.214   3.564   1.227 -0.3565 -0.1608 -0.4092
 3650SOL     OW22585   3.389   1.775  12.933 -0.0642  0.2579 -0.0596
 3650SOL    HW122586   3.403   1.819  12.848  0.0821 -2.4515 -1.4351
 3650SOL    HW222587   3.405   1.684  12.909  2.0546  1.1411 -2.0615
 3651SOL     OW22588   3.731   3.522  15.071  0.0482  0.1350  0.0032
 3651SOL    HW122589   3.815   3.500  15.031 -1.3075  0.9226 -3.3297
 3651SOL    HW222590   3.730   3.477  15.156 -0.3751 -0.4366 -0.3018
 3652SOL     OW22591   1.108   1.487   6.102 -0.4174  0.5253  0.1502
 3652SOL    HW122592   1.100   1.400   6.141 -2.5155  0.4185 -0.5704
 3652SOL    HW222593   1.189   1.463   6.055 -0.0927  1.9891 -0.0295
 3653SOL     OW22594   2.572   4.010  11.536  0.0724  0.0635  0.2502
 3653SOL    HW122595   2.533   3.940  11.589 -0.4896  1.2770  1.4400
 3653SOL    HW222596   2.646   3.960  11.502 -0.7269 -1.2017  0.3722
 3654SOL     OW22597   3.169   0.334   7.815 -0.5222  0.6552 -0.3003
 3654SOL    HW122598   3.074   0.342   7.827 -0.8918 -2.5196 -1.1079
 3654SOL    HW222599   3.198   0.416   7.854 -0.1893 -0.3084  1.5243
 3655SOL     OW22600   3.687   4.321   7.147 -0.4096 -0.0424  0.2592
 3655SOL    HW122601   3.665   4.407   7.184  0.1612 -0.1339  0.8132
 3655SOL    HW222602   3.671   4.258   7.218 -0.1151  1.2185  1.4492
 3656SOL     OW22603   0.017   1.328   7.041  0.0352  0.1435  0.1033
 3656SOL    HW122604   0.024   1.370   7.126  2.3987  0.4497 -0.2630
 3656SOL    HW222605   4.663   1.292   7.048  0.5034 -0.9427  0.5410
 3657SOL     OW22606   2.683   2.101   7.908  0.8095 -0.2054  0.3527
 3657SOL    HW122607   2.773   2.090   7.879  0.6903 -0.1018 -0.0593
 3657SOL    HW222608   2.654   2.164   7.842 -2.1747 -0.6644  1.1988
 3658SOL     OW22609   1.343   0.972   8.246  0.3489  0.1197 -0.1132
 3658SOL    HW122610   1.390   0.895   8.212  0.6040  0.0087  0.4975
 3658SOL    HW222611   1.388   1.053   8.222  0.0462  0.8674  1.9026
 3659SOL     OW22612   4.384   4.272   4.796  0.0353 -0.1161  0.3100
 3659SOL    HW122613   4.463   4.238   4.839  0.9717  1.3269 -0.3018
 3659SOL    HW222614   4.322   4.209   4.832 -0.7353  2.2335  3.0894
 3660SOL     OW22615   1.401   0.393  11.211  0.0364  0.1422 -0.2743
 3660SOL    HW122616   1.329   0.330  11.201  0.1056 -0.0670  0.5055
 3660SOL    HW222617   1.352   0.458  11.262 -0.8440  0.6804 -1.8161
 3661SOL     OW22618   1.463   2.796   4.052 -0.2068 -0.4640 -0.0279
 3661SOL    HW122619   1.450   2.838   3.966 -2.0884  1.7866  1.3517
 3661SOL    HW222620   1.557   2.802   4.065 -0.2878  0.2048  0.2579
 3662SOL     OW22621   3.643   2.372   4.063  0.9915 -0.1700 -0.3508
 3662SOL    HW122622   3.732   2.338   4.063  1.1951  0.3764  0.5606
 3662SOL    HW222623   3.661   2.439   4.128  1.9969 -0.9639  0.1833
 3663SOL     OW22624   3.553   2.185   9.221 -0.2488 -0.0405 -0.1348
 3663SOL    HW122625   3.530   2.277   9.206  0.3247 -0.0710 -1.1809
 3663SOL    HW222626   3.624   2.197   9.284 -0.0967  3.8886 -1.0407
 3664SOL     OW22627   0.341   4.703   0.333  0.4894 -0.2955 -0.2405
 3664SOL    HW122628   0.373   0.045   0.379 -0.1776 -0.2429  0.1314
 3664SOL    HW222629   0.261   4.684   0.382  0.4044  0.5901 -0.0371
 3665SOL     OW22630   4.663   0.007   5.969 -0.5670 -0.2017 -0.3928
 3665SOL    HW122631   4.581   4.695   5.953 -2.0862  1.6229  1.9782
 3665SOL    HW222632   4.662   0.016   6.064  1.7857 -1.0720 -0.2816
 3666SOL     OW22633   4.477   2.471   7.067  0.1367 -0.1824  0.0861
 3666SOL    HW122634   4.544   2.436   7.007 -1.3806 -0.4013 -1.4758
 3666SOL    HW222635   4.447   2.552   7.027  0.2994  0.2422  0.8222
 3667SOL     OW22636   0.477   0.374   6.569 -0.1735 -0.0641 -0.3129
 3667SOL    HW122637   0.412   0.440   6.593 -1.1939 -0.5604 -1.7397
 3667SOL    HW222638   0.490   0.386   6.475 -3.8024 -1.1357 -0.9465
 3668SOL     OW22639   1.749   1.873   9.777  0.7236  0.0306  0.1419
 3668SOL    HW122640   1.656   1.872   9.757  1.3761  0.3413 -2.8249
 3668SOL    HW222641   1.739   1.846   9.869 -0.1139 -2.3974 -0.6627
 3669SOL     OW22642   4.635   1.466  12.510  0.0202 -0.3268 -0.1668
 3669SOL    HW122643   4.581   1.393  12.541  0.7326 -0.4746  0.7299
 3669SOL    HW222644   4.656   1.439  12.421 -1.2948 -2.5738  0.1965
 3670SOL     OW22645   2.813   0.115   3.881 -0.3485 -0.3462  0.2002
 3670SOL    HW122646   2.849   0.130   3.969 -1.1388  0.3536  0.4053
 3670SOL    HW222647   2.783   0.203   3.860  0.4449 -0.6235 -2.0685
 3671SOL     OW22648   2.449   3.558   2.512  0.3837 -0.2087  0.0214
 3671SOL    HW122649   2.479   3.471   2.538  0.4910  0.1334  1.0356
 3671SOL    HW222650   2.525   3.615   2.529 -2.8470  3.8182  0.9526
 3672SOL     OW22651   1.394   0.345   1.113  0.1675 -0.4806  0.3566
 3672SOL    HW122652   1.329   0.358   1.182 -0.2897 -2.4234  0.2949
 3672SOL    HW222653   1.391   0.249   1.112  0.2464 -0.4731 -0.2656
 3673SOL     OW22654   0.727   4.718   5.032  0.2991  0.3269 -0.6387
 3673SOL    HW122655   0.657   0.030   5.077  0.1417  0.4776 -1.0402
 3673SOL    HW222656   0.712   0.010   4.941  0.0842 -0.2240 -0.7700
 3674SOL     OW22657   4.590   1.544  13.483 -0.1415 -0.0286 -0.4390
 3674SOL    HW122658   4.533   1.552  13.559  1.2520  0.5765  0.5473
 3674SOL    HW222659   4.596   1.449  13.475  0.0465 -0.1917  1.6390
 3675SOL     OW22660   1.689   0.116   7.314  0.2882  0.5934  0.5776
 3675SOL    HW122661   1.611   0.172   7.303 -0.1595 -0.3469 -1.0718
 3675SOL    HW222662   1.666   0.041   7.368 -0.5771  0.9295  0.6775
 3676SOL     OW22663   0.089   4.707   9.523  0.0973  0.1788  0.6266
 3676SOL    HW122664   0.052   4.702   9.611  0.0298  2.3621  0.7450
 3676SOL    HW222665   0.038   4.636   9.485  0.1417  0.8351 -0.6799
 3677SOL     OW22666   0.813   3.080  11.145 -0.0223 -0.7405 -0.1636
 3677SOL    HW122667   0.886   3.048  11.198  1.4333  0.3577 -1.5212
 3677SOL    HW222668   0.855   3.162  11.120 -0.3965 -0.5136 -0.0473
 3678SOL     OW22669   2.097   1.623  17.299 -0.6747 -0.1481  0.5535
 3678SOL    HW122670   2.055   1.611  17.214  0.8312  0.1498 -0.2297
 3678SOL    HW222671   2.162   1.553  17.288 -1.9629 -0.5294 -4.6595
 3679SOL     OW22672   1.389   0.933   7.757 -0.2059 -0.2526 -0.4602
 3679SOL    HW122673   1.391   0.844   7.722 -1.1130 -0.3414 -0.2869
 3679SOL    HW222674   1.333   0.977   7.694 -0.3968 -1.0779 -0.8668
 3680SOL     OW22675   2.659   0.287  11.996 -0.2023 -0.0040 -0.1014
 3680SOL    HW122676   2.615   0.212  12.036 -2.0073  0.6507 -0.8735
 3680SOL    HW222677   2.736   0.298  12.052 -0.0234 -0.3846 -0.2733
 3681SOL     OW22678   4.330   4.236   9.066  0.0245  0.0070  0.1493
 3681SOL    HW122679   4.360   4.247   9.157  2.6353  2.0845 -0.9686
 3681SOL    HW222680   4.261   4.170   9.077 -0.4206  0.5872  0.8906
 3682SOL     OW22681   2.163   2.505   1.910 -0.7081 -0.5719 -0.1058
 3682SOL    HW122682   2.095   2.465   1.965 -1.5178 -0.7951 -1.2541
 3682SOL    HW222683   2.231   2.533   1.971 -1.4838  1.9247 -0.3951
 3683SOL     OW22684   2.087   1.695  12.239 -0.2386  0.1947 -0.1042
 3683SOL    HW122685   2.175   1.672  12.270 -0.0869 -0.6038 -1.1073
 3683SOL    HW222686   2.078   1.631  12.168 -1.6365  0.5071 -0.1985
 3684SOL     OW22687   0.145   3.141   7.244  0.2535 -0.2119 -0.2567
 3684SOL    HW122688   0.110   3.081   7.178  0.8924  1.8139 -2.4372
 3684SOL    HW222689   0.068   3.184   7.280  0.2016 -1.0191  0.5840
 3685SOL     OW22690   2.144   3.390   0.036  0.6892 -0.0517  0.4537
 3685SOL    HW122691   2.207   3.365  17.709  0.8064  3.9506 -0.8925
 3685SOL    HW222692   2.116   3.312   0.084  1.5355  0.2498  1.4358
 3686SOL     OW22693   1.764   2.499   6.606  0.3864  0.0418 -0.9618
 3686SOL    HW122694   1.707   2.577   6.608  1.0095  0.4803 -0.1542
 3686SOL    HW222695   1.717   2.440   6.547  1.3793 -0.5555 -1.1600
 3687SOL     OW22696   3.253   2.518   3.830 -0.5095 -0.3384 -0.3247
 3687SOL    HW122697   3.195   2.535   3.905 -2.3958 -0.8061 -1.6796
 3687SOL    HW222698   3.201   2.569   3.768 -0.0524 -0.0650 -0.4805
 3688SOL     OW22699   0.841   2.571   2.105 -0.4260  0.3267 -0.3842
 3688SOL    HW122700   0.823   2.480   2.132  0.2405 -0.6211 -3.2092
 3688SOL    HW222701   0.846   2.551   2.012  0.5469 -0.4138 -0.1732
 3689SOL     OW22702   4.546   4.596   7.454 -0.1984  0.5345  0.1035
 3689SOL    HW122703   4.551   4.584   7.359 -0.8114  2.1095 -0.1269
 3689SOL    HW222704   4.618   4.539   7.482  0.4361 -0.5541 -3.7299
 3690SOL     OW22705   3.175   4.034   3.045  0.4248  0.0087 -0.1136
 3690SOL    HW122706   3.181   4.072   3.133  1.0621  0.1688 -0.2307
 3690SOL    HW222707   3.245   4.075   2.995 -1.2350  1.1132 -1.5422
 3691SOL     OW22708   0.195   4.698   6.059  0.1452 -0.3660 -0.8508
 3691SOL    HW122709   0.162   0.000   5.977  0.1176 -0.1897 -0.7584
 3691SOL    HW222710   0.197   4.603   6.043  2.5387 -0.2411 -1.3018
 3692SOL     OW22711   3.097   4.168   7.862  0.1948 -0.0672  0.3279
 3692SOL    HW122712   3.104   4.121   7.945  1.9665 -1.7395 -0.7534
 3692SOL    HW222713   3.184   4.201   7.840  0.5237 -0.2120  1.4253
 3693SOL     OW22714   2.133   3.266   2.779 -0.8081  0.0702  0.2532
 3693SOL    HW122715   2.199   3.331   2.752  1.5032 -1.9116  1.1361
 3693SOL    HW222716   2.056   3.320   2.798 -0.8017 -0.1173  0.7863
 3694SOL     OW22717   4.304   2.057  15.764  0.1626 -0.5101 -0.0604
 3694SOL    HW122718   4.344   2.141  15.787  2.0277 -1.3378 -0.2895
 3694SOL    HW222719   4.357   2.036  15.687 -1.9254 -0.1323 -1.6000
 3695SOL     OW22720   0.698   0.385   5.790  0.1705 -0.0244  0.5617
 3695SOL    HW122721   0.698   0.458   5.852 -1.2672  1.7495 -1.5160
 3695SOL    HW222722   0.647   0.328   5.847  0.2666 -1.0681 -0.4046
 3696SOL     OW22723   3.520   2.056   6.965  0.4157 -0.0413  0.0732
 3696SOL    HW122724   3.481   2.017   6.887 -0.0866  2.5402 -0.9712
 3696SOL    HW222725   3.496   2.001   7.040 -0.7672 -2.1939 -1.8727
 3697SOL     OW22726   4.551   3.074  15.862 -0.1786  0.4627  0.5400
 3697SOL    HW122727   4.546   2.989  15.905 -1.2354  0.6940  0.8760
 3697SOL    HW222728   4.603   3.114  15.931  0.4666  1.5282 -0.5697
 3698SOL     OW22729   4.444   2.473   6.680 -0.2576 -0.6089 -0.3988
 3698SOL    HW122730   4.366   2.526   6.661 -0.4512 -0.6838  0.1989
 3698SOL    HW222731   4.511   2.516   6.627 -0.5114  1.1501  0.7087
 3699SOL     OW22732   2.022   2.628   9.770  0.8406 -0.5033 -0.4288
 3699SOL    HW122733   1.977   2.601   9.690  0.7119  0.0001 -0.5284
 3699SOL    HW222734   1.967   2.700   9.802 -1.5592 -2.3810 -0.3977
 3700SOL     OW22735   2.561   3.857   1.863  0.4692  0.1192  0.6490
 3700SOL    HW122736   2.590   3.797   1.932  1.1283 -0.3897 -0.0652
 3700SOL    HW222737   2.640   3.879   1.814 -1.6000  0.4678 -2.5427
 3701SOL     OW22738   2.302   1.434  17.260  0.4116  0.1374 -0.3076
 3701SOL    HW122739   2.315   1.345  17.292 -1.0344 -1.1425 -3.3836
 3701SOL    HW222740   2.359   1.451  17.185 -0.6010  1.7219 -0.7235
 3702SOL     OW22741   2.254   4.590   4.615 -0.2412 -0.0667 -0.4217
 3702SOL    HW122742   2.239   4.504   4.654  0.6703  0.2640  0.6505
 3702SOL    HW222743   2.165   4.612   4.589 -1.2695 -0.2532  2.8929
 3703SOL     OW22744   3.455   2.063   0.295 -0.3930  0.7248  0.3241
 3703SOL    HW122745   3.485   1.974   0.312 -0.5615  0.7978  1.0008
 3703SOL    HW222746   3.535   2.114   0.308  1.2484 -2.5790  3.0083
 3704SOL     OW22747   2.132   0.526   5.412 -0.1619 -0.2825 -0.4612
 3704SOL    HW122748   2.045   0.516   5.452 -0.6734 -0.7104 -1.6587
 3704SOL    HW222749   2.118   0.548   5.320 -2.4551  2.3211  0.5182
 3705SOL     OW22750   1.978   1.497   3.286  0.4570  0.1726 -0.1379
 3705SOL    HW122751   2.024   1.549   3.221  1.2020  1.5400  1.4876
 3705SOL    HW222752   1.887   1.518   3.263  0.1521  0.2932  1.1732
 3706SOL     OW22753   0.782   3.577   5.536  0.2412  0.1264 -0.4172
 3706SOL    HW122754   0.856   3.554   5.591  0.5215 -0.6546 -1.1123
 3706SOL    HW222755   0.774   3.663   5.575 -2.1495 -0.2026 -0.1738
 3707SOL     OW22756   0.446   1.822  16.404 -0.2395  0.4573  0.1557
 3707SOL    HW122757   0.541   1.817  16.390 -0.7481 -1.4287 -2.6307
 3707SOL    HW222758   0.421   1.900  16.354 -0.9675 -1.2853 -2.2022
 3708SOL     OW22759   2.850   3.901  15.737  0.5674  0.4266  0.0261
 3708SOL    HW122760   2.820   3.992  15.739  0.6594  0.4444  0.5183
 3708SOL    HW222761   2.771   3.860  15.703  0.5502  1.1151 -0.7742
 3709SOL     OW22762   1.231   3.274  10.233  0.1608  0.1202 -0.1020
 3709SOL    HW122763   1.225   3.195  10.286 -2.1327  0.5487  0.2665
 3709SOL    HW222764   1.194   3.256  10.147  0.4579  1.5809 -0.5344
 3710SOL     OW22765   1.090   2.933   5.612 -0.4127 -0.9407  0.7311
 3710SOL    HW122766   1.021   2.901   5.669 -0.4084  0.3380  1.4552
 3710SOL    HW222767   1.053   3.017   5.585  1.3991 -0.7455 -1.2177
 3711SOL     OW22768   3.250   1.523   1.353  0.3159  0.4362 -0.1176
 3711SOL    HW122769   3.230   1.429   1.353  0.6302  0.3663 -1.0176
 3711SOL    HW222770   3.340   1.519   1.384  0.6944  0.2082 -1.2506
 3712SOL     OW22771   4.485   4.553   0.256  0.0410  0.2289 -0.9509
 3712SOL    HW122772   4.580   4.559   0.249  0.0714 -0.0947 -0.7953
 3712SOL    HW222773   4.455   4.643   0.239  1.9686  1.4333  1.9679
 3713SOL     OW22774   4.722   3.084  15.649  0.1092  0.1694  0.5093
 3713SOL    HW122775   4.678   3.066  15.733  0.2684  0.1539  0.5912
 3713SOL    HW222776   4.659   3.069  15.579  1.1816  0.0237 -0.4160
 3714SOL     OW22777   1.248   1.500   7.481  0.0148 -0.1030 -0.1737
 3714SOL    HW122778   1.269   1.496   7.575  0.6396 -0.9218 -0.3474
 3714SOL    HW222779   1.222   1.592   7.471 -0.7132 -0.3845 -0.8603
 3715SOL     OW22780   1.097   3.258   8.001  0.4921 -0.2122  0.4326
 3715SOL    HW122781   1.029   3.203   7.962  0.4313  0.5408 -0.5035
 3715SOL    HW222782   1.140   3.204   8.067 -1.6822  0.4418  2.4193
 3716SOL     OW22783   4.273   3.760   5.808  0.3200 -0.4162  0.2505
 3716SOL    HW122784   4.185   3.732   5.831  0.5792 -2.1338 -0.8953
 3716SOL    HW222785   4.325   3.776   5.887 -0.3247  1.3845  0.3172
 3717SOL     OW22786   4.629   3.832   1.552  0.2177  0.3100 -0.7162
 3717SOL    HW122787   4.547   3.790   1.527  0.7917 -1.6741  0.7114
 3717SOL    HW222788   4.602   3.884   1.627  1.2171  2.3755 -1.8079
 3718SOL     OW22789   4.504   0.385   3.776  0.6407  0.4530 -0.2684
 3718SOL    HW122790   4.481   0.331   3.852  2.3590  0.4567  0.2599
 3718SOL    HW222791   4.467   0.469   3.801 -2.5385 -0.7388 -0.9566
 3719SOL     OW22792   2.979   3.075  17.216 -0.1198 -0.5127 -0.3617
 3719SOL    HW122793   3.011   3.147  17.162  0.7407 -2.0529 -1.9211
 3719SOL    HW222794   2.906   3.118  17.260  0.0061 -0.6020 -0.0650
 3720SOL     OW22795   0.332   3.368   9.300  0.4067 -0.2052  0.8534
 3720SOL    HW122796   0.293   3.362   9.387 -1.6884 -0.8008 -0.1272
 3720SOL    HW222797   0.330   3.463   9.293  1.3167 -0.3640 -1.4496
 3721SOL     OW22798   2.836   1.427   9.326 -0.2218  0.1138 -0.5560
 3721SOL    HW122799   2.758   1.372   9.322 -1.2509  1.6021 -0.7803
 3721SOL    HW222800   2.838   1.446   9.232 -2.2375  1.9250 -0.2224
 3722SOL     OW22801   2.382   1.163  16.991  0.7221  0.3401 -0.3214
 3722SOL    HW122802   2.348   1.246  16.958 -1.3539  0.5942  2.4767
 3722SOL    HW222803   2.310   1.112  16.955 -0.7645 -0.0809  3.2329
 3723SOL     OW22804   4.221   4.344   8.809  0.2859 -0.0594  0.2518
 3723SOL    HW122805   4.270   4.329   8.890  2.1130 -0.5563 -0.9585
 3723SOL    HW222806   4.129   4.336   8.834  0.6593  0.3890  1.7592
 3724SOL     OW22807   2.179   0.700   8.963 -0.2631  0.2559  0.3230
 3724SOL    HW122808   2.125   0.665   8.892 -0.6988 -0.9441  1.2316
 3724SOL    HW222809   2.262   0.714   8.918 -1.3088  0.7741 -1.4638
 3725SOL     OW22810   2.826   4.119  17.586 -0.1237 -0.0351  0.2152
 3725SOL    HW122811   2.906   4.161  17.618 -0.2486  0.6570 -0.3558
 3725SOL    HW222812   2.840   4.127  17.492 -0.0111 -2.5731  0.0332
 3726SOL     OW22813   4.342   3.419   7.184 -1.3824 -0.4693  0.0807
 3726SOL    HW122814   4.417   3.373   7.146  0.0696  0.8209  1.4168
 3726SOL    HW222815   4.381   3.506   7.174 -0.6477 -0.9369 -1.1746
 3727SOL     OW22816   2.540   4.463   1.452 -0.0470 -0.1448 -0.7168
 3727SOL    HW122817   2.553   4.490   1.543 -1.0739  1.1489 -0.9535
 3727SOL    HW222818   2.548   4.369   1.463 -2.6593 -0.4816 -1.8455
 3728SOL     OW22819   3.903   2.191  10.244 -0.1827 -0.3787 -0.3836
 3728SOL    HW122820   3.956   2.114  10.223 -0.3852 -0.9062  1.0507
 3728SOL    HW222821   3.819   2.149  10.263 -0.4135 -0.0909 -0.7599
 3729SOL     OW22822   0.304   2.545   9.412 -0.0902 -0.0236  0.4344
 3729SOL    HW122823   0.353   2.587   9.341 -0.4301 -2.4362 -1.2548
 3729SOL    HW222824   0.383   2.520   9.460 -1.4801 -2.5101  1.4204
 3730SOL     OW22825   1.570   0.961  12.374 -1.1107  0.4233 -0.1552
 3730SOL    HW122826   1.650   1.000  12.410 -1.8742  1.8020  0.0730
 3730SOL    HW222827   1.494   1.013  12.400 -1.0428 -0.3215  1.5364
 3731SOL     OW22828   1.811   0.309   2.731 -0.1574  0.3607  0.3509
 3731SOL    HW122829   1.805   0.290   2.825  0.9131  0.3035  0.4121
 3731SOL    HW222830   1.849   0.397   2.728  1.7246 -0.4183  1.4468
 3732SOL     OW22831   2.379   0.467  15.892 -0.1974  0.4587  0.6609
 3732SOL    HW122832   2.353   0.377  15.912 -0.0494 -0.0303 -1.3594
 3732SOL    HW222833   2.352   0.459  15.801 -0.5819  2.6059  0.5787
 3733SOL     OW22834   3.136   4.591   1.681  0.0531 -0.0658 -0.0307
 3733SOL    HW122835   3.170   4.502   1.686 -2.2445 -0.9324  0.4901
 3733SOL    HW222836   3.184   4.635   1.611 -0.4549  0.4336 -0.0618
 3734SOL     OW22837   3.118   1.798  11.180 -0.1275 -0.0771 -0.1708
 3734SOL    HW122838   3.126   1.816  11.087 -3.6788  0.5147 -0.3409
 3734SOL    HW222839   3.061   1.870  11.208  1.6765  2.0828 -2.0110
 3735SOL     OW22840   0.242   0.460   9.739 -0.1800 -0.2951 -0.2765
 3735SOL    HW122841   0.304   0.410   9.686 -0.3869 -2.3827  1.4879
 3735SOL    HW222842   0.302   0.472   9.812 -2.4249 -0.2998  1.5584
 3736SOL     OW22843   2.182   0.872   6.856  0.1917 -0.1305  0.0689
 3736SOL    HW122844   2.183   0.811   6.929 -0.4320  0.2784  0.4227
 3736SOL    HW222845   2.173   0.810   6.784  0.7185 -0.8225  0.5974
 3737SOL     OW22846   4.573   3.301   7.062  0.0741 -0.0044 -0.2221
 3737SOL    HW122847   4.646   3.296   7.000  0.7121 -1.7815  0.6877
 3737SOL    HW222848   4.562   3.207   7.074  0.8860  0.0405  0.8141
 3738SOL     OW22849   4.348   1.392   5.564 -0.2542  0.4742  0.0637
 3738SOL    HW122850   4.422   1.334   5.546  0.5925  1.2273  1.1328
 3738SOL    HW222851   4.313   1.421   5.479 -0.8210 -3.4486 -1.0366
 3739SOL     OW22852   1.639   0.650  14.712 -0.6986 -0.2742  0.6497
 3739SOL    HW122853   1.585   0.713  14.663  2.8335  0.5440 -2.1496
 3739SOL    HW222854   1.647   0.678  14.803 -0.2696 -0.0056  0.5267
 3740SOL     OW22855   4.630   0.433   6.444 -0.3415 -0.0922  0.2232
 3740SOL    HW122856   4.700   0.381   6.484 -0.5451  0.7879  1.7283
 3740SOL    HW222857   4.564   0.437   6.514 -1.0561 -1.1616 -0.3874
 3741SOL     OW22858   1.557   0.917   5.082  0.1046  0.3262 -0.2681
 3741SOL    HW122859   1.650   0.938   5.073 -0.1984  0.7780 -2.2723
 3741SOL    HW222860   1.577   0.836   5.129  0.2398  0.9543  0.7683
 3742SOL     OW22861   3.447   3.793   6.012  0.4380 -0.3014  0.3924
 3742SOL    HW122862   3.472   3.771   6.102  0.8956 -1.6351 -0.0580
 3742SOL    HW222863   3.487   3.879   5.999  0.9426 -0.1526  2.8222
 3743SOL     OW22864   4.481   1.556  12.105 -0.6131 -0.0733  0.1478
 3743SOL    HW122865   4.546   1.494  12.140 -0.7429  0.6321  1.6414
 3743SOL    HW222866   4.534   1.630  12.078  0.2753 -0.0568  1.9060
 3744SOL     OW22867   2.398   0.230   2.845 -0.3346  0.0813 -0.0724
 3744SOL    HW122868   2.383   0.202   2.936 -0.1494  1.5799  0.4204
 3744SOL    HW222869   2.311   0.258   2.815 -1.0904 -0.9989  1.1037
 3745SOL     OW22870   1.255   0.137   9.619 -0.7434 -0.3980  0.1575
 3745SOL    HW122871   1.226   0.069   9.680  2.3002  0.3363  2.4365
 3745SOL    HW222872   1.348   0.149   9.638 -0.6263 -0.4669 -0.3684
 3746SOL     OW22873   1.906   0.494   7.298  0.1251 -0.3399 -0.2712
 3746SOL    HW122874   1.892   0.560   7.366 -0.0337 -0.9783  0.3108
 3746SOL    HW222875   1.991   0.520   7.263  0.7472 -2.6154 -0.4352
 3747SOL     OW22876   2.439   4.270   2.700 -0.2677 -0.1548  0.7088
 3747SOL    HW122877   2.480   4.285   2.786  0.6699  1.0066  0.0583
 3747SOL    HW222878   2.460   4.353   2.659  3.8449 -0.9334  1.1424
 3748SOL     OW22879   0.304   0.678  15.809 -0.0998 -0.1527 -0.1004
 3748SOL    HW122880   0.245   0.726  15.750  0.2893  0.0151 -0.3518
 3748SOL    HW222881   0.271   0.709  15.893 -1.2377 -0.9466 -0.2569
 3749SOL     OW22882   0.215   1.494   6.716  0.3658  0.4454 -0.7189
 3749SOL    HW122883   0.177   1.560   6.774  1.3181 -2.2692  3.0374
 3749SOL    HW222884   0.149   1.425   6.716 -1.0078  1.7702 -0.5015
 3750SOL     OW22885   4.730   2.512   4.099 -0.1401 -0.4372  0.2515
 3750SOL    HW122886   4.721   2.606   4.115  0.5918 -0.5166  1.1716
 3750SOL    HW222887   0.083   2.504   4.066  0.3983 -0.1226  1.5941
 3751SOL     OW22888   4.279   0.475   0.445  0.2491  0.2559 -0.3994
 3751SOL    HW122889   4.208   0.529   0.411  0.3039 -0.0847 -1.0377
 3751SOL    HW222890   4.306   0.526   0.522  3.7297 -2.2024 -0.0097
 3752SOL     OW22891   3.797   2.274   2.931  0.0977  0.2650  0.5880
 3752SOL    HW122892   3.768   2.357   2.892 -1.4237 -1.8338 -2.7088
 3752SOL    HW222893   3.787   2.292   3.025 -0.2435 -0.3672  0.6706
 3753SOL     OW22894   3.581   0.766   9.032 -0.2489 -0.6864  0.0232
 3753SOL    HW122895   3.627   0.682   9.040 -0.3733 -0.9491 -1.8856
 3753SOL    HW222896   3.539   0.759   8.946  0.7323  0.2304 -0.5299
 3754SOL     OW22897   2.487   4.343  11.767  0.6688 -0.3722 -0.7157
 3754SOL    HW122898   2.511   4.349  11.675  1.8376 -0.0018 -0.3976
 3754SOL    HW222899   2.438   4.261  11.764  0.1762 -0.0082 -2.1178
 3755SOL     OW22900   1.385   2.877  13.292 -0.5245  0.1159 -0.0264
 3755SOL    HW122901   1.438   2.831  13.357 -1.2324 -0.4862  0.1321
 3755SOL    HW222902   1.304   2.882  13.344  1.4087 -1.0300  3.1200
 3756SOL     OW22903   0.049   4.277   7.854  0.1241 -0.2228  0.5261
 3756SOL    HW122904   0.139   4.244   7.854 -0.2649 -1.2897  1.7713
 3756SOL    HW222905   0.011   4.252   7.939  1.0885  0.2035  1.0837
 3757SOL     OW22906   0.501   0.192   0.807 -0.6662 -0.5609 -0.1053
 3757SOL    HW122907   0.408   0.198   0.828 -1.1591  1.7822 -2.8925
 3757SOL    HW222908   0.519   0.284   0.830 -2.1413 -0.0382 -1.0332
 3758SOL     OW22909   1.128   2.711   7.499  0.0909  0.0297 -0.2844
 3758SOL    HW122910   1.136   2.803   7.473 -0.4935  0.3894  0.8083
 3758SOL    HW222911   1.038   2.686   7.477  0.3083  0.5479 -1.8010
 3759SOL     OW22912   1.173   3.513   7.898  0.3577 -0.3004 -0.2931
 3759SOL    HW122913   1.153   3.421   7.914 -0.4725 -0.7258 -3.8302
 3759SOL    HW222914   1.242   3.535   7.961 -0.1593  0.5207 -0.0195
 3760SOL     OW22915   0.912   0.202   1.463 -0.5718 -0.4401  0.1000
 3760SOL    HW122916   0.979   0.158   1.514  0.2214  0.2235 -0.3710
 3760SOL    HW222917   0.849   0.233   1.528 -0.8677 -0.1716 -0.3157
 3761SOL     OW22918   2.433   4.566  12.791 -0.1264  0.3816 -0.3722
 3761SOL    HW122919   2.368   4.602  12.851 -0.3575  0.6273 -0.7735
 3761SOL    HW222920   2.497   4.532  12.854  0.2505  2.0063  0.1010
 3762SOL     OW22921   3.366   1.200   3.464  0.1370  0.5612  0.2581
 3762SOL    HW122922   3.450   1.244   3.451 -0.6772  1.8555 -0.6387
 3762SOL    HW222923   3.395   1.109   3.469  0.0977  0.7043  2.8489
 3763SOL     OW22924   3.333   3.652   9.607 -0.8995  0.1704  0.4192
 3763SOL    HW122925   3.305   3.726   9.554  3.1293  0.7192 -0.9913
 3763SOL    HW222926   3.246   3.632   9.641 -0.4239 -0.2636  1.3945
 3764SOL     OW22927   0.829   2.691  12.888  0.1765  0.0524 -0.0137
 3764SOL    HW122928   0.884   2.644  12.825 -0.4375 -0.2032 -0.3612
 3764SOL    HW222929   0.867   2.777  12.904  0.6795 -0.5536  2.0525
 3765SOL     OW22930   0.798   4.444   3.739  0.1620 -0.0929  0.2787
 3765SOL    HW122931   0.722   4.492   3.705  1.3372 -0.9330 -3.5240
 3765SOL    HW222932   0.824   4.380   3.672  2.8982  0.7283  0.5516
 3766SOL     OW22933   1.421   0.547   4.859  0.3215 -0.0287 -0.4891
 3766SOL    HW122934   1.340   0.574   4.903  0.9298  0.8275  0.1151
 3766SOL    HW222935   1.376   0.499   4.789  2.2705 -0.6052 -1.3600
 3767SOL     OW22936   3.239   2.557   8.726  0.5295 -0.2248 -0.1665
 3767SOL    HW122937   3.267   2.647   8.746  1.0894 -0.4058 -0.1432
 3767SOL    HW222938   3.319   2.512   8.754 -0.4498 -0.8825  1.5688
 3768SOL     OW22939   3.805   0.921   3.133  0.0883  0.3194  0.3353
 3768SOL    HW122940   3.806   0.830   3.103  1.1513  0.1583  0.8340
 3768SOL    HW222941   3.741   0.907   3.203 -0.5469  0.1981 -0.2711
 3769SOL     OW22942   2.911   1.744  12.738  0.2368 -0.5735 -0.5627
 3769SOL    HW122943   2.876   1.818  12.788 -0.3024 -1.5085  0.4287
 3769SOL    HW222944   2.959   1.780  12.664  0.4411 -1.0997 -0.6860
 3770SOL     OW22945   1.604   4.141   7.808  0.7287 -0.0174  0.0295
 3770SOL    HW122946   1.594   4.202   7.734  0.7616 -1.9561 -1.5856
 3770SOL    HW222947   1.634   4.200   7.877 -0.1010  0.5181 -0.0609
 3771SOL     OW22948   0.356   3.539   9.619 -0.7499  0.3855 -0.0251
 3771SOL    HW122949   0.278   3.580   9.656 -0.7288 -0.1238  0.5867
 3771SOL    HW222950   0.425   3.583   9.668  0.3031 -2.0905  0.7089
 3772SOL     OW22951   2.305   3.240   9.481  0.1373  0.4971 -0.1814
 3772SOL    HW122952   2.339   3.284   9.403  1.0420 -0.5269 -0.3635
 3772SOL    HW222953   2.382   3.197   9.517 -0.3243 -1.8374 -2.0472
 3773SOL     OW22954   3.942   2.921   5.316 -0.1163  0.4886  0.1837
 3773SOL    HW122955   3.942   3.007   5.358  0.0267  0.0702  1.0275
 3773SOL    HW222956   3.990   2.933   5.234 -0.2666  1.0312  0.1758
 3774SOL     OW22957   2.437   1.471   7.711  0.1109 -0.0864  0.2897
 3774SOL    HW122958   2.365   1.514   7.665 -0.4281 -0.4554  0.8005
 3774SOL    HW222959   2.506   1.533   7.686  2.0026 -2.9800 -1.7384
 3775SOL     OW22960   1.598   0.895  13.955 -0.3939 -0.2377  0.3939
 3775SOL    HW122961   1.603   0.831  13.884  1.6936  3.1622 -2.5677
 3775SOL    HW222962   1.559   0.971  13.911 -0.2434  0.9323  2.2763
 3776SOL     OW22963   1.741   4.613   4.571  0.4273  0.0725 -0.3529
 3776SOL    HW122964   1.667   4.590   4.627  1.5537 -3.2842 -0.2471
 3776SOL    HW222965   1.759   4.536   4.518 -0.3528 -1.5762  1.7807
 3777SOL     OW22966   0.452   0.739   3.724 -0.3269 -0.1820  0.0853
 3777SOL    HW122967   0.427   0.700   3.807 -1.5200 -2.1203 -1.1800
 3777SOL    HW222968   0.376   0.711   3.673 -0.5371  1.6855 -0.6438
 3778SOL     OW22969   3.714   3.370   6.039 -0.2957  0.4921  0.2673
 3778SOL    HW122970   3.756   3.321   6.109  2.4030 -0.3043 -1.8958
 3778SOL    HW222971   3.710   3.300   5.973  0.5209 -0.7872  1.5682
 3779SOL     OW22972   3.629   4.421   7.770 -0.2545  0.0319 -0.1575
 3779SOL    HW122973   3.602   4.333   7.746 -1.3808 -0.1723  1.8532
 3779SOL    HW222974   3.548   4.470   7.783 -0.3615 -0.7434  2.0456
 3780SOL     OW22975   0.106   0.733   3.782 -0.3338 -0.2480  0.2395
 3780SOL    HW122976   0.155   0.761   3.704  1.0217 -0.6505  0.9416
 3780SOL    HW222977   0.090   0.644   3.750 -1.1121  0.2626 -0.8122
 3781SOL     OW22978   3.634   4.469  15.736 -0.3692  1.0240  0.1979
 3781SOL    HW122979   3.672   4.455  15.649 -1.3478  1.9198 -0.3618
 3781SOL    HW222980   3.692   4.540  15.766  0.0307  0.7971 -0.0340
 3782SOL     OW22981   3.390   4.503   8.067  0.7303 -0.4175  0.3453
 3782SOL    HW122982   3.295   4.511   8.060  0.9277  0.9728 -0.6841
 3782SOL    HW222983   3.417   4.582   8.021 -0.1932 -0.9204 -1.0756
 3783SOL     OW22984   2.551   1.456   2.683  0.4975 -0.1616  0.8819
 3783SOL    HW122985   2.638   1.417   2.673 -0.6371 -2.1104 -1.2132
 3783SOL    HW222986   2.553   1.485   2.775  0.8264 -1.5989  1.3254
 3784SOL     OW22987   2.345   3.315   5.582 -0.6836 -0.0894  0.1543
 3784SOL    HW122988   2.425   3.319   5.634 -0.8819 -0.2260  0.4692
 3784SOL    HW222989   2.349   3.223   5.555 -3.0148  0.3144 -1.5855
 3785SOL     OW22990   1.147   0.730   4.305  0.3919  0.8235 -0.4368
 3785SOL    HW122991   1.214   0.792   4.276 -1.7751  1.4726 -4.1248
 3785SOL    HW222992   1.088   0.730   4.229 -0.1131 -0.2514 -0.0460
 3786SOL     OW22993   2.533   4.549  16.489  0.1074  0.2939  0.4320
 3786SOL    HW122994   2.560   4.638  16.511  2.3567 -0.7443  1.8329
 3786SOL    HW222995   2.586   4.539  16.410  0.1143 -0.3859  0.5252
 3787SOL     OW22996   0.995   2.443  16.590 -0.4684  0.1169  0.3485
 3787SOL    HW122997   1.071   2.500  16.575  0.6555 -1.6384 -0.4959
 3787SOL    HW222998   1.033   2.392  16.662 -1.1294  0.8635  1.2367
 3788SOL     OW22999   0.595   2.396  11.127 -0.1321  0.0279  0.1460
 3788SOL    HW123000   0.599   2.483  11.169  0.5479  1.1919 -2.3426
 3788SOL    HW223001   0.518   2.355  11.167  1.0234 -0.9451  1.3495
 3789SOL     OW23002   1.168   2.471   6.981 -0.0087 -0.5711  0.4235
 3789SOL    HW123003   1.222   2.548   6.963 -0.2474 -0.3318  0.7416
 3789SOL    HW223004   1.210   2.454   7.065  0.8846 -0.8613 -0.0802
 3790SOL     OW23005   4.296   3.038   2.287 -0.4109  0.2406 -0.3568
 3790SOL    HW123006   4.348   3.118   2.275  1.7770 -1.1764 -0.2715
 3790SOL    HW223007   4.253   3.036   2.201  0.5117  2.2199 -0.8768
 3791SOL     OW23008   1.909   1.878   4.894  0.2629  0.6058  0.4214
 3791SOL    HW123009   1.844   1.938   4.857 -0.7849  0.0061  1.3039
 3791SOL    HW223010   1.950   1.950   4.944 -0.1318  0.2774  1.2062
 3792SOL     OW23011   4.179   0.483   4.280  0.1512 -0.0660 -0.2788
 3792SOL    HW123012   4.100   0.533   4.259 -0.1352  0.3066  1.6390
 3792SOL    HW223013   4.234   0.540   4.227 -1.6020  1.0679 -0.9038
 3793SOL     OW23014   4.542   1.838  15.798 -0.5878  0.0284  0.2519
 3793SOL    HW123015   4.535   1.908  15.863  4.7503 -1.6799  2.6206
 3793SOL    HW223016   4.595   1.775  15.846 -0.5565  0.1257  0.3434
 3794SOL     OW23017   2.021   0.167  17.154 -0.2768  0.6042  1.0246
 3794SOL    HW123018   1.968   0.089  17.172  1.1967 -0.7601 -0.5691
 3794SOL    HW223019   2.094   0.139  17.099 -2.7818 -0.2967 -1.8479
 3795SOL     OW23020   0.772   2.624   2.445  0.2554  0.2948  0.1702
 3795SOL    HW123021   0.766   2.601   2.352  1.4580 -0.4940  0.2751
 3795SOL    HW223022   0.784   2.533   2.472 -0.1723 -0.2909 -1.5879
 3796SOL     OW23023   4.249   1.216   8.496  0.0070  0.2645  0.0847
 3796SOL    HW123024   4.247   1.190   8.404  1.0232  1.1964 -0.2054
 3796SOL    HW223025   4.264   1.132   8.539  0.6309  1.4636  2.1996
 3797SOL     OW23026   1.378   0.675   7.656 -0.4815  0.2453  0.4280
 3797SOL    HW123027   1.299   0.627   7.679 -0.7396 -0.3578 -1.7814
 3797SOL    HW223028   1.429   0.607   7.613 -1.0558 -0.3090  0.6321
 3798SOL     OW23029   1.664   4.353   4.202  0.0526  0.3835  0.1326
 3798SOL    HW123030   1.683   4.443   4.230  1.2949  0.2131 -0.1401
 3798SOL    HW223031   1.744   4.351   4.150 -0.0335 -0.6346  0.0412
 3799SOL     OW23032   2.766   1.346   6.395  0.3407  0.1625  0.6654
 3799SOL    HW123033   2.736   1.258   6.374 -2.3472  0.7752  1.7806
 3799SOL    HW223034   2.845   1.330   6.447  0.4608  1.3558  0.8428
 3800SOL     OW23035   0.034   2.363   4.718 -0.6465  0.0864  0.0422
 3800SOL    HW123036   0.086   2.424   4.667  0.2785 -0.2695  0.5524
 3800SOL    HW223037   0.016   2.293   4.655 -0.7153  0.1675 -0.0264
 3801SOL     OW23038   0.223   2.477   3.145 -0.1186 -0.5975  0.3445
 3801SOL    HW123039   0.307   2.465   3.101  0.9616  1.8236  1.7783
 3801SOL    HW223040   0.174   2.533   3.084  0.6741  1.4058  1.5428
 3802SOL     OW23041   2.064   3.152   9.331 -0.1939 -0.7521  0.0019
 3802SOL    HW123042   2.137   3.189   9.380 -1.3846  0.7395  0.6467
 3802SOL    HW223043   1.993   3.214   9.350  0.5984  0.4124 -0.8804
 3803SOL     OW23044   1.979   1.163   9.227  0.0597  0.2362 -0.2801
 3803SOL    HW123045   2.030   1.205   9.296 -2.3415  3.2618 -0.3786
 3803SOL    HW223046   2.032   1.084   9.214  0.7451  0.7789 -0.7516
 3804SOL     OW23047   2.782   2.951   6.292 -0.2128 -0.0822  0.2964
 3804SOL    HW123048   2.859   2.989   6.334  1.1024 -1.0862 -1.2416
 3804SOL    HW223049   2.815   2.930   6.205  0.6619  1.7155  0.2008
 3805SOL     OW23050   1.987   4.604   7.186 -0.0258  0.1650 -0.1000
 3805SOL    HW123051   1.941   4.622   7.268  0.0208  0.7124 -0.1971
 3805SOL    HW223052   1.965   4.511   7.178 -3.5357  0.9678 -0.0286
 3806SOL     OW23053   3.692   1.952   7.757 -0.2282 -0.5879  0.2139
 3806SOL    HW123054   3.672   1.982   7.846  0.4606  1.4180 -0.3193
 3806SOL    HW223055   3.780   1.986   7.746 -1.0257  1.6509  0.7089
 3807SOL     OW23056   1.153   4.271  10.169  0.1765 -0.0910  0.0913
 3807SOL    HW123057   1.147   4.277  10.264 -1.4282 -0.2347  0.0014
 3807SOL    HW223058   1.177   4.178  10.159  1.3350 -0.1958  3.9052
 3808SOL     OW23059   4.385   1.976   9.189 -0.4054  0.2235  0.2419
 3808SOL    HW123060   4.368   1.962   9.282  0.9742 -1.5701  0.2232
 3808SOL    HW223061   4.457   1.920   9.159 -0.7537  0.7947 -1.6712
 3809SOL     OW23062   0.446   3.211   4.108  0.2794  0.3236  0.1211
 3809SOL    HW123063   0.478   3.223   4.198  2.0399 -1.9968 -0.2032
 3809SOL    HW223064   0.442   3.301   4.075 -0.5089  0.4009  0.4482
 3810SOL     OW23065   2.856   0.769   7.245  0.2500  0.0666 -0.2970
 3810SOL    HW123066   2.788   0.793   7.308 -0.5169  1.0589 -1.4962
 3810SOL    HW223067   2.798   0.720   7.188 -0.5975  1.3192 -0.5199
 3811SOL     OW23068   3.561   1.521  10.425 -0.5375 -0.1860 -0.1592
 3811SOL    HW123069   3.500   1.476  10.483 -0.7564  0.7698  0.3700
 3811SOL    HW223070   3.506   1.527  10.347  0.5265  1.6449 -0.7860
 3812SOL     OW23071   0.881   0.199   2.369  0.2005 -0.4628 -0.0685
 3812SOL    HW123072   0.854   0.111   2.342  1.7772 -0.7972 -0.5473
 3812SOL    HW223073   0.838   0.253   2.303 -2.9543 -0.2128  2.1807
 3813SOL     OW23074   4.131   0.180  14.737 -0.5209 -0.0231  0.3412
 3813SOL    HW123075   4.192   0.122  14.783 -0.7043  1.2491  2.1932
 3813SOL    HW223076   4.155   0.267  14.770 -3.2876  0.4383  1.1103
 3814SOL     OW23077   3.149   1.786   9.666  0.2204 -0.4548 -0.4835
 3814SOL    HW123078   3.235   1.778   9.626  0.4025  1.1066 -0.4091
 3814SOL    HW223079   3.166   1.866   9.716 -0.7635  0.9920 -2.4521
 3815SOL     OW23080   2.097   0.269  16.167 -0.8678  0.6799 -0.6156
 3815SOL    HW123081   2.164   0.250  16.102  0.5058  1.8147  0.4787
 3815SOL    HW223082   2.147   0.251  16.247 -0.6258  0.8268 -0.7339
 3816SOL     OW23083   3.892   0.031   5.094 -0.3308 -0.4612  0.2890
 3816SOL    HW123084   3.976   0.077   5.098 -1.1488  1.2874 -2.3771
 3816SOL    HW223085   3.896   4.733   5.004  1.1345 -0.0208  0.1804
 3817SOL     OW23086   0.115   0.762   1.474 -0.6921  0.3967  0.0240
 3817SOL    HW123087   0.199   0.804   1.455  0.2576 -0.4138  2.4276
 3817SOL    HW223088   0.067   0.823   1.530 -2.0286  0.8184 -1.5597
 3818SOL     OW23089   2.289   0.420   0.339 -0.1693 -0.1406  0.1320
 3818SOL    HW123090   2.384   0.428   0.340 -0.1300 -0.2437 -2.7457
 3818SOL    HW223091   2.274   0.449   0.249  0.1847 -0.5473 -0.0577
 3819SOL     OW23092   0.022   4.657   2.808  0.0977 -0.2830  0.4925
 3819SOL    HW123093   4.671   4.637   2.772  0.5448  1.2628 -1.4689
 3819SOL    HW223094   0.054   4.569   2.788  2.2747  0.4846  0.6952
 3820SOL     OW23095   4.141   0.069   3.461 -0.8185  0.0806  0.2105
 3820SOL    HW123096   4.122   4.712   3.444  1.4732 -0.7358  2.2127
 3820SOL    HW223097   4.159   0.104   3.373  1.0427 -0.0332  0.5495
 3821SOL     OW23098   4.581   0.422   3.522  0.1728 -0.1015 -0.2907
 3821SOL    HW123099   4.602   0.401   3.613 -2.3459 -2.0391 -0.1556
 3821SOL    HW223100   4.662   0.418   3.472  0.6346  1.5183  0.3185
 3822SOL     OW23101   4.639   4.693  10.327 -0.3474 -0.0090  0.2879
 3822SOL    HW123102   4.730   4.666  10.332 -0.4090 -0.3917 -0.7382
 3822SOL    HW223103   4.643   0.011  10.248 -1.1262 -2.3414 -1.3103
 3823SOL     OW23104   3.312   4.348   6.716  0.0036 -0.0888 -0.5191
 3823SOL    HW123105   3.386   4.407   6.704  0.3285 -0.1881  1.0383
 3823SOL    HW223106   3.358   4.288   6.774  0.9337 -1.3139 -2.5164
 3824SOL     OW23107   1.092   1.351   3.013  0.1818  0.1890 -0.3821
 3824SOL    HW123108   1.016   1.345   2.955 -0.8435 -0.8563  1.0604
 3824SOL    HW223109   1.137   1.423   2.970  1.2245 -0.9867 -1.2604
 3825SOL     OW23110   3.308   0.211  13.525  0.2390 -0.3901  0.3817
 3825SOL    HW123111   3.302   0.131  13.472  2.3506  0.5620 -1.3097
 3825SOL    HW223112   3.366   0.176  13.592 -0.4491  0.4479  1.3948
 3826SOL     OW23113   3.561   0.685   2.440 -0.2036  0.2542 -0.1475
 3826SOL    HW123114   3.500   0.758   2.444  0.9841  1.3479 -2.3623
 3826SOL    HW223115   3.501   0.611   2.439 -1.1552  1.0407 -0.7872
 3827SOL     OW23116   1.489   1.173   8.127  0.2529 -0.0856  0.1558
 3827SOL    HW123117   1.580   1.181   8.155  0.5608  1.5525 -1.2491
 3827SOL    HW223118   1.499   1.224   8.046 -1.1059 -1.4354 -0.8621
 3828SOL     OW23119   1.022   3.571   2.947  0.3181  0.0558 -0.0198
 3828SOL    HW123120   0.943   3.556   2.997  0.3697 -3.8006 -1.0759
 3828SOL    HW223121   1.053   3.649   2.994 -0.2972  0.9378 -1.0808
 3829SOL     OW23122   1.377   1.134  12.461 -0.6672  0.0439 -0.1275
 3829SOL    HW123123   1.426   1.192  12.519 -0.2199  0.2066 -0.6611
 3829SOL    HW223124   1.324   1.079  12.518 -1.1333 -2.0005 -2.5068
 3830SOL     OW23125   0.956   4.009   9.001  0.1254 -0.2253  0.0701
 3830SOL    HW123126   1.020   3.948   9.038  0.7548 -0.4070 -1.2965
 3830SOL    HW223127   0.931   4.038   9.088 -1.6831 -2.9001  0.4012
 3831SOL     OW23128   4.491   0.417  13.340 -0.6083 -0.3789 -0.2863
 3831SOL    HW123129   4.489   0.362  13.262  0.5482 -2.7557  1.3665
 3831SOL    HW223130   4.561   0.479  13.319 -1.8140  0.3944 -1.9797
 3832SOL     OW23131   2.018   3.259   8.620 -0.2714 -0.8379  0.2974
 3832SOL    HW123132   2.097   3.234   8.668  1.8248  2.3693 -1.5269
 3832SOL    HW223133   2.052   3.256   8.531 -0.3039 -0.2273  0.2650
 3833SOL     OW23134   2.444   3.568   1.847 -0.0095  0.1253  0.0209
 3833SOL    HW123135   2.369   3.508   1.844  0.4081 -0.5666  3.4116
 3833SOL    HW223136   2.397   3.649   1.867 -1.4158 -0.6419 -0.1088
 3834SOL     OW23137   3.885   0.663   0.394 -0.2177 -0.1865 -0.6358
 3834SOL    HW123138   3.915   0.608   0.322 -0.2950 -0.9522 -0.0752
 3834SOL    HW223139   3.966   0.691   0.435  1.3592 -2.2671 -2.3927
 3835SOL     OW23140   3.775   3.964   3.396  0.0526 -0.0183 -0.0243
 3835SOL    HW123141   3.736   4.020   3.328  4.3580  1.9766 -0.8552
 3835SOL    HW223142   3.698   3.917   3.427 -0.9609  0.6456 -1.5122
 3836SOL     OW23143   3.174   4.497  16.926 -0.6165 -0.0188 -0.2778
 3836SOL    HW123144   3.243   4.431  16.920  0.3640  1.0627 -0.8331
 3836SOL    HW223145   3.208   4.568  16.981 -2.1051 -0.9039  1.7797
 3837SOL     OW23146   1.974   0.634   2.213 -0.2340 -0.2190  0.1496
 3837SOL    HW123147   1.981   0.729   2.224  0.2397 -0.0550 -1.6855
 3837SOL    HW223148   2.063   0.601   2.206 -0.4746 -1.0822  1.1974
 3838SOL     OW23149   1.659   3.805   7.460  0.2890  0.0246 -0.5254
 3838SOL    HW123150   1.577   3.835   7.500  0.4236 -1.1934  0.6498
 3838SOL    HW223151   1.725   3.851   7.513 -0.6246 -0.1845  0.7728
 3839SOL     OW23152   0.509   3.253   8.598 -0.0876 -0.0571 -0.2652
 3839SOL    HW123153   0.594   3.229   8.636  0.5572  1.3763 -0.8000
 3839SOL    HW223154   0.506   3.190   8.526 -1.4680  0.5651 -0.7273
 3840SOL     OW23155   4.486   0.018   5.595  0.0182 -0.3247 -0.4349
 3840SOL    HW123156   4.448   0.078   5.659  0.1832 -0.7642  0.0714
 3840SOL    HW223157   4.468   4.678   5.651 -0.3523  2.5400  3.3154
 3841SOL     OW23158   1.744   1.410   6.946  0.1758  0.6535 -0.1816
 3841SOL    HW123159   1.727   1.318   6.929 -0.0550  0.6451  0.0884
 3841SOL    HW223160   1.786   1.406   7.032 -0.0315 -1.3514 -0.1759
 3842SOL     OW23161   2.950   3.191   4.312 -0.7835 -0.3558 -0.3154
 3842SOL    HW123162   2.931   3.267   4.367  1.0492  0.1045 -0.3431
 3842SOL    HW223163   2.946   3.238   4.228  1.7277 -0.5043 -0.5160
 3843SOL     OW23164   0.108   3.014   9.892  0.2861  0.3786 -0.5746
 3843SOL    HW123165   0.032   2.990   9.839  2.0043  0.7916 -3.1932
 3843SOL    HW223166   0.184   3.001   9.836  0.3368 -0.2545 -0.3586
 3844SOL     OW23167   2.829   4.315   8.429  0.5216  0.5092 -0.0368
 3844SOL    HW123168   2.875   4.272   8.357 -1.1885 -1.2694 -0.0641
 3844SOL    HW223169   2.790   4.398   8.403  2.4638  1.5482  0.3314
 3845SOL     OW23170   4.462   1.269   2.073 -0.1586  0.3427 -0.3429
 3845SOL    HW123171   4.391   1.291   2.014 -0.5691  3.7116  1.3873
 3845SOL    HW223172   4.539   1.291   2.020  0.2013  2.1042  0.8667
 3846SOL     OW23173   2.986   1.408   2.510 -0.1975  0.3030  0.2186
 3846SOL    HW123174   2.947   1.422   2.597  0.7822  0.0131  0.7014
 3846SOL    HW223175   2.994   1.312   2.505  0.1780  0.3990 -0.9453
 3847SOL     OW23176   1.703   0.944  15.994 -0.6112 -0.4105  0.6026
 3847SOL    HW123177   1.679   1.036  15.997  1.2371  0.1180 -1.7242
 3847SOL    HW223178   1.689   0.921  16.086  1.4658 -0.0309  1.0184
 3848SOL     OW23179   0.592   3.786   9.394  0.2863 -0.3405 -0.0542
 3848SOL    HW123180   0.536   3.850   9.439  1.2449 -0.9906  2.0680
 3848SOL    HW223181   0.605   3.725   9.466  2.1678 -0.0788 -0.1844
 3849SOL     OW23182   0.511   2.499   7.878 -0.3560  0.2947 -0.4170
 3849SOL    HW123183   0.432   2.527   7.832 -0.3082  0.7614 -0.2135
 3849SOL    HW223184   0.524   2.575   7.936  0.7597 -0.5629  0.4685
 3850SOL     OW23185   3.885   1.222   7.696 -0.4932  0.5823 -0.1426
 3850SOL    HW123186   3.812   1.279   7.673 -0.9485 -0.2033 -0.6558
 3850SOL    HW223187   3.896   1.250   7.787 -2.6713 -1.3429  0.7283
 3851SOL     OW23188   0.550   0.342  10.129 -0.2504 -0.2975  0.0425
 3851SOL    HW123189   0.633   0.360  10.084 -1.3921  0.1373 -1.8713
 3851SOL    HW223190   0.534   0.254  10.093 -1.4002 -0.0203 -0.0932
 3852SOL     OW23191   2.964   3.944   7.082 -0.2026 -0.0609 -0.1020
 3852SOL    HW123192   3.023   3.880   7.041  2.4030  2.0444  0.3606
 3852SOL    HW223193   2.921   3.888   7.147 -0.6714  1.3182  0.7657
 3853SOL     OW23194   3.300   0.409   7.548  0.4457 -0.5928  0.0515
 3853SOL    HW123195   3.206   0.429   7.540  0.3187 -1.2635 -0.2118
 3853SOL    HW223196   3.296   0.361   7.630 -0.1402  0.5551  0.6886
 3854SOL     OW23197   2.711   0.913   0.434 -0.3526 -0.2125  0.0394
 3854SOL    HW123198   2.652   0.980   0.468 -0.2194  0.2202 -0.5874
 3854SOL    HW223199   2.664   0.835   0.465  0.9495 -1.4865 -1.1701
 3855SOL     OW23200   3.933   2.385  16.286  0.5269 -0.5338 -0.8997
 3855SOL    HW123201   3.892   2.449  16.228  3.1563 -0.7579 -3.0264
 3855SOL    HW223202   4.022   2.378  16.250  0.7125 -0.7364 -0.4106
 3856SOL     OW23203   1.567   3.913   2.269 -0.4316 -0.2861 -0.4848
 3856SOL    HW123204   1.604   3.975   2.333 -1.1660 -1.3368  0.9704
 3856SOL    HW223205   1.536   3.965   2.195  0.7900  2.1978  0.7500
 3857SOL     OW23206   0.074   3.022   3.027 -0.1150  0.4161  0.0631
 3857SOL    HW123207   0.058   3.081   2.953 -0.7174  0.0473 -0.1016
 3857SOL    HW223208   0.016   3.059   3.093  0.0597  0.2154  0.3284
 3858SOL     OW23209   2.755   3.998   3.605 -0.2855 -0.6274 -0.1529
 3858SOL    HW123210   2.844   3.966   3.588 -0.7452 -0.7011 -2.4250
 3858SOL    HW223211   2.724   3.985   3.516 -2.2212 -0.9345  0.5698
 3859SOL     OW23212   1.909   3.410   3.308  0.2711  0.3230  0.5548
 3859SOL    HW123213   1.818   3.388   3.331  0.4755 -1.2786 -0.1620
 3859SOL    HW223214   1.897   3.475   3.239 -0.5642  0.8185  1.1634
 3860SOL     OW23215   3.249   4.157  15.649  0.0146  0.0302 -0.5874
 3860SOL    HW123216   3.304   4.220  15.695  0.2131  0.1800 -1.0313
 3860SOL    HW223217   3.299   4.122  15.576 -1.2505 -0.3730 -1.2519
 3861SOL     OW23218   4.672   0.766   4.684  0.4102  0.9328  0.3566
 3861SOL    HW123219   4.591   0.734   4.725  0.2814  0.4838 -0.2439
 3861SOL    HW223220   4.712   0.684   4.655 -0.6344  1.8750 -3.6421
 3862SOL     OW23221   3.295   4.120  10.755  0.2117  0.0572  0.0275
 3862SOL    HW123222   3.281   4.205  10.714 -0.1287 -0.0485 -0.0736
 3862SOL    HW223223   3.293   4.144  10.848 -1.4220  0.8980 -0.2305
 3863SOL     OW23224   3.977   1.778   4.452  0.1015 -0.4621 -0.4514
 3863SOL    HW123225   3.990   1.850   4.513  0.5263  1.3012 -2.6316
 3863SOL    HW223226   3.915   1.830   4.401  1.1677 -0.9792 -2.2902
 3864SOL     OW23227   2.745   3.376  15.451 -0.1340 -0.0071  0.5900
 3864SOL    HW123228   2.652   3.396  15.452  0.1611  1.1198  4.5101
 3864SOL    HW223229   2.758   3.348  15.542 -1.4628  1.0228  1.0962
 3865SOL     OW23230   2.944   0.788  14.278  0.1525  0.1142 -0.3522
 3865SOL    HW123231   2.926   0.864  14.222 -0.2587  0.9574  0.9429
 3865SOL    HW223232   3.008   0.814  14.344 -0.6924  0.8544  0.1640
 3866SOL     OW23233   2.730   0.406  16.854  0.1646 -0.2167 -0.6922
 3866SOL    HW123234   2.661   0.342  16.871 -1.2014  1.0304 -1.5299
 3866SOL    HW223235   2.739   0.464  16.930  0.7251 -1.4065  0.1488
 3867SOL     OW23236   4.691   3.213   4.039 -0.6668  0.0242 -0.5466
 3867SOL    HW123237   4.627   3.266   3.992  2.9643  3.3943 -1.7189
 3867SOL    HW223238   4.664   3.227   4.130 -2.0921  1.1365 -1.1388
 3868SOL     OW23239   1.943   0.054  14.300 -0.2449 -0.0343 -0.5028
 3868SOL    HW123240   1.889   0.081  14.374  1.0485 -1.4521  0.9666
 3868SOL    HW223241   2.032   0.056  14.337 -1.1435 -3.3737  1.7955
 3869SOL     OW23242   3.991   2.297   6.971 -0.0345 -0.0668  0.5307
 3869SOL    HW123243   3.903   2.331   6.987  0.5127  1.1951  0.8251
 3869SOL    HW223244   4.038   2.373   6.936 -0.3026 -0.3628 -0.4710
 3870SOL     OW23245   2.378   0.843   1.301 -0.0930 -0.0874  0.5637
 3870SOL    HW123246   2.444   0.773   1.303  0.1459  0.1849  1.9786
 3870SOL    HW223247   2.429   0.912   1.257 -0.6281  1.1848  1.9415
 3871SOL     OW23248   1.824   0.810  12.535 -0.3766 -0.6244  0.1194
 3871SOL    HW123249   1.799   0.897  12.505 -0.5491  0.1670  2.6209
 3871SOL    HW223250   1.916   0.829  12.557 -0.4265 -0.6414  0.3399
 3872SOL     OW23251   1.321   1.482   7.193 -0.0038  0.1700  0.0177
 3872SOL    HW123252   1.267   1.494   7.272  0.3879 -0.0232  0.3158
 3872SOL    HW223253   1.317   1.387   7.192  0.9213  0.1205  0.5733
 3873SOL     OW23254   2.834   0.530   5.116 -0.0432  0.0354  0.2912
 3873SOL    HW123255   2.756   0.555   5.067  1.3019  1.4590 -1.1301
 3873SOL    HW223256   2.890   0.508   5.042  1.0035 -0.0821  1.1183
 3874SOL     OW23257   0.611   0.979   2.727 -0.3768  0.1045  0.3885
 3874SOL    HW123258   0.694   0.947   2.691  0.7410  1.5592  1.7116
 3874SOL    HW223259   0.581   0.905   2.780 -1.9553  0.9313  0.6512
 3875SOL     OW23260   4.665   2.457   0.583  0.3281 -0.2254 -0.0171
 3875SOL    HW123261   4.606   2.383   0.596 -0.4568  0.3205 -0.4922
 3875SOL    HW223262   4.712   2.449   0.666 -1.2176 -1.2368  0.7602
 3876SOL     OW23263   2.745   0.239  17.230  0.0533 -0.0391 -0.3345
 3876SOL    HW123264   2.794   0.317  17.257  1.7071 -1.6668  1.3177
 3876SOL    HW223265   2.652   0.255  17.250  0.1768 -2.0756  1.8310
 3877SOL     OW23266   1.249   3.382  10.495 -0.4456 -0.1463 -0.3315
 3877SOL    HW123267   1.184   3.318  10.523  0.1115 -0.1071  1.0524
 3877SOL    HW223268   1.276   3.357  10.407 -0.9037  1.1276 -0.8426
 3878SOL     OW23269   3.298   3.249   4.340  0.1429  0.2522  0.0313
 3878SOL    HW123270   3.245   3.279   4.414 -0.8107  0.2407 -0.6383
 3878SOL    HW223271   3.382   3.285   4.366  0.9955 -0.6186 -1.5014
 3879SOL     OW23272   4.260   1.894   5.683  0.0090 -0.6918 -0.1705
 3879SOL    HW123273   4.333   1.884   5.744  0.6827 -0.9074 -1.0133
 3879SOL    HW223274   4.271   1.985   5.653 -2.2646 -1.3427 -3.0166
 3880SOL     OW23275   2.034   1.134  13.244 -0.5217 -0.0387  0.4123
 3880SOL    HW123276   2.051   1.186  13.322  0.4140 -0.0057  0.1864
 3880SOL    HW223277   2.055   1.047  13.278 -1.4657 -0.4943 -0.1644
 3881SOL     OW23278   1.282   0.959   4.680  0.2649  0.2338  0.2268
 3881SOL    HW123279   1.214   1.026   4.684  1.3521  1.3591 -0.4292
 3881SOL    HW223280   1.297   0.961   4.585 -0.3281  1.1427  0.1561
 3882SOL     OW23281   3.230   4.051   3.734 -0.1433  0.4868 -0.0826
 3882SOL    HW123282   3.222   4.013   3.821  3.0570 -0.5220 -0.1999
 3882SOL    HW223283   3.221   4.145   3.749  2.7113  0.0124  4.5211
 3883SOL     OW23284   3.553   2.114  14.521  0.3592  0.3364 -0.3441
 3883SOL    HW123285   3.513   2.030  14.543  0.3896  0.5372  0.4811
 3883SOL    HW223286   3.589   2.100  14.434  1.3912 -0.6042  0.2323
 3884SOL     OW23287   4.408   2.179   4.866 -0.0888  0.7565 -0.4219
 3884SOL    HW123288   4.468   2.196   4.939 -2.3776  3.0669  0.8992
 3884SOL    HW223289   4.334   2.130   4.903  1.7944  0.5274  3.0919
 3885SOL     OW23290   0.809   1.468  12.157  0.4194 -0.0515 -0.6522
 3885SOL    HW123291   0.757   1.458  12.077 -1.3785 -4.6756  1.0554
 3885SOL    HW223292   0.856   1.384  12.160  0.2172 -0.1818 -1.2135
 3886SOL     OW23293   3.860   2.257   9.629  0.5071  0.2973 -0.5197
 3886SOL    HW123294   3.940   2.230   9.673  0.6138  2.1350  0.4378
 3886SOL    HW223295   3.803   2.191   9.667 -0.2636  0.3591 -1.5655
 3887SOL     OW23296   1.034   3.766  17.437  0.2787  0.1009  0.2024
 3887SOL    HW123297   1.006   3.722  17.356 -0.3750  0.0355  0.4699
 3887SOL    HW223298   1.128   3.744  17.436  0.4772  0.9020  1.4016
 3888SOL     OW23299   1.955   2.362   5.807 -0.5291 -0.6560  0.2013
 3888SOL    HW123300   2.023   2.426   5.787  0.4243 -0.7975  2.9740
 3888SOL    HW223301   1.896   2.366   5.732 -0.2686 -0.5412  0.0017
 3889SOL     OW23302   2.366   3.058   5.455 -0.2963  0.3371  0.2898
 3889SOL    HW123303   2.439   3.007   5.420 -0.7754  0.9886 -1.6421
 3889SOL    HW223304   2.309   3.082   5.382 -0.5480 -0.6693  0.1610
 3890SOL     OW23305   3.156   4.018   5.426 -0.2774  0.2964  0.2964
 3890SOL    HW123306   3.076   4.070   5.413 -1.4375 -1.5810 -0.0961
 3890SOL    HW223307   3.129   3.932   5.394 -1.2070  0.1628  1.4171
 3891SOL     OW23308   0.669   2.171  16.264  0.1781 -0.1223  0.6867
 3891SOL    HW123309   0.699   2.255  16.301 -1.4846  0.7144  0.1269
 3891SOL    HW223310   0.611   2.145  16.336  0.6535  1.4471  1.6565
 3892SOL     OW23311   1.783   0.781  14.353 -0.3594  0.0532  0.7265
 3892SOL    HW123312   1.697   0.748  14.378 -0.0282 -1.6651 -0.4099
 3892SOL    HW223313   1.766   0.829  14.272 -0.9154 -0.1925  0.6975
 3893SOL     OW23314   2.391   1.572   4.210 -0.3585 -0.1477 -0.0330
 3893SOL    HW123315   2.432   1.604   4.129 -2.5337 -0.6247 -1.3306
 3893SOL    HW223316   2.466   1.592   4.266 -1.7407 -0.5432  1.9249
 3894SOL     OW23317   1.265   0.307  15.038 -0.2498  0.1124 -0.1622
 3894SOL    HW123318   1.325   0.331  14.967  1.1720 -1.7639  0.4053
 3894SOL    HW223319   1.287   0.370  15.106  0.8310 -0.0702 -0.3472
 3895SOL     OW23320   4.593   0.696   8.197 -0.0115  0.1495  0.7807
 3895SOL    HW123321   4.654   0.623   8.205  0.9100  0.6974 -0.9671
 3895SOL    HW223322   4.637   0.749   8.130  0.8328 -1.6761 -0.0873
 3896SOL     OW23323   4.207   0.803   0.071  0.3962  0.0916  0.3950
 3896SOL    HW123324   4.160   0.832  17.734 -1.3147 -0.4718  1.2115
 3896SOL    HW223325   4.296   0.799   0.038  0.8078  0.0697  1.5155
 3897SOL     OW23326   0.897   3.561   5.267  0.0186 -0.6309 -0.6405
 3897SOL    HW123327   0.874   3.603   5.349 -1.9168 -0.9259 -1.0195
 3897SOL    HW223328   0.814   3.528   5.232 -1.0720 -0.3387  1.7161
 3898SOL     OW23329   4.245   4.451   0.764  0.4348 -0.7394 -0.9675
 3898SOL    HW123330   4.177   4.423   0.825  0.4899  1.5869  0.1752
 3898SOL    HW223331   4.327   4.423   0.804 -0.8442 -0.6838  1.6595
 3899SOL     OW23332   2.095   1.472   5.244  0.1382 -0.1836  0.5536
 3899SOL    HW123333   2.045   1.465   5.326  2.7241 -1.5544  1.9908
 3899SOL    HW223334   2.176   1.511   5.275 -0.0220  0.4387  0.1909
 3900SOL     OW23335   1.875   3.690   5.482 -0.1283 -0.3510  0.4964
 3900SOL    HW123336   1.954   3.722   5.437 -0.8946 -2.0130 -2.0381
 3900SOL    HW223337   1.850   3.622   5.419  1.8033  0.2574 -0.9444
 3901SOL     OW23338   2.409   3.638  14.743  0.0324 -0.1536 -0.1072
 3901SOL    HW123339   2.372   3.554  14.715  0.7790  0.0232 -1.6306
 3901SOL    HW223340   2.415   3.626  14.838 -0.1895  0.4591 -0.0202
 3902SOL     OW23341   3.601   2.134   5.803  0.5961  0.3059 -0.4123
 3902SOL    HW123342   3.516   2.107   5.837 -0.1958  0.2797 -2.4100
 3902SOL    HW223343   3.586   2.116   5.710  0.0415 -1.7652  0.0738
 3903SOL     OW23344   1.499   1.109   3.535 -0.9373 -0.2654  0.1065
 3903SOL    HW123345   1.551   1.045   3.486  0.3370  2.9285 -2.7895
 3903SOL    HW223346   1.419   1.109   3.482 -1.4291  0.6751  0.8588
 3904SOL     OW23347   2.784   0.682   6.705  0.7553  0.0773  0.0849
 3904SOL    HW123348   2.851   0.675   6.773  1.6539  1.6968 -0.6258
 3904SOL    HW223349   2.830   0.682   6.622 -3.4379  0.3720 -2.2463
 3905SOL     OW23350   4.160   1.182   7.228  0.1365  0.1703  0.0459
 3905SOL    HW123351   4.155   1.265   7.180  1.8676  0.1200 -0.2236
 3905SOL    HW223352   4.188   1.226   7.308  0.7115 -1.4716  0.7449
 3906SOL     OW23353   1.779   2.819   5.658  0.5301  0.0651 -0.0036
 3906SOL    HW123354   1.824   2.802   5.741  0.6427 -0.2085 -0.1205
 3906SOL    HW223355   1.715   2.747   5.663 -0.4909  0.7525 -3.0745
 3907SOL     OW23356   2.260   3.761   7.294  0.2809  0.0659  0.1489
 3907SOL    HW123357   2.197   3.695   7.264  1.6028 -0.8150 -0.6427
 3907SOL    HW223358   2.325   3.752   7.225 -0.5675 -0.6887 -0.5418
 3908SOL     OW23359   3.028   3.130  11.137  0.0180  0.2659  0.3815
 3908SOL    HW123360   2.950   3.081  11.114 -0.1731  1.1114 -0.7388
 3908SOL    HW223361   3.060   3.166  11.055  2.0270 -2.1175  0.1250
 3909SOL     OW23362   2.487   3.981   0.420  0.0630  0.2690  0.0232
 3909SOL    HW123363   2.438   4.051   0.463 -0.2179  0.5901 -0.8188
 3909SOL    HW223364   2.443   3.899   0.445 -0.0860 -0.3252 -2.1598
 3910SOL     OW23365   3.016   4.262  15.511 -0.1039 -0.0553 -0.4097
 3910SOL    HW123366   3.008   4.204  15.435  1.0231  0.2710 -0.7708
 3910SOL    HW223367   3.098   4.235  15.552 -1.1135 -0.4970  1.3314
 3911SOL     OW23368   2.512   4.734  17.465  0.7060  0.1075 -0.4886
 3911SOL    HW123369   2.594   0.007  17.513  1.0594  2.4340 -1.5049
 3911SOL    HW223370   2.451   4.699  17.530  0.4677 -0.1723 -0.8618
 3912SOL     OW23371   4.494   1.171   8.031 -0.2555  0.6208  0.2938
 3912SOL    HW123372   4.518   1.263   8.021 -0.0871  0.3659 -1.5715
 3912SOL    HW223373   4.401   1.183   8.009 -0.2714 -0.9056 -0.4653
 3913SOL     OW23374   0.644   0.081   8.768  0.0523  0.4806  0.4575
 3913SOL    HW123375   0.630   0.098   8.675 -1.9878 -1.2611  0.4582
 3913SOL    HW223376   0.562   0.113   8.807 -0.9764 -1.7532  0.1027
 3914SOL     OW23377   3.274   3.306   5.581  0.3457 -0.0690 -0.4335
 3914SOL    HW123378   3.269   3.211   5.580 -0.9465 -0.0111 -0.2021
 3914SOL    HW223379   3.209   3.334   5.517  0.1853 -0.3504 -0.3923
 3915SOL     OW23380   1.219   3.014   6.368 -0.2407 -0.2057  0.4034
 3915SOL    HW123381   1.146   2.992   6.310 -0.2087 -1.2502  0.7578
 3915SOL    HW223382   1.279   3.051   6.303 -0.8891 -1.1024 -0.7202
 3916SOL     OW23383   4.082   0.259   0.179  0.3083  0.4860  0.7420
 3916SOL    HW123384   4.019   0.200   0.136  3.2298 -1.7802 -0.3807
 3916SOL    HW223385   4.092   0.328   0.114  0.2960 -0.7314 -0.5613
 3917SOL     OW23386   1.903   3.449   4.428  0.2844  0.0378  0.1547
 3917SOL    HW123387   1.921   3.356   4.441  1.3274  0.3449  0.9063
 3917SOL    HW223388   1.807   3.450   4.428  0.2877  0.3502  3.1614
 3918SOL     OW23389   0.522   1.416   4.262  0.2913 -0.0802 -0.4502
 3918SOL    HW123390   0.582   1.480   4.300 -0.7587  0.1753  0.7629
 3918SOL    HW223391   0.562   1.336   4.294 -1.6248 -1.3456 -1.2053
 3919SOL     OW23392   2.111   0.898  14.173 -0.4824 -0.4480  0.1240
 3919SOL    HW123393   2.184   0.923  14.116 -0.6538  1.1471  0.6111
 3919SOL    HW223394   2.055   0.975  14.167 -1.0105 -0.8035  0.4552
 3920SOL     OW23395   3.641   2.855   9.654  0.7013  0.1187  0.2997
 3920SOL    HW123396   3.574   2.882   9.716 -0.3934 -2.7917  0.4036
 3920SOL    HW223397   3.722   2.877   9.700  0.9668 -0.7965  0.2712
 3921SOL     OW23398   0.499   3.653   8.882 -0.5333  0.2020  0.0515
 3921SOL    HW123399   0.407   3.678   8.877 -1.4985 -3.5946 -0.4467
 3921SOL    HW223400   0.481   3.561   8.866  0.6772 -0.1049  0.4801
 3922SOL     OW23401   3.958   3.891   4.600  0.7430  0.2989 -0.2753
 3922SOL    HW123402   3.875   3.917   4.640 -0.2886 -2.0430 -0.8478
 3922SOL    HW223403   3.947   3.798   4.618  0.6179  0.7117  1.7456
 3923SOL     OW23404   2.749   3.781   3.061 -0.4637  0.1348  0.5492
 3923SOL    HW123405   2.824   3.763   3.118  0.0119 -1.8200 -0.6783
 3923SOL    HW223406   2.778   3.744   2.978  0.2091 -0.1312  0.8987
 3924SOL     OW23407   2.349   4.180   2.469  0.6749  0.3580 -0.5029
 3924SOL    HW123408   2.362   4.197   2.562 -0.4118  1.7578 -0.6035
 3924SOL    HW223409   2.269   4.129   2.476  0.0889  1.0855 -1.8361
 3925SOL     OW23410   0.345   4.265   5.714 -0.2469  0.1164  0.4133
 3925SOL    HW123411   0.321   4.206   5.786 -2.0114 -0.6294 -0.7892
 3925SOL    HW223412   0.286   4.339   5.723 -0.2921  0.4945 -2.9369
 3926SOL     OW23413   3.527   4.010   1.633  0.4451 -0.5281 -0.1301
 3926SOL    HW123414   3.576   3.933   1.660  2.4333  0.2875 -1.4318
 3926SOL    HW223415   3.582   4.086   1.653  0.9764 -0.5146 -1.6289
 3927SOL     OW23416   3.163   2.863   1.821  0.4749 -0.5162 -0.0695
 3927SOL    HW123417   3.177   2.785   1.768  1.3288 -0.0346 -0.5606
 3927SOL    HW223418   3.244   2.883   1.869  0.9321 -0.9778 -0.6595
 3928SOL     OW23419   2.124   4.562   4.011  0.3598 -0.0144 -0.1690
 3928SOL    HW123420   2.200   4.620   4.011  0.1582  0.2510  0.2393
 3928SOL    HW223421   2.140   4.505   4.087  1.2779  0.9767  0.3733
 3929SOL     OW23422   2.838   4.428   4.856 -0.2903 -0.4060  0.8665
 3929SOL    HW123423   2.872   4.421   4.945 -1.2960  0.2506  1.3068
 3929SOL    HW223424   2.837   4.340   4.819 -1.4183  0.3385 -0.9288
 3930SOL     OW23425   2.213   1.707   3.560 -0.0649  0.1907 -0.5567
 3930SOL    HW123426   2.270   1.690   3.484  0.1250  1.4654 -0.6927
 3930SOL    HW223427   2.171   1.622   3.574 -0.3128  0.4696  0.3695
 3931SOL     OW23428   1.715   2.661   2.445  0.1761  0.2295  0.3320
 3931SOL    HW123429   1.738   2.569   2.447  2.4766  0.7103 -3.1753
 3931SOL    HW223430   1.626   2.658   2.409  0.4723 -0.8044 -0.2933
 3932SOL     OW23431   2.440   3.409   9.292  0.0075 -0.2517 -0.4074
 3932SOL    HW123432   2.371   3.476   9.286 -0.8545 -1.0035  1.0888
 3932SOL    HW223433   2.493   3.430   9.215  0.7641 -1.7406 -0.2699
 3933SOL     OW23434   3.106   2.420   6.612  0.1409  0.1722  0.0165
 3933SOL    HW123435   3.118   2.430   6.706  1.1862 -2.7775  0.1817
 3933SOL    HW223436   3.173   2.485   6.587  0.8903 -0.4051  0.5347
 3934SOL     OW23437   1.695   0.163   6.856  0.3595 -0.5627 -0.2287
 3934SOL    HW123438   1.668   0.100   6.923 -2.2105  0.3861 -0.3385
 3934SOL    HW223439   1.618   0.220   6.857 -1.2750 -2.7617 -1.2987
 3935SOL     OW23440   2.343   2.802   4.103 -0.3337 -0.0016 -0.1747
 3935SOL    HW123441   2.336   2.765   4.191  1.6033  0.7231  0.2829
 3935SOL    HW223442   2.435   2.829   4.109  0.3079 -2.1891 -0.2357
 3936SOL     OW23443   3.623   1.186   7.457 -0.1214  0.7347 -0.7373
 3936SOL    HW123444   3.648   1.254   7.394 -0.1308  0.0744 -1.4481
 3936SOL    HW223445   3.548   1.144   7.415 -1.7385  2.1106  0.7582
 3937SOL     OW23446   2.517   2.746  11.229  0.0356 -0.0632 -0.2136
 3937SOL    HW123447   2.554   2.828  11.262 -0.0259 -0.2528  0.3271
 3937SOL    HW223448   2.531   2.767  11.137  0.2011 -1.6336 -0.5377
 3938SOL     OW23449   2.055   4.173  14.491 -0.1985  0.1195 -0.4444
 3938SOL    HW123450   2.071   4.151  14.399  0.8467 -1.4214  0.1178
 3938SOL    HW223451   1.971   4.127  14.499 -1.4478  1.9668 -2.6283
 3939SOL     OW23452   0.165   3.062   3.957  0.0803  0.2728  0.2239
 3939SOL    HW123453   0.202   3.017   4.034 -2.6094 -0.5664  1.0129
 3939SOL    HW223454   0.106   3.125   3.998 -0.8332 -0.8962  0.7354
 3940SOL     OW23455   4.293   4.500   2.349 -0.0758  0.1252 -0.2609
 3940SOL    HW123456   4.351   4.552   2.405 -1.7155  0.5798  0.9960
 3940SOL    HW223457   4.309   4.412   2.382 -0.7005 -0.0104 -0.3216
 3941SOL     OW23458   0.717   2.092   7.440  0.4955  0.5570  0.0764
 3941SOL    HW123459   0.690   2.060   7.353  0.5453 -1.5351  0.8260
 3941SOL    HW223460   0.811   2.077   7.427  0.3322  0.6520 -1.2406
 3942SOL     OW23461   3.824   2.618   9.313  0.7361 -0.2020  0.2011
 3942SOL    HW123462   3.788   2.584   9.395 -1.1801  1.2954 -0.0292
 3942SOL    HW223463   3.863   2.538   9.277  1.8715  0.3980  0.0998
 3943SOL     OW23464   4.703   2.765   9.181 -0.2018  0.2731  0.7639
 3943SOL    HW123465   0.001   2.730   9.263  1.3506 -2.5359 -1.0751
 3943SOL    HW223466   0.036   2.823   9.148 -0.2603 -0.1158 -0.0646
 3944SOL     OW23467   0.006   1.846  10.932  0.3124 -0.2962 -0.4300
 3944SOL    HW123468   4.686   1.815  11.003 -0.6197 -2.0284 -1.9112
 3944SOL    HW223469   0.032   1.761  10.897  2.6207  0.5611 -0.8104
 3945SOL     OW23470   4.030   0.722   5.427  0.4250 -0.0768  0.0240
 3945SOL    HW123471   3.954   0.722   5.369 -0.3590  0.3405  1.0434
 3945SOL    HW223472   3.983   0.732   5.510 -0.3919  0.8248 -0.5419
 3946SOL     OW23473   1.673   1.448  12.756  0.2080 -0.3294  0.1647
 3946SOL    HW123474   1.727   1.495  12.693 -0.9309 -0.0049 -0.5645
 3946SOL    HW223475   1.622   1.510  12.808  0.0578 -1.3513  1.2458
 3947SOL     OW23476   3.186   0.075   7.720 -0.4008 -0.1429 -0.3992
 3947SOL    HW123477   3.269   0.073   7.671 -0.6852 -0.8452 -0.8552
 3947SOL    HW223478   3.185   0.168   7.742  0.8169 -0.4160  0.8409
 3948SOL     OW23479   0.722   4.013   5.810 -0.4342 -0.1323  0.5170
 3948SOL    HW123480   0.640   3.988   5.853 -0.2351  2.0513  2.1482
 3948SOL    HW223481   0.718   4.108   5.808 -1.8998 -0.2084  0.1995
 3949SOL     OW23482   1.519   4.254   4.554  0.2615 -0.2911  0.7087
 3949SOL    HW123483   1.544   4.288   4.468 -1.5660 -2.1744 -0.5833
 3949SOL    HW223484   1.547   4.332   4.602  1.2942 -0.1427 -0.1426
 3950SOL     OW23485   0.976   0.262   4.609 -0.2468  0.0593  0.2580
 3950SOL    HW123486   1.061   0.233   4.576 -0.3829 -0.8700  0.7269
 3950SOL    HW223487   1.003   0.352   4.628 -1.9784  0.8015 -0.8088
 3951SOL     OW23488   4.234   3.701   5.507 -0.9021  0.0748  0.1650
 3951SOL    HW123489   4.195   3.726   5.423  1.5659  1.9400 -0.4430
 3951SOL    HW223490   4.288   3.777   5.529 -1.9541  1.0052 -0.4421
 3952SOL     OW23491   4.118   3.304   1.366 -0.6616  0.2918 -0.4251
 3952SOL    HW123492   4.025   3.296   1.389 -0.1674 -1.7619  0.8771
 3952SOL    HW223493   4.130   3.211   1.349  0.5804  0.4952 -0.6767
 3953SOL     OW23494   3.441   0.197   6.507 -0.2320  0.4655 -0.6613
 3953SOL    HW123495   3.375   0.265   6.524  0.7889  1.0046  1.1614
 3953SOL    HW223496   3.394   0.134   6.453 -0.1449  0.0864 -0.2880
 3954SOL     OW23497   0.056   0.041   4.057  0.1322  0.1963  0.0509
 3954SOL    HW123498   4.730   4.706   4.075  1.0280 -1.3193 -2.8007
 3954SOL    HW223499   0.123   0.005   3.998 -0.2207 -0.4569  0.0465
 3955SOL     OW23500   4.719   2.479  14.112  0.0279 -0.3714 -0.2485
 3955SOL    HW123501   4.666   2.417  14.062  0.8437 -2.0234  0.9178
 3955SOL    HW223502   4.699   2.563  14.072  0.3281 -0.2514 -0.1499
 3956SOL     OW23503   0.164   1.046   1.311  0.3546  0.0972  0.0662
 3956SOL    HW123504   0.175   1.101   1.233 -0.0868  1.4331  0.9590
 3956SOL    HW223505   0.086   1.088   1.346  1.4917 -0.0155  2.6692
 3957SOL     OW23506   2.311   1.230   8.305  0.3219  0.2254 -0.2946
 3957SOL    HW123507   2.289   1.271   8.222  0.1041  2.0908  0.6758
 3957SOL    HW223508   2.311   1.143   8.265 -0.4895  0.6323 -1.1732
 3958SOL     OW23509   1.488   0.243   2.658  0.2681 -0.4438  0.5261
 3958SOL    HW123510   1.504   0.324   2.706  2.3289 -0.5063 -0.0629
 3958SOL    HW223511   1.577   0.222   2.628  0.0061  2.0236 -1.9442
 3959SOL     OW23512   0.578   2.987   7.559 -0.2408  0.5379 -0.5796
 3959SOL    HW123513   0.486   3.013   7.547  0.0518  1.8291  0.0235
 3959SOL    HW223514   0.623   3.056   7.511  1.7692 -0.9071 -0.7692
 3960SOL     OW23515   3.211   1.632  10.682 -0.6484 -0.0973 -0.1193
 3960SOL    HW123516   3.122   1.610  10.654 -0.3708  0.3301 -1.3150
 3960SOL    HW223517   3.262   1.646  10.603  2.4581  0.1921  1.9340
 3961SOL     OW23518   4.497   4.039   8.213 -0.2287  0.0367 -0.0809
 3961SOL    HW123519   4.536   3.959   8.248  0.0670  1.0843  1.9490
 3961SOL    HW223520   4.415   4.040   8.262 -0.6105 -0.6339 -0.6963
 3962SOL     OW23521   1.052   2.693   4.822  0.3275 -0.1090 -0.0099
 3962SOL    HW123522   1.089   2.747   4.752  1.1484  0.7633  1.0932
 3962SOL    HW223523   0.967   2.667   4.786  0.8324 -1.4533 -0.2222
 3963SOL     OW23524   3.613   4.659  13.945 -0.2424  0.1084  0.0472
 3963SOL    HW123525   3.527   4.620  13.956 -0.0658 -0.3891 -0.3213
 3963SOL    HW223526   3.633   4.646  13.852 -0.9170  1.8165 -0.3336
 3964SOL     OW23527   1.787   1.989   8.550  0.2333  0.6086  0.1099
 3964SOL    HW123528   1.770   1.899   8.579 -1.6740  0.8684 -0.2060
 3964SOL    HW223529   1.839   2.019   8.624  0.6025 -1.2247  0.5917
 3965SOL     OW23530   3.516   2.227   7.735  0.1696  0.2115 -0.1281
 3965SOL    HW123531   3.525   2.317   7.766  0.9587 -0.1047  0.5334
 3965SOL    HW223532   3.552   2.240   7.647  0.7303 -0.3693  0.0168
 3966SOL     OW23533   2.831   0.221  17.695 -0.6735  0.0234  0.1441
 3966SOL    HW123534   2.812   0.313  17.713  0.9189  0.4982 -0.5834
 3966SOL    HW223535   2.744   0.182  17.691 -2.2707  3.3799  1.8445
 3967SOL     OW23536   1.001   0.011   0.617 -0.0458  0.0329 -0.4150
 3967SOL    HW123537   0.905   0.010   0.617 -0.0799  2.9387  0.6046
 3967SOL    HW223538   1.005   4.691   0.695 -1.1731 -3.1065 -2.5660
 3968SOL     OW23539   2.340   3.317  15.125  0.2637 -0.3375  0.3733
 3968SOL    HW123540   2.411   3.253  15.123  0.3917 -0.1346 -1.8193
 3968SOL    HW223541   2.284   3.269  15.187 -2.2671  0.7325 -1.0649
 3969SOL     OW23542   2.182   3.368  14.594  0.4784  0.2579 -0.0296
 3969SOL    HW123543   2.265   3.334  14.561  1.0440 -0.0778  1.7399
 3969SOL    HW223544   2.132   3.387  14.514  0.6285 -0.4240 -0.2872
 3970SOL     OW23545   3.998   2.946  14.445 -0.4036  0.6557 -0.3432
 3970SOL    HW123546   4.033   2.858  14.430  1.1836  1.6267 -2.3413
 3970SOL    HW223547   3.925   2.949  14.382  0.2618 -1.1654 -1.1826
 3971SOL     OW23548   1.580   2.130   7.053 -0.5788  0.0359 -0.1140
 3971SOL    HW123549   1.623   2.045   7.048  0.4582  0.5944 -0.8725
 3971SOL    HW223550   1.498   2.107   7.009 -1.8399  0.1548  2.1802
 3972SOL     OW23551   1.743   3.746  13.627 -0.2666  0.3886 -0.9489
 3972SOL    HW123552   1.807   3.811  13.657 -0.2525 -1.1498  2.3602
 3972SOL    HW223553   1.745   3.752  13.531 -1.3117 -5.5268 -1.2904
 3973SOL     OW23554   2.916   0.523   7.769 -0.0105  0.1803  0.3573
 3973SOL    HW123555   2.958   0.511   7.684  0.8383  0.3762  0.7487
 3973SOL    HW223556   2.828   0.543   7.737  0.3158  0.5479 -0.3247
 3974SOL     OW23557   3.652   3.702   7.336 -0.2481  0.0847 -0.1695
 3974SOL    HW123558   3.594   3.778   7.335 -0.2403  0.0581 -2.2679
 3974SOL    HW223559   3.700   3.726   7.258  0.8936 -0.4462  0.3751
 3975SOL     OW23560   3.025   4.595   4.741  0.4995 -0.2092  0.1805
 3975SOL    HW123561   3.033   4.519   4.683  0.3223 -1.0460  1.2511
 3975SOL    HW223562   2.970   4.548   4.804  0.2322 -1.7318 -1.2035
 3976SOL     OW23563   1.311   3.212   7.781 -0.3238  0.1071  0.1230
 3976SOL    HW123564   1.362   3.131   7.781 -0.7453 -0.1735 -2.4485
 3976SOL    HW223565   1.284   3.209   7.872 -1.6676 -0.0799 -0.2726
 3977SOL     OW23566   4.460   2.805   3.149  0.6359 -0.0149  0.4915
 3977SOL    HW123567   4.387   2.770   3.200 -0.4560 -0.8226 -1.6327
 3977SOL    HW223568   4.420   2.774   3.068  1.3956  1.5378 -0.4733
 3978SOL     OW23569   0.307   3.385   3.318  0.3988 -0.8942  0.7952
 3978SOL    HW123570   0.214   3.380   3.294  1.5917 -1.6077 -3.6656
 3978SOL    HW223571   0.322   3.292   3.300 -2.5084 -1.7980  3.0389
 3979SOL     OW23572   4.692   3.983   4.550 -0.2281  0.1898 -0.3407
 3979SOL    HW123573   0.027   3.932   4.590 -0.4762 -0.2040 -0.3997
 3979SOL    HW223574   4.630   3.983   4.623 -0.3637 -1.3067 -0.4549
 3980SOL     OW23575   1.837   0.921  14.664  0.2187  0.2504  0.3032
 3980SOL    HW123576   1.883   0.848  14.621  0.4754  0.0271  0.9682
 3980SOL    HW223577   1.747   0.904  14.634  0.5747 -1.6521  0.3003
 3981SOL     OW23578   2.581   4.388   6.262 -0.6063 -0.3386 -0.1379
 3981SOL    HW123579   2.590   4.293   6.270  2.5723 -0.2279 -2.1193
 3981SOL    HW223580   2.638   4.423   6.331  1.1280 -2.1037 -0.6911
 3982SOL     OW23581   4.158   2.762   2.094  0.3359 -0.0901 -0.4141
 3982SOL    HW123582   4.247   2.742   2.125 -1.0331  0.3443  3.8703
 3982SOL    HW223583   4.175   2.814   2.016  1.8905  0.4477  0.2698
 3983SOL     OW23584   0.671   1.389   3.083 -0.5288 -0.5598  0.1083
 3983SOL    HW123585   0.723   1.312   3.058  3.1107  1.8066  0.4039
 3983SOL    HW223586   0.599   1.381   3.021 -0.6355  1.4183 -0.0375
 3984SOL     OW23587   0.652   1.962   7.683 -0.0109  0.2478  0.1147
 3984SOL    HW123588   0.680   1.981   7.594  0.5508  0.0293  0.2456
 3984SOL    HW223589   0.727   1.992   7.735 -0.4264 -1.4905  1.7039
 3985SOL     OW23590   2.228   3.165   9.046  0.6952 -0.2081  0.6858
 3985SOL    HW123591   2.156   3.194   9.102  1.9327 -1.1134  2.7296
 3985SOL    HW223592   2.185   3.100   8.991  1.9841 -0.3321 -0.1814
 3986SOL     OW23593   2.690   3.789  16.247 -0.1801  0.0108  0.0652
 3986SOL    HW123594   2.718   3.842  16.172 -0.7177 -0.3470 -0.3855
 3986SOL    HW223595   2.715   3.845  16.321  0.7910 -0.2496 -0.0547
 3987SOL     OW23596   4.626   3.118   9.131  0.2890  0.3096 -0.2154
 3987SOL    HW123597   4.556   3.168   9.088 -0.6879  1.6355  2.8862
 3987SOL    HW223598   4.664   3.187   9.184 -1.1626  1.3426 -0.5255
 3988SOL     OW23599   4.398   3.710   1.512  0.0460 -0.1242 -0.4312
 3988SOL    HW123600   4.339   3.753   1.450 -2.3696 -0.8134  1.3866
 3988SOL    HW223601   4.396   3.621   1.477 -1.1610  0.4075 -1.7045
 3989SOL     OW23602   3.675   4.438  13.256  0.2313  0.6058 -0.1465
 3989SOL    HW123603   3.723   4.428  13.174  1.6594 -0.9214  0.8747
 3989SOL    HW223604   3.721   4.385  13.321  2.9042 -1.4329 -3.7104
 3990SOL     OW23605   2.974   4.536   1.359  0.7563 -0.0847  0.2304
 3990SOL    HW123606   3.063   4.508   1.337  1.6358  2.0090  1.0366
 3990SOL    HW223607   2.991   4.630   1.350  0.2420  0.0719  0.8478
 3991SOL     OW23608   3.876   2.624   8.408 -0.2778  0.0402  0.0571
 3991SOL    HW123609   3.807   2.685   8.435 -1.6207 -0.4769 -2.2156
 3991SOL    HW223610   3.828   2.559   8.357  1.3549 -0.7900 -0.4504
 3992SOL     OW23611   2.750   3.162   8.884  0.3272 -0.9529 -0.4701
 3992SOL    HW123612   2.792   3.081   8.912  1.2807  0.2398  1.5612
 3992SOL    HW223613   2.689   3.130   8.818  0.4971 -0.7387 -0.7353
 3993SOL     OW23614   1.456   3.009   3.557 -0.2427  0.6343 -0.1249
 3993SOL    HW123615   1.442   3.003   3.462  0.8171  2.0016 -0.3729
 3993SOL    HW223616   1.542   3.051   3.554 -0.1049  0.1875 -2.5559
 3994SOL     OW23617   3.115   1.648   9.894 -0.1945  0.6164  0.1659
 3994SOL    HW123618   3.130   1.673   9.803 -0.5497 -2.8363 -0.8416
 3994SOL    HW223619   3.035   1.701   9.894 -0.8628 -0.3842  0.7343
 3995SOL     OW23620   4.525   3.516   3.682  0.4944 -0.3403  0.0739
 3995SOL    HW123621   4.615   3.522   3.650  0.7267  0.8549  0.9706
 3995SOL    HW223622   4.486   3.603   3.671  0.3310 -0.8072 -3.1926
 3996SOL     OW23623   4.636   0.160   6.873  0.2587  0.2534  0.4187
 3996SOL    HW123624   4.596   0.101   6.937 -1.2228 -1.5676 -2.1868
 3996SOL    HW223625   4.727   0.138   6.895  0.6154  1.1974 -0.1311
 3997SOL     OW23626   3.789   4.446   2.349  0.9100 -0.5136  0.7323
 3997SOL    HW123627   3.811   4.367   2.397  1.0097 -1.8056 -1.4080
 3997SOL    HW223628   3.872   4.477   2.313  1.3716 -1.9863  0.5424
 3998SOL     OW23629   1.758   0.693   6.614  0.3711 -0.1505  0.0363
 3998SOL    HW123630   1.779   0.632   6.684  1.0663 -0.7255 -0.6777
 3998SOL    HW223631   1.719   0.763   6.667  1.3586 -0.4022  1.0986
 3999SOL     OW23632   1.207   3.145   8.597  0.6684  0.1825  0.1642
 3999SOL    HW123633   1.140   3.085   8.565  1.4337  0.4211 -1.8847
 3999SOL    HW223634   1.203   3.142   8.692  0.4839  3.0221  0.2487
 4000SOL     OW23635   2.136   3.954   3.452  0.3256  0.2413  0.2409
 4000SOL    HW123636   2.223   3.993   3.465 -0.1082  1.3627 -0.1951
 4000SOL    HW223637   2.095   4.036   3.425  0.7918  0.2959 -0.3012
 4001SOL     OW23638   1.396   1.908  12.041  0.1827 -0.4003  0.6108
 4001SOL    HW123639   1.445   1.837  12.001  0.4420  1.6835 -2.7918
 4001SOL    HW223640   1.391   1.871  12.129 -0.6836  0.4831  0.9438
 4002SOL     OW23641   0.214   0.611   4.328  0.4019  0.0888  0.3436
 4002SOL    HW123642   0.295   0.566   4.302  0.2967  0.4730 -0.6480
 4002SOL    HW223643   0.201   0.573   4.415 -2.2648  0.0863 -0.0761
 4003SOL     OW23644   0.762   2.168   4.921  0.0913  0.1252  0.4865
 4003SOL    HW123645   0.683   2.115   4.914  1.0820 -1.2808 -0.0117
 4003SOL    HW223646   0.824   2.106   4.881 -0.1811 -0.1054  0.4239
 4004SOL     OW23647   0.815   3.877   3.824 -0.1185 -0.3988  0.2034
 4004SOL    HW123648   0.726   3.911   3.831  0.1632  0.1614  1.1904
 4004SOL    HW223649   0.876   3.951   3.832 -0.1814 -0.0588 -2.3471
 4005SOL     OW23650   1.944   2.875   9.863  0.1207  0.4045  0.2199
 4005SOL    HW123651   1.939   2.834   9.950 -0.1968 -1.2227 -0.5609
 4005SOL    HW223652   1.964   2.963   9.895 -0.8474  0.7933 -0.2521
 4006SOL     OW23653   0.205   1.686   5.151  0.2625  0.1254  0.3335
 4006SOL    HW123654   0.136   1.742   5.116  1.9089  0.4610 -2.3481
 4006SOL    HW223655   0.185   1.683   5.245  0.0167  3.7056  0.4112
 4007SOL     OW23656   4.611   3.252  12.971 -0.8437 -0.8611 -0.3700
 4007SOL    HW123657   4.554   3.181  12.942 -0.3035 -2.3302  2.1952
 4007SOL    HW223658   4.684   3.198  12.998 -0.4594 -0.0130  0.2992
 4008SOL     OW23659   1.232   1.857  16.674  0.0019  0.0524 -0.0384
 4008SOL    HW123660   1.277   1.932  16.636  0.7783  0.3903  1.5610
 4008SOL    HW223661   1.309   1.820  16.719 -0.5059 -0.4520  0.4093
 4009SOL     OW23662   1.232   0.885  11.790  0.2532 -0.1304  0.2270
 4009SOL    HW123663   1.206   0.828  11.718  0.2146 -1.4513  1.2995
 4009SOL    HW223664   1.215   0.975  11.760  0.1730  0.2211  1.3271
 4010SOL     OW23665   4.192   0.435   3.943 -0.0990 -0.0590 -0.3494
 4010SOL    HW123666   4.180   0.370   3.873  2.2937  0.4143 -1.2210
 4010SOL    HW223667   4.106   0.475   3.938 -0.4733 -0.5113  2.6233
 4011SOL     OW23668   3.859   2.261   3.285  0.2548 -0.1880  0.0893
 4011SOL    HW123669   3.934   2.317   3.270 -0.4398  1.4739  2.8051
 4011SOL    HW223670   3.871   2.237   3.377  2.6864  0.9579  0.0471
 4012SOL     OW23671   2.495   2.694   5.736 -0.0462  0.0652 -0.2198
 4012SOL    HW123672   2.556   2.630   5.700 -1.0353 -1.0403  0.0725
 4012SOL    HW223673   2.525   2.779   5.704 -0.6802  0.3419 -0.0794
 4013SOL     OW23674   4.099   2.721  12.119  0.0870 -0.0358  0.0317
 4013SOL    HW123675   4.129   2.688  12.035  1.6092 -0.6476  0.8213
 4013SOL    HW223676   4.070   2.809  12.093 -1.1197 -0.6898 -0.8192
 4014SOL     OW23677   0.022   1.438   7.300 -0.1942 -0.3611 -0.8949
 4014SOL    HW123678   4.662   1.427   7.302 -0.4325  1.5787 -1.5253
 4014SOL    HW223679   0.046   1.372   7.365  1.2770  0.8834 -0.1857
 4015SOL     OW23680   0.150   2.523   7.855 -0.1231 -0.0013  0.6690
 4015SOL    HW123681   0.127   2.597   7.798  0.7555  0.8943  1.4922
 4015SOL    HW223682   0.122   2.445   7.807 -1.0472  0.0353  1.1427
 4016SOL     OW23683   4.443   0.475  10.983 -0.4712  0.0825 -0.0398
 4016SOL    HW123684   4.481   0.563  10.978  2.2133 -1.1155 -0.6498
 4016SOL    HW223685   4.523   0.436  11.019 -0.1484  1.4093  0.6895
 4017SOL     OW23686   1.236   2.432   1.469  0.0030 -0.0329  0.0550
 4017SOL    HW123687   1.209   2.408   1.380 -0.7267  1.4931 -0.1519
 4017SOL    HW223688   1.319   2.386   1.459 -0.2589  0.1737 -3.1074
 4018SOL     OW23689   2.572   0.701   7.380  0.0205 -0.1216 -0.3228
 4018SOL    HW123690   2.615   0.768   7.434 -0.9760 -0.3408  0.7441
 4018SOL    HW223691   2.531   0.754   7.312 -0.6404  0.5154  0.5666
 4019SOL     OW23692   0.991   2.522   8.280  0.3077 -0.2263  0.5097
 4019SOL    HW123693   1.072   2.476   8.298  2.1769  3.0276  0.3562
 4019SOL    HW223694   0.925   2.454   8.295 -2.0069  1.9282  0.2707
 4020SOL     OW23695   2.396   1.577   6.663  0.4925 -0.7160 -0.4532
 4020SOL    HW123696   2.467   1.513   6.663  0.7854 -0.3708  2.6723
 4020SOL    HW223697   2.387   1.604   6.571  1.1541 -0.2504 -0.3842
 4021SOL     OW23698   0.033   0.270   7.842  0.3135  0.5997  0.1482
 4021SOL    HW123699   4.702   0.228   7.787 -1.2550  1.9720  0.9844
 4021SOL    HW223700   4.707   0.310   7.903 -0.1690 -1.2870  0.9174
 4022SOL     OW23701   2.347   2.599   3.479 -0.6475  0.1734 -1.0278
 4022SOL    HW123702   2.398   2.679   3.472 -0.3472  0.0931  0.1360
 4022SOL    HW223703   2.416   2.539   3.450 -1.8734 -1.6868 -0.0935
 4023SOL     OW23704   2.044   2.927   6.508  0.0379 -0.0140 -0.8410
 4023SOL    HW123705   1.962   2.942   6.555  1.5665 -0.5785  2.0118
 4023SOL    HW223706   2.100   2.898   6.580 -0.2079  1.8177  0.0824
 4024SOL     OW23707   3.133   2.096  10.160 -0.2148  0.2294 -0.2442
 4024SOL    HW123708   3.050   2.138  10.136 -0.2743  0.9103  1.1946
 4024SOL    HW223709   3.117   2.045  10.239 -2.6139  0.7850 -0.3521
 4025SOL     OW23710   2.283   2.141   6.225  0.1202  0.4913 -0.8082
 4025SOL    HW123711   2.360   2.100   6.183  0.9993  0.7775  0.5295
 4025SOL    HW223712   2.255   2.212   6.167  1.2546 -0.0624 -2.0302
 4026SOL     OW23713   3.348   0.847  13.243  0.4720 -0.6470  0.5265
 4026SOL    HW123714   3.343   0.752  13.251  0.5626 -0.8067 -1.4669
 4026SOL    HW223715   3.256   0.873  13.252  0.4236 -1.1391  1.4323
 4027SOL     OW23716   2.188   4.691   9.406 -0.3240  0.1001 -0.0658
 4027SOL    HW123717   2.192   4.600   9.436  1.3137  0.7571  1.6721
 4027SOL    HW223718   2.261   4.731   9.453  0.0853 -0.2487 -0.4072
 4028SOL     OW23719   4.217   3.897   5.323  0.1053 -0.2557  0.1616
 4028SOL    HW123720   4.307   3.930   5.328 -0.4415  1.1185  1.1442
 4028SOL    HW223721   4.180   3.961   5.385  2.8490  0.3285  1.2513
 4029SOL     OW23722   3.071   1.342   7.783 -0.5030 -0.0576 -0.3252
 4029SOL    HW123723   3.075   1.425   7.831 -0.7880 -1.7299  2.6052
 4029SOL    HW223724   3.133   1.289   7.834  0.0037  1.8819  1.0760
 4030SOL     OW23725   2.954   0.417   0.560 -0.2340  0.1757  0.9066
 4030SOL    HW123726   2.911   0.430   0.476 -0.0955 -1.5189  0.5893
 4030SOL    HW223727   2.891   0.460   0.618  0.1442 -1.1614  2.3044
 4031SOL     OW23728   4.514   0.794  14.700  0.0677 -0.5019  0.3636
 4031SOL    HW123729   4.479   0.714  14.659 -0.5857  1.5562 -3.0374
 4031SOL    HW223730   4.475   0.859  14.642  1.8456  1.6815  1.6428
 4032SOL     OW23731   0.276   4.296   8.836 -0.0854 -0.4358 -0.0963
 4032SOL    HW123732   0.227   4.330   8.911  0.8337 -0.3911  0.4886
 4032SOL    HW223733   0.199   4.295   8.779  0.6083 -1.2574 -1.0141
 4033SOL     OW23734   2.858   4.129   4.835 -0.0066 -0.1110  0.0870
 4033SOL    HW123735   2.854   4.084   4.919 -1.5908  1.2278  0.7501
 4033SOL    HW223736   2.952   4.121   4.821 -0.4228 -1.2309 -1.9546
 4034SOL     OW23737   3.430   2.309   3.806 -0.0449 -0.2881  0.0034
 4034SOL    HW123738   3.430   2.278   3.897 -0.5764 -0.2213  0.0256
 4034SOL    HW223739   3.365   2.379   3.806 -1.2092 -1.3639  1.5154
 4035SOL     OW23740   0.920   0.715  17.323  0.0131  0.3759  0.0165
 4035SOL    HW123741   0.966   0.672  17.395 -0.9411  0.1035  0.4637
 4035SOL    HW223742   0.849   0.650  17.322  1.1958 -0.9326  1.2375
 4036SOL     OW23743   3.580   1.919  11.424  0.1482  0.5441 -0.3667
 4036SOL    HW123744   3.523   1.848  11.452 -0.4683  1.2534  0.1486
 4036SOL    HW223745   3.655   1.911  11.483  1.3686 -1.5928 -2.1719
 4037SOL     OW23746   0.146   4.711   7.728  0.1801  0.5794  0.0304
 4037SOL    HW123747   0.076   4.653   7.757  0.6939 -0.7601 -1.3815
 4037SOL    HW223748   0.172   4.668   7.646 -0.0992  0.9671 -0.2638
 4038SOL     OW23749   3.939   1.014   0.699 -0.5597  0.0907 -0.0869
 4038SOL    HW123750   3.897   0.945   0.751  1.4742 -1.4295 -0.4775
 4038SOL    HW223751   3.888   1.089   0.731 -0.5045  0.9062 -1.9210
 4039SOL     OW23752   2.447   1.683   8.815 -0.4826  0.1044 -0.1975
 4039SOL    HW123753   2.482   1.637   8.892  1.4961  0.3853 -0.9148
 4039SOL    HW223754   2.448   1.775   8.844 -2.7750  0.1127 -0.1698
 4040SOL     OW23755   4.019   4.390   5.117 -0.4075 -0.1872 -0.5131
 4040SOL    HW123756   4.032   4.394   5.212 -0.0728  3.3289 -0.7165
 4040SOL    HW223757   3.971   4.465   5.084  1.4577  0.7505 -1.1071
 4041SOL     OW23758   2.755   3.091  15.887 -0.0824  0.2330  0.4503
 4041SOL    HW123759   2.786   3.173  15.924 -0.6903  0.2014  1.0393
 4041SOL    HW223760   2.832   3.044  15.856 -1.1594 -3.2715  3.0087
 4042SOL     OW23761   2.808   3.235   5.671  0.0435  0.2686 -0.0636
 4042SOL    HW123762   2.880   3.190   5.715  1.5340  2.3318 -0.3901
 4042SOL    HW223763   2.846   3.261   5.587 -3.5171 -0.7819 -2.0114
 4043SOL     OW23764   3.591   3.541  11.872  0.3603 -0.2412  0.6042
 4043SOL    HW123765   3.525   3.515  11.807  0.3176 -0.5293  0.7630
 4043SOL    HW223766   3.555   3.484  11.940  1.6176 -0.7455  0.8635
 4044SOL     OW23767   0.795   3.700   7.193 -0.2337  0.4574 -0.7998
 4044SOL    HW123768   0.841   3.625   7.157 -1.1605 -0.2552 -0.4795
 4044SOL    HW223769   0.828   3.770   7.137 -0.1264  0.1883 -1.0724
 4045SOL     OW23770   2.347   1.873   7.579  0.3786 -0.1533 -0.2981
 4045SOL    HW123771   2.417   1.838   7.634 -0.0425 -0.8401 -0.1951
 4045SOL    HW223772   2.289   1.906   7.647  1.7728  2.7214 -0.5178
 4046SOL     OW23773   0.598   0.927  10.569 -0.9612  0.2113  0.2700
 4046SOL    HW123774   0.659   0.878  10.624 -1.2688 -1.2623 -0.7119
 4046SOL    HW223775   0.536   0.969  10.629 -1.1814 -0.8109  0.7525
 4047SOL     OW23776   0.677   3.333   5.432 -0.2262 -0.1967 -0.3039
 4047SOL    HW123777   0.712   3.397   5.495 -1.4093 -0.9944  1.1683
 4047SOL    HW223778   0.715   3.345   5.345  0.7387 -1.2227 -0.0163
 4048SOL     OW23779   4.657   4.454   9.448 -0.2831  0.3857  0.1664
 4048SOL    HW123780   4.623   4.383   9.502 -2.3261 -0.8575 -2.7319
 4048SOL    HW223781   4.579   4.509   9.455 -0.9302 -1.0621  4.3592
 4049SOL     OW23782   4.401   3.884   2.903  0.6057 -0.3947  0.3107
 4049SOL    HW123783   4.383   3.953   2.967  1.7258  0.1065  0.0731
 4049SOL    HW223784   4.453   3.931   2.837 -0.3953  0.6872  0.2824
 4050SOL     OW23785   0.308   3.846   4.267  0.0158 -0.2410  0.1883
 4050SOL    HW123786   0.255   3.919   4.299  1.6042  0.0302  2.1985
 4050SOL    HW223787   0.248   3.773   4.254  0.2491 -0.4599  0.3564
 4051SOL     OW23788   3.627   4.183  15.443 -0.4966  0.2219  0.0186
 4051SOL    HW123789   3.584   4.158  15.362 -0.6789 -0.8302  0.4426
 4051SOL    HW223790   3.663   4.100  15.474 -0.7344  0.0609 -0.1425
 4052SOL     OW23791   0.112   2.033   2.643 -0.3187 -0.1627  0.1928
 4052SOL    HW123792   0.045   2.068   2.702 -0.9098 -1.1672  0.1191
 4052SOL    HW223793   0.138   1.951   2.684  1.5265  1.2030  1.7677
 4053SOL     OW23794   1.836   2.069  13.372 -0.0191 -0.4194 -0.6107
 4053SOL    HW123795   1.816   2.002  13.438  2.4309 -0.8621 -0.3148
 4053SOL    HW223796   1.837   2.021  13.289 -2.5722  0.9143 -1.4035
 4054SOL     OW23797   1.285   4.193   1.212  0.0588 -0.7176 -0.1178
 4054SOL    HW123798   1.292   4.276   1.165 -0.9812 -0.7954 -0.4136
 4054SOL    HW223799   1.248   4.140   1.142 -2.8077 -0.1215  0.9159
 4055SOL     OW23800   3.430   3.613   7.981 -0.0475 -0.2056  0.5715
 4055SOL    HW123801   3.355   3.658   7.942  1.0230 -2.6056 -4.2149
 4055SOL    HW223802   3.497   3.623   7.913  1.6376  2.0457  2.5491
 4056SOL     OW23803   4.581   1.713   6.856 -0.0008  0.2183  0.3802
 4056SOL    HW123804   4.512   1.697   6.792 -1.6187  0.7199  1.9862
 4056SOL    HW223805   4.596   1.806   6.842 -0.7526  0.3444  0.4208
 4057SOL     OW23806   2.781   1.724   2.735  0.5054 -0.1590 -0.6484
 4057SOL    HW123807   2.743   1.812   2.743  0.4215 -0.2307 -0.2664
 4057SOL    HW223808   2.875   1.732   2.747  0.5526  0.3568 -1.3483
 4058SOL     OW23809   3.751   0.023  16.141  0.0065  0.1079 -0.1054
 4058SOL    HW123810   3.816   0.042  16.073 -0.7424 -0.9817 -1.1227
 4058SOL    HW223811   3.808   4.705  16.196  0.0232  0.6812  0.4385
 4059SOL     OW23812   3.427   0.701   1.601 -0.2587  0.0548 -0.2819
 4059SOL    HW123813   3.339   0.735   1.585 -0.5081 -0.4197  0.0947
 4059SOL    HW223814   3.473   0.785   1.607 -1.4419  0.7528 -1.0421
 4060SOL     OW23815   2.627   0.380   4.522  0.0690 -0.1704 -0.2637
 4060SOL    HW123816   2.532   0.387   4.510  0.2949 -0.8339 -2.2897
 4060SOL    HW223817   2.633   0.310   4.587 -1.3194  1.5424  1.7217
 4061SOL     OW23818   4.106   1.528   6.894 -0.0602  0.3254 -0.0724
 4061SOL    HW123819   4.096   1.620   6.869 -0.2793  0.3988  0.2865
 4061SOL    HW223820   4.069   1.492   6.814  0.7688 -1.7381  0.4551
 4062SOL     OW23821   1.207   2.665  13.951 -0.2503 -0.8387 -0.1229
 4062SOL    HW123822   1.156   2.646  13.872 -3.0961  2.4260  0.9427
 4062SOL    HW223823   1.183   2.596  14.013  0.3127 -1.8174 -0.9891
 4063SOL     OW23824   0.731   4.686   6.616 -0.1917  0.2341 -0.1134
 4063SOL    HW123825   0.751   0.008   6.690 -1.1553 -0.3361  0.5871
 4063SOL    HW223826   0.810   4.644   6.582 -0.9048  0.0602 -1.5579
 4064SOL     OW23827   0.158   1.589  12.022 -0.3380  0.2518 -0.3948
 4064SOL    HW123828   0.240   1.597  12.069  0.0547 -0.8604 -0.9043
 4064SOL    HW223829   0.140   1.500  12.050  1.9231 -0.7987 -2.3305
 4065SOL     OW23830   2.485   4.033   9.621  0.5557 -0.6535  0.6137
 4065SOL    HW123831   2.458   3.960   9.564 -0.6959  0.6066 -0.4009
 4065SOL    HW223832   2.578   4.010   9.628  1.0648  1.5607  1.0299
 4066SOL     OW23833   1.010   0.559   1.482 -0.5078  0.6020  0.3181
 4066SOL    HW123834   1.037   0.595   1.566  2.3866 -1.7764  0.4112
 4066SOL    HW223835   0.916   0.550   1.497 -0.9183  2.6670 -1.1858
 4067SOL     OW23836   2.337   0.127   0.578 -0.4652 -0.9404 -0.4602
 4067SOL    HW123837   2.421   0.093   0.608 -0.5481 -0.8147 -0.0895
 4067SOL    HW223838   2.369   0.161   0.494  0.2216 -1.7546 -0.5304
 4068SOL     OW23839   3.670   0.521   3.066  0.0737 -0.0312 -0.3640
 4068SOL    HW123840   3.654   0.527   3.160 -0.3735  0.3433 -0.4643
 4068SOL    HW223841   3.758   0.559   3.061  0.6871 -1.4063 -0.1415
 4069SOL     OW23842   1.789   4.703   5.084  0.3681  0.1183  0.6668
 4069SOL    HW123843   1.812   0.025   5.011  0.1982 -2.2976 -1.3019
 4069SOL    HW223844   1.701   0.002   5.101 -0.4335 -2.3697  1.5437
 4070SOL     OW23845   3.836   3.232   8.217 -0.2154  0.0372  0.6292
 4070SOL    HW123846   3.903   3.170   8.188  0.3275  0.6647  0.5586
 4070SOL    HW223847   3.774   3.180   8.268  1.4484 -0.6024  1.9637
 4071SOL     OW23848   2.472   1.400   5.934 -0.0923 -0.0515 -0.0317
 4071SOL    HW123849   2.540   1.429   5.995 -1.8564  0.5339  1.6443
 4071SOL    HW223850   2.441   1.487   5.909  2.6236  0.8429 -0.3348
 4072SOL     OW23851   0.364   3.118   3.388 -0.2228 -0.7796  0.2461
 4072SOL    HW123852   0.308   3.058   3.339  1.1847 -2.8478  1.1659
 4072SOL    HW223853   0.388   3.075   3.470  2.0357 -0.6025 -0.3170
 4073SOL     OW23854   0.382   3.180   3.071  0.2655  0.1269  0.2399
 4073SOL    HW123855   0.358   3.093   3.104  2.2238 -0.3299  0.4726
 4073SOL    HW223856   0.428   3.147   2.994 -0.3037 -0.2445  0.0563
 4074SOL     OW23857   1.717   2.508  17.463  0.0140 -0.0187  0.5397
 4074SOL    HW123858   1.743   2.489  17.553  0.5972 -0.7908  0.2010
 4074SOL    HW223859   1.793   2.561  17.438  0.2444 -0.3148  0.6251
 4075SOL     OW23860   4.036   0.898   7.458 -0.6808 -0.1016  0.1714
 4075SOL    HW123861   3.999   0.982   7.433  1.8303  0.9420 -0.0292
 4075SOL    HW223862   3.952   0.859   7.481 -1.1499 -0.0382 -1.3863
 4076SOL     OW23863   0.976   4.185  14.613  0.6834  0.0544  0.1030
 4076SOL    HW123864   1.025   4.152  14.538 -0.1098 -0.4751 -0.1837
 4076SOL    HW223865   0.971   4.104  14.665  0.8126  0.5410  0.8827
 4077SOL     OW23866   1.576   3.777   5.869  0.4533 -0.2471  0.7075
 4077SOL    HW123867   1.643   3.824   5.919  0.6526 -0.7283  0.8981
 4077SOL    HW223868   1.597   3.796   5.778  1.9397 -0.4870  0.9927
 4078SOL     OW23869   0.647   1.275   1.116 -0.2168 -0.0587  0.3332
 4078SOL    HW123870   0.683   1.298   1.202 -0.0189  1.1112 -0.0686
 4078SOL    HW223871   0.723   1.258   1.060 -0.2501  0.2906  0.1842
 4079SOL     OW23872   0.464   2.639   4.322 -0.1907  0.0905 -0.0384
 4079SOL    HW123873   0.444   2.651   4.229 -2.0826  2.6460  0.6986
 4079SOL    HW223874   0.475   2.544   4.331  1.0100 -0.1356 -3.6438
 4080SOL     OW23875   3.318   0.834   7.981  0.4841 -0.2520 -0.0904
 4080SOL    HW123876   3.291   0.909   7.929  0.0951 -0.2146  0.1671
 4080SOL    HW223877   3.275   0.847   8.065 -0.4492  0.9506 -0.7648
 4081SOL     OW23878   0.129   1.046   7.864 -0.5439  0.7219 -0.2967
 4081SOL    HW123879   0.148   1.110   7.795  0.0924  1.5803  0.6785
 4081SOL    HW223880   0.174   0.966   7.834 -1.1455  0.6779 -1.0824
 4082SOL     OW23881   3.547   0.582   3.335 -0.5930 -0.4532  0.3856
 4082SOL    HW123882   3.510   0.496   3.352  0.9801 -1.1487  0.3201
 4082SOL    HW223883   3.622   0.592   3.394 -0.0944 -0.3841 -0.2641
 4083SOL     OW23884   3.763   1.818   8.262 -0.3775  0.2152 -0.1180
 4083SOL    HW123885   3.822   1.865   8.321  0.6936  0.5735 -1.4571
 4083SOL    HW223886   3.701   1.767   8.314 -0.0053  0.3994  0.4964
 4084SOL     OW23887   1.714   0.831  17.644 -0.1094  0.7679  0.5530
 4084SOL    HW123888   1.669   0.915  17.638 -2.2467 -0.4698 -0.5487
 4084SOL    HW223889   1.639   0.772  17.630  0.6014  0.5024 -2.1777
 4085SOL     OW23890   0.098   4.623   9.179  0.4370  0.3638  0.2723
 4085SOL    HW123891   0.093   4.535   9.143 -0.8629  1.0148 -1.1545
 4085SOL    HW223892   0.028   4.677   9.142  0.2579 -0.7073 -0.9421
 4086SOL     OW23893   0.027   1.091  13.904 -0.3219 -0.2163 -0.1998
 4086SOL    HW123894   4.703   1.164  13.918  0.0993  0.4142 -1.7029
 4086SOL    HW223895   0.078   1.090  13.985 -1.8523  0.4194  0.7706
 4087SOL     OW23896   1.805   1.176   0.485  0.3897  0.4480 -0.2853
 4087SOL    HW123897   1.893   1.209   0.500  0.7876 -1.1353  0.8452
 4087SOL    HW223898   1.802   1.100   0.543  1.9143  1.6272  1.3208
 4088SOL     OW23899   2.591   3.489  11.162 -0.3573 -0.7709  0.5995
 4088SOL    HW123900   2.581   3.426  11.233 -1.9330 -0.8506  0.3076
 4088SOL    HW223901   2.612   3.568  11.212  0.2780  0.2569 -1.3009
 4089SOL     OW23902   3.851   0.079   0.399  0.0864 -0.6084  0.4604
 4089SOL    HW123903   3.782   0.123   0.448 -0.6074 -2.4165  1.0991
 4089SOL    HW223904   3.926   0.139   0.400 -0.0601 -0.4189  0.1410
 4090SOL     OW23905   3.382   3.984  11.664  0.2580  0.2101  0.4042
 4090SOL    HW123906   3.419   4.026  11.742  2.1577 -2.4787  0.9675
 4090SOL    HW223907   3.449   4.016  11.603  2.7827 -0.6866  2.7184
 4091SOL     OW23908   1.031   0.325   3.996 -0.6321  0.4843  0.1976
 4091SOL    HW123909   0.948   0.356   3.957 -1.1279  0.2874  1.1035
 4091SOL    HW223910   1.066   0.412   4.014  0.0641  0.5486 -1.4526
 4092SOL     OW23911   0.979   4.242   2.804  0.3389  0.6239  0.7654
 4092SOL    HW123912   0.970   4.149   2.787  1.3823  0.3987  1.4752
 4092SOL    HW223913   1.009   4.251   2.894  1.2772 -2.6819  0.7746
 4093SOL     OW23914   1.095   3.299   5.384  0.2049 -0.0895  0.1897
 4093SOL    HW123915   1.092   3.314   5.290 -0.1879  0.9507  0.3736
 4093SOL    HW223916   1.055   3.376   5.424  0.8086  0.3524 -0.0672
 4094SOL     OW23917   2.750   4.499  12.745 -0.1772 -0.0343  0.0080
 4094SOL    HW123918   2.716   4.514  12.833  0.0944  1.0431 -0.0722
 4094SOL    HW223919   2.773   4.590  12.724  2.1499 -0.6115  0.0843
 4095SOL     OW23920   1.234   3.583   7.642  0.5624  0.2677  0.6001
 4095SOL    HW123921   1.180   3.558   7.717  0.6305  0.0052  0.5621
 4095SOL    HW223922   1.306   3.520   7.646 -1.3596 -2.0184 -0.2281
 4096SOL     OW23923   0.292   3.003  16.747  0.2247  0.0870  0.5763
 4096SOL    HW123924   0.226   3.061  16.784  1.2720  1.0479  0.9554
 4096SOL    HW223925   0.366   3.037  16.797 -0.8239  0.8376  1.5980
 4097SOL     OW23926   1.224   2.250   6.055 -0.4210  0.1999 -0.3335
 4097SOL    HW123927   1.231   2.280   6.146  0.2958 -1.9921  0.3377
 4097SOL    HW223928   1.167   2.173   6.056 -1.8179  1.2225 -1.8279
 4098SOL     OW23929   3.326   4.147   4.945  0.1242  0.0624  0.0787
 4098SOL    HW123930   3.310   4.239   4.965  1.7282  0.6899 -1.5646
 4098SOL    HW223931   3.346   4.110   5.031 -0.2469 -1.1258 -0.3389
 4099SOL     OW23932   1.553   1.265   6.225 -0.0281 -0.9621 -0.0426
 4099SOL    HW123933   1.561   1.194   6.289  1.4750  0.6568  1.5655
 4099SOL    HW223934   1.588   1.335   6.280  0.0462 -0.0053 -1.3181
 4100SOL     OW23935   3.473   0.664  13.623  0.2579 -0.1731 -0.2195
 4100SOL    HW123936   3.546   0.689  13.567  0.8954  0.1524  0.7699
 4100SOL    HW223937   3.407   0.628  13.563 -0.6655 -0.8189  1.1949
 4101SOL     OW23938   2.452   3.141   3.624  0.0844 -0.0734 -0.2443
 4101SOL    HW123939   2.449   3.207   3.555  0.9998  1.2733  1.0077
 4101SOL    HW223940   2.369   3.103   3.595 -0.6416 -0.4785  2.3583
 4102SOL     OW23941   0.653   2.259   5.661 -0.3151 -0.3311  0.4825
 4102SOL    HW123942   0.721   2.194   5.681  0.1505  0.5797  1.8698
 4102SOL    HW223943   0.692   2.343   5.687  2.2473 -1.2749 -0.2570
 4103SOL     OW23944   0.232   1.165   5.793  0.0322 -0.5910  0.2617
 4103SOL    HW123945   0.324   1.160   5.765 -0.1984  0.5477 -0.7027
 4103SOL    HW223946   0.190   1.162   5.707 -0.3170  0.3714  0.4031
 4104SOL     OW23947   0.176   1.682   8.478  0.6453  0.3696 -0.2762
 4104SOL    HW123948   0.122   1.605   8.498  1.8372 -0.7974 -1.5356
 4104SOL    HW223949   0.254   1.636   8.446 -0.2179 -1.4294  0.2073
 4105SOL     OW23950   4.381   1.128   3.026  0.0157 -0.1465 -0.1412
 4105SOL    HW123951   4.412   1.189   3.093 -1.7301 -0.7039  1.1495
 4105SOL    HW223952   4.340   1.189   2.965  0.0769  1.0945  1.0688
 4106SOL     OW23953   0.794   2.265   1.866  0.1605  0.6879  0.4230
 4106SOL    HW123954   0.727   2.223   1.921  0.0809  1.8830  1.2367
 4106SOL    HW223955   0.863   2.200   1.880  1.5986  2.2903  0.7610
 4107SOL     OW23956   3.942   1.678   0.449 -0.0795 -0.2575  0.2742
 4107SOL    HW123957   3.950   1.640   0.362  1.1846  2.1129 -0.6322
 4107SOL    HW223958   4.011   1.744   0.445  0.2076 -0.6681 -1.4263
 4108SOL     OW23959   2.106   2.392   5.156 -0.1967  0.0564  0.0447
 4108SOL    HW123960   2.061   2.391   5.240  3.1391  0.1138  1.8501
 4108SOL    HW223961   2.083   2.482   5.133 -1.4169 -0.2456  0.1011
 4109SOL     OW23962   4.329   4.565   7.634  0.1023  0.0801  0.1777
 4109SOL    HW123963   4.386   4.568   7.557 -1.0307 -0.4880 -0.6808
 4109SOL    HW223964   4.388   4.592   7.705  0.4611 -1.9842  0.6806
 4110SOL     OW23965   2.525   4.072  11.932 -0.2708  0.2195  0.0524
 4110SOL    HW123966   2.448   4.117  11.897 -1.5486 -0.3538  2.0666
 4110SOL    HW223967   2.590   4.135  11.901 -0.9821 -0.6013 -3.0958
 4111SOL     OW23968   1.615   4.658  17.006 -0.2664 -0.1930  0.7932
 4111SOL    HW123969   1.648   4.568  17.013  0.8203  0.1447 -0.0612
 4111SOL    HW223970   1.556   4.639  16.933  2.0445 -2.2211 -0.5712
 4112SOL     OW23971   1.130   2.037   8.211  0.0584 -0.0892  0.7104
 4112SOL    HW123972   1.223   2.057   8.206 -0.5754  2.3168 -1.1882
 4112SOL    HW223973   1.079   2.091   8.150  1.1260 -1.2206 -1.1784
 4113SOL     OW23974   3.349   0.147   5.549  0.7536 -0.4293 -0.0972
 4113SOL    HW123975   3.262   0.134   5.512  0.8560  0.3413 -0.6288
 4113SOL    HW223976   3.396   0.178   5.471 -0.6434  3.2777  0.5120
 4114SOL     OW23977   4.405   4.117   2.714  0.1439 -0.6667  0.1581
 4114SOL    HW123978   4.319   4.074   2.709 -0.1508  0.0108 -0.5422
 4114SOL    HW223979   4.430   4.107   2.622 -3.9098  1.8639 -1.2126
 4115SOL     OW23980   3.485   2.647   9.985 -0.6783  0.1012 -0.2468
 4115SOL    HW123981   3.487   2.736   9.950 -0.7135 -0.3934 -1.4897
 4115SOL    HW223982   3.417   2.656  10.051 -1.1710  0.8565 -0.8636
 4116SOL     OW23983   0.345   1.031   3.384 -0.2243 -0.1715  0.3183
 4116SOL    HW123984   0.411   1.018   3.452 -0.2238 -0.1492  0.3218
 4116SOL    HW223985   0.268   1.020   3.440 -1.9164  1.4853 -1.6794
 4117SOL     OW23986   1.371   4.039   3.153 -0.7165  0.4999  0.0053
 4117SOL    HW123987   1.402   4.098   3.222  1.1908  0.1630 -0.5539
 4117SOL    HW223988   1.289   4.087   3.140 -1.2644 -0.6642 -0.7798
 4118SOL     OW23989   0.020   2.707   1.400 -0.2935 -0.0556 -0.5057
 4118SOL    HW123990   4.665   2.704   1.368  0.4928  1.4097 -2.8124
 4118SOL    HW223991   0.067   2.731   1.321  0.9423 -1.5509 -0.2175
 4119SOL     OW23992   1.072   1.841   6.802 -0.0750  0.2681  0.4855
 4119SOL    HW123993   1.141   1.869   6.741  0.5943  0.9769  1.5612
 4119SOL    HW223994   1.008   1.809   6.739  1.6335 -2.2795  0.0194
 4120SOL     OW23995   1.155   2.664  16.263 -0.7039  0.3489  0.4038
 4120SOL    HW123996   1.200   2.652  16.346 -0.7462 -1.8900  0.1029
 4120SOL    HW223997   1.233   2.660  16.206 -1.0579 -0.3961 -0.0323
 4121SOL     OW23998   3.492   1.795   0.669  0.5997 -0.3673 -0.1150
 4121SOL    HW123999   3.446   1.748   0.739  0.3929 -0.1102 -0.0750
 4121SOL    HW224000   3.448   1.772   0.587  0.0375  2.0320 -0.5007
 4122SOL     OW24001   1.842   1.095  14.374 -0.1954  0.3702  0.0105
 4122SOL    HW124002   1.833   1.068  14.282 -2.4327  0.4436  0.2060
 4122SOL    HW224003   1.837   1.010  14.418  0.3627 -0.0607 -0.7616
 4123SOL     OW24004   3.087   3.218   7.151 -0.2490  0.0133 -0.2893
 4123SOL    HW124005   3.111   3.136   7.194  1.0716  0.7794  0.4197
 4123SOL    HW224006   3.073   3.186   7.062  1.6007 -1.4607 -0.0568
 4124SOL     OW24007   3.248   0.213   3.344  0.2999  0.0205  0.3277
 4124SOL    HW124008   3.233   0.300   3.306 -1.0845 -0.7242 -0.8375
 4124SOL    HW224009   3.241   0.163   3.262  2.9349 -0.8568  0.6453
 4125SOL     OW24010   4.312   1.934   6.296 -0.0464  0.1968 -0.3335
 4125SOL    HW124011   4.373   1.944   6.223 -0.5354 -1.8126 -1.0254
 4125SOL    HW224012   4.350   1.852   6.328  1.7877  0.1887 -2.5408
 4126SOL     OW24013   2.060   3.738   7.845 -0.6240 -0.0977 -0.2494
 4126SOL    HW124014   2.028   3.820   7.884 -0.5739  0.1864 -0.8164
 4126SOL    HW224015   2.155   3.744   7.852 -0.7458  0.5008  0.8995
 4127SOL     OW24016   1.743   0.479   6.775  0.6158  0.1915 -0.1388
 4127SOL    HW124017   1.675   0.459   6.839 -0.4078 -1.6068 -1.8122
 4127SOL    HW224018   1.819   0.434   6.810  0.9119 -1.2356 -2.6355
 4128SOL     OW24019   1.098   3.179  10.883  0.0399 -0.7363  0.7822
 4128SOL    HW124020   1.139   3.243  10.825 -1.0068  0.8821  1.8103
 4128SOL    HW224021   1.049   3.241  10.937 -1.8195 -0.6480 -0.9819
 4129SOL     OW24022   1.122   3.050  17.516 -0.4714 -0.3078 -0.0373
 4129SOL    HW124023   1.045   3.017  17.561 -0.1772  0.4019  1.0026
 4129SOL    HW224024   1.179   2.973  17.518  0.3587  0.3184  0.9116
 4130SOL     OW24025   4.660   1.257   5.725 -0.0933 -0.0728  0.1106
 4130SOL    HW124026   4.703   1.313   5.661  0.3885  0.4808  0.9164
 4130SOL    HW224027   4.676   1.167   5.697 -0.2068 -0.1106  0.1650
 4131SOL     OW24028   3.094   1.195   3.375  0.1233  0.3286 -0.1757
 4131SOL    HW124029   3.123   1.126   3.315 -1.3955  1.6394 -2.4126
 4131SOL    HW224030   3.169   1.252   3.395  1.9038 -2.5870  1.4910
 4132SOL     OW24031   2.452   0.487   3.608  0.2291 -0.0017 -0.4703
 4132SOL    HW124032   2.401   0.566   3.590  0.8967  0.4601 -0.3281
 4132SOL    HW224033   2.536   0.530   3.625  0.0915 -0.3223  0.9930
 4133SOL     OW24034   3.023   1.775  12.492  0.2345  0.3688  0.1616
 4133SOL    HW124035   2.960   1.734  12.433 -0.1271 -1.5216  1.8833
 4133SOL    HW224036   3.018   1.869  12.472  0.2191  0.5413  0.9606
 4134SOL     OW24037   0.835   4.314   2.035  0.5384 -0.1343  0.8217
 4134SOL    HW124038   0.902   4.377   2.007  0.0564 -0.6587 -1.4495
 4134SOL    HW224039   0.768   4.362   2.084 -0.9417 -0.8448 -0.5055
 4135SOL     OW24040   1.155   2.126   2.679 -0.3851 -0.1725  0.3146
 4135SOL    HW124041   1.227   2.106   2.620 -0.2259  1.4184 -0.0489
 4135SOL    HW224042   1.137   2.035   2.700  0.9379 -0.8416 -1.4559
 4136SOL     OW24043   3.079   1.007   3.187  0.5573  0.2517 -0.0153
 4136SOL    HW124044   3.114   1.051   3.110  0.7718 -0.0518 -0.0947
 4136SOL    HW224045   2.995   0.982   3.148 -0.6980  1.9251  1.6185
 4137SOL     OW24046   3.550   4.621   3.544 -0.2262  0.2419 -0.9922
 4137SOL    HW124047   3.626   4.589   3.592  0.6137  0.5504 -2.1342
 4137SOL    HW224048   3.482   4.639   3.609  1.8355 -1.5363  1.6328
 4138SOL     OW24049   0.401   3.984   6.399  0.1970  0.3620 -0.0748
 4138SOL    HW124050   0.349   4.002   6.477  1.3230 -0.6850  0.9051
 4138SOL    HW224051   0.456   3.915   6.434 -0.5826  0.7190  1.8434
 4139SOL     OW24052   2.153   3.545   6.306  0.0199 -0.1630  0.3400
 4139SOL    HW124053   2.174   3.597   6.229 -0.0139 -0.7548 -0.0695
 4139SOL    HW224054   2.093   3.480   6.268  0.8896 -0.3471 -0.7256
 4140SOL     OW24055   3.756   1.848   1.416  0.2484  0.2507  0.4718
 4140SOL    HW124056   3.729   1.769   1.463  0.4216 -0.3945 -0.5013
 4140SOL    HW224057   3.720   1.907   1.481  0.3081 -0.0748  0.8013
 4141SOL     OW24058   2.725   0.012   9.819 -0.8521  0.0737 -1.0368
 4141SOL    HW124059   2.721   0.044   9.909  3.2454 -0.0205 -0.8545
 4141SOL    HW224060   2.818   0.016   9.798 -0.0538  0.4985  2.6118
 4142SOL     OW24061   4.411   3.859   6.618 -0.3392 -0.2204  0.1962
 4142SOL    HW124062   4.393   3.867   6.525  1.2986  1.7129  0.0393
 4142SOL    HW224063   4.420   3.765   6.631 -1.4731 -0.5974 -1.7363
 4143SOL     OW24064   4.412   0.535  16.955 -0.3655 -0.5824  0.1689
 4143SOL    HW124065   4.430   0.614  16.904  1.2098 -1.3324 -0.4369
 4143SOL    HW224066   4.460   0.463  16.912  0.3372 -1.6778  2.8095
 4144SOL     OW24067   1.655   2.316   4.541 -0.3971  0.4940 -0.1852
 4144SOL    HW124068   1.655   2.275   4.454 -1.8801 -1.2286  0.6252
 4144SOL    HW224069   1.590   2.385   4.535 -3.5143 -2.4380 -0.3849
 4145SOL     OW24070   0.761   3.180   8.741 -0.1108  0.7370 -0.4780
 4145SOL    HW124071   0.715   3.106   8.781  1.7073 -0.4071 -0.5014
 4145SOL    HW224072   0.817   3.205   8.814 -0.6349 -1.0163  0.5181
 4146SOL     OW24073   3.996   2.246   4.640  0.1311 -0.1499  0.2944
 4146SOL    HW124074   3.908   2.221   4.666 -0.6522  3.5535  1.1455
 4146SOL    HW224075   4.002   2.340   4.622  1.1242 -0.6169 -1.9293
 4147SOL     OW24076   2.385   4.471  10.120  0.3054 -0.2796 -0.1192
 4147SOL    HW124077   2.290   4.463  10.122  0.3701 -1.4054 -1.2433
 4147SOL    HW224078   2.392   4.505  10.209 -2.1738  1.0173 -0.4186
 4148SOL     OW24079   2.676   1.328   0.298  0.2835  0.5055 -0.2652
 4148SOL    HW124080   2.738   1.255   0.302  1.6317  1.6461 -0.0309
 4148SOL    HW224081   2.711   1.400   0.351 -0.2769 -0.3442  1.2856
 4149SOL     OW24082   0.176   3.223   8.547 -0.1003 -0.8337 -0.9158
 4149SOL    HW124083   0.100   3.264   8.505 -1.3467  0.0857  2.2451
 4149SOL    HW224084   0.209   3.178   8.470 -0.9387  0.1753 -1.8609
 4150SOL     OW24085   3.979   0.101  16.007  0.0523  0.6467 -0.2523
 4150SOL    HW124086   4.007   0.165  16.071 -1.1908 -1.7738  2.6963
 4150SOL    HW224087   4.044   0.032  16.022 -0.8381  0.1266  1.2030
 4151SOL     OW24088   0.250   0.640   1.214 -0.3217 -0.1713  0.0611
 4151SOL    HW124089   0.165   0.683   1.203 -0.5269 -0.7355 -0.5662
 4151SOL    HW224090   0.267   0.597   1.130  1.3949  3.1660 -1.3017
 4152SOL     OW24091   3.052   3.763  11.306  0.6540  0.1060  0.0458
 4152SOL    HW124092   3.121   3.751  11.240 -1.6158 -1.4481 -2.0330
 4152SOL    HW224093   3.059   3.854  11.337  1.2949  0.1255 -0.1523
 4153SOL     OW24094   0.082   2.666   9.691 -0.3353 -0.9459  0.2663
 4153SOL    HW124095   0.011   2.694   9.748 -0.4213 -1.7582  0.5519
 4153SOL    HW224096   0.149   2.726   9.724 -0.5838  0.3952 -1.6761
 4154SOL     OW24097   2.833   4.310   5.830 -0.2570 -0.0578 -0.2156
 4154SOL    HW124098   2.840   4.400   5.859 -1.3003  0.5867 -1.9299
 4154SOL    HW224099   2.900   4.266   5.881 -1.9546 -2.1122  0.2849
 4155SOL     OW24100   3.544   1.592  15.393  0.1071  0.4109 -0.5898
 4155SOL    HW124101   3.548   1.675  15.442 -1.1016 -0.1555  0.4650
 4155SOL    HW224102   3.610   1.539  15.438  0.7512  1.7482  0.0377
 4156SOL     OW24103   2.707   3.868   9.640 -0.0146  0.6673  0.7196
 4156SOL    HW124104   2.766   3.840   9.710 -0.3743  2.8541  1.8908
 4156SOL    HW224105   2.640   3.800   9.652  1.5771 -1.0009  0.1924
 4157SOL     OW24106   3.781   2.433   1.958  0.5412  0.5256 -0.4061
 4157SOL    HW124107   3.817   2.521   1.945  0.8653  0.5169  0.4246
 4157SOL    HW224108   3.721   2.448   2.031 -1.0524  1.1437 -1.8216
 4158SOL     OW24109   3.933   1.995   3.776 -0.1305  0.1581  0.0885
 4158SOL    HW124110   4.022   2.010   3.809  0.4222 -2.3038 -0.2820
 4158SOL    HW224111   3.959   1.949   3.696  0.2285  0.0058  0.2908
 4159SOL     OW24112   3.267   4.735   3.161 -0.3451  1.0139 -0.3892
 4159SOL    HW124113   3.304   4.676   3.227  1.8336 -0.0267 -2.5133
 4159SOL    HW224114   3.184   4.688   3.153 -0.2954  0.5200  2.0939
 4160SOL     OW24115   3.806   4.306   6.858 -0.7682  0.8669  0.2300
 4160SOL    HW124116   3.895   4.277   6.836 -1.0806  0.9489 -1.1391
 4160SOL    HW224117   3.753   4.240   6.813 -0.7824  0.3440  1.0067
 4161SOL     OW24118   1.764   3.291  11.691  0.4506  0.0260 -0.1945
 4161SOL    HW124119   1.694   3.357  11.684  0.9747  0.7461  1.4158
 4161SOL    HW224120   1.733   3.234  11.621  0.0052 -0.7479  0.6280
 4162SOL     OW24121   4.018   1.790   2.841  0.6717  0.3326 -0.0330
 4162SOL    HW124122   3.986   1.786   2.750 -2.5525 -0.3595  1.1475
 4162SOL    HW224123   3.956   1.858   2.868 -1.4160 -0.9865 -1.4339
 4163SOL     OW24124   2.578   1.270  12.444 -0.4406 -0.1276 -0.1351
 4163SOL    HW124125   2.516   1.265  12.372 -0.4132  1.4172 -0.2552
 4163SOL    HW224126   2.585   1.363  12.463  1.2043 -0.2054 -0.3495
 4164SOL     OW24127   2.376   2.557   2.066  0.0303 -0.1197 -0.0714
 4164SOL    HW124128   2.440   2.486   2.075 -1.1296 -1.1002  0.5155
 4164SOL    HW224129   2.430   2.616   2.014  0.1426 -0.0891  0.0797
 4165SOL     OW24130   2.061   4.111  14.191 -0.5444  0.3603  0.1557
 4165SOL    HW124131   2.057   4.061  14.110 -1.1721  0.8355 -0.1053
 4165SOL    HW224132   1.971   4.142  14.202 -0.5728  1.0955 -2.2438
 4166SOL     OW24133   4.336   2.204   0.861 -0.3322 -0.0675  0.1568
 4166SOL    HW124134   4.382   2.138   0.914  1.4230  0.8104 -0.2751
 4166SOL    HW224135   4.319   2.272   0.926  1.3559 -0.1780  0.7062
 4167SOL     OW24136   0.980   0.807   6.743  0.4138  0.3180  0.5457
 4167SOL    HW124137   1.007   0.884   6.692 -0.0482  1.3369  1.8545
 4167SOL    HW224138   0.885   0.813   6.731  0.4721  1.8704  0.8719
 4168SOL     OW24139   4.275   2.016  14.759  0.5125 -0.0238  0.0328
 4168SOL    HW124140   4.290   2.061  14.842 -1.1213 -0.6778  0.6881
 4168SOL    HW224141   4.325   2.070  14.698 -1.1443  0.5761 -0.8023
 4169SOL     OW24142   2.507   4.124   8.972 -0.0805  0.1655  0.1239
 4169SOL    HW124143   2.412   4.112   8.965 -0.1805  0.6979  0.6015
 4169SOL    HW224144   2.505   4.217   8.994  4.4535  0.2036  0.3518
 4170SOL     OW24145   3.885   0.352  16.608 -0.3851  0.1172  0.5472
 4170SOL    HW124146   3.808   0.403  16.584 -0.3908  0.6094  1.6139
 4170SOL    HW224147   3.878   0.284  16.541  0.7461 -0.8167  1.3633
 4171SOL     OW24148   0.872   3.080   2.110  0.4126 -0.1057  0.0600
 4171SOL    HW124149   0.823   2.998   2.122  1.1638 -0.5424  0.1344
 4171SOL    HW224150   0.951   3.054   2.157 -0.6783 -3.4190  0.0561
 4172SOL     OW24151   0.519   3.587   4.835 -0.3288  0.4808 -0.6656
 4172SOL    HW124152   0.496   3.553   4.748  0.3099  2.1441 -1.4725
 4172SOL    HW224153   0.573   3.513   4.863  1.1089  1.9741  0.5162
 4173SOL     OW24154   3.466   4.566  10.662 -0.5453 -0.1073  0.3663
 4173SOL    HW124155   3.400   4.501  10.639 -0.9844 -0.6088  3.0504
 4173SOL    HW224156   3.552   4.525  10.654 -0.0986  0.8432  0.2977
 4174SOL     OW24157   0.904   4.443  13.226  0.8203  0.0999  0.2725
 4174SOL    HW124158   0.955   4.463  13.305  0.0940  1.6779  0.3542
 4174SOL    HW224159   0.815   4.470  13.250  0.9167 -1.0784  2.0231
 4175SOL     OW24160   3.638   0.738   7.009 -0.0632 -0.2348  0.3973
 4175SOL    HW124161   3.565   0.751   7.069 -0.6143  2.1511 -0.7864
 4175SOL    HW224162   3.591   0.721   6.927  1.9517 -0.1430 -0.7697
 4176SOL     OW24163   3.738   2.597   3.710 -0.4689  0.6905 -0.6805
 4176SOL    HW124164   3.784   2.678   3.731  0.8551  0.5774 -3.2425
 4176SOL    HW224165   3.664   2.607   3.770  3.0507 -0.9501  3.9550
 4177SOL     OW24166   2.595   4.580   1.127 -0.3027  0.3642 -0.6322
 4177SOL    HW124167   2.656   4.557   1.197 -0.7921 -2.0015 -0.9872
 4177SOL    HW224168   2.574   4.496   1.088 -1.0898  0.5596 -0.6431
 4178SOL     OW24169   0.264   3.043  14.347 -0.6120 -0.0605  0.2673
 4178SOL    HW124170   0.231   2.974  14.290 -0.9603 -0.5285  1.0368
 4178SOL    HW224171   0.271   3.003  14.434 -0.9722 -1.2604 -0.2640
 4179SOL     OW24172   3.137   3.023   8.997 -0.1189 -0.3472 -0.5321
 4179SOL    HW124173   3.115   3.025   9.090  0.3181  1.5067 -0.4703
 4179SOL    HW224174   3.051   3.005   8.961 -1.0288 -0.5330  1.7224
 4180SOL     OW24175   0.308   0.628  12.673 -0.2565 -0.3231 -0.3435
 4180SOL    HW124176   0.274   0.548  12.633 -0.3965 -0.3544 -0.1657
 4180SOL    HW224177   0.306   0.612  12.767  3.8903 -1.8703 -0.5588
 4181SOL     OW24178   2.919   2.847   7.463  0.0092  0.1187 -0.1482
 4181SOL    HW124179   2.963   2.909   7.521  2.5103 -1.4758 -0.3355
 4181SOL    HW224180   2.876   2.902   7.397 -0.9783 -0.9502 -0.3991
 4182SOL     OW24181   4.147   4.639   7.162  0.0790 -0.5929  0.1106
 4182SOL    HW124182   4.057   4.655   7.192 -0.4847 -0.2158 -1.7972
 4182SOL    HW224183   4.172   4.565   7.217  1.2011 -0.3694 -0.1064
 4183SOL     OW24184   2.853   3.713  11.123 -0.3404 -0.5406  0.2996
 4183SOL    HW124185   2.787   3.717  11.192 -1.0300  2.5412 -0.5604
 4183SOL    HW224186   2.928   3.748  11.170 -0.3509  1.1906 -0.9915
 4184SOL     OW24187   0.443   0.785   4.913  0.3966  1.2731 -0.0705
 4184SOL    HW124188   0.348   0.780   4.926  0.5328  1.7474  1.1083
 4184SOL    HW224189   0.479   0.719   4.972 -3.3957 -1.7644 -1.1377
 4185SOL     OW24190   2.201   4.667   9.883  0.1848  0.5403  0.6439
 4185SOL    HW124191   2.185   4.617   9.963  0.5500 -1.8316 -0.7707
 4185SOL    HW224192   2.294   4.648   9.872 -0.1359 -0.4315 -0.4591
 4186SOL     OW24193   1.178   1.945   1.666  0.4161 -0.6879  0.5147
 4186SOL    HW124194   1.265   1.916   1.638 -0.3091 -1.2181 -1.1839
 4186SOL    HW224195   1.127   1.890   1.607  1.3383 -0.3783 -0.5881
 4187SOL     OW24196   2.504   0.946  16.235 -0.3428 -0.4105 -0.2106
 4187SOL    HW124197   2.555   0.905  16.165 -0.5926 -3.0282  1.1548
 4187SOL    HW224198   2.446   1.001  16.182 -0.9703  0.3176  1.2104
 4188SOL     OW24199   1.325   1.846   4.175  0.4193 -0.2794 -0.1381
 4188SOL    HW124200   1.355   1.937   4.184  3.2245 -1.1519 -0.5415
 4188SOL    HW224201   1.246   1.849   4.228  2.3655 -2.4161  2.8634
 4189SOL     OW24202   2.180   0.263   7.243  0.5652 -0.1233 -0.0635
 4189SOL    HW124203   2.090   0.256   7.213 -0.6498  0.3482  3.3956
 4189SOL    HW224204   2.181   0.359   7.242  1.4345 -0.1267 -0.0604
 4190SOL     OW24205   3.606   1.698   5.223 -0.7491 -0.1707 -0.3681
 4190SOL    HW124206   3.545   1.741   5.284  0.6454 -0.0259  0.9346
 4190SOL    HW224207   3.644   1.639   5.288  0.4794 -0.4860 -1.3911
 4191SOL     OW24208   4.483   4.470   8.253  0.1017 -0.5767 -0.5217
 4191SOL    HW124209   4.442   4.545   8.295 -0.4444 -1.6821  0.8912
 4191SOL    HW224210   4.483   4.408   8.326  1.8540 -0.0429 -0.0699
 4192SOL     OW24211   1.844   3.074   2.954 -0.6565  0.2115 -0.2458
 4192SOL    HW124212   1.874   3.075   3.045  0.2552 -0.7077 -0.5351
 4192SOL    HW224213   1.880   3.155   2.919 -0.5987  0.6578  0.8530
 4193SOL     OW24214   2.714   3.990   0.576  0.8999 -0.3448 -0.0801
 4193SOL    HW124215   2.648   4.014   0.510  0.5579 -0.5092  0.1995
 4193SOL    HW224216   2.740   4.075   0.612 -1.0707  0.6104 -0.9194
 4194SOL     OW24217   3.496   4.637  11.722 -0.4375 -0.1038 -0.2442
 4194SOL    HW124218   3.560   4.703  11.698 -0.7842 -0.0543 -1.0195
 4194SOL    HW224219   3.431   4.647  11.652  0.2244  0.1427 -0.8098
 4195SOL     OW24220   2.499   2.946   3.033 -0.3797  0.1483  0.3055
 4195SOL    HW124221   2.514   3.015   3.097 -0.5980 -0.5159  1.0831
 4195SOL    HW224222   2.509   2.871   3.092 -0.0327 -0.2950 -0.3101
 4196SOL     OW24223   4.652   3.815   9.342 -0.2474  0.3109  0.2980
 4196SOL    HW124224   4.606   3.898   9.334 -1.8059 -0.5833 -0.0388
 4196SOL    HW224225   0.007   3.841   9.325  0.2435 -2.1896 -0.8412
 4197SOL     OW24226   2.843   2.308   9.985  0.9773 -0.1115 -0.2203
 4197SOL    HW124227   2.804   2.231   9.944  0.5840  1.0814 -2.1053
 4197SOL    HW224228   2.766   2.365   9.992 -0.7750 -2.4215 -0.6478
 4198SOL     OW24229   3.263   3.281  15.095  0.3496 -0.3013  0.2757
 4198SOL    HW124230   3.320   3.246  15.027 -0.0728  1.6484 -1.0768
 4198SOL    HW224231   3.290   3.233  15.174 -0.1715 -0.8780  0.1007
 4199SOL     OW24232   1.213   0.692  14.371  0.0010  0.2201  0.2214
 4199SOL    HW124233   1.127   0.656  14.351  0.0209  0.3604 -0.1314
 4199SOL    HW224234   1.259   0.685  14.287 -0.7868 -0.7690 -0.1290
 4200SOL     OW24235   1.807   0.632   9.481  0.7560 -0.3649  0.3667
 4200SOL    HW124236   1.798   0.616   9.387 -0.5902 -0.9826  0.6126
 4200SOL    HW224237   1.890   0.675   9.503 -0.8856  1.9779  1.9205
 4201SOL     OW24238   3.499   0.270   8.080 -0.2187  0.4285  0.5650
 4201SOL    HW124239   3.573   0.322   8.111 -0.4193  2.0070 -1.5648
 4201SOL    HW224240   3.470   0.308   7.997  1.2490 -0.3681 -0.3113
 4202SOL     OW24241   1.201   1.963  16.931  0.2712  0.7684  0.6014
 4202SOL    HW124242   1.260   1.913  16.874 -0.7449  0.0043  0.2096
 4202SOL    HW224243   1.193   2.043  16.880 -2.8636  0.7786  1.1127
 4203SOL     OW24244   1.799   4.316   6.662 -0.5662 -0.0262 -1.1185
 4203SOL    HW124245   1.784   4.356   6.748  1.0412  1.0937 -1.3378
 4203SOL    HW224246   1.893   4.298   6.667  0.0002  3.6702  1.7891
 4204SOL     OW24247   1.643   0.719   2.224  0.6353 -0.0606 -0.1613
 4204SOL    HW124248   1.633   0.639   2.172 -2.2039  1.6326 -2.3061
 4204SOL    HW224249   1.624   0.784   2.155 -3.1665 -0.4835  0.4764
 4205SOL     OW24250   3.307   2.206   5.599  0.1095 -0.4768 -0.3070
 4205SOL    HW124251   3.300   2.202   5.504  1.4778  0.6558 -0.4512
 4205SOL    HW224252   3.313   2.112   5.620 -0.2875 -0.5054 -0.3280
 4206SOL     OW24253   2.889   2.504   9.048  0.5656 -0.1161  0.0783
 4206SOL    HW124254   2.821   2.556   9.004 -0.4773 -1.2416  0.3505
 4206SOL    HW224255   2.868   2.522   9.140 -0.8178  1.6373 -0.5578
 4207SOL     OW24256   4.290   3.271  16.722  0.3311  0.1626  0.3159
 4207SOL    HW124257   4.353   3.229  16.781  1.9010  1.1997 -0.6477
 4207SOL    HW224258   4.222   3.206  16.701 -0.2201  0.7843  0.1657
 4208SOL     OW24259   1.508   1.328   7.884  0.3102 -0.4788  0.0965
 4208SOL    HW124260   1.538   1.289   7.801  2.6350  1.9470 -0.2278
 4208SOL    HW224261   1.590   1.363   7.919  0.4993  1.3893 -2.1853
 4209SOL     OW24262   0.732   2.706   7.561  0.7300 -0.3530  0.5250
 4209SOL    HW124263   0.734   2.614   7.535  0.4912 -0.8408  2.2239
 4209SOL    HW224264   0.708   2.751   7.480  1.4738  1.3106  1.2162
 4210SOL     OW24265   2.763   3.262   9.472 -0.1986  0.1206  0.8563
 4210SOL    HW124266   2.816   3.199   9.424  0.4377 -0.7191  2.6701
 4210SOL    HW224267   2.779   3.344   9.424 -1.9480  0.3741  0.6745
 4211SOL     OW24268   3.013   0.061  13.478 -0.1118  0.2057 -0.1476
 4211SOL    HW124269   2.930   0.068  13.525  0.6305 -0.4041  1.2551
 4211SOL    HW224270   3.066   0.078  13.556  0.2910 -1.1203 -0.1347
 4212SOL     OW24271   4.278   4.346   3.104 -0.6859  0.1987  0.4604
 4212SOL    HW124272   4.245   4.427   3.064  0.9020  0.7509  0.2618
 4212SOL    HW224273   4.361   4.377   3.142 -1.0279  2.6846 -0.7970
 4213SOL     OW24274   1.646   0.845   7.571  0.2260 -0.3251  0.0086
 4213SOL    HW124275   1.598   0.786   7.629  0.6215 -0.0216  0.6584
 4213SOL    HW224276   1.726   0.803   7.541  0.5191 -0.1375  0.5209
 4214SOL     OW24277   3.386   2.631   8.993 -0.3495 -0.3963 -0.2954
 4214SOL    HW124278   3.395   2.689   8.917 -1.9790 -0.9553 -0.9101
 4214SOL    HW224279   3.296   2.654   9.014 -0.4101 -2.2086  1.3839
 4215SOL     OW24280   3.884   1.658  12.251  0.6706 -0.3140  0.0998
 4215SOL    HW124281   3.842   1.591  12.305  1.2302 -0.7889 -0.0432
 4215SOL    HW224282   3.977   1.641  12.267  0.5567 -0.4800  0.5892
 4216SOL     OW24283   2.747   0.145   0.602  0.4499 -0.1151 -0.3237
 4216SOL    HW124284   2.725   0.232   0.636 -2.3562 -1.0495  0.1819
 4216SOL    HW224285   2.672   0.091   0.626  2.3755 -2.8239 -0.4414
 4217SOL     OW24286   3.775   2.682   7.964 -0.3169  0.2786  0.1837
 4217SOL    HW124287   3.752   2.710   8.052 -3.6666 -0.9443 -0.3153
 4217SOL    HW224288   3.689   2.684   7.923 -1.3328 -2.2274  2.1567
 4218SOL     OW24289   2.564   4.502   2.626  0.0838 -0.4624 -1.0432
 4218SOL    HW124290   2.605   4.458   2.551 -0.0221 -3.2366  0.5406
 4218SOL    HW224291   2.607   4.588   2.626 -1.0384  0.0940 -1.2972
 4219SOL     OW24292   4.722   3.663   7.086 -0.4758  0.7618  0.3453
 4219SOL    HW124293   0.053   3.679   7.153  0.3690  0.1357 -0.3460
 4219SOL    HW224294   0.039   3.622   7.018 -2.5211 -1.2913 -0.0073
 4220SOL     OW24295   1.954   3.627  17.712  0.2028 -0.0270  0.2938
 4220SOL    HW124296   2.017   3.556  17.728  0.2309 -0.2509 -0.8428
 4220SOL    HW224297   1.907   3.592  17.636  1.7544 -0.3470 -0.5197
 4221SOL     OW24298   0.373   3.412  14.223 -0.0083  0.7387  1.0019
 4221SOL    HW124299   0.327   3.446  14.300 -2.0668 -2.3658  1.1508
 4221SOL    HW224300   0.374   3.485  14.161 -0.2218  0.8928  1.1781
 4222SOL     OW24301   3.807   0.075   2.286  0.0053 -0.6444 -0.0267
 4222SOL    HW124302   3.748   0.151   2.284 -0.4897 -1.0356 -0.2330
 4222SOL    HW224303   3.793   0.033   2.201 -0.5755 -3.0509  1.2799
 4223SOL     OW24304   1.321   1.252  12.237 -0.2503  1.1557 -0.2668
 4223SOL    HW124305   1.349   1.192  12.306 -0.6802  0.0795 -1.0201
 4223SOL    HW224306   1.372   1.329  12.262  4.5736 -1.8787 -0.6783
 4224SOL     OW24307   4.623   1.466   2.923 -0.2815 -0.0535 -0.5545
 4224SOL    HW124308   4.530   1.483   2.908 -0.8067 -2.2080  0.2223
 4224SOL    HW224309   4.669   1.527   2.866  2.1920  0.2639  1.7641
 4225SOL     OW24310   4.366   1.920   5.961  0.5179 -0.0672  0.8665
 4225SOL    HW124311   4.442   1.865   5.981  1.0500  0.4998  0.3795
 4225SOL    HW224312   4.416   1.998   5.937  1.3591 -0.4221  1.4360
 4226SOL     OW24313   3.938   4.610   2.015  0.3306  0.5883  0.8273
 4226SOL    HW124314   3.964   4.538   2.073 -1.0775 -0.2228  0.4467
 4226SOL    HW224315   3.848   4.631   2.038  0.6872  2.1833  0.7743
 4227SOL     OW24316   1.303   2.964  17.030  0.6867  0.4057  0.5289
 4227SOL    HW124317   1.353   2.950  17.110 -0.2378  1.4689  1.3008
 4227SOL    HW224318   1.212   2.970  17.060  0.8926  0.5735  1.1218
 4228SOL     OW24319   3.113   2.506   4.073 -0.5887  0.1462 -0.4818
 4228SOL    HW124320   3.108   2.601   4.072  1.5027  0.2503 -0.8184
 4228SOL    HW224321   3.157   2.497   4.158 -1.6307 -0.0280  0.0554
 4229SOL     OW24322   4.493   0.469   7.191  0.1849  0.0405 -0.0181
 4229SOL    HW124323   4.514   0.562   7.198 -0.9872  0.5059 -2.6647
 4229SOL    HW224324   4.420   0.465   7.129 -1.2464  2.5213  1.4939
 4230SOL     OW24325   4.454   3.705   7.126  0.2275 -0.1845  0.3556
 4230SOL    HW124326   4.458   3.772   7.195 -0.9893 -0.0733  0.3242
 4230SOL    HW224327   4.546   3.687   7.109  0.0468 -0.1337 -0.6619
 4231SOL     OW24328   0.524   4.009   8.629  0.0213 -0.0414  0.6787
 4231SOL    HW124329   0.519   3.913   8.625  0.2097 -0.0434  0.4953
 4231SOL    HW224330   0.567   4.016   8.714 -0.5190 -0.3223  0.9753
 4232SOL     OW24331   1.247   1.330   5.356  0.1514  0.0630  0.3890
 4232SOL    HW124332   1.341   1.316   5.349 -0.1048 -1.9669  1.0100
 4232SOL    HW224333   1.206   1.248   5.384  0.6689  0.1799  1.4999
 4233SOL     OW24334   2.949   1.979   4.179 -0.0563  0.1999  0.2452
 4233SOL    HW124335   3.006   2.055   4.175 -3.0731  2.4806  0.3345
 4233SOL    HW224336   2.943   1.956   4.087 -3.3166 -1.8914  0.9522
 4234SOL     OW24337   2.369   2.601   7.337 -0.2699  0.0252 -0.3386
 4234SOL    HW124338   2.433   2.610   7.408  0.1838  2.5142 -1.0500
 4234SOL    HW224339   2.315   2.678   7.356 -0.7133 -0.6985  1.3444
 4235SOL     OW24340   4.152   3.245   7.078  0.3242 -0.1461 -0.2649
 4235SOL    HW124341   4.113   3.320   7.034  0.5726  0.0613 -0.1338
 4235SOL    HW224342   4.228   3.290   7.114  0.2658 -0.4513  0.2490
 4236SOL     OW24343   3.357   0.120   5.086  0.6644 -0.0163 -0.1390
 4236SOL    HW124344   3.291   0.057   5.115  1.9301 -0.8661  0.8924
 4236SOL    HW224345   3.308   0.160   5.014  0.6387 -1.4448 -0.9094
 4237SOL     OW24346   0.827   0.602  14.529  0.9304  0.4854  0.0722
 4237SOL    HW124347   0.868   0.600  14.616  0.1197 -1.9649  0.4234
 4237SOL    HW224348   0.737   0.625  14.554  1.3405 -0.5837  2.6312
 4238SOL     OW24349   2.218   2.117   4.087  0.1812  0.5236 -0.3771
 4238SOL    HW124350   2.225   2.021   4.081 -0.0328  0.4268  0.9657
 4238SOL    HW224351   2.127   2.137   4.107  0.0037  0.9769 -1.6270
 4239SOL     OW24352   1.962   2.194  11.476 -0.4164  0.0262 -0.2584
 4239SOL    HW124353   1.893   2.200  11.409  0.4947  0.8401 -1.1311
 4239SOL    HW224354   1.962   2.282  11.515  2.1985  0.6961 -1.7478
 4240SOL     OW24355   3.483   1.638   7.527 -0.4681 -0.1274 -0.2468
 4240SOL    HW124356   3.574   1.656   7.502 -0.0004 -1.0839  0.7512
 4240SOL    HW224357   3.501   1.584   7.605 -2.8196  1.7831  1.6040
 4241SOL     OW24358   2.263   0.742  16.077  0.2257  0.0715 -0.7346
 4241SOL    HW124359   2.288   0.816  16.132 -0.4245 -0.6206  0.4970
 4241SOL    HW224360   2.270   0.669  16.139 -1.9114 -1.3751 -2.2115
 4242SOL     OW24361   2.742   4.040   5.716  0.0180  0.2778  0.0068
 4242SOL    HW124362   2.678   4.111   5.714 -1.3543 -1.0407 -2.2206
 4242SOL    HW224363   2.821   4.093   5.730  0.5400 -0.6206  0.3948
 4243SOL     OW24364   4.066   1.223   2.455 -0.1681  0.4180 -0.2013
 4243SOL    HW124365   4.083   1.289   2.522 -1.3192  1.5416 -1.0379
 4243SOL    HW224366   4.114   1.144   2.481 -3.8007 -1.4469  0.8509
 4244SOL     OW24367   0.908   1.567   7.498 -0.3388 -0.1171 -0.2020
 4244SOL    HW124368   0.933   1.596   7.585 -1.9577  0.8589 -0.0619
 4244SOL    HW224369   0.877   1.478   7.510 -2.7386  0.6742 -0.4172
 4245SOL     OW24370   2.886   0.209   1.434  0.0992  0.4161 -0.3943
 4245SOL    HW124371   2.967   0.199   1.384  0.1894 -1.0844  0.0574
 4245SOL    HW224372   2.833   0.132   1.415 -0.4644  0.3104  1.6645
 4246SOL     OW24373   4.622   0.617  17.361  0.2158 -0.4892  0.3592
 4246SOL    HW124374   4.666   0.681  17.416  1.8335 -1.4631  0.1935
 4246SOL    HW224375   4.535   0.656  17.354  0.3092 -0.6431 -1.8076
 4247SOL     OW24376   3.897   0.670   3.019 -0.1995  0.2805 -0.2082
 4247SOL    HW124377   3.981   0.667   3.065 -1.4551  1.1109  2.1515
 4247SOL    HW224378   3.930   0.671   2.929 -0.3564 -1.7910 -0.3053
 4248SOL     OW24379   0.540   2.204   3.137  0.7795  0.2395  0.2768
 4248SOL    HW124380   0.458   2.160   3.161  0.4186  1.8062  1.8941
 4248SOL    HW224381   0.609   2.143   3.164 -1.2889 -1.5491  1.5829
 4249SOL     OW24382   3.802   4.331   9.092  0.1729  0.1522  0.5252
 4249SOL    HW124383   3.883   4.282   9.081 -0.1839 -0.0683 -1.0863
 4249SOL    HW224384   3.808   4.392   9.018  0.3016 -2.6623 -1.7952
 4250SOL     OW24385   2.363   2.001   7.323  0.4273  0.0583  0.0130
 4250SOL    HW124386   2.451   1.966   7.324  0.8281  1.0448 -0.2977
 4250SOL    HW224387   2.324   1.980   7.408  1.7714 -0.7076  0.4345
 4251SOL     OW24388   0.412   1.006   6.042  0.3571 -0.2517  0.3316
 4251SOL    HW124389   0.316   1.007   6.043  0.3594 -0.3286  1.0218
 4251SOL    HW224390   0.428   0.929   6.096  1.2279  1.8682  3.1578
 4252SOL     OW24391   1.034   2.331   5.413 -0.1117  0.6685 -0.1846
 4252SOL    HW124392   1.087   2.289   5.481 -0.9989 -0.5063 -0.2106
 4252SOL    HW224393   1.082   2.411   5.394 -0.3480  1.1526  1.2469
 4253SOL     OW24394   0.002   1.650  10.066 -0.3034 -0.2286 -0.4773
 4253SOL    HW124395   0.068   1.687  10.125  0.8421 -3.0966  0.0485
 4253SOL    HW224396   0.033   1.687   9.983 -3.0093 -1.1461 -1.9228
 4254SOL     OW24397   1.580   0.215   3.616  0.6686 -0.7638 -0.6054
 4254SOL    HW124398   1.573   0.159   3.694 -2.3379 -2.8868 -2.4017
 4254SOL    HW224399   1.670   0.247   3.616  1.2648 -2.4539  3.3282
 4255SOL     OW24400   2.277   1.154   4.515  0.1433  0.1114  0.5015
 4255SOL    HW124401   2.352   1.196   4.557  0.6325 -0.6700  0.4122
 4255SOL    HW224402   2.276   1.204   4.434 -1.5649 -0.3591  0.2247
 4256SOL     OW24403   0.010   3.533   3.911 -0.0432  0.3631  0.2393
 4256SOL    HW124404   4.685   3.464   3.935  0.9079 -0.4410  0.3431
 4256SOL    HW224405   0.048   3.495   3.832  2.2345  1.2918  0.8678
 4257SOL     OW24406   1.953   0.197   8.174  0.0915 -0.1843 -0.3838
 4257SOL    HW124407   2.019   0.206   8.106 -0.1837 -1.2408 -0.7923
 4257SOL    HW224408   1.989   0.118   8.216 -0.6429 -1.8276 -2.8309
 4258SOL     OW24409   2.560   3.161  12.595 -0.0864 -0.0963  0.3873
 4258SOL    HW124410   2.622   3.229  12.621  0.4783 -0.6080  0.3595
 4258SOL    HW224411   2.580   3.152  12.502 -0.5656 -0.6623  0.3345
 4259SOL     OW24412   1.038   1.328   6.682 -0.3613  0.1227 -0.1307
 4259SOL    HW124413   1.068   1.403   6.733 -2.4837 -0.1007  1.4444
 4259SOL    HW224414   0.975   1.372   6.625 -4.5539 -1.5822  3.1979
 4260SOL     OW24415   1.195   3.389  10.748  0.1052 -0.0314  0.5425
 4260SOL    HW124416   1.254   3.397  10.673 -1.7211 -2.5745 -1.1826
 4260SOL    HW224417   1.188   3.483  10.765  0.8074 -0.2929  2.2361
 4261SOL     OW24418   0.717   1.953   5.813  0.7789  0.2564 -0.1870
 4261SOL    HW124419   0.652   1.915   5.754 -0.4985  1.1832  0.6184
 4261SOL    HW224420   0.722   1.876   5.871 -0.8203 -0.8209 -1.4584
 4262SOL     OW24421   0.440   0.231   5.388  0.3000  0.5967  0.7117
 4262SOL    HW124422   0.433   0.194   5.476  1.5232 -1.3538 -0.0363
 4262SOL    HW224423   0.466   0.152   5.342  0.2937  1.0978 -0.1512
 4263SOL     OW24424   0.927   3.072   5.322  0.1971  0.3520 -0.3153
 4263SOL    HW124425   0.935   3.161   5.356 -0.8663  0.0855  0.6095
 4263SOL    HW224426   1.006   3.064   5.268  0.6257  0.9744  0.2274
 4264SOL     OW24427   2.302   3.416  12.385 -0.0821  0.1943 -0.1988
 4264SOL    HW124428   2.381   3.448  12.341  1.3756 -0.3144  2.0421
 4264SOL    HW224429   2.333   3.333  12.420 -0.7083  1.4389  3.3500
 4265SOL     OW24430   1.287   0.654   2.183 -0.0479 -0.0923 -0.3025
 4265SOL    HW124431   1.308   0.697   2.266 -1.5973  0.7854 -0.3697
 4265SOL    HW224432   1.372   0.617   2.160 -0.2395  0.6577 -2.1964
 4266SOL     OW24433   4.293   2.308   3.696  0.1556  0.3386 -0.1916
 4266SOL    HW124434   4.346   2.387   3.699  0.7261  0.0014 -1.3418
 4266SOL    HW224435   4.257   2.323   3.608  0.3015 -0.1175 -0.3280
 4267SOL     OW24436   1.636   1.977   7.446 -0.2538  0.5304 -0.1630
 4267SOL    HW124437   1.693   2.040   7.401 -0.4390  0.5752 -0.3378
 4267SOL    HW224438   1.553   2.014   7.416 -1.0795 -1.7042 -0.6024
 4268SOL     OW24439   4.095   3.526   2.235 -0.1818 -0.3324  0.3343
 4268SOL    HW124440   4.093   3.532   2.331  2.3701  0.6765  0.3259
 4268SOL    HW224441   4.011   3.480   2.229 -0.5587  0.5407 -1.0593
 4269SOL     OW24442   0.364   2.330   4.884 -0.6957 -0.5500  0.0978
 4269SOL    HW124443   0.288   2.307   4.937  0.1841 -4.4033 -0.3171
 4269SOL    HW224444   0.424   2.255   4.882 -0.6582 -0.4963 -0.6173
 4270SOL     OW24445   3.114   3.980  15.839  0.2305 -0.0613 -0.2630
 4270SOL    HW124446   3.038   3.938  15.797  1.6021 -1.9227 -0.9061
 4270SOL    HW224447   3.134   4.048  15.776  1.5919 -1.0187 -0.8707
 4271SOL     OW24448   0.027   3.833   7.408 -0.1311  0.1266  0.1930
 4271SOL    HW124449   0.045   3.751   7.453 -1.5475 -0.5280 -0.4359
 4271SOL    HW224450   0.080   3.892   7.462  1.5154  1.9853 -3.3742
 4272SOL     OW24451   1.843   0.070  12.940  0.4098 -0.0500 -0.3914
 4272SOL    HW124452   1.833   0.045  12.848 -0.2697  0.0254 -0.3398
 4272SOL    HW224453   1.751   0.079  12.964  1.1522  1.0358  1.9825
 4273SOL     OW24454   3.937   0.936   8.048  0.5204 -0.4216 -0.2591
 4273SOL    HW124455   4.029   0.911   8.033  0.5861 -0.1773 -0.2663
 4273SOL    HW224456   3.910   0.949   7.957  1.1101 -0.4730 -0.4459
 4274SOL     OW24457   4.622   1.841   9.125  0.2098 -0.2955  0.0399
 4274SOL    HW124458   4.653   1.786   9.197 -0.4756  2.2115  2.2382
 4274SOL    HW224459   4.703   1.842   9.074 -0.0803  0.0687 -0.4104
 4275SOL     OW24460   1.031   2.797   8.279 -0.5003  0.0927 -0.2731
 4275SOL    HW124461   1.124   2.784   8.298 -0.2711  2.5201  0.2963
 4275SOL    HW224462   0.998   2.707   8.272 -2.4636  0.8311 -0.5207
 4276SOL     OW24463   2.499   0.892  10.431 -0.1559 -0.2226  0.2708
 4276SOL    HW124464   2.470   0.853  10.348  0.9115  1.4771 -0.8930
 4276SOL    HW224465   2.431   0.874  10.497 -2.0087 -0.9272 -1.8346
 4277SOL     OW24466   2.380   1.771   5.423  0.3853 -0.3300 -0.4531
 4277SOL    HW124467   2.300   1.792   5.376  0.3696 -0.0246 -0.2937
 4277SOL    HW224468   2.442   1.842   5.403 -0.6471  2.2122  5.3829
 4278SOL     OW24469   2.438   4.229   3.993 -1.2051 -0.1587 -0.0935
 4278SOL    HW124470   2.425   4.165   4.063 -0.7021 -0.4720 -0.2839
 4278SOL    HW224471   2.514   4.278   4.023 -1.1136  0.1813 -0.8729
 4279SOL     OW24472   0.266   2.502   0.621 -0.2398 -0.2738 -0.5435
 4279SOL    HW124473   0.221   2.586   0.619 -1.1384 -0.7626 -0.9949
 4279SOL    HW224474   0.310   2.506   0.706 -1.8445  1.1627  0.2227
 4280SOL     OW24475   3.670   3.986   8.444  0.0874  0.1487  0.0474
 4280SOL    HW124476   3.682   3.945   8.359  0.8842  2.1601 -0.8114
 4280SOL    HW224477   3.734   3.940   8.498  0.4676 -2.1381 -2.3473
 4281SOL     OW24478   3.953   1.258   3.906 -0.0470 -0.2633  0.9254
 4281SOL    HW124479   4.001   1.205   3.970  4.1895 -0.5183 -2.4419
 4281SOL    HW224480   3.968   1.351   3.925  0.6595  0.1480 -1.7504
 4282SOL     OW24481   1.263   1.952  17.186  0.2297 -0.1352 -0.0929
 4282SOL    HW124482   1.354   1.938  17.161  0.4000  1.5175 -0.4022
 4282SOL    HW224483   1.221   1.957  17.101  1.3100 -0.5322 -0.6452
 4283SOL     OW24484   1.761   2.422   0.941 -0.0549 -0.1683 -0.1340
 4283SOL    HW124485   1.716   2.507   0.937 -1.4824 -0.8948  0.2592
 4283SOL    HW224486   1.760   2.401   0.848  1.6407 -3.2115  0.5189
 4284SOL     OW24487   3.126   0.370   5.951  0.3853  1.1993 -0.0008
 4284SOL    HW124488   3.031   0.372   5.943  0.3428  0.4954  0.3737
 4284SOL    HW224489   3.141   0.409   6.037  3.6215 -0.2436  0.0941
 4285SOL     OW24490   2.402   0.269  14.966  0.6193 -0.1441 -0.2976
 4285SOL    HW124491   2.490   0.279  15.002  0.1032  1.0964  0.6126
 4285SOL    HW224492   2.349   0.227  15.034 -1.2657  0.1715 -1.5693
 4286SOL     OW24493   3.320   2.297   0.204  0.7555  0.1041 -0.3104
 4286SOL    HW124494   3.370   2.230   0.251  0.2528 -0.6278 -0.8363
 4286SOL    HW224495   3.279   2.340   0.279 -2.1156 -1.8253 -0.7689
 4287SOL     OW24496   1.378   1.982  17.618 -0.6939 -0.3427 -0.0070
 4287SOL    HW124497   1.398   1.923  17.545 -1.0271  0.7316 -0.9695
 4287SOL    HW224498   1.436   1.943  17.684  1.6662  0.9574 -1.3079
 4288SOL     OW24499   0.822   0.379   1.236 -0.3423 -0.0478  0.3929
 4288SOL    HW124500   0.814   0.309   1.301 -4.3257  0.7998  0.8397
 4288SOL    HW224501   0.790   0.450   1.293  0.9663 -0.8397  2.1200
 4289SOL     OW24502   0.348   4.322   2.550 -0.1003  0.1358 -0.1223
 4289SOL    HW124503   0.429   4.370   2.568 -0.0336 -0.0348  0.0268
 4289SOL    HW224504   0.296   4.387   2.502  0.7099  1.3835  0.7093
 4290SOL     OW24505   3.628   2.295   6.347  0.0834  0.3389  0.3319
 4290SOL    HW124506   3.676   2.238   6.407  0.2284  1.2724  1.1050
 4290SOL    HW224507   3.669   2.380   6.363  0.8705 -0.3884  2.2239
 4291SOL     OW24508   2.403   2.316   7.847  0.2879 -0.3017  0.2218
 4291SOL    HW124509   2.416   2.254   7.918 -0.4897 -1.0237 -0.2738
 4291SOL    HW224510   2.317   2.294   7.812  0.4635  3.0745 -2.3028
 4292SOL     OW24511   1.385   0.258   2.399  0.0882 -0.7578  0.3488
 4292SOL    HW124512   1.399   0.230   2.489  2.1016  0.0612  0.2821
 4292SOL    HW224513   1.420   0.347   2.401 -0.9460 -0.2998 -1.8303
 4293SOL     OW24514   2.561   2.519   0.382  0.1825 -0.0941  0.0615
 4293SOL    HW124515   2.583   2.444   0.437 -0.6845  0.3007  0.9506
 4293SOL    HW224516   2.522   2.474   0.307  0.7858 -1.0964  0.3425
 4294SOL     OW24517   0.066   2.318   9.691 -0.1182 -0.2258  0.0445
 4294SOL    HW124518   4.709   2.327   9.668 -1.0336  0.7607  4.0798
 4294SOL    HW224519   0.101   2.324   9.603 -0.9155  2.0138 -0.1261
 4295SOL     OW24520   1.104   1.941   7.086  0.2898 -0.0688  0.2673
 4295SOL    HW124521   1.185   1.889   7.092  0.0101 -0.5916 -0.6036
 4295SOL    HW224522   1.058   1.896   7.016 -0.2954  1.7080 -0.4772
 4296SOL     OW24523   2.190   3.747  12.070 -0.0182  0.2302 -0.7816
 4296SOL    HW124524   2.187   3.651  12.074 -0.4225  0.2650 -0.2357
 4296SOL    HW224525   2.161   3.756  12.161 -0.0322 -0.3244 -0.7290
 4297SOL     OW24526   3.798   0.356   3.701  0.3103  0.1473 -0.2840
 4297SOL    HW124527   3.718   0.330   3.748 -0.1546  1.6988 -0.2133
 4297SOL    HW224528   3.793   0.310   3.617 -2.1185  0.0219 -0.0806
 4298SOL     OW24529   3.605   1.634   9.328 -0.2750 -0.3710 -0.3530
 4298SOL    HW124530   3.540   1.664   9.264  0.4484  0.3533 -0.7508
 4298SOL    HW224531   3.650   1.719   9.326 -0.2791 -0.3128  2.0150
 4299SOL     OW24532   2.076   4.561   6.604 -0.2536 -0.1845  0.4465
 4299SOL    HW124533   2.055   4.477   6.645 -0.5675 -0.9604 -1.3044
 4299SOL    HW224534   2.025   4.617   6.662 -1.2221  1.5624 -2.1173
 4300SOL     OW24535   0.521   4.235   3.602 -0.0958  0.2967 -0.0085
 4300SOL    HW124536   0.587   4.166   3.609 -1.2894 -0.9480 -1.1517
 4300SOL    HW224537   0.441   4.183   3.594 -1.3801  2.1464  0.6985
 4301SOL     OW24538   3.122   1.927   7.432  0.1691 -0.3378 -0.4878
 4301SOL    HW124539   3.193   1.869   7.403  0.3423  0.3891 -1.5589
 4301SOL    HW224540   3.074   1.869   7.490 -2.2083 -0.0307 -2.1552
 4302SOL     OW24541   0.119   3.440   8.060 -0.2682 -0.0105  0.9675
 4302SOL    HW124542   0.107   3.459   8.153 -0.6656  1.3567  0.6374
 4302SOL    HW224543   0.131   3.345   8.065 -0.7440 -0.1785 -0.9353
 4303SOL     OW24544   1.420   1.492  13.964  0.5091 -0.1526 -0.1933
 4303SOL    HW124545   1.343   1.468  13.911  0.3321 -2.0695  0.9253
 4303SOL    HW224546   1.469   1.411  13.953  0.2506 -0.2145 -0.9465
 4304SOL     OW24547   0.760   0.784   9.485 -0.1890 -0.4963 -0.2973
 4304SOL    HW124548   0.852   0.784   9.511  0.0197  2.6679 -1.0971
 4304SOL    HW224549   0.718   0.821   9.563  0.4810  0.4880 -0.4062
 4305SOL     OW24550   4.725   2.928  16.931 -0.1381 -0.2789  0.0080
 4305SOL    HW124551   4.726   2.845  16.979  1.2785  0.3446  1.0433
 4305SOL    HW224552   4.633   2.955  16.937 -0.6899 -2.2238  0.3191
 4306SOL     OW24553   4.126   3.827   5.061 -0.4969  0.2853  0.1158
 4306SOL    HW124554   4.160   3.866   5.141 -0.5186  0.5539 -0.0049
 4306SOL    HW224555   4.035   3.809   5.085  1.1103 -3.1145  3.6313
 4307SOL     OW24556   0.963   4.239   7.733 -0.3861 -0.0600  0.7760
 4307SOL    HW124557   0.925   4.157   7.766 -0.3449 -0.6843 -0.7203
 4307SOL    HW224558   1.046   4.245   7.779 -0.2343  1.2842  0.3238
 4308SOL     OW24559   0.005   1.022   5.334  0.2467  0.0870  0.5392
 4308SOL    HW124560   0.028   0.998   5.244 -0.9308  2.8070 -0.4903
 4308SOL    HW224561   0.020   0.938   5.378  0.6156  0.5711  1.3395
 4309SOL     OW24562   2.972   1.875   6.829  0.0197 -0.3278  0.6560
 4309SOL    HW124563   3.034   1.820   6.780 -0.2320  0.0440 -0.0866
 4309SOL    HW224564   3.024   1.951   6.855 -1.1586  0.5941  0.3095
 4310SOL     OW24565   2.373   0.769  10.225  0.4003 -0.3051 -0.5223
 4310SOL    HW124566   2.351   0.779  10.133 -1.1155 -1.0645 -0.2318
 4310SOL    HW224567   2.342   0.679  10.229 -0.5178  0.0630  0.6580
 4311SOL     OW24568   1.462   3.104   5.281 -0.1067 -0.2349  0.2311
 4311SOL    HW124569   1.431   3.085   5.370  0.9809  0.5304  0.7650
 4311SOL    HW224570   1.409   3.179   5.255 -0.7428 -0.6186  0.4157
 4312SOL     OW24571   2.062   1.576   4.259  0.3400 -0.4813  0.1314
 4312SOL    HW124572   2.090   1.534   4.340  1.9636 -1.4759 -0.9549
 4312SOL    HW224573   2.137   1.589   4.202  1.7568 -0.8934  1.9218
 4313SOL     OW24574   1.064   0.681   1.756  0.1040  0.5088  0.2245
 4313SOL    HW124575   1.068   0.711   1.847 -0.4998 -0.8128  0.6824
 4313SOL    HW224576   1.139   0.728   1.720 -0.3485  1.0566 -0.0042
 4314SOL     OW24577   0.225   4.714   6.626 -0.3030 -0.7585 -0.1629
 4314SOL    HW124578   0.202   4.694   6.717  2.0828  0.5622  0.7404
 4314SOL    HW224579   0.310   0.023   6.625 -0.8066  0.2045 -0.3497
 4315SOL     OW24580   1.788   4.191   5.241 -0.3333  0.7051  0.1271
 4315SOL    HW124581   1.771   4.180   5.335  0.3463 -0.1962  0.1443
 4315SOL    HW224582   1.710   4.230   5.200  0.5997  1.4666 -0.9397
 4316SOL     OW24583   0.705   3.656   0.569 -0.3592 -0.3804  0.6367
 4316SOL    HW124584   0.682   3.650   0.661 -1.8578 -0.4586  0.2601
 4316SOL    HW224585   0.669   3.579   0.523  0.9830 -0.2952 -0.5843
 4317SOL     OW24586   0.399   1.952   8.797 -0.1239  0.1854 -0.0413
 4317SOL    HW124587   0.448   1.870   8.807 -0.8520 -0.2247  0.1822
 4317SOL    HW224588   0.368   1.951   8.707 -1.3465  0.6694  0.3722
 4318SOL     OW24589   2.585   4.713   6.866  0.1722 -1.0022 -0.1215
 4318SOL    HW124590   2.629   4.639   6.907  0.7265  0.0837  1.2738
 4318SOL    HW224591   2.501   4.709   6.912  0.0841 -0.0036 -0.1816
 4319SOL     OW24592   1.624   0.683   5.193 -0.4270 -0.0068  0.5315
 4319SOL    HW124593   1.716   0.686   5.165 -1.3575 -3.4916 -3.0318
 4319SOL    HW224594   1.626   0.613   5.257 -0.4727 -1.5310 -1.1267
 4320SOL     OW24595   0.867   1.164   0.954 -0.1153 -0.0285 -0.1681
 4320SOL    HW124596   0.905   1.120   0.878 -0.9505 -2.8490  1.0267
 4320SOL    HW224597   0.904   1.111   1.025 -0.7455 -0.8739 -0.4622
 4321SOL     OW24598   4.607   3.075   0.698 -0.4382  0.3324 -0.3391
 4321SOL    HW124599   4.534   3.053   0.757  2.0537 -1.8963  1.9045
 4321SOL    HW224600   4.577   3.103   0.612 -2.5075  1.5278  0.7684
 4322SOL     OW24601   2.186   2.521   8.183  0.6667 -0.2719  0.3615
 4322SOL    HW124602   2.147   2.497   8.098  3.2098  1.6761 -1.3467
 4322SOL    HW224603   2.116   2.582   8.207 -0.2872 -1.0486 -0.4433
 4323SOL     OW24604   1.149   4.176   3.153 -0.4567 -1.2152  0.2893
 4323SOL    HW124605   1.057   4.152   3.167  0.0994 -1.2287  3.9796
 4323SOL    HW224606   1.137   4.271   3.163  0.8459 -1.1424  1.2079
 4324SOL     OW24607   2.158   4.356   8.082 -0.5330 -0.3134  0.1820
 4324SOL    HW124608   2.145   4.332   8.174  1.6349 -1.4620  0.1989
 4324SOL    HW224609   2.227   4.305   8.040 -1.2554 -1.9401  0.9874
 4325SOL     OW24610   0.709   4.704   2.068  0.0964  0.3263  0.1425
 4325SOL    HW124611   0.639   4.640   2.079 -2.8185  3.4403 -0.1858
 4325SOL    HW224612   0.760   4.688   2.147 -1.9324  2.3661  1.8799
 4326SOL     OW24613   3.479   0.933   4.768  0.4225  0.2520  0.1373
 4326SOL    HW124614   3.540   0.870   4.807 -1.0268 -1.5347 -0.5083
 4326SOL    HW224615   3.490   0.924   4.674 -1.7813  2.9370 -0.3892
 4327SOL     OW24616   2.593   3.646   0.747 -0.1867  0.4465  0.0469
 4327SOL    HW124617   2.603   3.720   0.807 -1.9006  0.3891  0.4104
 4327SOL    HW224618   2.662   3.666   0.684 -0.8136 -2.1870 -1.4423
 4328SOL     OW24619   4.709   2.937  10.342 -0.1940  0.2477  0.2633
 4328SOL    HW124620   4.655   2.868  10.381 -0.1150 -1.2276 -2.1761
 4328SOL    HW224621   0.014   2.973  10.420 -0.4369  1.8322 -0.3406
 4329SOL     OW24622   1.060   4.450   3.107 -0.2679  0.0338  0.0751
 4329SOL    HW124623   1.062   4.533   3.058 -1.6969 -0.5477 -0.9683
 4329SOL    HW224624   0.973   4.456   3.147 -1.7023 -0.1957 -3.0099
 4330SOL     OW24625   3.926   1.919   8.972 -0.0196  0.0449 -0.2076
 4330SOL    HW124626   3.918   1.841   8.918 -2.1649 -0.6606  1.1407
 4330SOL    HW224627   3.954   1.881   9.056  0.1844 -1.0041 -0.7605
 4331SOL     OW24628   4.347   0.881   6.955  0.0093  0.2066 -0.1849
 4331SOL    HW124629   4.282   0.825   6.997 -1.5036  1.4034 -0.9431
 4331SOL    HW224630   4.327   0.856   6.865 -2.9371 -1.3427  0.8964
 4332SOL     OW24631   2.939   3.324   9.014 -0.1619  0.6180  0.3731
 4332SOL    HW124632   2.910   3.415   9.003  0.0872  0.8734  1.8297
 4332SOL    HW224633   2.874   3.280   8.960 -1.5643  1.1074  1.6926
 4333SOL     OW24634   2.403   1.305   5.182 -0.5861 -0.2996  0.1441
 4333SOL    HW124635   2.375   1.369   5.247  1.1566 -0.9196  1.5027
 4333SOL    HW224636   2.407   1.363   5.106 -3.0507  0.3986  0.5407
 4334SOL     OW24637   1.105   4.473   7.997 -0.4797 -0.0409 -0.7444
 4334SOL    HW124638   1.130   4.392   7.952 -1.5870 -0.3491 -0.8061
 4334SOL    HW224639   1.174   4.489   8.061  0.9220 -1.7204 -1.8525
 4335SOL     OW24640   1.681   3.385   7.552 -0.3941  0.1263 -0.5005
 4335SOL    HW124641   1.722   3.310   7.508 -0.2229  0.1599 -0.3983
 4335SOL    HW224642   1.737   3.454   7.518  2.0066 -1.6842 -0.2517
 4336SOL     OW24643   2.038   1.712   7.185 -0.4419  0.1954 -0.8815
 4336SOL    HW124644   2.114   1.654   7.176 -2.0928 -1.7738 -2.1483
 4336SOL    HW224645   2.048   1.740   7.276  0.8723  2.7027 -1.8054
 4337SOL     OW24646   3.743   3.099   3.040 -0.0556 -0.6101 -0.0220
 4337SOL    HW124647   3.757   3.120   3.133 -1.8240 -0.9837  0.3293
 4337SOL    HW224648   3.686   3.169   3.009  1.8289  0.2847 -1.4544
 4338SOL     OW24649   3.873   1.348   3.117 -0.1513  0.5189 -0.1007
 4338SOL    HW124650   3.807   1.358   3.186  0.1986  0.8521  0.1881
 4338SOL    HW224651   3.868   1.431   3.071 -0.9473  0.0610 -0.8390
 4339SOL     OW24652   3.394   0.921   3.488  0.5728 -0.2318 -0.0090
 4339SOL    HW124653   3.343   0.873   3.553 -1.0445  1.3831 -0.0706
 4339SOL    HW224654   3.353   0.885   3.409 -0.9315  1.2509  0.0852
 4340SOL     OW24655   4.056   1.626   1.978 -0.4034  0.9412 -0.0155
 4340SOL    HW124656   4.105   1.689   2.031 -0.8742  0.1232  1.3801
 4340SOL    HW224657   3.981   1.681   1.954  0.1495  0.7132 -2.3078
 4341SOL     OW24658   3.523   4.197   2.524 -0.1604  0.3748  0.6142
 4341SOL    HW124659   3.546   4.245   2.603  0.0123 -1.6604  1.7798
 4341SOL    HW224660   3.612   4.197   2.488  0.1413 -0.7522  1.3593
 4342SOL     OW24661   4.654   3.567   5.178 -0.0405  0.1052 -0.6029
 4342SOL    HW124662   4.648   3.653   5.218 -0.9834  0.4635 -1.4983
 4342SOL    HW224663   4.685   3.508   5.247 -0.5715  1.8407  1.1343
 4343SOL     OW24664   1.335   0.589   6.534  0.2619  0.2235  0.1460
 4343SOL    HW124665   1.330   0.506   6.581 -1.9133 -0.1374 -0.7051
 4343SOL    HW224666   1.273   0.572   6.463  0.7571  1.5985 -0.5946
 4344SOL     OW24667   0.553   1.766   2.170 -0.1492 -0.2616 -0.8010
 4344SOL    HW124668   0.630   1.797   2.218  0.6622 -1.6403 -1.2183
 4344SOL    HW224669   0.477   1.817   2.198  1.6450  1.0851  1.6016
 4345SOL     OW24670   1.787   0.325  14.905 -0.2259 -0.2462 -0.3231
 4345SOL    HW124671   1.722   0.393  14.886 -0.5231 -0.5853 -0.5091
 4345SOL    HW224672   1.742   0.272  14.970  0.4108 -1.9335 -1.2649
 4346SOL     OW24673   4.479   4.055   5.363  1.0072  0.7127  0.1139
 4346SOL    HW124674   4.466   4.025   5.453 -0.7078 -2.8417 -1.3189
 4346SOL    HW224675   4.470   4.149   5.380  0.5389  0.8717 -1.0267
 4347SOL     OW24676   4.714   4.463   5.486 -0.8661 -0.1029 -0.6050
 4347SOL    HW124677   4.642   4.441   5.428  0.4052 -0.3583 -2.0934
 4347SOL    HW224678   0.011   4.537   5.434 -3.0492  2.2736  1.4046
 4348SOL     OW24679   0.609   3.886   4.491  0.0447  0.0256  0.2167
 4348SOL    HW124680   0.624   3.822   4.561 -0.6465 -1.0900 -0.6576
 4348SOL    HW224681   0.618   3.825   4.418  2.3566 -0.4092  0.8443
 4349SOL     OW24682   1.111   1.283   3.262 -0.4175  0.0199 -0.8446
 4349SOL    HW124683   1.118   1.364   3.312  2.3121  0.4532 -1.9188
 4349SOL    HW224684   1.094   1.314   3.173  1.2880  0.3350 -1.0590
 4350SOL     OW24685   1.273   1.865   5.361 -1.3307  0.1562  0.0802
 4350SOL    HW124686   1.188   1.904   5.339 -0.4572  1.2803 -1.2444
 4350SOL    HW224687   1.323   1.881   5.281  0.0518 -0.4109  0.8385
 4351SOL     OW24688   2.929   0.904   2.864  0.4107 -0.4017  0.1695
 4351SOL    HW124689   2.909   0.996   2.845 -2.1865 -1.4938 -2.4778
 4351SOL    HW224690   2.917   0.871   2.774  1.3028  0.0578 -0.1185
 4352SOL     OW24691   1.737   2.023   6.289 -0.0153 -0.1392 -0.4169
 4352SOL    HW124692   1.712   2.104   6.245  2.7286  0.4928 -0.8309
 4352SOL    HW224693   1.816   1.991   6.247 -0.2522 -0.5085 -0.5778
 4353SOL     OW24694   0.673   3.749   9.092 -0.4179  0.1000  0.0716
 4353SOL    HW124695   0.617   3.725   9.018  2.2394  0.0743 -1.9268
 4353SOL    HW224696   0.610   3.749   9.163 -0.3974  0.0932  0.0898
 4354SOL     OW24697   2.630   4.320   6.880 -0.6621  0.3345 -0.0670
 4354SOL    HW124698   2.589   4.235   6.865  2.5638 -1.3504  0.5736
 4354SOL    HW224699   2.640   4.346   6.789 -0.5376 -0.5929 -0.3153
 4355SOL     OW24700   0.518   4.489   5.972  0.0279 -0.8292  0.3750
 4355SOL    HW124701   0.440   4.471   6.025 -0.5721  0.6774  0.0298
 4355SOL    HW224702   0.473   4.542   5.906  0.3227  0.6508  1.3580
 4356SOL     OW24703   0.487   0.352   7.610  0.1627  0.5281  0.0023
 4356SOL    HW124704   0.409   0.303   7.638  0.1850 -0.6616 -2.0822
 4356SOL    HW224705   0.531   0.281   7.564  1.0337  1.6557 -0.9012
 4357SOL     OW24706   3.335   2.487   5.324  0.0660  0.0027  0.6469
 4357SOL    HW124707   3.397   2.560   5.323  0.3071 -0.2062  0.2704
 4357SOL    HW224708   3.271   2.522   5.261  0.6292  2.0283  1.1976
 4358SOL     OW24709   3.988   0.884   2.370  0.1502 -0.1675  0.5439
 4358SOL    HW124710   3.974   0.924   2.284  1.4253  0.2048  0.5047
 4358SOL    HW224711   4.038   0.959   2.404  1.1845  0.0804 -1.4970
 4359SOL     OW24712   0.973   1.920  13.605 -0.4404  0.7213  0.2280
 4359SOL    HW124713   0.917   1.902  13.529  1.7357 -0.1718 -1.1708
 4359SOL    HW224714   0.996   2.012  13.592 -0.7673  0.5313 -1.7717
 4360SOL     OW24715   2.039   1.639   6.651  0.4559  0.3841 -0.0699
 4360SOL    HW124716   2.035   1.607   6.561 -1.6841 -0.6146  0.3680
 4360SOL    HW224717   2.102   1.583   6.696  0.7715  0.4556 -0.4242
 4361SOL     OW24718   3.734   0.763   9.964 -0.3362  0.2325  0.1349
 4361SOL    HW124719   3.733   0.851   9.926 -0.3929 -0.5861 -1.8002
 4361SOL    HW224720   3.818   0.730   9.932  0.2594  0.2849  1.6838
 4362SOL     OW24721   2.954   4.085  16.121  0.6341  0.0677  0.4520
 4362SOL    HW124722   2.928   4.009  16.069  0.0510 -0.9791  2.2790
 4362SOL    HW224723   2.971   4.152  16.054 -0.2630  0.1666  0.3308
 4363SOL     OW24724   1.651   2.699   8.984 -0.1315 -0.0140 -0.3822
 4363SOL    HW124725   1.667   2.755   8.909 -0.0081 -0.0529 -0.3857
 4363SOL    HW224726   1.565   2.668   8.958 -1.0102  2.5806 -0.5220
 4364SOL     OW24727   0.487   0.737  10.137  0.0621  0.0671 -0.0661
 4364SOL    HW124728   0.506   0.831  10.144 -1.0373  0.2718  0.0987
 4364SOL    HW224729   0.511   0.698  10.221  0.4468  1.5443  0.5063
 4365SOL     OW24730   4.010   1.488   6.233 -0.0649 -0.9058  0.6304
 4365SOL    HW124731   4.028   1.466   6.141  3.0658 -0.6903  1.1904
 4365SOL    HW224732   4.088   1.454   6.275  2.2072  2.3207 -0.9482
 4366SOL     OW24733   3.557   0.984   6.795 -0.0690  0.5135 -0.0777
 4366SOL    HW124734   3.562   0.995   6.700  1.3659  1.8192  0.1380
 4366SOL    HW224735   3.499   0.910   6.809  1.9420 -1.4121 -1.8806
 4367SOL     OW24736   1.513   2.734  11.686  0.4367  0.2514  0.3795
 4367SOL    HW124737   1.485   2.815  11.728  1.2124  0.8904 -0.3419
 4367SOL    HW224738   1.439   2.678  11.710 -1.0797  1.7481 -0.7431
 4368SOL     OW24739   2.113   2.909   7.500 -0.8324  0.1790 -0.6607
 4368SOL    HW124740   2.107   2.831   7.444 -1.1803 -0.3570  0.1180
 4368SOL    HW224741   2.184   2.964   7.468  0.9623 -0.5865  2.0421
 4369SOL     OW24742   2.346   0.111   4.295  0.8630  0.5375 -0.1357
 4369SOL    HW124743   2.264   0.105   4.246  0.3393  1.6787  0.5937
 4369SOL    HW224744   2.404   0.112   4.219  0.7444  1.8014 -0.2063
 4370SOL     OW24745   2.965   2.507  13.985 -0.1004  0.5872  0.4511
 4370SOL    HW124746   2.878   2.545  13.974  0.7599  1.7615 -2.2625
 4370SOL    HW224747   2.988   2.484  13.895 -1.4657  0.4080  0.1403
 4371SOL     OW24748   2.075   0.876  12.595  0.0318 -0.0007  0.1973
 4371SOL    HW124749   2.111   0.934  12.528 -1.9156  1.5069  0.4782
 4371SOL    HW224750   2.137   0.803  12.596  1.7617  1.4789  0.9933
 4372SOL     OW24751   0.101   0.730   0.173  0.1852 -0.4572 -0.1624
 4372SOL    HW124752   0.103   0.805   0.113  0.3883 -0.6069 -0.3419
 4372SOL    HW224753   0.113   0.660   0.108 -0.4331 -0.5843 -0.1396
 4373SOL     OW24754   2.689   2.926   4.043 -0.1148  0.1369  0.0454
 4373SOL    HW124755   2.635   2.931   3.964  1.1269  0.4568 -0.7793
 4373SOL    HW224756   2.725   3.014   4.051 -1.5179  0.7365 -0.2121
 4374SOL     OW24757   4.654   2.493   5.266  0.4178 -0.2167  0.0469
 4374SOL    HW124758   4.617   2.581   5.260  2.5090  0.7802  1.7303
 4374SOL    HW224759   4.667   2.470   5.174  2.1396  1.2019 -0.0729
 4375SOL     OW24760   4.069   1.268  15.647  0.1317 -0.2433 -0.1115
 4375SOL    HW124761   3.993   1.277  15.590  0.4952 -1.4063 -0.7777
 4375SOL    HW224762   4.016   1.273  15.727 -0.3293  0.4811 -0.4622
 4376SOL     OW24763   1.533   3.685  17.049  0.2963  0.4318  0.1104
 4376SOL    HW124764   1.614   3.697  17.098 -0.7654  1.5487  1.6078
 4376SOL    HW224765   1.553   3.596  17.020  0.4821 -0.8839  4.3135
 4377SOL     OW24766   1.455   3.518   7.985  0.4334  0.0199  0.1381
 4377SOL    HW124767   1.485   3.427   7.976 -0.3416 -0.2824  0.6943
 4377SOL    HW224768   1.516   3.565   7.928 -1.7956  0.1484 -2.1350
 4378SOL     OW24769   3.762   0.685   2.142 -0.0389  0.5778  0.2103
 4378SOL    HW124770   3.853   0.657   2.134 -0.3024  0.0996 -1.0328
 4378SOL    HW224771   3.744   0.696   2.236  0.6903 -0.1340  0.4448
 4379SOL     OW24772   0.808   4.734  12.371  0.1868 -1.1105  0.2607
 4379SOL    HW124773   0.837   4.666  12.310 -2.1932 -2.1532  0.3088
 4379SOL    HW224774   0.713   4.723  12.373 -0.0462  0.7338 -1.4171
 4380SOL     OW24775   3.068   2.109   5.371 -0.3088 -0.0803 -0.1062
 4380SOL    HW124776   3.152   2.147   5.344  0.1120 -0.0960  1.1614
 4380SOL    HW224777   3.100   2.027   5.408 -0.7596  0.2107  0.9346
 4381SOL     OW24778   4.042   4.487   7.996  0.5651  0.3509  0.3179
 4381SOL    HW124779   4.137   4.500   8.002  0.4424  1.2580  0.2810
 4381SOL    HW224780   4.022   4.489   8.089  0.4812  0.0023  0.3082
 4382SOL     OW24781   2.253   0.331  10.659  0.0353  0.5771  0.4625
 4382SOL    HW124782   2.259   0.236  10.649 -1.2040  0.5935 -0.4826
 4382SOL    HW224783   2.180   0.341  10.721 -0.8929 -0.5232 -0.4382
 4383SOL     OW24784   4.285   2.399   9.604 -0.1712 -0.4875  0.5218
 4383SOL    HW124785   4.269   2.474   9.662  0.4382 -0.3186  0.4678
 4383SOL    HW224786   4.379   2.405   9.585  0.3225 -2.5892  2.4017
 4384SOL     OW24787   0.033   3.879   1.323 -0.2307 -0.6429  0.0203
 4384SOL    HW124788   0.037   3.972   1.301 -3.0127 -0.4170  0.5497
 4384SOL    HW224789   0.001   3.886   1.412 -2.0318 -1.7452 -0.5256
 4385SOL     OW24790   0.100   3.436   6.638 -0.6464 -0.2717  0.4890
 4385SOL    HW124791   0.021   3.418   6.588  0.4181 -0.8998 -0.9880
 4385SOL    HW224792   0.147   3.353   6.628 -3.3766 -1.2406 -3.9258
 4386SOL     OW24793   2.483   4.419   9.868 -0.1820 -0.1733 -0.0970
 4386SOL    HW124794   2.450   4.331   9.848 -1.0093  0.4931 -1.6686
 4386SOL    HW224795   2.447   4.436   9.955  2.0616  0.3191  0.7357
 4387SOL     OW24796   0.649   2.792   6.473  0.3954  0.0347  0.9543
 4387SOL    HW124797   0.634   2.733   6.546  0.2998 -2.6605 -1.2398
 4387SOL    HW224798   0.580   2.767   6.412  0.0579 -2.2946  2.3123
 4388SOL     OW24799   3.183   2.176  12.295  0.1018 -0.4275 -0.5075
 4388SOL    HW124800   3.272   2.209  12.280 -0.0674  0.1280 -0.3033
 4388SOL    HW224801   3.130   2.228  12.235 -1.7232 -1.2437  0.3865
 4389SOL     OW24802   3.693   4.315  13.867  0.6241 -0.3258 -0.4776
 4389SOL    HW124803   3.761   4.256  13.834  0.8310 -0.3505 -0.0123
 4389SOL    HW224804   3.633   4.262  13.919  1.7149 -0.1669  0.9519
 4390SOL     OW24805   3.973   3.985   4.041 -0.4987 -1.1129  0.3102
 4390SOL    HW124806   3.959   4.006   4.133 -0.8523 -0.7729  0.1795
 4390SOL    HW224807   3.927   3.903   4.023 -0.9542 -1.0508  1.2297
 4391SOL     OW24808   2.655   3.992   2.190 -0.2290  0.1763  0.2100
 4391SOL    HW124809   2.606   3.924   2.235  2.8734 -2.2346 -0.0414
 4391SOL    HW224810   2.580   4.050   2.174 -0.5345 -0.0606  0.8014
 4392SOL     OW24811   4.458   1.601   8.640 -0.2811 -0.2104  0.4775
 4392SOL    HW124812   4.367   1.588   8.614  0.5210  0.3480 -2.7048
 4392SOL    HW224813   4.441   1.655   8.717 -1.3394  0.4265 -0.1992
 4393SOL     OW24814   0.939   2.955  17.710 -0.6123 -0.0752  0.2812
 4393SOL    HW124815   0.967   2.905   0.046  0.1399 -0.2787 -0.1239
 4393SOL    HW224816   0.900   3.031   0.013  2.6137  0.5657  2.0658
 4394SOL     OW24817   1.882   2.731  10.069 -0.1279  0.5625  0.1372
 4394SOL    HW124818   1.815   2.663  10.058 -1.4816  1.9406 -0.1872
 4394SOL    HW224819   1.844   2.780  10.141 -0.7988  0.4861 -0.1624
 4395SOL     OW24820   3.848   2.962   7.645  0.8789  0.0813 -0.2069
 4395SOL    HW124821   3.886   2.913   7.717 -3.3113  1.1665  2.7870
 4395SOL    HW224822   3.894   2.930   7.568 -0.2566 -0.4287 -0.6763
 4396SOL     OW24823   3.656   1.987  15.333  0.0360  0.0474 -0.0398
 4396SOL    HW124824   3.561   1.972  15.330  0.4392 -2.6204  0.4016
 4396SOL    HW224825   3.671   1.924  15.403 -2.3131 -0.1610  0.2838
 4397SOL     OW24826   0.418   0.931  12.697  0.1456  0.1415  0.5910
 4397SOL    HW124827   0.363   0.901  12.769 -0.5559  1.4494  0.6036
 4397SOL    HW224828   0.348   0.980  12.653  0.5079  0.9386  0.9071
 4398SOL     OW24829   0.754   0.886   8.771  0.7035  0.0273 -0.1792
 4398SOL    HW124830   0.839   0.842   8.776 -0.5317 -1.8870  4.1357
 4398SOL    HW224831   0.768   0.942   8.696 -2.1521  0.8471 -0.1017
 4399SOL     OW24832   0.616   3.823   6.914 -0.1955  0.3437 -0.9961
 4399SOL    HW124833   0.568   3.791   6.990 -1.2742  0.6797 -1.5439
 4399SOL    HW224834   0.595   3.915   6.905 -0.3193  0.2625 -1.5582
 4400SOL     OW24835   4.136   1.807  14.957  0.2105  0.3686  0.4834
 4400SOL    HW124836   4.100   1.722  14.932  0.6748 -0.2974  2.0753
 4400SOL    HW224837   4.170   1.829  14.871 -0.4367 -0.6454 -0.0309
 4401SOL     OW24838   4.707   0.622   7.720  0.0869 -0.1725  0.3909
 4401SOL    HW124839   4.668   0.541   7.687  1.9501 -1.8155  2.2234
 4401SOL    HW224840   0.061   0.590   7.722  0.1957  0.1275  0.2010
 4402SOL     OW24841   1.774   3.553  15.854  0.0331  0.6141  0.0595
 4402SOL    HW124842   1.817   3.538  15.769 -0.6076 -0.3619 -0.0877
 4402SOL    HW224843   1.738   3.467  15.873 -0.5966  1.0318  0.7486
 4403SOL     OW24844   2.945   0.682   6.944  0.1924  0.4238  0.6379
 4403SOL    HW124845   2.857   0.681   6.983  1.0907  0.5560  2.7037
 4403SOL    HW224846   3.004   0.654   7.014  1.5814  1.5470 -0.0869
 4404SOL     OW24847   3.487   2.490   7.048  0.4591  0.3058 -0.4299
 4404SOL    HW124848   3.476   2.413   6.992  0.7566 -0.0796  0.0520
 4404SOL    HW224849   3.494   2.559   6.982  1.5520  1.2600  0.6867
 4405SOL     OW24850   3.448   0.826   4.519 -0.6296 -0.0959  0.3316
 4405SOL    HW124851   3.492   0.798   4.439 -1.3080  0.2944 -0.1756
 4405SOL    HW224852   3.420   0.741   4.554  1.6448 -1.6037 -1.4877
 4406SOL     OW24853   3.389   1.218   9.478  0.3466  0.2514 -0.2562
 4406SOL    HW124854   3.371   1.274   9.554 -1.6136  0.5427 -0.9319
 4406SOL    HW224855   3.308   1.167   9.478  0.3275  0.2757  0.9465
 4407SOL     OW24856   0.920   0.080   6.369 -0.1558 -0.4727 -0.3296
 4407SOL    HW124857   0.868   0.007   6.336 -0.9708  1.0841 -2.5286
 4407SOL    HW224858   1.005   0.064   6.328  0.5573  1.1365  0.5167
 4408SOL     OW24859   0.025   1.860   2.364  0.1658 -0.5109  0.0273
 4408SOL    HW124860   0.101   1.831   2.416  1.0069  2.6980  0.6043
 4408SOL    HW224861   0.034   1.808   2.285 -3.4506 -1.1082  0.0207
 4409SOL     OW24862   1.280   1.759  17.403  0.0535 -0.0598 -0.8740
 4409SOL    HW124863   1.250   1.828  17.344  2.1018  1.0808 -0.5863
 4409SOL    HW224864   1.335   1.705  17.347  1.5546  0.5902 -0.0343
 4410SOL     OW24865   0.588   2.840   4.461 -0.5743  0.0043 -0.0888
 4410SOL    HW124866   0.659   2.787   4.498  0.9913  0.7482 -2.0490
 4410SOL    HW224867   0.565   2.787   4.385  1.4547  0.6357 -1.1445
 4411SOL     OW24868   1.635   3.801   1.984  0.6190 -0.4552 -0.2637
 4411SOL    HW124869   1.590   3.837   2.061  2.5607 -1.4784  1.3417
 4411SOL    HW224870   1.697   3.873   1.969  0.0809  0.0113 -0.2830
 4412SOL     OW24871   3.970   0.653  13.951 -0.6968  0.7214  0.3332
 4412SOL    HW124872   3.904   0.668  14.019  0.4109 -0.7366  1.7389
 4412SOL    HW224873   4.027   0.594  14.000 -1.4619 -0.4374 -0.1642
 4413SOL     OW24874   3.848   4.162   7.943 -0.0209  0.1581  0.1487
 4413SOL    HW124875   3.787   4.099   7.905  0.6728  0.9326 -2.2552
 4413SOL    HW224876   3.863   4.210   7.861  0.3082 -1.4932 -0.7608
 4414SOL     OW24877   2.587   3.921  10.763  0.0752  0.2343  0.0822
 4414SOL    HW124878   2.581   3.844  10.707 -2.3420  0.7224 -0.3200
 4414SOL    HW224879   2.643   3.875  10.826  0.0006  0.5520  0.3805
 4415SOL     OW24880   2.997   4.630  12.867 -0.6053 -0.0048 -0.6549
 4415SOL    HW124881   2.932   4.685  12.824 -1.3014 -1.1654 -1.1097
 4415SOL    HW224882   3.083   4.656  12.834 -1.3489  2.3192 -0.7568
 4416SOL     OW24883   3.578   4.566  10.365 -0.0524 -0.4860  0.0245
 4416SOL    HW124884   3.614   4.568  10.454 -0.6330  2.2310  0.2153
 4416SOL    HW224885   3.510   4.630  10.387  2.1309  2.0600 -0.4791
 4417SOL     OW24886   4.684   3.916   5.758  0.1647  0.0431 -0.3831
 4417SOL    HW124887   4.698   3.895   5.850 -1.0249 -0.9615 -0.4393
 4417SOL    HW224888   4.644   3.835   5.727 -3.5982  1.1675  1.5634
 4418SOL     OW24889   2.099   1.095  15.551 -0.0442  0.1670  0.7261
 4418SOL    HW124890   2.129   1.172  15.503 -2.7652  0.2225 -0.9196
 4418SOL    HW224891   2.049   1.130  15.625 -1.3573 -3.4801  1.5533
 4419SOL     OW24892   2.450   1.210   3.687 -0.3109  0.8037  0.0037
 4419SOL    HW124893   2.487   1.162   3.613 -1.2223  1.5410 -0.9168
 4419SOL    HW224894   2.424   1.134   3.739  1.0009  0.4203  0.0996
 4420SOL     OW24895   3.385   2.645   5.756 -0.2816  0.3198 -0.2542
 4420SOL    HW124896   3.335   2.606   5.828 -1.9078 -0.4194 -1.7903
 4420SOL    HW224897   3.410   2.559   5.722  1.4460  1.5453 -2.0662
 4421SOL     OW24898   1.714   2.849   8.792  0.0058  0.0988  0.1783
 4421SOL    HW124899   1.796   2.890   8.766  0.4649 -0.4808  0.7211
 4421SOL    HW224900   1.661   2.876   8.717 -1.8417 -0.9702  1.1027
 4422SOL     OW24901   1.497   0.730   7.276  0.2379  0.0161 -0.2147
 4422SOL    HW124902   1.584   0.726   7.235  0.3367 -0.8838  0.0710
 4422SOL    HW224903   1.509   0.663   7.344 -1.3137  0.6068  0.6231
 4423SOL     OW24904   2.525   3.550  13.241 -0.2810  0.4582 -0.8267
 4423SOL    HW124905   2.522   3.591  13.154  0.8952 -1.9587 -1.9981
 4423SOL    HW224906   2.457   3.483  13.234  0.5789 -0.4441 -0.5764
 4424SOL     OW24907   1.875   1.040   2.522  0.7040  0.6300 -0.0698
 4424SOL    HW124908   1.790   1.081   2.535  1.2408  0.7443  3.0537
 4424SOL    HW224909   1.848   0.955   2.487 -0.8426  0.3372  1.8569
 4425SOL     OW24910   1.591   0.144   0.873  0.1199 -0.0665 -0.5855
 4425SOL    HW124911   1.672   0.143   0.822 -0.0509 -1.3454 -0.8325
 4425SOL    HW224912   1.615   0.069   0.927  0.4412  0.7968  0.4815
 4426SOL     OW24913   0.768   3.441   7.330 -0.0151  0.0199  0.2466
 4426SOL    HW124914   0.849   3.461   7.284 -0.5270  0.1957 -0.5784
 4426SOL    HW224915   0.710   3.433   7.254  0.4698 -1.5823  0.0630
 4427SOL     OW24916   1.366   1.436  17.694  0.1769 -0.2570  0.7438
 4427SOL    HW124917   1.353   1.389   0.035  1.2629 -1.6629  0.1215
 4427SOL    HW224918   1.358   1.370  17.625 -1.0224  1.1198 -0.4314
 4428SOL     OW24919   3.443   1.406   4.024 -0.2356 -0.1501 -0.0476
 4428SOL    HW124920   3.479   1.327   4.066  2.3731  1.5729  0.9667
 4428SOL    HW224921   3.348   1.396   4.035 -0.7553  4.2141 -0.5491
 4429SOL     OW24922   2.836   3.964  10.139 -0.6478  0.2362 -0.2891
 4429SOL    HW124923   2.798   3.930  10.220  1.3683 -0.3144  0.4456
 4429SOL    HW224924   2.768   4.017  10.097 -1.6885 -1.0401 -0.2339
 4430SOL     OW24925   2.418   3.767   6.800 -0.2747  0.0341  0.1930
 4430SOL    HW124926   2.496   3.731   6.758 -0.7041 -0.1055 -0.4832
 4430SOL    HW224927   2.368   3.805   6.727  0.1367  0.2515  0.0204
 4431SOL     OW24928   2.605   1.476   6.180  0.9498 -0.4884  0.2495
 4431SOL    HW124929   2.644   1.544   6.233  0.4596 -0.4682  0.5783
 4431SOL    HW224930   2.657   1.400   6.205  0.1120 -1.4843 -0.9802
 4432SOL     OW24931   2.204   2.140  13.491 -0.3902 -0.3075  0.3244
 4432SOL    HW124932   2.152   2.197  13.435 -0.0200  0.0368  0.3316
 4432SOL    HW224933   2.212   2.198  13.567  1.7484  0.8375 -0.8057
 4433SOL     OW24934   2.742   4.314   9.562 -0.3354  0.7456 -0.0593
 4433SOL    HW124935   2.815   4.374   9.552  0.3566 -0.5616 -2.7698
 4433SOL    HW224936   2.785   4.229   9.565 -1.2739  0.3120  1.3242
 4434SOL     OW24937   2.918   3.661   5.771 -0.3729 -0.2055 -0.0788
 4434SOL    HW124938   2.891   3.660   5.863  1.0497  0.3763  0.3425
 4434SOL    HW224939   2.837   3.627   5.733 -0.1065  0.9765 -1.6731
 4435SOL     OW24940   2.244   4.449  14.850 -0.7124  0.5466  0.3030
 4435SOL    HW124941   2.324   4.411  14.886 -1.5639 -2.4668 -0.9917
 4435SOL    HW224942   2.214   4.381  14.790 -1.0326  0.0832  0.9899
 4436SOL     OW24943   3.908   0.606   8.086  0.5288 -0.1301  0.0333
 4436SOL    HW124944   3.903   0.621   8.180 -0.4190  0.6005 -0.1366
 4436SOL    HW224945   3.993   0.643   8.062  0.8968 -0.4441  0.8619
 4437SOL     OW24946   1.811   4.557   0.885  0.0654  0.0312 -0.8280
 4437SOL    HW124947   1.892   4.514   0.911  2.1864  4.1503 -0.5577
 4437SOL    HW224948   1.836   4.645   0.913 -2.0328  0.1151  0.7484
 4438SOL     OW24949   4.388   0.863  12.424  0.1813  0.1203  0.0512
 4438SOL    HW124950   4.412   0.856  12.331  0.8227  2.3230  0.0531
 4438SOL    HW224951   4.332   0.789  12.447 -0.9952 -0.1929 -3.7237
 4439SOL     OW24952   1.248   4.545   3.971  0.6287 -0.2800 -0.6832
 4439SOL    HW124953   1.192   4.582   3.904 -0.3764  1.4091  1.0720
 4439SOL    HW224954   1.311   4.492   3.922 -0.2373 -0.8550 -1.1816
 4440SOL     OW24955   3.992   2.368  13.086  0.2437 -0.0823 -0.1473
 4440SOL    HW124956   3.951   2.369  13.173  4.5631 -1.1576  1.8801
 4440SOL    HW224957   4.078   2.338  13.113  0.9675  1.4776 -0.7187
 4441SOL     OW24958   2.601   0.597   4.944  0.2942  0.0232 -0.3194
 4441SOL    HW124959   2.525   0.646   4.974  0.6583 -0.0799  0.7644
 4441SOL    HW224960   2.611   0.641   4.859 -0.3117 -0.2110 -0.5072
 4442SOL     OW24961   3.213   2.121   7.922 -0.1628  0.7974  0.4745
 4442SOL    HW124962   3.247   2.039   7.957 -0.2669 -0.3977 -2.2226
 4442SOL    HW224963   3.289   2.178   7.930  0.7259 -0.1555 -1.1229
 4443SOL     OW24964   0.541   0.813   2.954  0.0533  0.1920 -0.0292
 4443SOL    HW124965   0.605   0.805   3.024 -0.6168 -2.7927  0.2288
 4443SOL    HW224966   0.464   0.828   3.008  1.3192 -1.0373  2.1401
 4444SOL     OW24967   1.879   1.029  12.719  0.5724 -0.1691  0.5264
 4444SOL    HW124968   1.960   0.979  12.716  0.6207 -0.1185  0.9698
 4444SOL    HW224969   1.896   1.088  12.792  1.5125  0.2640 -0.0493
 4445SOL     OW24970   2.215   0.441  15.115 -0.1246  0.4680  0.2618
 4445SOL    HW124971   2.201   0.350  15.143  2.4555 -0.1035 -0.2895
 4445SOL    HW224972   2.296   0.440  15.064 -0.5152  1.9229 -0.3666
 4446SOL     OW24973   0.025   0.065   2.354 -0.0729 -0.0911  0.1867
 4446SOL    HW124974   0.117   0.040   2.366  0.7101  1.4235 -2.5330
 4446SOL    HW224975   0.033   0.160   2.341  2.4414 -0.3768 -0.4108
 4447SOL     OW24976   2.975   3.758  16.705 -0.2795 -0.1835 -0.8098
 4447SOL    HW124977   3.058   3.738  16.662  0.0595  0.4882 -0.4562
 4447SOL    HW224978   2.921   3.750  16.626 -2.5108  1.0471  0.6087
 4448SOL     OW24979   3.302   2.834   7.631 -0.4039  0.2450 -0.2586
 4448SOL    HW124980   3.380   2.806   7.679  0.8054  0.2106 -2.2626
 4448SOL    HW224981   3.345   2.865   7.552 -0.0265  2.2893  0.7498
 4449SOL     OW24982   3.569   1.430   1.707  0.0269  0.4704  0.2196
 4449SOL    HW124983   3.540   1.339   1.713 -2.0733  1.0237 -1.4162
 4449SOL    HW224984   3.597   1.457   1.795 -2.7425 -0.9644  1.5600
 4450SOL     OW24985   0.567   4.578   3.233 -0.3025  0.0065 -0.1967
 4450SOL    HW124986   0.534   4.571   3.144  1.0870 -0.3537 -0.6754
 4450SOL    HW224987   0.480   4.585   3.273  0.0402 -1.2609  0.7556
 4451SOL     OW24988   4.386   4.064  12.334  0.5258  0.4290 -0.2304
 4451SOL    HW124989   4.395   4.128  12.263 -1.3635  0.7410 -0.1908
 4451SOL    HW224990   4.403   3.977  12.298  3.8840  1.1811 -0.5086
 4452SOL     OW24991   4.678   3.094   6.034 -0.1106  0.1510 -0.7799
 4452SOL    HW124992   0.002   3.052   5.973 -1.7431 -1.4787 -1.2633
 4452SOL    HW224993   4.621   3.019   6.054 -0.5342  0.5249 -0.5933
 4453SOL     OW24994   3.795   1.458   9.406  0.7848  0.1960  0.4031
 4453SOL    HW124995   3.736   1.505   9.347  0.5488  0.4304  0.8334
 4453SOL    HW224996   3.770   1.367   9.389  0.7216  0.4441 -0.8450
 4454SOL     OW24997   0.177   3.664   7.584 -0.2576  0.5018 -0.0780
 4454SOL    HW124998   0.252   3.723   7.583  0.2347 -0.0706  2.1256
 4454SOL    HW224999   0.186   3.634   7.675 -0.3896 -2.2120 -0.9707
 4455SOL     OW25000   1.837   0.122   4.872  0.2556  0.2440 -0.2401
 4455SOL    HW125001   1.801   0.210   4.884  0.0035  0.0904  0.1180
 4455SOL    HW225002   1.909   0.150   4.814  1.5370 -0.7242  0.8769
 4456SOL     OW25003   2.753   4.722   4.479  0.1993  0.3500  0.2265
 4456SOL    HW125004   2.684   4.698   4.541 -0.3579  0.8275 -0.1923
 4456SOL    HW225005   2.704   0.056   4.433 -0.5193 -1.9380 -2.4842
 4457SOL     OW25006   3.807   1.246   6.984 -0.5066  0.0365 -0.3179
 4457SOL    HW125007   3.881   1.281   6.935 -1.3662 -1.0582 -2.3857
 4457SOL    HW225008   3.853   1.174   7.028  1.3411  1.3822 -0.0898
 4458SOL     OW25009   0.113   3.773  15.346 -0.3636  0.1796  0.4142
 4458SOL    HW125010   0.165   3.701  15.311 -1.4121  0.1100 -0.9967
 4458SOL    HW225011   0.131   3.761  15.439 -3.4480 -1.5574  0.8013
 4459SOL     OW25012   0.532   0.049   4.429  0.3799 -0.4307  0.1176
 4459SOL    HW125013   0.525   4.735   4.347 -0.7039  1.5905 -1.0025
 4459SOL    HW225014   0.575   4.722   4.488 -0.7340 -1.2234  0.0858
 4460SOL     OW25015   2.678   3.463   5.935  0.2315  0.1080  0.0588
 4460SOL    HW125016   2.740   3.530   5.965 -3.8503  3.3523  1.2382
 4460SOL    HW225017   2.659   3.417   6.017 -0.6593  1.3211  0.5355
 4461SOL     OW25018   0.711   1.871  16.419  0.4670 -0.4967 -0.0665
 4461SOL    HW125019   0.766   1.881  16.342  0.4665 -0.5215 -0.0701
 4461SOL    HW225020   0.736   1.950  16.468  2.1565 -1.4525  0.5955
 4462SOL     OW25021   0.012   0.122   5.191 -0.0205  0.1110  0.3854
 4462SOL    HW125022   0.069   0.061   5.144 -3.0847 -1.4607 -1.2995
 4462SOL    HW225023   4.686   0.151   5.123  1.4419 -0.1598 -1.0357
 4463SOL     OW25024   4.026   0.193   5.621 -0.1650  0.2681 -0.6743
 4463SOL    HW125025   4.065   0.280   5.627 -3.4118  1.6443  0.7100
 4463SOL    HW225026   3.939   0.218   5.590  0.0769  1.4767 -0.4097
 4464SOL     OW25027   3.734   1.858   2.543  0.2432 -0.0973 -0.4003
 4464SOL    HW125028   3.829   1.858   2.552 -0.1270 -0.7462  3.5941
 4464SOL    HW225029   3.707   1.947   2.565  1.8602  0.7404 -1.8123
 4465SOL     OW25030   4.233   0.801   2.667  0.7595  0.2942 -0.2016
 4465SOL    HW125031   4.254   0.812   2.759 -0.2980 -2.6493  0.3860
 4465SOL    HW225032   4.309   0.754   2.633  0.1854 -1.3652  0.8167
 4466SOL     OW25033   1.327   0.782   5.951  0.4656  0.3926  0.4180
 4466SOL    HW125034   1.284   0.749   5.872  0.9573  0.3699  0.1583
 4466SOL    HW225035   1.387   0.709   5.962 -1.4960 -1.3845 -0.7746
 4467SOL     OW25036   1.434   2.675   1.482  0.4807  0.7585 -0.0738
 4467SOL    HW125037   1.420   2.584   1.455 -1.6478  0.7201  1.2201
 4467SOL    HW225038   1.516   2.669   1.531  0.3546 -1.5078 -0.1419
 4468SOL     OW25039   0.785   1.717  12.253  0.1500  0.4274 -0.0598
 4468SOL    HW125040   0.794   1.713  12.348 -0.3923 -1.5908 -0.0867
 4468SOL    HW225041   0.817   1.633  12.222  1.8660  1.9292 -2.3366
 4469SOL     OW25042   4.544   2.236   1.931 -0.4321  0.5457  0.2239
 4469SOL    HW125043   4.585   2.219   2.015  1.5973 -2.9105 -1.5008
 4469SOL    HW225044   4.618   2.229   1.872  0.3595  0.8294  1.1924
 4470SOL     OW25045   4.506   4.064   2.441  0.0360  0.4826  0.1658
 4470SOL    HW125046   4.593   4.102   2.426  1.0892 -2.0539 -0.0289
 4470SOL    HW225047   4.487   4.023   2.357 -2.4815  1.3416  0.2987
 4471SOL     OW25048   4.654   4.402   7.600 -0.3939 -0.4700 -1.0878
 4471SOL    HW125049   4.705   4.345   7.542  1.8107 -2.1628  2.5151
 4471SOL    HW225050   4.631   4.343   7.672  0.0373  1.4512  0.6269
 4472SOL     OW25051   3.879   2.106  17.423 -0.1418  0.9811 -0.0352
 4472SOL    HW125052   3.936   2.145  17.357 -0.6392 -0.8565 -1.5197
 4472SOL    HW225053   3.877   2.184  17.479  0.0527  1.9072 -1.3163
 4473SOL     OW25054   4.020   0.594  11.455  0.0026  0.4836 -0.2178
 4473SOL    HW125055   4.095   0.557  11.502  0.1330  4.1518  2.4811
 4473SOL    HW225056   3.991   0.660  11.518  1.0584  0.6384  0.1160
 4474SOL     OW25057   3.770   4.173   6.341 -0.3067  0.2664  0.3465
 4474SOL    HW125058   3.730   4.193   6.426 -2.2092  0.4536 -0.5848
 4474SOL    HW225059   3.695   4.196   6.286 -0.7518  1.2307  1.3591
 4475SOL     OW25060   4.177   3.814   7.841 -0.2032 -0.1271 -0.3518
 4475SOL    HW125061   4.146   3.903   7.858 -1.0665 -0.8805  2.0017
 4475SOL    HW225062   4.135   3.778   7.919  1.0676 -2.1791 -0.6088
 4476SOL     OW25063   0.864   1.631  14.914 -0.2988 -0.4241 -0.5152
 4476SOL    HW125064   0.887   1.723  14.932 -2.1893  0.3965 -2.2966
 4476SOL    HW225065   0.777   1.652  14.881 -0.3540  0.3198  0.1092
 4477SOL     OW25066   0.375   3.553  13.876 -0.2262  0.2410 -0.2306
 4477SOL    HW125067   0.345   3.625  13.820  1.0416 -0.4139 -1.7745
 4477SOL    HW225068   0.395   3.606  13.954 -1.3506  0.7253 -0.2818
 4478SOL     OW25069   4.428   3.106   1.807  0.0759 -0.2964  0.4356
 4478SOL    HW125070   4.419   3.045   1.734 -1.2458 -0.6592  0.8967
 4478SOL    HW225071   4.518   3.138   1.807  0.0335 -0.2001 -2.2434
 4479SOL     OW25072   4.388   2.585  16.116  0.7254 -0.2884  0.0212
 4479SOL    HW125073   4.466   2.541  16.148  0.2400 -1.9639 -1.0894
 4479SOL    HW225074   4.322   2.525  16.151  2.9931 -2.7837 -0.0404
 4480SOL     OW25075   3.977   4.641   8.870 -0.2693  0.2025  0.1479
 4480SOL    HW125076   4.013   4.576   8.931 -0.0813 -1.3136 -1.6028
 4480SOL    HW225077   4.060   4.671   8.832 -0.6362 -0.4640 -1.1767
 4481SOL     OW25078   3.520   2.378   2.600  0.2768 -0.6640  0.0290
 4481SOL    HW125079   3.579   2.386   2.525 -0.6935  1.5917 -0.4840
 4481SOL    HW225080   3.438   2.412   2.565 -0.7033 -1.0270  1.9428
 4482SOL     OW25081   0.149   0.753  14.358 -0.5472 -0.1945 -0.1545
 4482SOL    HW125082   0.080   0.819  14.344 -0.5751  0.1167  1.3781
 4482SOL    HW225083   0.100   0.671  14.355 -0.3489 -0.2530 -1.6062
 4483SOL     OW25084   2.778   4.342  15.621  0.0471  0.3260  0.3037
 4483SOL    HW125085   2.789   4.434  15.598  3.0242  0.0227  0.5119
 4483SOL    HW225086   2.850   4.306  15.569  0.7605 -0.8561  2.0712
 4484SOL     OW25087   2.745   2.973   6.868 -0.1955 -0.0206  1.2416
 4484SOL    HW125088   2.669   3.009   6.914  0.0554  0.3463  1.3724
 4484SOL    HW225089   2.753   2.884   6.903 -0.2675 -0.5592 -0.1358
 4485SOL     OW25090   0.461   3.921   5.913  0.0242 -0.0950  0.0470
 4485SOL    HW125091   0.388   3.904   5.971  1.7242  1.6733  2.7121
 4485SOL    HW225092   0.459   3.847   5.851  0.9599 -1.6558  1.8783
 4486SOL     OW25093   0.563   4.625   3.736  0.0478 -0.4400 -0.3334
 4486SOL    HW125094   0.608   4.697   3.781 -2.8283  0.8958  0.4042
 4486SOL    HW225095   0.498   4.673   3.685  0.3692 -0.1376 -0.4590
 4487SOL     OW25096   2.892   1.277  14.341  0.3244 -0.1864  0.5153
 4487SOL    HW125097   2.868   1.313  14.255 -0.1285 -0.9749  0.3104
 4487SOL    HW225098   2.847   1.193  14.332  0.9536 -0.1348 -3.1176
 4488SOL     OW25099   0.574   0.946   3.533 -0.6052  0.2124  0.3392
 4488SOL    HW125100   0.561   0.893   3.612  1.2632  1.5742  1.5758
 4488SOL    HW225101   0.646   1.003   3.562 -0.3690  0.6415 -1.1242
 4489SOL     OW25102   2.088   1.205   4.271 -0.0705 -0.1897  0.3364
 4489SOL    HW125103   2.055   1.175   4.356 -0.0822 -1.5132 -0.1388
 4489SOL    HW225104   2.022   1.274   4.262  0.4204  0.3073  0.5056
 4490SOL     OW25105   2.928   0.862   1.904 -0.1127  0.6514 -0.5202
 4490SOL    HW125106   2.922   0.902   1.817 -1.9900 -1.2969 -1.3175
 4490SOL    HW225107   3.010   0.898   1.935 -0.6665  2.3847 -1.0677
 4491SOL     OW25108   1.087   0.295   7.561 -0.1251 -0.2708  0.1778
 4491SOL    HW125109   0.998   0.280   7.591 -0.3087  0.7355  0.1325
 4491SOL    HW225110   1.075   0.273   7.469  2.6605  0.1659 -0.2910
 4492SOL     OW25111   2.266   1.044   9.547  0.3275  0.4119 -0.3344
 4492SOL    HW125112   2.274   0.952   9.570 -0.5627  0.3813 -0.1399
 4492SOL    HW225113   2.344   1.046   9.492  0.3038  0.6740 -0.3581
 4493SOL     OW25114   0.707   3.131   6.751  0.2879 -0.1027  0.0870
 4493SOL    HW125115   0.731   3.078   6.675  0.3880  1.9766 -1.3219
 4493SOL    HW225116   0.748   3.217   6.744  1.7337 -0.9011 -1.2302
 4494SOL     OW25117   3.162   2.381  14.400 -0.6541  0.3528  0.5546
 4494SOL    HW125118   3.149   2.465  14.356 -2.5634  0.4824  1.3385
 4494SOL    HW225119   3.187   2.314  14.337 -1.0315  0.7328  0.0053
 4495SOL     OW25120   0.806   0.371   6.560  0.2992 -0.0696 -0.2337
 4495SOL    HW125121   0.762   0.340   6.482 -2.5605  1.9282  0.5929
 4495SOL    HW225122   0.751   0.449   6.567  0.6683  0.1140  0.6837
 4496SOL     OW25123   1.808   1.980  17.521  0.2426 -0.4875 -0.5057
 4496SOL    HW125124   1.836   1.916  17.456  1.1008  0.0914 -0.7044
 4496SOL    HW225125   1.733   2.016  17.473 -0.4733  1.9325  2.3674
 4497SOL     OW25126   2.442   4.115  16.713 -0.1190 -0.0443  0.1538
 4497SOL    HW125127   2.467   4.067  16.792 -2.3100 -1.1803  0.1733
 4497SOL    HW225128   2.349   4.130  16.729 -0.6456 -1.1094 -1.8855
 4498SOL     OW25129   0.921   3.156   9.793 -0.1453 -0.0829  0.0020
 4498SOL    HW125130   0.832   3.192   9.800 -0.2366 -0.6675  1.8690
 4498SOL    HW225131   0.904   3.069   9.758  1.9895  0.3879 -2.1090
 4499SOL     OW25132   0.501   0.545   5.037  0.1686  0.6854  0.0353
 4499SOL    HW125133   0.463   0.474   5.089  1.0791 -0.7338 -1.2176
 4499SOL    HW225134   0.442   0.531   4.963 -0.7266  2.5858  0.4020
 4500SOL     OW25135   1.695   4.617  10.062  0.6300 -0.8379  0.5970
 4500SOL    HW125136   1.656   4.675   9.997 -0.1525 -0.7214  1.1679
 4500SOL    HW225137   1.634   4.544  10.056  1.2428 -1.1724 -1.3829
 4501SOL     OW25138   4.192   2.395   8.510  0.2701 -0.9229 -0.2304
 4501SOL    HW125139   4.102   2.365   8.523  0.4536 -1.0841  0.6626
 4501SOL    HW225140   4.240   2.313   8.495 -1.6083 -2.1510  0.3976
 4502SOL     OW25141   4.380   3.931  16.402  0.0129 -0.0859  0.1956
 4502SOL    HW125142   4.471   3.931  16.434 -0.8687  1.3730  2.6659
 4502SOL    HW225143   4.396   3.916  16.309  2.9756  0.1363  0.6694
 4503SOL     OW25144   3.699   2.877   5.420  0.4174 -0.4828 -0.0235
 4503SOL    HW125145   3.788   2.870   5.386 -0.3354  0.8143 -2.2248
 4503SOL    HW225146   3.691   2.819   5.496  1.0881 -1.3103 -0.5746
 4504SOL     OW25147   1.327   4.355  14.721  0.6547 -0.3072  0.2861
 4504SOL    HW125148   1.419   4.368  14.698  0.9758  0.4317  1.9627
 4504SOL    HW225149   1.310   4.311  14.638  1.3864  0.7027 -0.3893
 4505SOL     OW25150   0.335   3.832  12.869  0.1696  0.2708  0.2359
 4505SOL    HW125151   0.415   3.785  12.891 -1.2291 -1.9322  0.6289
 4505SOL    HW225152   0.360   3.924  12.868 -1.1726  0.5998 -1.9929
 4506SOL     OW25153   2.206   0.818   5.199  0.0665  0.3195  0.1902
 4506SOL    HW125154   2.285   0.857   5.238  1.2496  0.5730 -2.5045
 4506SOL    HW225155   2.129   0.844   5.250  0.5958  0.3695  0.9607
 4507SOL     OW25156   1.363   2.210  11.191  0.0006  0.1118 -0.3499
 4507SOL    HW125157   1.411   2.128  11.192  0.2160  0.2347 -0.5717
 4507SOL    HW225158   1.433   2.273  11.174 -1.3101  0.7425 -3.5440
 4508SOL     OW25159   1.502   0.017  16.329  0.0383 -0.3113  0.7832
 4508SOL    HW125160   1.420   4.704  16.320 -0.0529  0.1009 -0.7752
 4508SOL    HW225161   1.565   4.681  16.330  1.7894  1.2412 -0.0215
 4509SOL     OW25162   3.044   2.738   6.211  0.0366  0.0482  0.2138
 4509SOL    HW125163   3.098   2.794   6.156  0.7635  1.2664  2.1511
 4509SOL    HW225164   3.114   2.699   6.263 -0.2179 -2.4131 -1.3100
 4510SOL     OW25165   2.539   1.373  11.239  0.0889  0.0961  0.4038
 4510SOL    HW125166   2.490   1.338  11.312  0.6784 -1.4255  0.0711
 4510SOL    HW225167   2.604   1.433  11.276 -0.4421 -0.2676  1.9196
 4511SOL     OW25168   3.950   4.529   6.306 -0.3257  0.3601 -0.0480
 4511SOL    HW125169   3.955   4.541   6.401  0.9847 -0.3397 -0.0257
 4511SOL    HW225170   3.859   4.552   6.287 -0.4763 -0.2634 -0.0735
 4512SOL     OW25171   3.502   2.460   8.557 -0.1658  0.3709  0.4632
 4512SOL    HW125172   3.535   2.375   8.528  1.5546  1.7289 -1.5770
 4512SOL    HW225173   3.461   2.435   8.639 -0.1659 -0.1396  0.3053
 4513SOL     OW25174   1.007   1.059   6.623 -0.4807  0.4332  0.3183
 4513SOL    HW125175   1.019   1.141   6.671 -0.5423  0.3112  0.5378
 4513SOL    HW225176   0.920   1.076   6.586  0.1292  0.2854 -1.1867
 4514SOL     OW25177   2.357   1.406   3.176 -0.1423 -0.1298 -0.3404
 4514SOL    HW125178   2.383   1.314   3.167  0.2367  0.0283 -0.8503
 4514SOL    HW225179   2.384   1.419   3.267 -2.4463  1.2794  0.1563
 4515SOL     OW25180   2.481   4.424   8.872  0.1094  0.1292 -0.0480
 4515SOL    HW125181   2.569   4.432   8.908  0.2982 -0.7226 -0.3280
 4515SOL    HW225182   2.438   4.404   8.955  0.4071 -2.2728 -0.4801
 4516SOL     OW25183   4.530   3.468   8.497 -0.4839  0.7315  0.1261
 4516SOL    HW125184   4.495   3.443   8.412 -0.5653 -0.7912  0.6075
 4516SOL    HW225185   4.531   3.391   8.553  2.6800  1.2915  0.8196
 4517SOL     OW25186   0.126   0.032   8.398 -0.0831  0.4838 -0.2078
 4517SOL    HW125187   0.146   4.709   8.472 -1.7990 -0.7105 -0.6802
 4517SOL    HW225188   0.102   4.711   8.324 -2.3594  3.0403 -1.4472
 4518SOL     OW25189   2.773   2.093   7.545  0.1192 -0.1373 -0.0262
 4518SOL    HW125190   2.712   2.134   7.607 -0.1998 -2.3189  1.1022
 4518SOL    HW225191   2.852   2.079   7.596  2.0512  1.5529 -2.6025
 4519SOL     OW25192   2.889   1.374   5.559  0.7705  0.1652 -0.7576
 4519SOL    HW125193   2.973   1.386   5.602  0.1221 -2.6649  1.3404
 4519SOL    HW225194   2.905   1.296   5.506 -0.8931 -1.5166  1.1964
 4520SOL     OW25195   2.301   2.349  14.854  0.2781 -0.1569 -0.0889
 4520SOL    HW125196   2.390   2.336  14.888 -0.2535 -1.8075  0.6592
 4520SOL    HW225197   2.310   2.349  14.759  1.2734  0.4312  0.0053
 4521SOL     OW25198   3.350   2.977   4.473 -0.6139  0.3384 -0.9535
 4521SOL    HW125199   3.288   3.043   4.443 -1.3437  0.2934  0.4396
 4521SOL    HW225200   3.331   2.917   4.400  0.3293  1.2705 -1.9551
 4522SOL     OW25201   4.509   2.738   9.547 -0.1070  0.1707 -0.0055
 4522SOL    HW125202   4.595   2.775   9.525  0.1760  0.2509  1.2306
 4522SOL    HW225203   4.463   2.788   9.614  1.7805  1.6519  0.2003
 4523SOL     OW25204   2.972   0.889   1.194 -0.4749 -0.6510  0.7069
 4523SOL    HW125205   2.956   0.848   1.279  2.2724 -1.5840  0.7838
 4523SOL    HW225206   2.974   0.805   1.148 -1.4873 -0.1594 -0.2494
 4524SOL     OW25207   4.335   4.474  13.575  0.1090  0.0190  0.0500
 4524SOL    HW125208   4.417   4.474  13.526 -0.9346 -0.2390 -1.6774
 4524SOL    HW225209   4.363   4.531  13.648 -0.3662  0.4985 -0.1396
 4525SOL     OW25210   0.522   0.402  10.651  0.2631  0.5158  0.0984
 4525SOL    HW125211   0.465   0.325  10.656  1.1693 -0.2744 -1.5627
 4525SOL    HW225212   0.515   0.436  10.561  0.1491  1.5994  0.5132
 4526SOL     OW25213   1.813   1.389   8.447 -0.6132  0.3750  0.2444
 4526SOL    HW125214   1.869   1.353   8.379 -1.8460 -1.9576  0.4895
 4526SOL    HW225215   1.766   1.306   8.455 -1.7755  0.9267 -0.9305
 4527SOL     OW25216   0.369   3.459   1.483 -0.1823 -0.3073 -0.0124
 4527SOL    HW125217   0.452   3.411   1.492  0.8209  1.2428 -0.9750
 4527SOL    HW225218   0.370   3.488   1.575 -1.0335  0.9449 -0.4071
 4528SOL     OW25219   3.335   2.816   2.448  0.1936 -0.0555  0.0907
 4528SOL    HW125220   3.308   2.793   2.536 -0.2529 -1.2661 -0.3551
 4528SOL    HW225221   3.268   2.880   2.423  0.8794  0.3515 -0.7274
 4529SOL     OW25222   3.827   4.344  13.585  0.4185  0.0269 -0.4743
 4529SOL    HW125223   3.883   4.367  13.658  2.2209 -1.8013 -1.2901
 4529SOL    HW225224   3.887   4.370  13.515  1.1936 -0.0314  0.1769
 4530SOL     OW25225   1.259   0.369   4.764 -0.5223  0.1170  0.1477
 4530SOL    HW125226   1.276   0.288   4.813  1.1466 -0.6664 -1.7160
 4530SOL    HW225227   1.271   0.337   4.674  0.8928 -1.6133  0.9472
 4531SOL     OW25228   1.988   2.680   5.457  0.1119 -0.0691 -0.2919
 4531SOL    HW125229   2.073   2.662   5.496 -0.0204 -0.8650 -0.3776
 4531SOL    HW225230   1.950   2.744   5.518  0.1833  1.1717 -1.5386
 4532SOL     OW25231   0.813   2.274  12.190 -0.2090 -0.5763 -0.1119
 4532SOL    HW125232   0.806   2.179  12.186 -1.9566 -0.4129 -1.0136
 4532SOL    HW225233   0.889   2.284  12.131 -1.3957 -2.7148 -2.0125
 4533SOL     OW25234   1.227   3.220   4.626  0.2986 -0.4065  0.0076
 4533SOL    HW125235   1.244   3.233   4.533 -1.0748  1.2851 -0.0093
 4533SOL    HW225236   1.177   3.138   4.620 -2.1252  1.0454  0.0757
 4534SOL     OW25237   2.871   4.462   2.095  0.5030  0.3668  0.0951
 4534SOL    HW125238   2.856   4.514   2.174  0.4318  0.9068 -0.2781
 4534SOL    HW225239   2.919   4.525   2.041 -0.1961  0.5731 -0.2873
 4535SOL     OW25240   3.054   1.659  13.278 -0.2495  0.2377  0.3224
 4535SOL    HW125241   2.986   1.623  13.221  1.1093 -1.5539 -0.1753
 4535SOL    HW225242   3.130   1.608  13.250 -1.6175 -1.8431  0.3917
 4536SOL     OW25243   1.120   3.478   5.151  0.3165 -0.4321 -0.1485
 4536SOL    HW125244   1.065   3.526   5.213  3.1101 -2.2085  3.7040
 4536SOL    HW225245   1.055   3.475   5.081 -0.8147  0.3894  0.8612
 4537SOL     OW25246   1.313   0.402  17.276  0.0168 -0.3242  0.0546
 4537SOL    HW125247   1.330   0.309  17.291  0.7250 -0.1916  0.0706
 4537SOL    HW225248   1.402   0.435  17.285 -0.2818  1.0752 -2.1208
 4538SOL     OW25249   3.784   0.004   8.490 -0.0994  0.0747 -0.2803
 4538SOL    HW125250   3.755   4.652   8.514 -1.6517  0.9653  1.1426
 4538SOL    HW225251   3.717   0.027   8.425  1.2932  1.3011 -1.2841
 4539SOL     OW25252   3.077   0.298   1.762 -0.2467 -0.4366  0.8151
 4539SOL    HW125253   3.065   0.362   1.831  0.6446 -0.8411  1.3380
 4539SOL    HW225254   2.986   0.278   1.739  0.7389 -3.0198 -0.9220
 4540SOL     OW25255   0.447   1.787   4.567  0.0871 -0.0757  0.3292
 4540SOL    HW125256   0.469   1.825   4.652  0.3146 -1.6436  0.9694
 4540SOL    HW225257   0.354   1.807   4.558  0.7037  3.5908  1.9188
 4541SOL     OW25258   4.114   1.930  13.421  0.1834  0.1305  0.0069
 4541SOL    HW125259   4.048   1.864  13.400 -0.1663  0.5856 -0.3423
 4541SOL    HW225260   4.117   1.919  13.516 -0.6647 -0.5890 -0.0519
 4542SOL     OW25261   3.004   4.393   9.569 -0.3899 -0.0163  0.1467
 4542SOL    HW125262   3.059   4.471   9.560 -1.8964  0.9653 -0.6115
 4542SOL    HW225263   3.069   4.331   9.599  0.6240  0.0156 -1.9470
 4543SOL     OW25264   0.002   0.414   8.661 -0.2757  0.2753  0.2042
 4543SOL    HW125265   4.705   0.384   8.576 -1.0637  0.9408  0.2673
 4543SOL    HW225266   0.093   0.424   8.632  0.2777 -0.7732  1.5912
 4544SOL     OW25267   3.206   2.154   8.777  0.2149  0.2370  0.5642
 4544SOL    HW125268   3.264   2.143   8.853  1.3494  2.5897  0.0321
 4544SOL    HW225269   3.138   2.216   8.804 -1.8970 -1.1730 -1.5346
 4545SOL     OW25270   3.804   4.366  15.552 -0.4189  0.0317 -0.1184
 4545SOL    HW125271   3.877   4.392  15.496  0.6670 -1.7957  0.4418
 4545SOL    HW225272   3.756   4.300  15.501  0.6511 -0.2575 -0.7620
 4546SOL     OW25273   2.324   4.426   2.188  0.1032 -0.0531  0.1451
 4546SOL    HW125274   2.246   4.384   2.224  0.0729 -0.1093  0.0136
 4546SOL    HW225275   2.281   4.468   2.114  1.4137  0.3390 -0.3891
 4547SOL     OW25276   1.098   3.416   7.218 -0.5683 -0.4156  0.2499
 4547SOL    HW125277   1.138   3.498   7.246  0.3719  0.0808 -2.4738
 4547SOL    HW225278   1.153   3.347   7.253  2.9460  1.8026 -0.8583
 4548SOL     OW25279   4.027   3.985  12.771 -0.5690  0.5668  0.1929
 4548SOL    HW125280   3.941   4.005  12.807 -0.6576 -0.5384  0.5826
 4548SOL    HW225281   4.034   3.891  12.789  1.0999  0.5578 -0.5502
 4549SOL     OW25282   0.609   1.752  10.196 -0.2036  0.3993  0.3356
 4549SOL    HW125283   0.630   1.743  10.103  0.9631  0.8434  0.5569
 4549SOL    HW225284   0.540   1.689  10.219  0.7915 -0.5645  0.7001
 4550SOL     OW25285   4.188   2.984  14.188 -0.3492 -0.0406 -0.6762
 4550SOL    HW125286   4.153   3.001  14.275  2.0856 -2.0669  0.6939
 4550SOL    HW225287   4.234   2.901  14.198  1.1609  0.9333  0.3487
 4551SOL     OW25288   3.699   1.272  16.615  0.0638 -0.8038 -0.1358
 4551SOL    HW125289   3.736   1.183  16.619 -0.6334 -0.9993  2.0739
 4551SOL    HW225290   3.650   1.273  16.697  0.5416  2.6933  0.0788
 4552SOL     OW25291   0.223   2.634   1.209 -0.6232  0.4112 -0.9428
 4552SOL    HW125292   0.251   2.591   1.129  1.0157  1.1764 -0.7700
 4552SOL    HW225293   0.153   2.575   1.238 -0.8539  0.3604 -1.6207
 4553SOL     OW25294   0.654   2.605   0.904  0.2391  0.2921  0.1156
 4553SOL    HW125295   0.658   2.604   0.808  0.5571  0.6598  0.1255
 4553SOL    HW225296   0.729   2.663   0.919  0.6432 -0.6740  1.7475
 4554SOL     OW25297   3.405   1.644   0.850  0.1170  0.0897  0.1978
 4554SOL    HW125298   3.378   1.672   0.938 -2.8463  0.3352 -0.7666
 4554SOL    HW225299   3.470   1.581   0.882  0.3537  1.4144  2.3267
 4555SOL     OW25300   1.413   1.930   6.071 -0.6553 -0.0253  0.4551
 4555SOL    HW125301   1.455   2.011   6.099  0.1498 -0.0148 -0.7974
 4555SOL    HW225302   1.347   1.925   6.141 -0.4814 -0.7920  0.5623
 4556SOL     OW25303   0.998   0.305  10.743 -0.2191 -0.5325 -0.4144
 4556SOL    HW125304   0.950   0.299  10.661  0.4353  0.4399 -0.8578
 4556SOL    HW225305   0.949   0.242  10.796 -0.7623 -0.0399 -0.3267
 4557SOL     OW25306   0.059   2.854   5.119  0.5750  0.0062  0.0433
 4557SOL    HW125307   0.034   2.810   5.038 -1.5276 -1.7751  1.6437
 4557SOL    HW225308   0.122   2.790   5.153 -0.4080 -1.3087 -0.6192
 4558SOL     OW25309   2.973   0.574  13.357  0.1146  0.2527 -0.1782
 4558SOL    HW125310   2.891   0.621  13.342  0.2925  0.8436  0.6902
 4558SOL    HW225311   2.932   0.502  13.405  1.3303 -2.1972 -2.8150
 4559SOL     OW25312   2.306   0.676  14.799 -0.5307 -0.0366 -0.0562
 4559SOL    HW125313   2.289   0.587  14.830  1.1416 -0.1821  0.4426
 4559SOL    HW225314   2.289   0.726  14.878  0.9886  1.0049 -0.3904
 4560SOL     OW25315   0.245   3.981   6.857 -0.0221  0.3448 -0.1583
 4560SOL    HW125316   0.179   4.012   6.918  1.1443  1.6279  0.4340
 4560SOL    HW225317   0.300   3.922   6.909  1.2689  2.8745  1.3009
 4561SOL     OW25318   4.468   0.759   3.770 -0.1259  0.3810  0.1778
 4561SOL    HW125319   4.518   0.823   3.820 -0.4667  0.1021  0.8738
 4561SOL    HW225320   4.484   0.790   3.681  0.6937 -0.3678  0.0648
 4562SOL     OW25321   3.416   0.272   8.447 -0.1056  0.1851  0.0167
 4562SOL    HW125322   3.330   0.311   8.429 -0.3491  0.2618  1.3786
 4562SOL    HW225323   3.457   0.314   8.522  0.5873 -1.0963  0.3562
 4563SOL     OW25324   2.729   3.369   7.677 -0.2527 -0.5174  0.0601
 4563SOL    HW125325   2.679   3.404   7.603 -0.1422  1.3100  0.8401
 4563SOL    HW225326   2.692   3.281   7.675 -0.9892 -0.1935 -0.7161
 4564SOL     OW25327   4.041   1.382   8.524 -0.2142 -0.4226  0.1437
 4564SOL    HW125328   4.000   1.350   8.443 -0.2431  0.4665 -0.1982
 4564SOL    HW225329   4.119   1.328   8.530 -0.7648 -1.0196  1.8427
 4565SOL     OW25330   4.336   1.063   3.874 -0.7483 -0.1709 -0.0884
 4565SOL    HW125331   4.428   1.059   3.900 -0.9040  0.5020  0.5536
 4565SOL    HW225332   4.317   0.973   3.900 -2.6300 -0.1432 -1.3793
 4566SOL     OW25333   2.731   0.073   5.988  0.1367  0.2868  0.0985
 4566SOL    HW125334   2.649   0.068   5.937  2.0112  0.4275 -2.9245
 4566SOL    HW225335   2.710   0.036   6.073  1.3226  3.0955  1.6219
 4567SOL     OW25336   4.601   1.172   4.447  0.3978 -0.0315  0.1377
 4567SOL    HW125337   4.565   1.100   4.500  0.6512 -0.6079 -0.4806
 4567SOL    HW225338   4.694   1.150   4.443  1.1553  2.4508  4.1685
 4568SOL     OW25339   4.657   2.193   4.500 -0.0249  0.2709  0.2531
 4568SOL    HW125340   4.614   2.263   4.452 -0.1268  0.0100 -0.0332
 4568SOL    HW225341   4.588   2.142   4.542 -0.5385  1.9622  1.4643
 4569SOL     OW25342   2.964   0.965   9.276  0.1302 -0.6765 -0.3010
 4569SOL    HW125343   2.951   0.919   9.192  1.2335 -2.1343  0.3184
 4569SOL    HW225344   2.926   0.911   9.345 -0.3713  2.5215  1.8679
 4570SOL     OW25345   3.067   3.914  16.371 -0.0865 -0.1900  0.4275
 4570SOL    HW125346   3.086   4.008  16.367 -0.9332 -0.1481 -2.3231
 4570SOL    HW225347   3.139   3.883  16.427 -0.7676 -0.9094  0.9062
 4571SOL     OW25348   3.219   0.807  14.410 -0.1579  0.4873 -0.4182
 4571SOL    HW125349   3.229   0.902  14.399 -0.6970  0.7749  1.6331
 4571SOL    HW225350   3.261   0.791  14.494  1.4647  2.8025 -0.7996
 4572SOL     OW25351   3.367   3.327  16.709 -0.8546  0.1434  0.4108
 4572SOL    HW125352   3.395   3.295  16.623  0.4793  1.7818  0.2396
 4572SOL    HW225353   3.338   3.247  16.752  0.1481 -1.4829 -1.9309
 4573SOL     OW25354   1.415   4.038   0.716 -0.4080  0.3741 -0.3343
 4573SOL    HW125355   1.380   4.023   0.629  1.6930 -0.4734 -1.0333
 4573SOL    HW225356   1.480   4.095   0.674 -0.8397  1.6118  0.6877
 4574SOL     OW25357   0.161   1.518   5.856  0.7552 -0.2621 -0.1924
 4574SOL    HW125358   0.132   1.427   5.862  0.4120 -0.1512 -0.2136
 4574SOL    HW225359   0.257   1.510   5.848  1.0278  0.8269  1.9820
 4575SOL     OW25360   0.367   4.488   7.639  0.1083 -0.2079  0.2171
 4575SOL    HW125361   0.430   4.448   7.699 -0.0214  0.2232  0.6461
 4575SOL    HW225362   0.390   4.581   7.639  0.0413 -0.1944  1.9070
 4576SOL     OW25363   1.656   2.969   6.125  0.2901 -0.0877  0.4098
 4576SOL    HW125364   1.622   2.934   6.042 -0.7937  0.3076  0.6847
 4576SOL    HW225365   1.748   2.987   6.107  0.4002  1.4192  2.5090
 4577SOL     OW25366   1.314   0.731   5.222  0.0459  0.0478 -0.0485
 4577SOL    HW125367   1.408   0.746   5.222  0.2320 -1.1443  0.1149
 4577SOL    HW225368   1.290   0.731   5.129  0.3115 -1.6468 -0.1314
 4578SOL     OW25369   1.925   0.924   1.925 -0.1461 -0.0297  0.1502
 4578SOL    HW125370   1.957   0.999   1.875 -0.2405  0.7372  1.2383
 4578SOL    HW225371   1.910   0.857   1.857  1.4829  0.0510 -0.3015
 4579SOL     OW25372   3.759   3.228  12.223 -0.7251  0.0263  0.1479
 4579SOL    HW125373   3.765   3.287  12.298  2.1702  2.2046 -1.7645
 4579SOL    HW225374   3.779   3.147  12.268  0.4728 -0.5292 -1.3616
 4580SOL     OW25375   1.050   0.697   1.097  0.7271  0.0085 -0.0937
 4580SOL    HW125376   0.995   0.693   1.018  1.2393 -2.7227 -0.3337
 4580SOL    HW225377   1.096   0.615   1.079 -0.2791 -0.7954  1.0032
 4581SOL     OW25378   2.488   0.744   6.836  0.1243  0.0588 -0.5247
 4581SOL    HW125379   2.415   0.685   6.820  1.0128 -0.9596 -0.8434
 4581SOL    HW225380   2.508   0.781   6.750 -1.1612  0.8806 -0.4582
 4582SOL     OW25381   2.154   0.534   6.196 -0.2189 -0.4763  0.6875
 4582SOL    HW125382   2.197   0.541   6.281  1.2421 -1.5172  0.0328
 4582SOL    HW225383   2.219   0.526   6.126 -1.5331  0.2129 -0.6227
 4583SOL     OW25384   3.713   2.459   9.516 -0.3903 -0.0305 -0.7616
 4583SOL    HW125385   3.771   2.391   9.551  1.3472  1.1324 -1.3663
 4583SOL    HW225386   3.650   2.459   9.589  0.5280 -0.7050  0.0271
 4584SOL     OW25387   3.111   4.716   2.476  0.1804 -0.3382 -0.1550
 4584SOL    HW125388   3.063   0.046   2.426 -0.1405 -1.3330 -1.1634
 4584SOL    HW225389   3.187   0.034   2.494  0.3471 -0.3723 -0.7680
 4585SOL     OW25390   0.694   1.899   3.462  0.6175 -0.6742 -0.4183
 4585SOL    HW125391   0.750   1.913   3.538 -0.2497  0.3658  0.0266
 4585SOL    HW225392   0.615   1.937   3.500  3.8458  3.8560  1.6931
 4586SOL     OW25393   1.729   3.976   7.259 -0.9643 -0.1785 -0.1488
 4586SOL    HW125394   1.703   3.923   7.334 -1.5749  1.9061  1.0994
 4586SOL    HW225395   1.674   4.054   7.260 -0.5178  0.1248  0.9873
 4587SOL     OW25396   0.043   1.245   6.761  0.4745 -0.2838  0.3589
 4587SOL    HW125397   0.111   1.179   6.750  0.6364  0.1735 -1.2833
 4587SOL    HW225398   0.025   1.229   6.854  3.7861 -0.7014  0.9432
 4588SOL     OW25399   2.748   0.815  12.590  0.5851 -0.1593  0.5280
 4588SOL    HW125400   2.742   0.768  12.508 -0.9561  0.0388  0.5184
 4588SOL    HW225401   2.742   0.905  12.558 -0.2628 -0.2313  0.4708
 4589SOL     OW25402   2.428   1.033  17.229 -0.1118 -0.3997  0.0054
 4589SOL    HW125403   2.371   1.083  17.287 -0.9277 -1.3098 -0.0094
 4589SOL    HW225404   2.398   1.058  17.142  0.2265 -0.6752 -0.1916
 4590SOL     OW25405   0.998   0.285   8.174  0.1816  0.0916  0.3118
 4590SOL    HW125406   0.967   0.252   8.258  1.1685  0.8660  0.9780
 4590SOL    HW225407   1.091   0.266   8.185  1.0091  1.8317 -3.5242
 4591SOL     OW25408   4.599   1.976   3.453 -0.3318 -0.6781  0.1578
 4591SOL    HW125409   4.662   2.028   3.503 -0.3833 -0.3924 -0.0779
 4591SOL    HW225410   4.521   1.984   3.507  0.0794 -0.8098  0.7664
 4592SOL     OW25411   2.646   0.620   2.711 -0.5072  0.2537  0.0907
 4592SOL    HW125412   2.739   0.617   2.734 -0.3073  1.1429 -0.5532
 4592SOL    HW225413   2.614   0.560   2.777  1.4530 -1.3037 -0.3685
 4593SOL     OW25414   4.204   0.455   8.254 -0.0535 -0.1053 -0.2841
 4593SOL    HW125415   4.267   0.509   8.301 -1.6842  0.3274  1.4132
 4593SOL    HW225416   4.178   0.518   8.187  2.0838  2.1011  0.9826
 4594SOL     OW25417   1.676   3.145   9.159  0.2174 -0.2876  0.0239
 4594SOL    HW125418   1.760   3.101   9.154  0.8864  0.8033  1.6299
 4594SOL    HW225419   1.638   3.128   9.073 -2.3030  1.6764  0.7229
 4595SOL     OW25420   3.754   4.522   8.284 -0.0530 -0.0189  0.3224
 4595SOL    HW125421   3.772   4.433   8.254 -0.1726  0.0208  0.1318
 4595SOL    HW225422   3.772   4.506   8.376  2.6982 -2.8174 -0.7142
 4596SOL     OW25423   3.594   1.743   1.227  0.4387  0.0849  0.1340
 4596SOL    HW125424   3.640   1.813   1.273 -1.2790  1.5207 -0.3665
 4596SOL    HW225425   3.626   1.664   1.271  4.4712  0.4626 -2.0690
 4597SOL     OW25426   3.392   0.642  10.831  0.2499 -0.1329 -0.7878
 4597SOL    HW125427   3.415   0.655  10.923  2.2268  1.9969 -1.5704
 4597SOL    HW225428   3.458   0.695  10.787  2.2537 -1.2179  0.9292
 4598SOL     OW25429   0.409   3.406   8.804 -0.2142  0.5195 -0.1891
 4598SOL    HW125430   0.434   3.358   8.725  2.3128 -0.7661  1.3946
 4598SOL    HW225431   0.315   3.417   8.791 -0.2016 -0.6898 -1.1929
 4599SOL     OW25432   4.142   1.445   5.169  0.1971  0.3502  0.0430
 4599SOL    HW125433   4.119   1.461   5.077 -1.1033  0.3583  0.3785
 4599SOL    HW225434   4.134   1.350   5.175  1.7579  0.0850 -2.0731
 4600SOL     OW25435   0.409   2.756   6.292 -0.0801 -0.6172 -0.2322
 4600SOL    HW125436   0.438   2.667   6.275 -1.7495 -1.1738 -0.1685
 4600SOL    HW225437   0.347   2.743   6.364  0.5643  0.5447  0.5362
 4601SOL     OW25438   3.342   0.154   2.536  0.1607 -0.6655 -0.1065
 4601SOL    HW125439   3.291   0.234   2.550 -1.8086 -1.6519 -1.7521
 4601SOL    HW225440   3.398   0.176   2.461  1.4476 -1.2549  0.6817
 4602SOL     OW25441   0.780   2.644   9.474 -0.1948 -0.0746  0.5058
 4602SOL    HW125442   0.803   2.736   9.459  0.7984  0.1116  3.2037
 4602SOL    HW225443   0.857   2.602   9.513 -0.6458 -0.8038  0.6094
 4603SOL     OW25444   1.628   4.082   3.935 -0.2002 -0.3952  0.7545
 4603SOL    HW125445   1.647   4.000   3.981  3.2345  0.6874  1.2206
 4603SOL    HW225446   1.561   4.114   3.996  0.1204  1.9360 -0.1145
 4604SOL     OW25447   2.112   3.162   2.526 -0.0871  0.1214 -0.2988
 4604SOL    HW125448   2.030   3.211   2.530 -0.6952 -1.0606  1.4270
 4604SOL    HW225449   2.132   3.160   2.619 -0.1036  0.5782 -0.2847
 4605SOL     OW25450   4.264   0.908   1.927 -0.0878 -0.2930 -0.0438
 4605SOL    HW125451   4.326   0.876   1.993 -0.0720  1.4087  0.7618
 4605SOL    HW225452   4.185   0.870   1.963 -0.5693  1.8128  1.1178
 4606SOL     OW25453   2.680   0.017  17.043  0.2301  0.3083  0.0214
 4606SOL    HW125454   2.664   4.677  17.099  0.1648  0.9931  0.9346
 4606SOL    HW225455   2.666   0.097  17.094  1.8805 -0.0782  1.0908
 4607SOL     OW25456   2.669   1.568  12.748 -0.5970 -0.2568 -0.6883
 4607SOL    HW125457   2.658   1.555  12.654 -1.1954 -0.1374 -0.6391
 4607SOL    HW225458   2.744   1.627  12.746 -0.5997 -0.2222  0.0459
 4608SOL     OW25459   2.146   0.307   4.954  0.0633  0.0262  0.3999
 4608SOL    HW125460   2.239   0.320   4.938  0.7853 -2.4421  2.6591
 4608SOL    HW225461   2.143   0.255   4.873 -0.3104  0.7443 -0.0534
 4609SOL     OW25462   4.112   0.519   1.897 -0.0434 -0.4131 -0.5440
 4609SOL    HW125463   4.204   0.524   1.872 -0.4232  1.7593 -1.5183
 4609SOL    HW225464   4.088   0.476   1.815  0.7368 -0.8529 -0.5391
 4610SOL     OW25465   0.066   0.710  12.574  0.2543 -0.1819  0.3374
 4610SOL    HW125466   0.159   0.689  12.576  0.0003 -1.2068  1.3379
 4610SOL    HW225467   0.049   0.714  12.668  1.7643 -1.3581  0.6549
 4611SOL     OW25468   2.357   2.343   2.619  0.4276 -0.2067  0.2020
 4611SOL    HW125469   2.262   2.333   2.609  1.0742 -0.1228 -5.6262
 4611SOL    HW225470   2.399   2.284   2.557  0.1160  1.3341 -1.4762
 4612SOL     OW25471   0.322   1.320   2.371 -0.2081 -0.7913  0.0918
 4612SOL    HW125472   0.358   1.399   2.332 -0.7007  0.5657  2.4014
 4612SOL    HW225473   0.338   1.332   2.465  2.6442  1.1076 -0.6357
 4613SOL     OW25474   2.691   3.186   4.611 -0.3488  0.0911 -0.5075
 4613SOL    HW125475   2.637   3.120   4.655  1.3488 -1.3871 -0.6170
 4613SOL    HW225476   2.665   3.178   4.519 -0.2483 -0.7891 -0.4673
 4614SOL     OW25477   4.579   3.186   6.520 -0.2654 -0.2995  0.0693
 4614SOL    HW125478   4.631   3.111   6.491 -0.6953 -0.5240 -0.1321
 4614SOL    HW225479   4.507   3.137   6.560 -0.2693  1.2084  1.8703
 4615SOL     OW25480   1.448   1.661  17.598 -0.0274  0.3234  0.2501
 4615SOL    HW125481   1.397   1.686  17.521  1.5142 -1.0065 -1.1914
 4615SOL    HW225482   1.403   1.584  17.631  1.6726 -0.6205  0.4003
 4616SOL     OW25483   0.789   4.603   6.292  0.4809 -0.6064 -0.1001
 4616SOL    HW125484   0.791   4.571   6.201  0.0421  0.7649 -0.6040
 4616SOL    HW225485   0.765   4.523   6.339  1.4028 -1.5135 -1.1451
 4617SOL     OW25486   1.367   3.845  14.151  0.2526  0.1664  0.2658
 4617SOL    HW125487   1.377   3.937  14.126  1.5091  0.2201  0.9717
 4617SOL    HW225488   1.351   3.802  14.067 -0.1304  2.0349 -0.6206
 4618SOL     OW25489   0.496   3.734   8.614  0.1672  0.5382 -0.1056
 4618SOL    HW125490   0.481   3.650   8.571  0.6838  0.1473  0.4764
 4618SOL    HW225491   0.517   3.711   8.705  0.7765  2.0058  0.1230
 4619SOL     OW25492   4.492   2.883  12.457  0.3653 -0.1836  0.1251
 4619SOL    HW125493   4.522   2.962  12.502  2.0205 -0.8114  0.1403
 4619SOL    HW225494   4.399   2.903  12.467 -0.2723 -2.3023 -1.5220
 4620SOL     OW25495   0.974   3.589   8.325 -0.0225 -0.3780  0.4057
 4620SOL    HW125496   0.975   3.509   8.273 -2.3566  1.8059 -3.0579
 4620SOL    HW225497   0.960   3.550   8.411  0.3092 -1.2778  0.0468
 4621SOL     OW25498   1.797   3.802   4.400  0.3618  0.4363 -0.3793
 4621SOL    HW125499   1.764   3.828   4.486 -0.0438 -2.7878  0.4361
 4621SOL    HW225500   1.892   3.812   4.401  0.6672 -2.6423 -0.0412
 4622SOL     OW25501   1.790   3.909   1.745 -0.3480  0.8999 -0.2934
 4622SOL    HW125502   1.820   3.993   1.779  1.8993  0.2821 -0.7553
 4622SOL    HW225503   1.869   3.889   1.695  0.5755  1.4576  0.9397
 4623SOL     OW25504   0.634   0.189   2.215  0.2102 -0.0717 -0.2870
 4623SOL    HW125505   0.545   0.184   2.181 -0.9095 -1.1232  2.7597
 4623SOL    HW225506   0.678   0.137   2.148  0.5513  1.4527 -1.2335
 4624SOL     OW25507   2.754   1.590  16.152  0.4322 -0.0037 -0.7620
 4624SOL    HW125508   2.690   1.655  16.122 -0.0259 -0.9655 -1.8912
 4624SOL    HW225509   2.830   1.620  16.101 -0.4031  1.6665 -1.0406
 4625SOL     OW25510   0.974   2.172   3.131 -0.4749 -0.4454 -0.6421
 4625SOL    HW125511   0.984   2.226   3.209  0.2150  0.2360 -1.2076
 4625SOL    HW225512   0.973   2.240   3.063 -0.7721  1.6864  1.5070
 4626SOL     OW25513   1.639   0.042  11.710  0.3251  0.2663 -0.4976
 4626SOL    HW125514   1.697   0.049  11.634 -0.2923 -0.3314 -1.0277
 4626SOL    HW225515   1.702   0.076  11.773 -0.2462 -2.1139  1.3789
 4627SOL     OW25516   0.379   2.770   1.371 -0.5571  0.4901 -0.3267
 4627SOL    HW125517   0.303   2.756   1.314 -0.8485 -1.6844  0.5907
 4627SOL    HW225518   0.439   2.725   1.312 -1.0070  1.5333 -1.5766
 4628SOL     OW25519   4.645   3.645  17.371  0.2527 -0.3149 -0.3096
 4628SOL    HW125520   4.727   3.696  17.371 -0.2631  0.5292  1.4073
 4628SOL    HW225521   4.586   3.700  17.422 -0.2967 -2.9066  1.8193
 4629SOL     OW25522   3.790   1.706  10.015 -0.1249  0.4931  0.4021
 4629SOL    HW125523   3.884   1.704   9.995  0.3422  2.1202  2.4939
 4629SOL    HW225524   3.772   1.798  10.035 -2.0537  0.0330  0.7613
 4630SOL     OW25525   0.484   4.271   2.015  0.1338  0.2635 -0.3200
 4630SOL    HW125526   0.479   4.272   1.919 -1.6984 -1.1071 -0.2515
 4630SOL    HW225527   0.553   4.206   2.030  1.9820  1.8345 -2.0293
 4631SOL     OW25528   4.084   0.905   3.624 -0.2287 -0.3549 -0.1801
 4631SOL    HW125529   4.174   0.874   3.618 -0.0396 -0.0107  0.9756
 4631SOL    HW225530   4.070   0.906   3.718  2.1975 -0.9829  0.1812
 4632SOL     OW25531   3.212   4.555   7.178 -0.4161  0.1540 -0.1430
 4632SOL    HW125532   3.214   4.634   7.232  0.0616 -1.0010  1.5221
 4632SOL    HW225533   3.144   4.575   7.114  1.3729  0.7917 -1.8562
 4633SOL     OW25534   1.894   0.970   0.650 -0.4414 -0.3501  0.3916
 4633SOL    HW125535   1.952   1.005   0.718  1.2955  0.6507 -1.6139
 4633SOL    HW225536   1.828   0.922   0.700 -0.8949 -0.4547 -0.3163
 4634SOL     OW25537   4.083   2.553   9.939 -0.1193 -0.3215 -0.0571
 4634SOL    HW125538   4.060   2.470   9.982 -1.6256  0.1823  0.1236
 4634SOL    HW225539   4.004   2.582   9.893 -0.9848 -1.0382  0.9675
 4635SOL     OW25540   0.186   1.784   2.790  0.0013  0.1794  0.6442
 4635SOL    HW125541   0.246   1.785   2.864 -0.2495 -1.3303  0.8533
 4635SOL    HW225542   0.224   1.716   2.735 -0.9960 -0.3098  0.5543
 4636SOL     OW25543   1.641   1.151  16.674  0.6150 -0.5587  0.5750
 4636SOL    HW125544   1.545   1.150  16.677  0.6256 -1.9382  0.4999
 4636SOL    HW225545   1.648   1.215  16.603 -1.6712 -0.8374  0.0774
 4637SOL     OW25546   0.452   3.417   7.815 -0.3861  0.0647 -0.4587
 4637SOL    HW125547   0.471   3.332   7.854 -1.6989 -0.8847 -1.8683
 4637SOL    HW225548   0.400   3.457   7.884 -1.9279 -3.3779  0.3802
 4638SOL     OW25549   1.048   3.446   4.670  0.6033  0.5861 -0.0008
 4638SOL    HW125550   1.102   3.368   4.661  0.8261  1.1112 -3.4383
 4638SOL    HW225551   1.119   3.509   4.682  1.6280 -0.6586  0.3109
 4639SOL     OW25552   3.889   1.418   8.745 -0.0959 -0.6716  0.6455
 4639SOL    HW125553   3.941   1.411   8.665 -1.8655 -0.2864 -0.5422
 4639SOL    HW225554   3.914   1.344   8.801  0.2403 -0.9933  0.0763
 4640SOL     OW25555   2.255   2.186  12.783  0.2619  0.0255  0.6239
 4640SOL    HW125556   2.314   2.261  12.777 -1.0286  0.9867  0.0166
 4640SOL    HW225557   2.176   2.231  12.814 -0.6743 -1.4948  0.4573
 4641SOL     OW25558   0.390   0.895   1.443  0.4532  0.6381 -0.6120
 4641SOL    HW125559   0.466   0.898   1.385 -0.3942 -0.7698 -1.8111
 4641SOL    HW225560   0.336   0.964   1.403  0.6481  0.7985 -0.5972
 4642SOL     OW25561   3.044   4.206   4.140 -0.0588  0.4286 -0.3853
 4642SOL    HW125562   3.017   4.297   4.134 -1.1685  0.2137  1.2431
 4642SOL    HW225563   3.091   4.215   4.223 -0.7225  0.6050 -0.0274
 4643SOL     OW25564   0.984   4.525   2.514 -0.3314  0.6631  0.7621
 4643SOL    HW125565   0.971   4.507   2.607 -1.1393 -0.7675  0.3713
 4643SOL    HW225566   0.957   4.442   2.476  0.7780 -0.2632  2.0080
 4644SOL     OW25567   3.225   1.835   8.792  0.2758 -0.0633  0.1674
 4644SOL    HW125568   3.189   1.762   8.842 -0.6869 -0.9743 -1.8449
 4644SOL    HW225569   3.222   1.904   8.858  0.4944 -0.4706  0.5940
 4645SOL     OW25570   3.163   2.571  15.741 -0.1024  0.0326  0.2437
 4645SOL    HW125571   3.246   2.612  15.717  0.1125 -0.2928  0.4262
 4645SOL    HW225572   3.102   2.639  15.712  1.5573 -0.2117 -3.7650
 4646SOL     OW25573   1.866   2.298   3.936 -0.1140  0.5390  0.6128
 4646SOL    HW125574   1.831   2.314   3.848 -0.6075 -1.3206  0.4696
 4646SOL    HW225575   1.826   2.368   3.987  0.1014 -0.1709  1.7452
 4647SOL     OW25576   1.075   3.775   7.549  0.0011 -0.3188  0.4814
 4647SOL    HW125577   0.994   3.728   7.530 -0.2711  0.5555 -0.5006
 4647SOL    HW225578   1.121   3.700   7.586  0.1906 -1.0342 -1.2359
 4648SOL     OW25579   2.903   3.043  15.122  0.0567  0.2033 -0.2565
 4648SOL    HW125580   2.971   3.053  15.188  0.7967  0.0861 -1.0049
 4648SOL    HW225581   2.915   2.949  15.110 -0.6093  0.0412  0.3834
 4649SOL     OW25582   2.826   4.135  11.497  0.3822  0.4029 -0.2011
 4649SOL    HW125583   2.759   4.170  11.438 -0.1588 -0.2037  0.0485
 4649SOL    HW225584   2.896   4.188  11.461 -1.1842  0.8186 -2.6181
 4650SOL     OW25585   1.246   3.242   3.906 -0.0066  0.0235  0.2131
 4650SOL    HW125586   1.273   3.333   3.890  0.0099  0.2993  1.7613
 4650SOL    HW225587   1.151   3.246   3.909  0.0294  0.7137  0.5188
 4651SOL     OW25588   3.947   0.408   2.690  0.3763  0.1750 -0.0881
 4651SOL    HW125589   3.854   0.413   2.710 -0.0425 -1.6005 -1.6175
 4651SOL    HW225590   3.949   0.343   2.619 -1.2764  1.4647 -1.3095
 4652SOL     OW25591   1.370   1.644   1.570 -0.2719  0.3250  0.6212
 4652SOL    HW125592   1.450   1.627   1.619  0.9419  1.8805 -0.8108
 4652SOL    HW225593   1.302   1.597   1.618  0.1161  0.1384  0.9794
 4653SOL     OW25594   3.309   1.134   4.164  0.0303 -0.2542  0.8980
 4653SOL    HW125595   3.364   1.096   4.095  0.0482  1.9575 -0.3294
 4653SOL    HW225596   3.294   1.068   4.231  0.8942 -1.3834 -0.0251
 4654SOL     OW25597   4.172   1.510   5.780  0.4834  0.5843  0.1075
 4654SOL    HW125598   4.183   1.473   5.693 -0.0462 -0.1308  0.3380
 4654SOL    HW225599   4.118   1.587   5.763 -1.1292 -1.1066 -2.3128
 4655SOL     OW25600   2.040   3.104   5.699  0.3138 -0.3595 -0.6127
 4655SOL    HW125601   2.027   3.139   5.611  0.1705  1.0571 -0.0350
 4655SOL    HW225602   2.082   3.022   5.674  1.1290 -0.7026  1.8585
 4656SOL     OW25603   1.405   1.357  17.398 -0.0592  0.0208  0.0032
 4656SOL    HW125604   1.484   1.304  17.408 -0.0459 -0.0203 -0.3304
 4656SOL    HW225605   1.349   1.294  17.353 -1.9740  1.1478  0.8112
 4657SOL     OW25606   3.847   1.249  15.453 -0.7534  0.0963 -0.5061
 4657SOL    HW125607   3.890   1.247  15.367 -3.0042  0.8349 -1.6754
 4657SOL    HW225608   3.760   1.212  15.433  0.0973 -0.9539 -2.3473
 4658SOL     OW25609   0.509   2.221   7.921 -0.3943 -0.0531  0.5766
 4658SOL    HW125610   0.489   2.313   7.905  0.5453 -0.7731 -4.8571
 4658SOL    HW225611   0.505   2.184   7.832  1.3253 -2.2994  1.4259
 4659SOL     OW25612   1.704   1.057   8.807  0.2027 -0.2232  0.4303
 4659SOL    HW125613   1.642   1.087   8.873 -1.5110 -0.3919 -1.0976
 4659SOL    HW225614   1.744   0.982   8.852 -0.3977 -1.1580 -0.5704
 4660SOL     OW25615   1.330   2.494   6.513  0.1531 -0.6200  0.1070
 4660SOL    HW125616   1.398   2.557   6.490 -0.3804 -0.0006  0.2243
 4660SOL    HW225617   1.255   2.545   6.543  1.8288  3.1017 -1.9885
 4661SOL     OW25618   3.318   3.606   7.471  0.0913 -0.2343  0.2728
 4661SOL    HW125619   3.386   3.641   7.529  0.8528  1.7939 -1.8515
 4661SOL    HW225620   3.247   3.596   7.535 -0.0774  1.2621  0.3107
 4662SOL     OW25621   2.578   1.651   2.464  0.3006  0.4986 -0.5937
 4662SOL    HW125622   2.623   1.645   2.548 -0.0559  1.0067 -0.3641
 4662SOL    HW225623   2.556   1.561   2.439 -2.1492  0.5793  1.2195
 4663SOL     OW25624   4.249   1.870  15.211 -0.3262 -0.2673 -0.4814
 4663SOL    HW125625   4.219   1.848  15.123 -1.8403  0.4752 -0.1466
 4663SOL    HW225626   4.169   1.841  15.254  1.7682  0.8570  4.1201
 4664SOL     OW25627   3.486   4.524  12.575  0.0800  0.0624 -0.8215
 4664SOL    HW125628   3.403   4.573  12.572  0.5165  0.8826  0.5736
 4664SOL    HW225629   3.460   4.471  12.500  1.2389 -0.0127 -1.1685
 4665SOL     OW25630   4.022   3.277   6.298 -0.2930  1.2274  0.3279
 4665SOL    HW125631   4.015   3.304   6.207  0.9174  3.4197  0.8776
 4665SOL    HW225632   3.955   3.336   6.331  0.4267  0.8495  2.4941
 4666SOL     OW25633   0.261   4.225  12.675  0.4081  0.6125  0.2865
 4666SOL    HW125634   0.244   4.177  12.756  1.0217 -0.5331 -0.2623
 4666SOL    HW225635   0.201   4.178  12.617  0.7458  0.4865  0.0356
 4667SOL     OW25636   1.601   2.519  10.967 -0.6659  0.2176  0.6968
 4667SOL    HW125637   1.629   2.473  10.888  1.9054  1.4642  0.8791
 4667SOL    HW225638   1.506   2.504  10.970 -0.5536 -0.7128 -0.5342
 4668SOL     OW25639   3.074   2.785  12.251 -0.5264  0.2622  0.2537
 4668SOL    HW125640   3.093   2.854  12.315  2.9372 -0.9762  0.5762
 4668SOL    HW225641   3.077   2.703  12.300  1.2273 -0.0978 -0.4446
 4669SOL     OW25642   1.289   0.140   4.156 -0.0433  0.3269 -0.3647
 4669SOL    HW125643   1.213   0.127   4.212  1.3601 -1.7207  1.0907
 4669SOL    HW225644   1.253   0.117   4.071  0.6616  0.7701 -0.7852
 4670SOL     OW25645   4.136   3.477  16.673 -0.2740  0.0940 -0.4695
 4670SOL    HW125646   4.067   3.429  16.719 -1.6327 -0.5854 -3.2192
 4670SOL    HW225647   4.210   3.421  16.699  0.2895  1.1864  0.2584
 4671SOL     OW25648   4.270   2.681   4.208  0.4444 -0.0122 -0.3550
 4671SOL    HW125649   4.297   2.660   4.298  0.7293 -0.4768 -0.5499
 4671SOL    HW225650   4.326   2.757   4.193  0.0054  0.8863  2.4165
 4672SOL     OW25651   4.660   0.168   2.722  0.0928 -0.4179 -0.4078
 4672SOL    HW125652   0.004   0.222   2.714  0.8463 -1.2568  1.5018
 4672SOL    HW225653   4.690   0.085   2.758  0.0206 -0.8295 -1.3107
 4673SOL     OW25654   0.950   4.667   3.825  0.3033 -0.2771 -0.0201
 4673SOL    HW125655   0.892   4.592   3.812 -0.4928  0.4320 -0.5735
 4673SOL    HW225656   0.984   4.672   3.735 -0.6761  0.1401 -0.3696
 4674SOL     OW25657   2.375   3.854   0.952 -0.5677 -0.1735  0.4784
 4674SOL    HW125658   2.462   3.886   0.928  0.0584 -1.4631  1.0399
 4674SOL    HW225659   2.353   3.791   0.884 -0.7357 -1.1421  1.4267
 4675SOL     OW25660   1.130   2.435   4.916 -0.0162  0.1899 -0.1329
 4675SOL    HW125661   1.205   2.438   4.975 -1.3793 -1.2844  1.7001
 4675SOL    HW225662   1.101   2.525   4.904 -0.8248  0.1135  1.2626
 4676SOL     OW25663   4.100   4.042   5.926 -0.5780  0.2306 -0.0065
 4676SOL    HW125664   4.015   4.032   5.884 -0.9411  1.5305  0.4153
 4676SOL    HW225665   4.106   4.130   5.962 -1.0324  1.2925 -2.5792
 4677SOL     OW25666   2.533   1.211   0.056  0.9733  0.7193  0.1723
 4677SOL    HW125667   2.545   1.290   0.110 -0.1823 -1.2522  3.2909
 4677SOL    HW225668   2.484   1.258  17.730 -1.0163 -2.7880 -0.8107
 4678SOL     OW25669   3.489   3.735   2.343 -0.3544 -0.3067  0.3724
 4678SOL    HW125670   3.466   3.766   2.255  1.6959  1.4160  0.4311
 4678SOL    HW225671   3.403   3.702   2.368 -0.0956 -0.3269  1.2463
 4679SOL     OW25672   4.008   2.820   7.430  0.9332  0.5054 -0.7615
 4679SOL    HW125673   4.049   2.741   7.395  0.0804  0.2535 -1.1918
 4679SOL    HW225674   3.928   2.822   7.378 -0.7763 -2.2045  1.8111
 4680SOL     OW25675   0.080   1.975   9.884 -0.0361  0.1122  0.1935
 4680SOL    HW125676   0.107   1.887   9.859 -1.2793 -0.5006  1.0123
 4680SOL    HW225677   0.159   2.020   9.916  0.4752 -0.5583 -0.1345
 4681SOL     OW25678   3.051   2.364   8.851 -0.0995 -0.2567  0.1244
 4681SOL    HW125679   3.090   2.436   8.801 -0.4307 -0.7846 -0.9048
 4681SOL    HW225680   3.008   2.418   8.917  0.3772 -1.0980  1.1135
 4682SOL     OW25681   1.918   1.672   2.879  0.2355 -0.3306 -0.0331
 4682SOL    HW125682   1.874   1.599   2.836 -1.6151 -0.1652  1.5800
 4682SOL    HW225683   2.007   1.659   2.846  0.1116 -0.4415 -0.3249
 4683SOL     OW25684   1.362   2.527   3.672 -0.4036  0.2559  0.0335
 4683SOL    HW125685   1.447   2.571   3.672 -0.5182  0.4718  0.6416
 4683SOL    HW225686   1.354   2.492   3.760 -1.3329 -1.9150 -0.9197
 4684SOL     OW25687   2.183   1.475   6.814 -0.3399 -0.2848  0.7606
 4684SOL    HW125688   2.249   1.473   6.745  1.0211 -0.7441  2.0530
 4684SOL    HW225689   2.203   1.558   6.856 -0.9509  0.3993 -0.3108
 4685SOL     OW25690   0.193   0.993   6.757 -0.2879  0.1996 -0.6494
 4685SOL    HW125691   0.207   0.910   6.804 -3.3687 -0.0273 -0.1543
 4685SOL    HW225692   0.109   0.968   6.718 -1.1739  0.8663  0.8321
 4686SOL     OW25693   2.029   0.829   9.832  0.4192 -0.0218  0.0737
 4686SOL    HW125694   2.112   0.850   9.875 -0.6864  3.4827  0.4622
 4686SOL    HW225695   1.968   0.889   9.875  2.3891  1.3220  0.9538
 4687SOL     OW25696   3.446   4.627   3.978  0.0625 -0.1469  0.2199
 4687SOL    HW125697   3.455   4.648   3.885  1.0736 -0.2603  0.2970
 4687SOL    HW225698   3.532   4.586   3.985  0.1359 -0.0406 -0.0471
 4688SOL     OW25699   3.070   1.534   8.048 -0.2930 -0.7938  1.3850
 4688SOL    HW125700   2.990   1.502   8.005  0.3144  0.6009 -0.7752
 4688SOL    HW225701   3.059   1.628   8.035  2.8151 -0.5922  0.2657
 4689SOL     OW25702   0.359   2.930  14.573 -0.4472 -0.0155 -0.0708
 4689SOL    HW125703   0.448   2.913  14.541  0.5637 -0.0511  2.7218
 4689SOL    HW225704   0.380   2.974  14.655  0.7541  0.3199 -0.5518
 4690SOL     OW25705   4.570   2.637   4.784  0.6167 -0.0495  0.5080
 4690SOL    HW125706   4.661   2.639   4.812  0.9028 -1.7660 -0.2985
 4690SOL    HW225707   4.570   2.552   4.739 -0.9020  0.4238 -0.3850
 4691SOL     OW25708   1.844   0.172  11.848  0.2965  0.1184 -0.0669
 4691SOL    HW125709   1.793   0.224  11.911  2.0966  2.8733 -0.9121
 4691SOL    HW225710   1.882   0.112  11.912  1.8356 -1.2521 -2.2909
 4692SOL     OW25711   0.951   0.309   6.951  0.1109 -0.4664  0.4445
 4692SOL    HW125712   0.889   0.359   7.004  2.3683 -0.7569  3.3632
 4692SOL    HW225713   0.971   0.371   6.881  0.2741 -0.0618  0.8459
 4693SOL     OW25714   1.589   0.149   2.018  0.3986 -0.3358 -0.0380
 4693SOL    HW125715   1.535   0.082   1.977 -1.6570  0.7081  0.9299
 4693SOL    HW225716   1.639   0.181   1.943  0.4442  2.7002  1.2667
 4694SOL     OW25717   0.052   0.068   6.250  0.5940  0.0157 -0.0827
 4694SOL    HW125718   0.115   0.030   6.190  1.5853 -1.8537  2.1580
 4694SOL    HW225719   0.027   4.728   6.304  4.2468  0.0024  1.5388
 4695SOL     OW25720   4.724   1.542  10.895  0.6300 -0.3980 -0.4475
 4695SOL    HW125721   4.662   1.469  10.903 -0.6069  0.7002 -0.1342
 4695SOL    HW225722   0.064   1.497  10.857  2.8859  1.7571  1.4724
 4696SOL     OW25723   4.020   4.265   6.329  0.3076  0.1910 -0.2327
 4696SOL    HW125724   3.979   4.351   6.334 -1.4835 -0.5717 -2.1496
 4696SOL    HW225725   3.941   4.215   6.350 -0.0487  0.6283 -0.5560
 4697SOL     OW25726   4.433   0.804   7.989 -0.0430 -0.4721 -0.3166
 4697SOL    HW125727   4.483   0.742   8.042  2.8765  1.6161 -0.6135
 4697SOL    HW225728   4.493   0.879   7.990 -1.2702  0.5220 -1.3977
 4698SOL     OW25729   2.347   3.329   1.234 -0.7184  0.0874  0.3619
 4698SOL    HW125730   2.418   3.349   1.294 -2.1639  2.8498  1.1593
 4698SOL    HW225731   2.370   3.379   1.156  1.0269  0.9286  1.4218
 4699SOL     OW25732   2.496   4.549   8.397  0.0006  0.2487  0.3223
 4699SOL    HW125733   2.497   4.545   8.492 -2.1365 -2.8159  0.2177
 4699SOL    HW225734   2.401   4.540   8.386 -0.2733 -1.4402  4.0623
 4700SOL     OW25735   2.550   3.258   3.873 -0.2534  0.3993  0.1160
 4700SOL    HW125736   2.607   3.323   3.832  1.5181  0.8163  3.2409
 4700SOL    HW225737   2.515   3.222   3.791 -1.4087  0.0138  0.7693
 4701SOL     OW25738   3.837   3.335   2.598 -0.0910  0.5933  0.2063
 4701SOL    HW125739   3.857   3.361   2.687 -0.8218  0.8492  0.3000
 4701SOL    HW225740   3.772   3.267   2.615  2.1706 -1.3789  0.8434
 4702SOL     OW25741   3.472   0.007   7.902  0.5088 -0.2155  0.2402
 4702SOL    HW125742   3.445   0.079   7.958  2.9223 -0.0866  1.2391
 4702SOL    HW225743   3.541   0.038   7.843 -0.7117 -0.6345 -1.3936
 4703SOL     OW25744   1.969   4.662   8.920 -0.3357  0.0311  0.2670
 4703SOL    HW125745   2.024   4.591   8.956  2.0435  0.5306 -2.3364
 4703SOL    HW225746   1.945   4.617   8.839 -1.4975 -1.0022  1.1777
 4704SOL     OW25747   1.767   1.770   3.482  0.4092 -0.0092  0.3715
 4704SOL    HW125748   1.746   1.850   3.433 -0.2232  0.7672  1.9089
 4704SOL    HW225749   1.856   1.796   3.508 -0.5329  1.8424  1.7531
 4705SOL     OW25750   3.275   2.414  13.440 -0.0080 -0.3035 -0.4979
 4705SOL    HW125751   3.241   2.325  13.448 -0.8297  0.1796  1.2489
 4705SOL    HW225752   3.260   2.443  13.350  2.6952  1.3200 -0.4351
 4706SOL     OW25753   2.017   1.054   0.865  0.3222 -0.0996  0.4931
 4706SOL    HW125754   1.988   1.004   0.941  0.4812 -1.1456 -0.1472
 4706SOL    HW225755   2.111   1.051   0.877  0.0644  0.2320  2.5224
 4707SOL     OW25756   2.729   0.457   5.787 -0.5379  0.4080 -0.2788
 4707SOL    HW125757   2.742   0.449   5.881 -4.1680 -0.6826  0.1265
 4707SOL    HW225758   2.664   0.525   5.772 -1.6883 -1.2018 -2.6931
 4708SOL     OW25759   2.805   1.734  10.220 -0.2375  0.4599  0.1998
 4708SOL    HW125760   2.884   1.770  10.260 -0.7260  1.4035  0.3310
 4708SOL    HW225761   2.786   1.794  10.148 -0.5135 -0.1557 -0.2346
 4709SOL     OW25762   1.375   1.711   1.945  0.4721  0.1899  0.3322
 4709SOL    HW125763   1.447   1.774   1.953  0.6467 -0.2005  1.7352
 4709SOL    HW225764   1.299   1.767   1.928  0.5183 -0.0725 -0.7689
 4710SOL     OW25765   2.108   1.527   5.776  0.6142 -0.1471 -0.2821
 4710SOL    HW125766   2.016   1.553   5.769 -0.1589 -2.2724  1.7552
 4710SOL    HW225767   2.094   1.438   5.809  0.0979 -0.4575 -1.3387
 4711SOL     OW25768   2.760   4.144   8.013 -0.1177 -0.1685  0.5094
 4711SOL    HW125769   2.713   4.175   8.090  0.6208  0.3315  0.7550
 4711SOL    HW225770   2.847   4.162   8.047  0.5417  0.7324 -1.6452
 4712SOL     OW25771   4.617   2.270   8.618 -0.3796 -0.6194 -0.2633
 4712SOL    HW125772   4.708   2.300   8.624 -0.3825 -1.1107  2.5014
 4712SOL    HW225773   4.567   2.350   8.604 -2.6624 -1.8461  0.9515
 4713SOL     OW25774   1.312   4.658   3.672  0.1906  0.2587  0.3517
 4713SOL    HW125775   1.289   4.634   3.582 -0.4463  1.7024  0.1418
 4713SOL    HW225776   1.376   4.592   3.700  1.2182  0.6499 -1.0201
 4714SOL     OW25777   2.060   3.460   9.547 -0.2516 -0.5501 -0.4891
 4714SOL    HW125778   2.122   3.395   9.579 -0.8409 -1.0336 -0.3377
 4714SOL    HW225779   1.976   3.449   9.592  0.6704  0.5207  1.4759
 4715SOL     OW25780   0.782   1.253   6.892 -0.2741  0.0247  0.9063
 4715SOL    HW125781   0.853   1.283   6.834 -1.9575 -2.0154 -2.2142
 4715SOL    HW225782   0.703   1.290   6.854 -0.9836 -3.9171 -1.3927
 4716SOL     OW25783   1.474   3.158  14.600 -0.2381  0.3490  0.1359
 4716SOL    HW125784   1.453   3.245  14.566 -0.1651  0.0292 -0.7531
 4716SOL    HW225785   1.517   3.183  14.681  1.6813 -0.8023 -0.5216
 4717SOL     OW25786   4.511   0.910   7.479  0.8204 -0.3898 -0.4175
 4717SOL    HW125787   4.479   0.957   7.555 -0.6722 -1.4021 -0.4299
 4717SOL    HW225788   4.495   0.971   7.406 -1.1809 -1.8378 -1.1877
 4718SOL     OW25789   2.552   2.340  17.692 -0.4037  0.2575 -0.0855
 4718SOL    HW125790   2.643   2.350  17.664 -1.0819 -0.8934 -2.7432
 4718SOL    HW225791   2.511   2.358  17.607  0.8670 -0.0219 -0.7701
 4719SOL     OW25792   3.355   4.170   1.221  0.2767  0.2562  0.1770
 4719SOL    HW125793   3.356   4.160   1.316 -2.6594 -0.3083  0.1486
 4719SOL    HW225794   3.439   4.131   1.198 -1.8478 -3.8358 -0.6840
 4720SOL     OW25795   3.074   4.368   4.560  0.0466 -0.3225  0.0245
 4720SOL    HW125796   3.151   4.424   4.554 -0.4793  0.1785 -1.7754
 4720SOL    HW225797   3.099   4.300   4.497  0.3490 -0.6122  0.4545
 4721SOL     OW25798   1.606   3.313   8.522  0.3001 -0.2569  0.4647
 4721SOL    HW125799   1.540   3.301   8.590 -0.2946  1.8482  0.2708
 4721SOL    HW225800   1.575   3.397   8.488  0.1607 -0.3922  0.2634
 4722SOL     OW25801   1.101   3.292  16.081 -0.2305  0.2692  0.3260
 4722SOL    HW125802   1.124   3.265  15.993 -2.0794 -1.2602  0.3051
 4722SOL    HW225803   1.043   3.220  16.105 -0.6640  0.6328  0.3720
 4723SOL     OW25804   4.438   4.623   9.498  0.1427 -0.7419 -0.2027
 4723SOL    HW125805   4.486   4.693   9.455 -0.0508 -0.3986  0.1364
 4723SOL    HW225806   4.404   4.673   9.572  0.7137 -0.9761  0.2241
 4724SOL     OW25807   1.396   2.890   4.308 -0.2854  0.3514 -0.3370
 4724SOL    HW125808   1.346   2.970   4.290 -0.8379 -0.1506 -0.9925
 4724SOL    HW225809   1.427   2.868   4.221  1.1989 -2.7466  1.0082
 4725SOL     OW25810   1.104   4.715  17.280  0.2086  0.1226 -0.9342
 4725SOL    HW125811   1.168   0.046  17.307  0.1439  0.6181 -2.0140
 4725SOL    HW225812   1.152   4.638  17.311 -0.8403 -0.1096  0.1051
 4726SOL     OW25813   0.749   0.904   2.336  0.1926 -0.4771  0.1986
 4726SOL    HW125814   0.757   0.846   2.412  1.3558 -1.1643 -0.4439
 4726SOL    HW225815   0.804   0.855   2.275  1.0395 -0.7272  1.1534
 4727SOL     OW25816   1.814   1.037  14.091  0.2047 -0.5388  0.0928
 4727SOL    HW125817   1.725   1.023  14.058  0.3268  0.5841 -0.7248
 4727SOL    HW225818   1.866   1.020  14.012  2.8763  0.9853  1.5235
 4728SOL     OW25819   1.255   4.369  14.203 -0.6228 -0.1416  0.0737
 4728SOL    HW125820   1.296   4.428  14.139 -0.4088 -0.0795  0.2679
 4728SOL    HW225821   1.192   4.433  14.234 -0.0028  0.2791  0.4662
 4729SOL     OW25822   3.606   4.570   7.287  0.2993  0.7218  0.1766
 4729SOL    HW125823   3.559   4.631   7.231 -0.7550 -1.0084 -0.8256
 4729SOL    HW225824   3.538   4.552   7.353  0.0544  0.1536 -0.2304
 4730SOL     OW25825   1.849   0.167   3.372  0.0675 -0.0044 -0.9048
 4730SOL    HW125826   1.788   0.100   3.341  0.9313 -0.5918 -1.3313
 4730SOL    HW225827   1.807   0.252   3.357 -1.7592 -0.8059 -0.3426
 4731SOL     OW25828   4.389   2.081  15.297 -0.8160  0.0321 -0.1502
 4731SOL    HW125829   4.362   1.993  15.270  2.5600 -0.8352 -0.7452
 4731SOL    HW225830   4.391   2.129  15.214  0.7962  0.2131 -0.0038
 4732SOL     OW25831   4.382   3.033   9.300  0.2671  0.6117 -0.0368
 4732SOL    HW125832   4.475   3.022   9.278  0.2390 -0.1400  0.2159
 4732SOL    HW225833   4.334   2.953   9.277  0.0060  0.6343  0.4391
 4733SOL     OW25834   3.402   3.469   3.542 -0.1066  0.0151 -0.1792
 4733SOL    HW125835   3.319   3.426   3.523 -1.0470  1.0855  1.4887
 4733SOL    HW225836   3.438   3.488   3.455  0.5768 -0.6587 -0.0395
 4734SOL     OW25837   0.738   4.361   7.551 -0.2060 -0.1390  0.4060
 4734SOL    HW125838   0.658   4.352   7.498  0.3280  0.4180 -0.4917
 4734SOL    HW225839   0.745   4.274   7.590 -0.2542 -0.0171  0.6822
 4735SOL     OW25840   2.941   2.982  15.729 -1.0995 -0.6537 -0.1655
 4735SOL    HW125841   3.021   3.035  15.732 -1.1240 -0.6962  1.0173
 4735SOL    HW225842   2.974   2.907  15.679 -0.9732 -0.3562 -0.5328
 4736SOL     OW25843   4.318   1.186   6.862 -0.2250 -0.2056  0.0858
 4736SOL    HW125844   4.301   1.108   6.914 -2.6694  0.5171  0.3537
 4736SOL    HW225845   4.409   1.200   6.889  0.5986 -0.8949 -2.3480
 4737SOL     OW25846   4.713   3.767  13.120  0.0576 -0.7934 -0.0612
 4737SOL    HW125847   4.727   3.858  13.096 -0.1287 -1.3466 -2.2082
 4737SOL    HW225848   4.655   3.770  13.196 -0.0397 -2.4023 -0.0775
 4738SOL     OW25849   0.656   1.000   6.984 -0.4898  0.0882 -0.0118
 4738SOL    HW125850   0.650   1.052   7.064  0.5549  1.0287 -0.5470
 4738SOL    HW225851   0.722   1.056   6.943 -1.6543  0.5190 -1.3031
 4739SOL     OW25852   3.775   1.640   6.868  0.3362  0.1260  0.3206
 4739SOL    HW125853   3.840   1.668   6.803 -0.0084 -0.1613 -0.1528
 4739SOL    HW225854   3.693   1.671   6.830  0.5491 -3.3656 -2.9889
 4740SOL     OW25855   2.235   3.728   6.105  0.4598  0.2853  0.2831
 4740SOL    HW125856   2.307   3.696   6.051  0.8538  1.6485 -0.0039
 4740SOL    HW225857   2.278   3.805   6.141  0.5382  1.3732 -2.1082
 4741SOL     OW25858   1.222   3.969   4.992 -0.4432  0.0832 -0.5258
 4741SOL    HW125859   1.178   3.889   5.021  0.0956 -0.1900 -0.4419
 4741SOL    HW225860   1.305   3.928   4.969  0.7556  1.2599  1.6308
 4742SOL     OW25861   1.409   3.757   6.080 -0.6691  0.8600  0.3136
 4742SOL    HW125862   1.488   3.775   6.030  0.2648 -1.9156  0.7928
 4742SOL    HW225863   1.459   3.716   6.151  0.3531  2.9077  0.7575
 4743SOL     OW25864   1.243   4.566   2.338 -0.0795  0.3812  0.6507
 4743SOL    HW125865   1.163   4.550   2.387 -0.8793 -2.7612 -1.6139
 4743SOL    HW225866   1.304   4.538   2.406 -1.1135 -0.0049  1.4187
 4744SOL     OW25867   4.661   4.187   8.067 -0.9396  0.4556  0.1196
 4744SOL    HW125868   4.590   4.133   8.102  1.7936 -2.4923  1.1600
 4744SOL    HW225869   4.694   4.219   8.151  1.1890 -1.5617  0.0485
 4745SOL     OW25870   4.501   1.334   7.340 -0.4677  0.1829  0.2767
 4745SOL    HW125871   4.518   1.306   7.430  0.1953  1.4312  0.5345
 4745SOL    HW225872   4.406   1.326   7.341 -0.6794  2.4515 -1.7954
 4746SOL     OW25873   1.164   4.533   5.296  0.6867 -0.0342  0.1337
 4746SOL    HW125874   1.189   4.543   5.204 -0.1593 -2.4255 -0.3692
 4746SOL    HW225875   1.109   4.610   5.310  1.2690  0.2604  0.7598
 4747SOL     OW25876   1.083   0.007  16.485 -0.1578 -1.1227  0.4289
 4747SOL    HW125877   1.027   0.073  16.525  1.0414  2.0389 -3.1299
 4747SOL    HW225878   1.035   4.730  16.403  0.1440 -1.8487  0.3534
 4748SOL     OW25879   0.863   3.556   2.313  0.1590 -0.6439  0.5597
 4748SOL    HW125880   0.786   3.579   2.365  0.9854  3.0645  0.1341
 4748SOL    HW225881   0.894   3.484   2.368  1.9474 -0.9236 -0.7740
 4749SOL     OW25882   1.851   1.667  15.109  0.4503 -0.3348 -0.8061
 4749SOL    HW125883   1.819   1.577  15.111  0.8080 -0.4691 -1.1639
 4749SOL    HW225884   1.794   1.707  15.043 -2.3559 -0.2070  1.7006
 4750SOL     OW25885   1.066   0.389   2.118  0.0751  0.0666 -0.4415
 4750SOL    HW125886   1.096   0.318   2.175  0.6470 -0.7883 -1.7913
 4750SOL    HW225887   0.971   0.390   2.134  0.2785 -0.4189  0.8019
 4751SOL     OW25888   2.401   0.493  10.823  0.4146  0.3008 -0.3265
 4751SOL    HW125889   2.363   0.446  10.750  0.3698  0.2316 -0.2590
 4751SOL    HW225890   2.421   0.573  10.774  0.9357 -0.0422 -0.6718
 4752SOL     OW25891   2.767   2.532   3.891  0.0331  0.7586 -0.0806
 4752SOL    HW125892   2.808   2.446   3.878  0.2764  0.8241  0.2567
 4752SOL    HW225893   2.674   2.512   3.895  0.6174 -1.6086  1.8101
 4753SOL     OW25894   0.168   0.398   6.848  0.1730 -0.0394 -0.8311
 4753SOL    HW125895   0.126   0.446   6.920  2.7712  1.6711 -0.4829
 4753SOL    HW225896   0.202   0.322   6.895 -0.6605 -0.9527 -1.7030
 4754SOL     OW25897   3.011   2.059   3.658  0.9209 -0.2118  0.2926
 4754SOL    HW125898   3.028   2.150   3.680  4.2661 -0.5331 -0.9390
 4754SOL    HW225899   3.093   2.037   3.614  1.0563 -1.3430  1.1074
 4755SOL     OW25900   3.988   1.974   3.167 -0.0394  0.5184  0.2982
 4755SOL    HW125901   3.935   1.910   3.214 -0.7518 -0.3449 -1.7140
 4755SOL    HW225902   4.075   1.937   3.181  0.5141  2.7644  2.9013
 4756SOL     OW25903   1.052   0.823   0.413  1.0319  0.0190  0.4494
 4756SOL    HW125904   0.969   0.781   0.390  0.4960  3.0676 -3.3471
 4756SOL    HW225905   1.016   0.910   0.430  0.4296  0.4461 -3.0160
 4757SOL     OW25906   0.048   3.893   5.186  0.3266  0.3046 -0.1069
 4757SOL    HW125907   0.052   3.982   5.223 -1.0910 -0.7152  2.4455
 4757SOL    HW225908   0.140   3.868   5.199  0.2841 -0.0318 -0.4767
 4758SOL     OW25909   2.589   4.479   2.338  0.5658  0.0688  0.0579
 4758SOL    HW125910   2.544   4.518   2.263 -2.1207 -1.3164  0.9445
 4758SOL    HW225911   2.587   4.385   2.320 -1.4940  0.2502 -0.6497
 4759SOL     OW25912   4.650   4.138   8.793 -0.4067  0.4983  0.5575
 4759SOL    HW125913   4.620   4.226   8.772  1.3305  1.1939  0.9259
 4759SOL    HW225914   4.652   4.087   8.712  0.8016 -0.9118  1.4551
 4760SOL     OW25915   0.985   3.269  10.416  0.6820  0.0342 -0.9469
 4760SOL    HW125916   0.991   3.229  10.329  1.0313 -0.1858 -0.8234
 4760SOL    HW225917   0.913   3.219  10.455  0.4099 -0.7682 -2.4568
 4761SOL     OW25918   2.879   1.596   4.458 -0.4698 -0.3190 -0.0950
 4761SOL    HW125919   2.936   1.622   4.386 -1.3975 -0.6378 -0.9449
 4761SOL    HW225920   2.927   1.634   4.532  0.4476 -2.6145  0.4974
 4762SOL     OW25921   4.352   0.084   6.137  0.2100 -0.0044 -0.3491
 4762SOL    HW125922   4.307   0.168   6.147 -0.8761 -0.5688 -0.3949
 4762SOL    HW225923   4.396   0.088   6.222 -2.0082 -0.2654  0.8204
 4763SOL     OW25924   2.526   4.463   7.367  0.1926  0.6678 -0.4898
 4763SOL    HW125925   2.599   4.464   7.429 -2.1927 -0.6389  2.2856
 4763SOL    HW225926   2.544   4.378   7.328 -1.8610  0.8561 -1.8206
 4764SOL     OW25927   1.923   3.910   3.807 -0.8432  0.3792 -0.3352
 4764SOL    HW125928   1.915   3.814   3.802  1.8437  0.1381 -0.1650
 4764SOL    HW225929   1.973   3.910   3.888 -1.4217 -0.5323  0.0315
 4765SOL     OW25930   3.306   2.747  14.054 -0.0555 -0.2980  0.6501
 4765SOL    HW125931   3.320   2.839  14.031 -0.7994 -0.0420  1.2155
 4765SOL    HW225932   3.244   2.762  14.126 -1.2392 -1.1799 -0.1873
 4766SOL     OW25933   3.065   3.347  17.058 -0.2299  0.1549  0.0574
 4766SOL    HW125934   2.973   3.328  17.038 -0.0337  1.3955 -2.0723
 4766SOL    HW225935   3.053   3.372  17.150  0.9633  1.5410 -0.1536
 4767SOL     OW25936   2.691   3.102   7.574 -0.0341 -0.1806 -0.0957
 4767SOL    HW125937   2.772   3.052   7.583  0.6540  0.9321 -0.1191
 4767SOL    HW225938   2.624   3.047   7.615  0.0051  0.0105  0.2216
 4768SOL     OW25939   2.930   0.488   8.735 -0.1665 -0.0237 -0.6383
 4768SOL    HW125940   2.876   0.409   8.734  1.2294 -0.9911  1.2092
 4768SOL    HW225941   2.926   0.523   8.824  0.4656 -2.5148  0.3692
 4769SOL     OW25942   1.235   0.426   5.934 -0.1838 -0.0427 -0.2243
 4769SOL    HW125943   1.165   0.376   5.975 -0.3925  0.6740  0.2916
 4769SOL    HW225944   1.200   0.426   5.844 -0.5048  1.2627 -0.1070
 4770SOL     OW25945   3.558   3.054   9.176 -0.1701 -0.1611 -0.4958
 4770SOL    HW125946   3.594   2.976   9.135 -0.8034 -0.8031  0.1755
 4770SOL    HW225947   3.634   3.104   9.205 -1.0460  1.3005 -0.7259
 4771SOL     OW25948   2.208   4.596  17.551  0.1193  0.1572  0.4383
 4771SOL    HW125949   2.246   4.671  17.598 -0.6747  0.9772 -0.2156
 4771SOL    HW225950   2.274   4.533  17.578 -1.0108 -0.6786  1.2303
 4772SOL     OW25951   1.061   1.289   7.367  0.2395  0.2719  0.3323
 4772SOL    HW125952   1.092   1.358   7.427  2.2640  0.2478 -0.6944
 4772SOL    HW225953   0.969   1.283   7.394 -0.1080  2.8599 -0.2797
 4773SOL     OW25954   0.723   4.687   2.705  0.5064  0.0820  0.2279
 4773SOL    HW125955   0.644   4.635   2.689  0.5417 -0.3291  1.3372
 4773SOL    HW225956   0.788   4.618   2.720  0.0722 -0.1032  1.3100
 4774SOL     OW25957   4.494   0.757  16.797 -0.5876 -0.2228 -0.1925
 4774SOL    HW125958   4.446   0.811  16.860  1.3013  2.4168 -1.0302
 4774SOL    HW225959   4.551   0.816  16.748  1.0365 -2.2340 -0.7242
 4775SOL     OW25960   2.764   1.719   3.817 -0.0010  0.3991 -0.1833
 4775SOL    HW125961   2.751   1.749   3.727 -0.6719 -0.1217 -0.2611
 4775SOL    HW225962   2.832   1.777   3.849  0.6608 -0.1808 -0.5428
 4776SOL     OW25963   3.794   3.624   3.632  0.2907 -0.1306 -0.6532
 4776SOL    HW125964   3.740   3.562   3.680 -0.2806  0.9157  0.0545
 4776SOL    HW225965   3.732   3.685   3.594 -1.1296 -0.8421  0.5156
 4777SOL     OW25966   1.125   3.097   2.564  0.0034 -0.2035  0.0383
 4777SOL    HW125967   1.153   3.189   2.554 -1.0156  0.1576  0.4883
 4777SOL    HW225968   1.103   3.065   2.477 -1.2956  2.2176 -0.5529
 4778SOL     OW25969   0.357   1.121   4.260  0.0161 -0.2314  1.0834
 4778SOL    HW125970   0.357   1.032   4.294  2.8065 -0.2884  0.9244
 4778SOL    HW225971   0.400   1.162   4.334 -1.7333 -0.2031  2.0774
 4779SOL     OW25972   2.475   0.221  17.268 -0.0114 -0.8549 -0.2999
 4779SOL    HW125973   2.385   0.243  17.291  0.0961  0.8398 -1.4766
 4779SOL    HW225974   2.483   0.133  17.303  0.7809 -0.8468 -0.4576
 4780SOL     OW25975   0.098   4.292   6.708  0.4557  0.0016 -0.1678
 4780SOL    HW125976   0.182   4.330   6.733  1.4018 -2.7511  0.8110
 4780SOL    HW225977   0.046   4.288   6.788  2.3624 -0.5813  1.0305
 4781SOL     OW25978   1.584   2.960   3.017 -0.3196  0.0518 -0.3901
 4781SOL    HW125979   1.514   3.009   2.975 -3.3241 -2.9590  1.0818
 4781SOL    HW225980   1.666   3.002   2.991 -0.9358  0.3103 -1.9373
 4782SOL     OW25981   2.718   1.977   5.593 -0.3462  0.0563 -0.1587
 4782SOL    HW125982   2.763   1.934   5.521 -0.7343 -0.4063 -0.1297
 4782SOL    HW225983   2.647   2.017   5.542 -1.4973  0.1713  1.5356
 4783SOL     OW25984   1.872   1.388   2.036 -0.3844  0.5761  0.1447
 4783SOL    HW125985   1.833   1.415   1.953 -0.2408  1.0268  0.2257
 4783SOL    HW225986   1.795   1.355   2.082 -1.2139  0.2994 -1.4375
 4784SOL     OW25987   1.999   1.782   7.442  0.0510 -0.1831  0.0446
 4784SOL    HW125988   1.906   1.778   7.422  0.2146  0.0330 -0.7492
 4784SOL    HW225989   2.001   1.735   7.526 -2.9456 -2.4327 -1.1520
 4785SOL     OW25990   2.565   2.713   8.032 -0.2916  0.0408  0.2082
 4785SOL    HW125991   2.510   2.641   8.062  1.5559 -1.0949  0.8723
 4785SOL    HW225992   2.552   2.775   8.104 -1.7283 -2.3203  1.9544
 4786SOL     OW25993   0.500   1.682  12.280  0.0021 -0.5272  0.1667
 4786SOL    HW125994   0.482   1.634  12.200 -0.3105 -0.2829  0.0875
 4786SOL    HW225995   0.581   1.725  12.252 -0.2981 -0.2673 -0.2984
 4787SOL     OW25996   4.541   2.158   5.577 -0.2531  0.4142  0.3863
 4787SOL    HW125997   4.447   2.141   5.582 -0.4609  1.1963 -0.7113
 4787SOL    HW225998   4.542   2.235   5.519  1.1295 -0.9382 -1.3856
 4788SOL     OW25999   3.067   2.280  10.456  0.0305 -0.5556  0.4635
 4788SOL    HW126000   3.047   2.371  10.433 -2.2486 -1.0134  0.5784
 4788SOL    HW226001   3.162   2.279  10.462  0.0549 -0.0525  0.1430
 4789SOL     OW26002   1.494   0.098   6.490 -0.2660  0.1474 -0.3086
 4789SOL    HW126003   1.525   0.188   6.479  2.0189 -0.6602 -0.4887
 4789SOL    HW226004   1.583   0.063   6.500 -0.6312 -1.5629 -2.9441
 4790SOL     OW26005   2.587   0.066   3.041 -0.5824  0.7313 -0.2303
 4790SOL    HW126006   2.652   0.008   3.081  1.0855  0.3582 -3.5146
 4790SOL    HW226007   2.612   0.053   2.949  0.3930 -0.5218  0.2115
 4791SOL     OW26008   3.232   4.362   0.828 -0.1830  0.2537  0.2078
 4791SOL    HW126009   3.218   4.356   0.734  1.7813  0.7895 -0.1117
 4791SOL    HW226010   3.321   4.327   0.827 -1.2107 -2.4029  1.0788
 4792SOL     OW26011   2.466   2.411   3.130 -0.3488  0.2698  0.1894
 4792SOL    HW126012   2.464   2.384   3.038  0.5803 -0.2489  0.3135
 4792SOL    HW226013   2.496   2.334   3.179  2.4644  1.9302  1.0627
 4793SOL     OW26014   3.473   3.546   2.652 -0.3701  0.0151  0.7079
 4793SOL    HW126015   3.543   3.610   2.646  0.1152 -0.6945 -0.9708
 4793SOL    HW226016   3.405   3.600   2.612  0.1757  0.2958  0.1652
 4794SOL     OW26017   2.869   1.963  11.153 -0.4321  0.1880 -1.0570
 4794SOL    HW126018   2.836   1.991  11.238  1.9754 -0.1898  0.0171
 4794SOL    HW226019   2.793   1.913  11.122  0.6874 -1.5747 -0.9895
 4795SOL     OW26020   2.197   0.278  10.255  0.1584  0.1302  0.5167
 4795SOL    HW126021   2.249   0.244  10.183 -1.1721 -2.7525  0.9068
 4795SOL    HW226022   2.240   0.220  10.318  0.9500  0.2954  0.1154
 4796SOL     OW26023   3.574   0.734   0.154  0.1550  0.3286  0.3500
 4796SOL    HW126024   3.579   0.788   0.233 -0.7912 -1.2479  1.4898
 4796SOL    HW226025   3.529   0.655   0.181 -1.8678  1.1620 -0.5504
 4797SOL     OW26026   3.898   3.190   4.012 -0.6067  0.0104  0.0357
 4797SOL    HW126027   3.948   3.171   3.933 -0.3212 -0.6470  0.3693
 4797SOL    HW226028   3.948   3.254   4.062 -0.3477  1.6649 -2.3174
 4798SOL     OW26029   2.061   0.695   5.962 -0.0421  0.5289  0.4531
 4798SOL    HW126030   2.131   0.752   5.932  0.7723 -0.5344  0.3067
 4798SOL    HW226031   2.107   0.616   5.992  0.8401  0.1977 -1.7996
 4799SOL     OW26032   2.624   0.444   6.774 -0.1022  0.0269  0.3860
 4799SOL    HW126033   2.692   0.511   6.768  1.6520 -1.9125 -1.3094
 4799SOL    HW226034   2.662   0.376   6.831  0.1768  1.6342  2.1297
 4800SOL     OW26035   4.625   2.259   6.816  0.2534 -0.0516 -0.3203
 4800SOL    HW126036   4.575   2.323   6.766 -0.7490 -0.6311 -0.0639
 4800SOL    HW226037   4.716   2.288   6.820  0.3362 -0.3526 -0.0069
 4801SOL     OW26038   1.355   4.218   2.873 -0.1419 -0.6299 -0.2536
 4801SOL    HW126039   1.364   4.292   2.934 -2.8531 -0.0361 -0.5745
 4801SOL    HW226040   1.320   4.151   2.932 -2.1209 -0.0939 -0.8410
 4802SOL     OW26041   4.023   3.297  11.635 -0.2634  0.8229  0.0791
 4802SOL    HW126042   3.992   3.385  11.655  0.5343  1.5901 -2.0385
 4802SOL    HW226043   4.113   3.315  11.608  0.8759 -3.3265  1.0820
 4803SOL     OW26044   2.561   4.235  10.788 -0.0496  0.2309  0.0606
 4803SOL    HW126045   2.582   4.149  10.822 -0.1943  0.1543 -0.0425
 4803SOL    HW226046   2.535   4.288  10.864 -1.0766 -2.4222  1.5392
 4804SOL     OW26047   2.880   0.462   5.371  0.0701 -0.8798 -0.0176
 4804SOL    HW126048   2.796   0.416   5.379 -2.1565  2.8859 -1.3843
 4804SOL    HW226049   2.877   0.476   5.276  0.2216 -0.5604  0.0251
 4805SOL     OW26050   2.815   0.277   1.702  0.2733 -0.4657 -0.1610
 4805SOL    HW126051   2.738   0.229   1.733 -2.0447  2.7065 -0.9536
 4805SOL    HW226052   2.798   0.271   1.608 -1.1449  1.8550 -0.0620
 4806SOL     OW26053   1.481   0.949   8.676 -0.2078  0.2393 -0.3050
 4806SOL    HW126054   1.554   0.973   8.733 -0.5397 -0.1742  0.2951
 4806SOL    HW226055   1.530   0.918   8.600  0.7394 -0.7985  0.7474
 4807SOL     OW26056   4.362   4.585   6.646 -0.2742 -0.0365  0.2973
 4807SOL    HW126057   4.310   4.531   6.586  0.7424 -0.6801  0.0017
 4807SOL    HW226058   4.372   4.514   6.711 -0.9824 -0.9303 -0.5725
 4808SOL     OW26059   1.016   1.991   5.366 -0.0756 -0.2998 -0.1809
 4808SOL    HW126060   1.013   1.950   5.452  1.0592  0.0839  0.0469
 4808SOL    HW226061   0.974   2.076   5.375 -1.0577 -0.7652 -0.4102
 4809SOL     OW26062   3.984   3.232   7.397  0.4066  0.3559 -0.6279
 4809SOL    HW126063   4.030   3.315   7.384  1.4885  0.1979  2.2153
 4809SOL    HW226064   3.916   3.261   7.457 -0.0619 -0.5904 -0.6951
 4810SOL     OW26065   2.947   4.483  12.207  0.0275 -0.2260  0.2172
 4810SOL    HW126066   2.913   4.419  12.145  2.3269  2.2383 -3.5296
 4810SOL    HW226067   2.877   4.548  12.204 -1.1047 -1.3805  1.4531
 4811SOL     OW26068   1.345   0.116   4.871 -0.3711 -0.8815  0.8168
 4811SOL    HW126069   1.432   0.155   4.859 -0.7045 -0.7497 -1.2738
 4811SOL    HW226070   1.368   0.053   4.939 -1.8417 -0.8887  1.3185
 4812SOL     OW26071   0.536   0.882   9.668 -0.0001  0.7289  0.4193
 4812SOL    HW126072   0.567   0.909   9.755 -0.8773 -0.8247  1.2058
 4812SOL    HW226073   0.450   0.850   9.695  0.0468  1.3156  1.2648
 4813SOL     OW26074   3.083   2.118   5.893  0.4148 -0.4903 -0.2724
 4813SOL    HW126075   3.061   2.031   5.926  2.7054 -1.0153 -0.1582
 4813SOL    HW226076   3.128   2.156   5.968 -1.2096 -0.7796  0.8563
 4814SOL     OW26077   2.612   1.948  13.266  0.5910 -0.0950 -0.0668
 4814SOL    HW126078   2.568   1.984  13.343  2.7871  2.8594 -0.2144
 4814SOL    HW226079   2.566   1.995  13.196  0.6420 -0.5675 -0.4194
 4815SOL     OW26080   4.178   2.332   9.345 -0.3628  0.0316 -0.5551
 4815SOL    HW126081   4.219   2.416   9.323  2.1176 -1.3281 -1.0777
 4815SOL    HW226082   4.209   2.330   9.435  1.9516 -2.0770 -1.4163
 4816SOL     OW26083   3.468   2.662   3.555 -0.4155 -0.2841  0.1028
 4816SOL    HW126084   3.452   2.583   3.503 -0.6712 -0.1941  0.0481
 4816SOL    HW226085   3.561   2.680   3.543 -0.1980 -1.6681 -0.2752
 4817SOL     OW26086   2.876   3.969   5.050  1.0950  0.5503 -0.0257
 4817SOL    HW126087   2.877   3.878   5.020 -0.2101  0.5857 -0.1693
 4817SOL    HW226088   2.841   3.958   5.139  1.9795  1.6358  0.4586
 4818SOL     OW26089   1.076   3.388   6.668 -0.4372  0.2120  0.0879
 4818SOL    HW126090   1.134   3.369   6.741 -1.1329  0.7060  0.7657
 4818SOL    HW226091   1.086   3.308   6.616  1.9410 -0.2506  1.2812
 4819SOL     OW26092   4.594   2.587   8.993 -0.3374  0.1348 -0.4634
 4819SOL    HW126093   4.641   2.642   9.056 -0.7819 -0.3431  0.2760
 4819SOL    HW226094   4.506   2.620   9.006 -1.0769 -1.0499 -2.4526
 4820SOL     OW26095   3.709   3.946  15.500  0.1776  0.2174 -0.1523
 4820SOL    HW126096   3.803   3.956  15.518  0.3076  0.6210 -1.0732
 4820SOL    HW226097   3.682   3.883  15.566 -0.8420  1.1116  0.2759
 4821SOL     OW26098   0.153   3.927   9.283 -0.3299  0.0716  0.3109
 4821SOL    HW126099   0.154   3.991   9.354 -1.9827  1.4720 -0.9239
 4821SOL    HW226100   0.223   3.962   9.227 -0.0688 -1.2827 -0.2239
 4822SOL     OW26101   1.070   3.377   8.540 -0.4636 -0.6476 -0.2514
 4822SOL    HW126102   1.121   3.301   8.568  1.2109  0.5938 -0.0153
 4822SOL    HW226103   1.098   3.448   8.597  1.5002 -0.3130 -1.6491
 4823SOL     OW26104   1.843   3.235   4.205  0.4213  0.3176  0.5056
 4823SOL    HW126105   1.933   3.243   4.173  0.7472  1.8301  1.8390
 4823SOL    HW226106   1.825   3.143   4.183  0.6943  0.3658  0.0857
 4824SOL     OW26107   2.177   4.092   8.281  0.2614  0.0238  0.1907
 4824SOL    HW126108   2.219   4.056   8.360  0.7680 -0.5686 -0.3527
 4824SOL    HW226109   2.227   4.058   8.208 -0.4477  0.1246 -0.3397
 4825SOL     OW26110   3.573   3.016   0.957 -0.3315 -0.6956  0.6507
 4825SOL    HW126111   3.503   2.956   0.933 -0.3424 -0.8343  1.0381
 4825SOL    HW226112   3.525   3.086   1.000  1.6424  0.3755  1.1243
 4826SOL     OW26113   1.205   1.987   1.965  0.2035  0.2863  0.1936
 4826SOL    HW126114   1.112   2.007   1.962 -0.0513 -0.4656  3.0395
 4826SOL    HW226115   1.229   2.080   1.964 -0.4496  0.4525 -0.0384
 4827SOL     OW26116   0.809   1.017   6.284  0.6750  0.2165  0.1742
 4827SOL    HW126117   0.815   1.076   6.359  0.9810  0.5300 -0.0982
 4827SOL    HW226118   0.756   0.944   6.316  1.6486 -0.1349  0.9647
 4828SOL     OW26119   4.029   0.907   5.805 -0.0904 -0.0456 -0.5911
 4828SOL    HW126120   4.026   0.962   5.883  0.1739  0.8035 -1.1827
 4828SOL    HW226121   4.112   0.940   5.771  0.9134 -1.3913  0.5293
 4829SOL     OW26122   1.167   0.434   1.284 -0.1265 -0.4794  0.1158
 4829SOL    HW126123   1.118   0.427   1.202  0.2990 -0.9022 -0.0979
 4829SOL    HW226124   1.093   0.452   1.343  1.0925  3.2868  0.5225
 4830SOL     OW26125   0.658   2.186   3.901 -0.5950  0.0617  0.2446
 4830SOL    HW126126   0.732   2.133   3.931 -0.0631  1.0106  0.6001
 4830SOL    HW226127   0.590   2.190   3.968  0.5002  2.7385  1.1733
 4831SOL     OW26128   1.519   0.044  13.856 -0.2810  0.0314  0.4182
 4831SOL    HW126129   1.434   0.025  13.895 -0.6425 -0.5125 -0.6212
 4831SOL    HW226130   1.560   4.693  13.855 -1.5585 -0.5342 -2.3770
 4832SOL     OW26131   3.265   0.766   5.227  0.0711 -0.1751 -0.2322
 4832SOL    HW126132   3.227   0.819   5.157  0.2635  0.4216  0.1149
 4832SOL    HW226133   3.203   0.766   5.300  1.0770  0.2274  0.6176
 4833SOL     OW26134   1.338   1.909   7.757  0.5472 -0.1727 -0.2906
 4833SOL    HW126135   1.317   1.883   7.846  1.0898  2.0304  0.4706
 4833SOL    HW226136   1.429   1.879   7.753  0.5753  0.2145 -3.0192
 4834SOL     OW26137   0.905   1.094   4.456 -0.1201  0.6603  0.0543
 4834SOL    HW126138   0.910   1.157   4.528 -1.9279  2.9523 -1.8040
 4834SOL    HW226139   0.983   1.041   4.471 -0.3364  0.8978  2.0342
 4835SOL     OW26140   0.371   3.474  16.129  0.0745 -0.4247  0.2222
 4835SOL    HW126141   0.423   3.536  16.078  0.6869  1.6360  3.3678
 4835SOL    HW226142   0.321   3.435  16.057  2.9316  0.3944 -2.1814
 4836SOL     OW26143   2.193   2.512   6.977 -0.2141 -0.1918 -0.1348
 4836SOL    HW126144   2.169   2.473   6.893  2.2443 -2.0554  0.0648
 4836SOL    HW226145   2.278   2.552   6.959 -0.6807  0.9560  0.1501
 4837SOL     OW26146   1.197   3.012  11.862 -0.1963 -0.0976  0.2015
 4837SOL    HW126147   1.207   3.070  11.937  4.0032  0.4918 -0.8206
 4837SOL    HW226148   1.131   3.055  11.807  0.1810  0.0012 -0.1657
 4838SOL     OW26149   3.460   2.449   9.172 -0.3062  0.6367  0.3799
 4838SOL    HW126150   3.444   2.501   9.093 -0.7677  1.3656  0.9516
 4838SOL    HW226151   3.462   2.527   9.228 -3.2046  0.7090  0.3722
 4839SOL     OW26152   3.390   0.148  13.024 -0.6064  0.0484  0.0077
 4839SOL    HW126153   3.422   0.094  13.096 -0.9603  1.2184  1.0446
 4839SOL    HW226154   3.348   0.223  13.066 -0.4030 -0.1416  0.5464
 4840SOL     OW26155   3.246   1.726  11.813  0.1193  0.5553 -0.5654
 4840SOL    HW126156   3.220   1.786  11.883  0.7149 -0.5984  0.6484
 4840SOL    HW226157   3.270   1.797  11.754  1.1520  0.8715  0.2302
 4841SOL     OW26158   0.330   1.025  17.648 -0.5331  0.4386 -0.2787
 4841SOL    HW126159   0.404   1.084  17.666  1.0345 -1.7492  0.3752
 4841SOL    HW226160   0.350   0.987  17.562  0.8518  1.8807 -0.5994
 4842SOL     OW26161   3.016   3.822   9.082 -0.3308  0.0456 -0.1420
 4842SOL    HW126162   2.989   3.893   9.024 -0.3892 -0.9563 -1.3457
 4842SOL    HW226163   3.112   3.819   9.073 -0.5656  1.8796 -3.3720
 4843SOL     OW26164   3.190   0.418   1.539  0.1853 -0.2193 -0.5285
 4843SOL    HW126165   3.151   0.353   1.598 -0.7833  2.2787  1.5400
 4843SOL    HW226166   3.131   0.492   1.545  3.2254  2.1739 -0.1633
 4844SOL     OW26167   2.753   0.818   8.117 -0.2113  0.0414  0.2538
 4844SOL    HW126168   2.758   0.724   8.102  0.4747 -0.1889  1.9431
 4844SOL    HW226169   2.754   0.828   8.212  0.7710 -0.3042  0.2810
 4845SOL     OW26170   2.689   1.561  14.252  0.0732  0.0220 -0.0144
 4845SOL    HW126171   2.727   1.608  14.178 -0.5297  1.2812  0.4687
 4845SOL    HW226172   2.711   1.468  14.244 -1.1202 -0.0805 -2.0204
 4846SOL     OW26173   3.905   0.915   2.808 -0.1640  0.3260  0.2723
 4846SOL    HW126174   3.989   0.873   2.824 -0.5647  0.4326  2.7193
 4846SOL    HW226175   3.913   1.002   2.847  1.1676  0.4252 -0.2311
 4847SOL     OW26176   0.348   0.613   7.042  0.1188  0.3804  0.1284
 4847SOL    HW126177   0.284   0.601   7.112  0.1063  0.7572  0.1841
 4847SOL    HW226178   0.427   0.610   7.096 -0.3745  0.3855  0.8515
 4848SOL     OW26179   3.422   1.976   7.648 -0.6541 -0.6012  0.1225
 4848SOL    HW126180   3.449   2.064   7.672  0.1897 -1.4164  2.1583
 4848SOL    HW226181   3.487   1.916   7.684  0.7101  1.0227  0.3459
 4849SOL     OW26182   1.827   4.204   9.365 -0.0475 -0.1560 -0.2853
 4849SOL    HW126183   1.903   4.147   9.358  1.5791  1.8675  1.0149
 4849SOL    HW226184   1.879   4.283   9.383  1.6120 -1.1803 -0.6473
 4850SOL     OW26185   4.581   3.122   2.496  0.3331 -0.1949 -0.3362
 4850SOL    HW126186   4.536   3.151   2.417 -0.7784  0.5720  0.5796
 4850SOL    HW226187   4.514   3.136   2.562  0.9573 -1.1476  0.4925
 4851SOL     OW26188   2.386   2.796   8.272  0.3888  0.1671  0.1958
 4851SOL    HW126189   2.393   2.703   8.248  1.1824  0.0980  0.7206
 4851SOL    HW226190   2.338   2.775   8.352  0.7314  1.9842  0.8764
 4852SOL     OW26191   4.419   4.299   5.491 -0.4000 -0.1661 -0.8254
 4852SOL    HW126192   4.362   4.367   5.455  0.2185  1.7979  1.9063
 4852SOL    HW226193   4.397   4.289   5.584 -1.7165 -0.2792 -1.1435
 4853SOL     OW26194   4.307   1.976   8.699 -0.5618  0.4988  0.4365
 4853SOL    HW126195   4.230   1.932   8.736 -0.0766 -0.1944  0.6309
 4853SOL    HW226196   4.303   2.069   8.723  0.5562  0.7744 -0.4909
 4854SOL     OW26197   0.637   2.799   4.756 -0.4855  1.0326 -0.1286
 4854SOL    HW126198   0.702   2.779   4.689 -0.0078  1.3422  0.2419
 4854SOL    HW226199   0.690   2.816   4.835 -1.5174 -1.0789  1.0189
 4855SOL     OW26200   3.640   3.545   1.220 -0.1282  1.0144  0.7636
 4855SOL    HW126201   3.680   3.467   1.183  0.6528  1.6374  0.2859
 4855SOL    HW226202   3.683   3.542   1.306  0.3702 -2.0833  0.3986
 4856SOL     OW26203   2.668   0.012   7.607  0.7795 -0.2178 -0.4110
 4856SOL    HW126204   2.629   0.034   7.522 -1.8064 -0.1727  0.7830
 4856SOL    HW226205   2.691   4.656   7.592  0.2768 -0.4955  0.5294
 4857SOL     OW26206   0.083   2.429  17.180  0.3662 -0.8835 -0.0422
 4857SOL    HW126207   0.112   2.497  17.120 -0.2904 -0.3088  0.2813
 4857SOL    HW226208   4.725   2.451  17.180  1.1756  2.5713  0.3578
 4858SOL     OW26209   2.457   3.958   4.424 -0.1570 -0.1427  0.3583
 4858SOL    HW126210   2.533   4.014   4.439 -0.3004  0.2605 -0.4357
 4858SOL    HW226211   2.419   3.976   4.511  1.4477 -1.2855  1.2907
 4859SOL     OW26212   0.616   2.700  16.152  0.5338  0.5615  0.4509
 4859SOL    HW126213   0.710   2.683  16.138  0.1605 -0.3782 -0.9015
 4859SOL    HW226214   0.615   2.785  16.108  2.1164  0.8257  0.9264
 4860SOL     OW26215   4.321   4.244   2.120  0.3092 -0.4774  0.0445
 4860SOL    HW126216   4.255   4.184   2.155 -1.4149  0.4039 -1.6596
 4860SOL    HW226217   4.280   4.289   2.046 -0.4031  1.1499  1.4070
 4861SOL     OW26218   2.812   0.238   2.930  0.3668  0.0644 -0.7797
 4861SOL    HW126219   2.900   0.199   2.934  0.3400  0.0080 -0.7476
 4861SOL    HW226220   2.780   0.234   3.020 -0.2178  3.0521 -0.8544
 4862SOL     OW26221   0.649   4.301   6.710 -0.2913 -0.2719  1.0274
 4862SOL    HW126222   0.604   4.298   6.626 -2.5548 -1.1034  2.2826
 4862SOL    HW226223   0.596   4.242   6.763 -0.5208 -0.1191  0.9641
 4863SOL     OW26224   1.987   1.707  14.825 -0.2180 -0.0917  0.0346
 4863SOL    HW126225   1.944   1.721  14.740 -0.5317  1.1132  0.3894
 4863SOL    HW226226   1.914   1.732  14.882  0.7185  1.1879  0.6524
 4864SOL     OW26227   2.392   2.414  17.471 -0.4441 -0.6322 -0.5334
 4864SOL    HW126228   2.348   2.377  17.394  0.4123 -0.1329 -1.2610
 4864SOL    HW226229   2.390   2.507  17.448  1.6771 -0.7390 -1.1648
 4865SOL     OW26230   1.937   2.363   8.729 -0.2838 -0.0661  0.2024
 4865SOL    HW126231   1.898   2.428   8.787  2.6436 -1.2095  3.4764
 4865SOL    HW226232   1.884   2.286   8.749  0.1142 -0.0157  1.4952
 4866SOL     OW26233   1.599   3.668   7.799 -0.0548 -0.7205 -0.0557
 4866SOL    HW126234   1.662   3.740   7.806 -0.9583 -0.1660  2.6779
 4866SOL    HW226235   1.547   3.691   7.722 -2.5503 -1.6683  1.3432
 4867SOL     OW26236   3.555   2.472   7.347  0.2018  0.5181 -0.3280
 4867SOL    HW126237   3.554   2.458   7.253  0.4230 -2.2007  0.0646
 4867SOL    HW226238   3.484   2.415   7.379 -0.0081 -0.6875 -2.9970
 4868SOL     OW26239   4.325   1.077   6.603  0.0805 -0.4926 -0.8763
 4868SOL    HW126240   4.296   1.104   6.690 -0.5108  0.5065 -1.3787
 4868SOL    HW226241   4.249   1.100   6.550  0.6163  0.5102 -1.2095
 4869SOL     OW26242   2.334   3.450   7.236  0.5106 -0.5762 -0.1190
 4869SOL    HW126243   2.367   3.403   7.160 -0.1989  0.2458 -0.9247
 4869SOL    HW226244   2.273   3.516   7.204  0.0155 -0.1387  1.6828
 4870SOL     OW26245   3.527   3.725  13.007 -0.7710  0.7600  0.5815
 4870SOL    HW126246   3.495   3.808  12.971  0.5525  0.7877 -0.5358
 4870SOL    HW226247   3.554   3.748  13.096 -1.7258  0.4024  0.9591
 4871SOL     OW26248   4.347   3.041   9.932  0.4146  0.5508  0.0336
 4871SOL    HW126249   4.393   3.045  10.016  1.0235 -1.4843 -0.2136
 4871SOL    HW226250   4.268   3.090   9.956 -0.2802 -0.0348 -1.0885
 4872SOL     OW26251   1.233   0.543   4.066  0.0499 -0.0142 -0.5084
 4872SOL    HW126252   1.285   0.615   4.101 -0.3581  0.7510 -1.4721
 4872SOL    HW226253   1.157   0.595   4.041  0.2516  0.0099 -1.0884
 4873SOL     OW26254   3.333   3.152   6.081 -0.1564 -0.0333 -0.1852
 4873SOL    HW126255   3.249   3.118   6.049  0.5271 -1.3387 -0.6413
 4873SOL    HW226256   3.361   3.186   5.996 -1.1545 -0.1716 -0.5773
 4874SOL     OW26257   1.515   0.283   7.966 -0.4685 -0.4549 -0.0927
 4874SOL    HW126258   1.591   0.227   7.985  0.4279  0.9334  0.4365
 4874SOL    HW226259   1.485   0.249   7.882  3.7208  0.8159 -2.0931
 4875SOL     OW26260   0.209   3.272   1.850  0.0599 -0.4466  0.3993
 4875SOL    HW126261   0.294   3.248   1.813  0.6684  0.9955  0.8456
 4875SOL    HW226262   0.182   3.335   1.783  0.3563 -0.5302  0.1982
 4876SOL     OW26263   0.752   1.080   8.580  0.3327 -0.0808  0.0763
 4876SOL    HW126264   0.682   1.124   8.533  0.1946 -1.9298 -1.4152
 4876SOL    HW226265   0.822   1.084   8.514  1.0356 -0.4087  0.7966
 4877SOL     OW26266   1.153   1.645   2.455  0.0461  0.2368  0.1533
 4877SOL    HW126267   1.108   1.591   2.391 -2.8424 -0.7230  2.9969
 4877SOL    HW226268   1.116   1.602   2.532 -1.2260 -0.7664 -1.0240
 4878SOL     OW26269   0.699   1.021   3.156 -0.3018  0.1154 -0.6314
 4878SOL    HW126270   0.661   0.934   3.143  0.8340 -0.0943 -2.6364
 4878SOL    HW226271   0.708   1.038   3.249 -1.0841 -0.3278 -0.4777
 4879SOL     OW26272   1.929   1.422  15.316 -0.2639 -0.0511  0.2032
 4879SOL    HW126273   1.843   1.414  15.359  0.6912 -4.3578  1.3205
 4879SOL    HW226274   1.936   1.517  15.326 -1.4860  0.0640  0.0441
 4880SOL     OW26275   3.412   4.638   6.574 -0.2158  0.2906 -0.2662
 4880SOL    HW126276   3.346   4.656   6.640 -0.1846 -0.5846 -0.0013
 4880SOL    HW226277   3.372   4.681   6.498  1.3689  1.3411 -0.5062
 4881SOL     OW26278   1.003   0.973   7.286  0.5013 -0.2443 -0.1982
 4881SOL    HW126279   1.069   0.943   7.348  2.0272 -0.3329 -1.8735
 4881SOL    HW226280   1.065   0.979   7.213  0.4134 -1.5645 -0.3926
 4882SOL     OW26281   1.928   0.158   7.479  0.1770 -0.1705 -0.5428
 4882SOL    HW126282   1.997   0.093   7.482  0.3153 -0.0770 -1.6496
 4882SOL    HW226283   1.882   0.133   7.398  0.6786  0.1418 -0.9290
 4883SOL     OW26284   4.499   0.179   7.222  0.7127  0.4256  0.0961
 4883SOL    HW126285   4.473   0.263   7.185 -1.2632 -0.1272  0.2571
 4883SOL    HW226286   4.594   0.190   7.216  0.8574 -0.9821 -0.2504
 4884SOL     OW26287   2.749   1.583   0.394  0.2867 -0.4880 -0.3552
 4884SOL    HW126288   2.794   1.607   0.474  2.1428 -3.4377 -0.5045
 4884SOL    HW226289   2.662   1.615   0.417  0.2367 -0.9847  0.1493
 4885SOL     OW26290   3.086   3.574  13.143  0.1677 -0.1686 -0.4804
 4885SOL    HW126291   3.095   3.669  13.144  0.1479 -0.1665 -0.5315
 4885SOL    HW226292   3.166   3.542  13.102 -0.3083 -1.1219 -0.6818
 4886SOL     OW26293   4.185   4.732  16.312 -0.2271 -0.1904 -0.3606
 4886SOL    HW126294   4.169   4.684  16.230 -1.8523  2.0320 -1.3641
 4886SOL    HW226295   4.233   4.666  16.362 -0.1344  2.6092  3.1742
 4887SOL     OW26296   0.827   3.855   6.500  0.0484 -0.9131 -0.2976
 4887SOL    HW126297   0.752   3.847   6.441 -0.6452 -1.4769  0.6479
 4887SOL    HW226298   0.808   3.795   6.572  1.7482 -1.3358 -0.2087
 4888SOL     OW26299   1.661   2.228   4.264  0.4862  0.3226  0.2248
 4888SOL    HW126300   1.655   2.162   4.196 -1.5502 -0.2644  0.9879
 4888SOL    HW226301   1.635   2.310   4.222 -0.0881  1.5644  2.9993
 4889SOL     OW26302   0.553   0.574  10.836  0.1962 -0.1047 -0.6463
 4889SOL    HW126303   0.612   0.636  10.792  0.3245  0.5611  0.4739
 4889SOL    HW226304   0.527   0.525  10.758 -1.6497 -1.9378  1.1475
 4890SOL     OW26305   3.565   2.701   8.140  0.5565  0.0393  0.1407
 4890SOL    HW126306   3.554   2.656   8.224  0.1080  0.1034  0.1182
 4890SOL    HW226307   3.498   2.671   8.078 -0.6892 -1.0487  1.9948
 4891SOL     OW26308   0.662   3.731  15.741  0.3284  0.0906 -0.3454
 4891SOL    HW126309   0.717   3.702  15.668 -0.7702 -2.1339 -0.2981
 4891SOL    HW226310   0.690   3.822  15.751  3.0620 -0.7289 -0.6608
 4892SOL     OW26311   1.187   3.221   8.872  0.2156  0.2960 -0.3654
 4892SOL    HW126312   1.194   3.303   8.920  0.8918  0.7234 -1.2037
 4892SOL    HW226313   1.098   3.191   8.892  0.0082  0.5510 -0.9196
 4893SOL     OW26314   2.373   3.574   7.671 -0.2355 -0.0148  0.0652
 4893SOL    HW126315   2.300   3.553   7.613 -0.1107  1.2747 -0.5528
 4893SOL    HW226316   2.432   3.499   7.672 -1.7381 -1.1961  0.6578
 4894SOL     OW26317   3.126   3.899   9.760 -0.1377  0.0543  0.5162
 4894SOL    HW126318   3.163   3.987   9.756  2.9560 -1.2433  0.9245
 4894SOL    HW226319   3.109   3.896   9.666  0.2753  2.5366  0.3723
 4895SOL     OW26320   3.615   0.683   4.877 -0.2840  0.1454  0.0738
 4895SOL    HW126321   3.605   0.602   4.928  2.0333  1.2390  2.2742
 4895SOL    HW226322   3.618   0.648   4.788  1.0006  0.1012  0.1329
 4896SOL     OW26323   1.024   0.571  11.256 -0.5125  0.6190  0.2838
 4896SOL    HW126324   1.033   0.541  11.166 -0.5204 -1.3055  0.9160
 4896SOL    HW226325   0.972   0.500  11.295 -0.6635 -0.1012 -1.2623
 4897SOL     OW26326   0.046   4.338   7.190  0.3782  0.0773  0.1836
 4897SOL    HW126327   0.141   4.340   7.176  0.3980 -0.4558  0.2421
 4897SOL    HW226328   0.044   4.301   7.278 -1.7320  1.0858  0.5415
 4898SOL     OW26329   2.312   1.769  13.242 -0.0887  0.2571 -0.0151
 4898SOL    HW126330   2.233   1.817  13.265  0.2809  1.1114 -0.5097
 4898SOL    HW226331   2.357   1.842  13.199  0.0518 -0.1672 -0.5885
 4899SOL     OW26332   0.405   3.315   8.212  0.2936 -0.5691 -0.0816
 4899SOL    HW126333   0.360   3.272   8.286 -1.9141  2.2790  0.2338
 4899SOL    HW226334   0.349   3.392   8.201  1.4087  0.4414  1.2583
 4900SOL     OW26335   1.013   4.681  10.093  0.5182 -0.1445  0.3147
 4900SOL    HW126336   0.994   4.728  10.011 -1.5896  0.4891  1.1785
 4900SOL    HW226337   1.029   0.016  10.155 -1.3080  0.4688  0.0660
 4901SOL     OW26338   4.442   4.586   5.105 -0.1967 -0.4991 -0.0368
 4901SOL    HW126339   4.394   4.669   5.110  2.8939  1.4147 -1.8062
 4901SOL    HW226340   4.509   4.612   5.169  0.5691  1.6846 -1.7059
 4902SOL     OW26341   1.948   1.444  12.704 -0.1967  0.1773  0.3016
 4902SOL    HW126342   1.972   1.400  12.622  0.8365 -1.5098  1.4840
 4902SOL    HW226343   2.029   1.453  12.755 -1.0612 -0.1227  1.7207
 4903SOL     OW26344   1.295   3.836  16.716 -0.3537 -0.3969  0.4431
 4903SOL    HW126345   1.235   3.864  16.647  0.9083 -1.9285 -1.2709
 4903SOL    HW226346   1.340   3.775  16.659 -0.6837  0.1135 -0.3656
 4904SOL     OW26347   1.156   1.171   3.622  0.2638 -0.1639  0.0845
 4904SOL    HW126348   1.092   1.108   3.655 -1.3093  1.8180  0.8690
 4904SOL    HW226349   1.157   1.236   3.692 -2.3217 -0.2577  0.1837
 4905SOL     OW26350   0.363   4.305   4.023 -0.2416 -0.1340  0.2080
 4905SOL    HW126351   0.332   4.346   3.942 -1.5999 -0.5585  0.5087
 4905SOL    HW226352   0.443   4.357   4.026 -0.1335 -0.1940 -1.2082
 4906SOL     OW26353   3.308   4.012   7.493  0.5102  0.4493 -0.1534
 4906SOL    HW126354   3.319   3.934   7.439  0.6775  1.2948 -1.3409
 4906SOL    HW226355   3.282   4.075   7.425 -1.1967 -1.2839 -1.1320
 4907SOL     OW26356   3.385   4.064   7.124  0.5601 -0.1103 -0.1639
 4907SOL    HW126357   3.323   3.996   7.152  0.3823  1.1742  2.5228
 4907SOL    HW226358   3.323   4.136   7.125  0.8355  0.1175  0.5761
 4908SOL     OW26359   0.502   2.313   1.316 -0.1555 -0.5234  0.6329
 4908SOL    HW126360   0.439   2.263   1.265  0.4025 -1.2032  0.6093
 4908SOL    HW226361   0.544   2.357   1.241  2.1072 -0.8201  1.7305
 4909SOL     OW26362   0.986   1.299  11.287 -0.1769 -0.1049 -0.5956
 4909SOL    HW126363   1.060   1.356  11.307 -2.2324  3.1207 -2.2855
 4909SOL    HW226364   0.916   1.352  11.326  0.1950 -1.4461  1.9075
 4910SOL     OW26365   2.819   2.693  16.758  0.5844 -0.5744 -0.1332
 4910SOL    HW126366   2.862   2.638  16.692 -1.7346 -1.4056 -0.9482
 4910SOL    HW226367   2.890   2.699  16.822 -0.4132 -1.3317  1.0510
 4911SOL     OW26368   0.984   0.212   0.786  0.2631  0.3776  0.1868
 4911SOL    HW126369   0.997   0.154   0.861 -1.2647 -0.1845  0.0236
 4911SOL    HW226370   0.996   0.149   0.715  1.3556 -0.1743  0.8652
 4912SOL     OW26371   4.364   3.153   8.458  0.4244 -0.3587 -0.5920
 4912SOL    HW126372   4.392   3.119   8.543  0.0981 -1.6225 -0.9917
 4912SOL    HW226373   4.300   3.089   8.426 -0.7638 -0.1767  1.4056
 4913SOL     OW26374   1.434   0.723  16.866 -0.2579 -0.6593 -0.3321
 4913SOL    HW126375   1.447   0.708  16.772  1.1250 -2.0222  0.0909
 4913SOL    HW226376   1.435   0.635  16.903 -0.6068  0.3652  2.0651
 4914SOL     OW26377   1.402   3.341   7.552 -0.1580  0.0935  0.0484
 4914SOL    HW126378   1.400   3.280   7.626  2.3755  0.8912  0.7706
 4914SOL    HW226379   1.497   3.353   7.554 -0.2238  0.6580 -0.5883
 4915SOL     OW26380   2.244   0.266  16.395  0.0750 -0.2128 -0.0317
 4915SOL    HW126381   2.183   0.249  16.467 -1.9838 -1.3792 -2.0210
 4915SOL    HW226382   2.321   0.301  16.439  1.0916 -2.3005 -0.1186
 4916SOL     OW26383   3.586   2.726   9.384  0.2659  0.1482  0.1316
 4916SOL    HW126384   3.667   2.705   9.338  1.3885  0.0705  2.1705
 4916SOL    HW226385   3.616   2.772   9.462 -1.0862 -1.0547  1.3619
 4917SOL     OW26386   2.323   3.012   4.944  0.3901  0.1134 -0.5531
 4917SOL    HW126387   2.391   2.970   4.996 -0.0008  0.1021 -0.0563
 4917SOL    HW226388   2.362   3.099   4.950 -0.1631  0.3763 -0.7064
 4918SOL     OW26389   0.811   3.749   4.126 -0.1902  0.1126  0.9370
 4918SOL    HW126390   0.830   3.824   4.069  0.0361  0.0565  0.9373
 4918SOL    HW226391   0.719   3.767   4.147 -0.8562 -2.4857  0.1863
 4919SOL     OW26392   2.077   3.470   1.268 -0.2973 -0.3699  0.3257
 4919SOL    HW126393   2.103   3.487   1.359 -0.2237  1.4202 -0.0282
 4919SOL    HW226394   2.134   3.397   1.247  0.2213 -0.0522  0.6040
 4920SOL     OW26395   3.592   4.359   2.741 -0.4017  0.2348 -0.3286
 4920SOL    HW126396   3.676   4.367   2.787 -0.9864  1.5395  0.5173
 4920SOL    HW226397   3.545   4.440   2.759  0.5584  0.7908 -0.2890
 4921SOL     OW26398   1.892   1.243   3.394  0.1884 -1.0111  0.0043
 4921SOL    HW126399   1.934   1.329   3.399 -0.9226 -0.4948  0.4051
 4921SOL    HW226400   1.807   1.273   3.363 -0.1392 -2.4367 -0.4606
 4922SOL     OW26401   2.702   3.742   4.619  0.0450 -0.4287 -0.7502
 4922SOL    HW126402   2.677   3.801   4.690  2.3125 -0.5588  0.1302
 4922SOL    HW226403   2.752   3.798   4.560 -1.0002  0.9887 -0.2812
 4923SOL     OW26404   0.198   2.837   1.591  0.2999 -0.0071  0.7771
 4923SOL    HW126405   0.167   2.919   1.553 -1.4125 -0.8812  0.2802
 4923SOL    HW226406   0.255   2.814   1.517 -2.0263 -0.6785 -0.7965
 4924SOL     OW26407   0.464   4.593   2.400 -0.0807  0.0997  0.0823
 4924SOL    HW126408   0.477   4.589   2.495  1.7374 -1.2801 -0.2190
 4924SOL    HW226409   0.371   4.573   2.398  0.0493 -0.9897  4.2283
 4925SOL     OW26410   3.605   3.749   9.058  0.0990  0.0440  0.1173
 4925SOL    HW126411   3.532   3.723   9.115 -0.3201 -1.8614 -1.2768
 4925SOL    HW226412   3.639   3.826   9.103  1.1074 -0.5966  0.4344
 4926SOL     OW26413   1.462   0.089   5.605  0.3593  0.2557 -1.2191
 4926SOL    HW126414   1.554   0.116   5.605  0.5266 -0.3355 -2.6585
 4926SOL    HW226415   1.470   0.036   5.685 -0.7584  0.2950 -1.0891
 4927SOL     OW26416   4.310   1.506   7.675 -0.6424 -0.4916 -0.3528
 4927SOL    HW126417   4.388   1.452   7.685  0.3189  0.9129 -0.2434
 4927SOL    HW226418   4.275   1.509   7.764  2.1070  1.9135  0.6407
 4928SOL     OW26419   3.135   1.072   9.503  0.8277 -0.0807  0.5316
 4928SOL    HW126420   3.077   1.119   9.564 -0.5463 -0.7156 -0.2907
 4928SOL    HW226421   3.086   1.066   9.421  0.3785  0.4974  0.7539
 4929SOL     OW26422   2.369   2.874   2.218  0.2933  0.1553  0.0157
 4929SOL    HW126423   2.319   2.936   2.272  0.3156  0.6294 -0.5079
 4929SOL    HW226424   2.403   2.948   2.168 -2.7442  0.0678 -2.2089
 4930SOL     OW26425   2.986   2.321   7.366  0.5198  0.0166  0.2340
 4930SOL    HW126426   2.903   2.365   7.387  0.3525 -0.2704  0.1664
 4930SOL    HW226427   3.025   2.301   7.451 -0.0175  1.7612  0.8906
 4931SOL     OW26428   3.195   2.612   5.151  0.4078  0.7352 -0.3083
 4931SOL    HW126429   3.225   2.703   5.153  0.4205  0.6831  1.5698
 4931SOL    HW226430   3.175   2.600   5.058  2.3980  1.5884 -0.8599
 4932SOL     OW26431   2.930   1.959   9.591  0.4237 -0.1802 -0.0561
 4932SOL    HW126432   2.857   2.019   9.575  0.1132 -0.1942  1.2957
 4932SOL    HW226433   2.969   2.009   9.663 -2.0197 -1.4025  2.1049
 4933SOL     OW26434   1.212   3.377   2.601  0.5086 -0.6255  0.7441
 4933SOL    HW126435   1.147   3.443   2.626  1.3054  0.7746 -0.8946
 4933SOL    HW226436   1.232   3.404   2.512  0.5610 -2.2432  0.2531
 4934SOL     OW26437   1.060   2.616   2.851 -0.0169  0.1963  0.5337
 4934SOL    HW126438   1.116   2.642   2.924 -0.0955 -2.3990  1.4952
 4934SOL    HW226439   0.979   2.661   2.877 -0.1538  0.2623 -0.0091
 4935SOL     OW26440   4.734   1.872   4.005 -0.0578  0.2413  0.0420
 4935SOL    HW126441   4.671   1.800   4.008  0.2281 -0.0171 -0.1321
 4935SOL    HW226442   4.696   1.931   4.071  0.6788 -1.4887  2.0289
 4936SOL     OW26443   3.185   4.624   0.167  0.2769  0.2914 -0.3515
 4936SOL    HW126444   3.243   4.684   0.214 -0.4739 -0.5807  1.7135
 4936SOL    HW226445   3.119   4.686   0.137 -0.7011 -0.6272 -0.1056
 4937SOL     OW26446   0.404   0.147   7.932 -0.3792  0.1772  0.2946
 4937SOL    HW126447   0.351   0.075   7.968  1.3184 -1.4485 -0.4613
 4937SOL    HW226448   0.410   0.103   7.847  4.4054  0.6968  0.4045
 4938SOL     OW26449   2.609   2.426   2.123  0.5723  0.5511  0.1594
 4938SOL    HW126450   2.652   2.415   2.208  1.7213 -0.3950 -0.5316
 4938SOL    HW226451   2.691   2.424   2.073  1.9590 -1.7826  2.5119
 4939SOL     OW26452   3.798   2.151   9.363  0.9089  0.0604  0.3737
 4939SOL    HW126453   3.831   2.202   9.437  2.4354  0.1491 -0.3562
 4939SOL    HW226454   3.843   2.188   9.286  1.0025 -4.4670 -1.7650
 4940SOL     OW26455   3.108   4.028   4.863 -0.5102  0.2192 -0.3674
 4940SOL    HW126456   3.090   3.968   4.935  0.2819  1.1249  0.5892
 4940SOL    HW226457   3.183   4.076   4.899  1.0308 -0.8681 -2.1331
 4941SOL     OW26458   3.078   1.364   6.268 -0.5042 -0.0108  0.0250
 4941SOL    HW126459   2.991   1.360   6.228 -0.9534 -0.8113  1.0749
 4941SOL    HW226460   3.110   1.279   6.237  0.8159  1.0505 -1.4838
 4942SOL     OW26461   3.492   1.250  16.101  0.3705 -0.4357  0.5270
 4942SOL    HW126462   3.584   1.273  16.117  0.6417 -1.5603  0.5499
 4942SOL    HW226463   3.471   1.253  16.195 -0.5804 -0.6528  0.3236
 4943SOL     OW26464   4.028   1.500   2.497 -0.1045  0.4224  0.4949
 4943SOL    HW126465   4.002   1.581   2.454  1.1988  0.0827 -0.9288
 4943SOL    HW226466   4.027   1.450   2.416 -1.6263  0.7530  0.3247
 4944SOL     OW26467   4.477   3.344  15.882 -0.3552 -0.2945  0.5371
 4944SOL    HW126468   4.504   3.329  15.973  1.5849 -1.4171 -0.2282
 4944SOL    HW226469   4.497   3.259  15.844 -2.0317  0.6023 -2.3114
 4945SOL     OW26470   1.722   3.661   2.309 -0.0052  0.0721 -0.2569
 4945SOL    HW126471   1.666   3.731   2.277 -2.3819 -1.0328  1.4973
 4945SOL    HW226472   1.728   3.688   2.401 -1.7413  1.0089 -0.4312
 4946SOL     OW26473   1.431   3.781   4.883  0.6035 -0.0438  0.5455
 4946SOL    HW126474   1.414   3.771   4.789  0.0697 -1.2085  0.7631
 4946SOL    HW226475   1.391   3.700   4.914 -0.3549  0.4552  0.6225
 4947SOL     OW26476   2.005   3.364   6.186  0.0194  0.2297  0.3244
 4947SOL    HW126477   2.027   3.283   6.232  0.3811  0.5153  0.6524
 4947SOL    HW226478   2.003   3.333   6.095 -1.0369  1.8185 -0.1957
 4948SOL     OW26479   3.161   0.681   4.256  0.3476  0.4833  0.4723
 4948SOL    HW126480   3.161   0.776   4.248  0.5916  0.2361 -2.3229
 4948SOL    HW226481   3.082   0.682   4.310  0.8316  0.0263  1.2003
 4949SOL     OW26482   0.731   0.292   3.450 -0.4330 -0.4229 -0.1612
 4949SOL    HW126483   0.712   0.241   3.371 -1.0137 -0.3997 -0.0421
 4949SOL    HW226484   0.666   0.244   3.502  0.8890 -3.0118 -0.8978
 4950SOL     OW26485   0.988   4.576   0.832 -0.1683 -0.1665 -0.6230
 4950SOL    HW126486   1.011   4.487   0.862  2.8618  0.6044 -0.6203
 4950SOL    HW226487   0.956   4.609   0.916 -2.7246  1.3196 -2.2065
 4951SOL     OW26488   3.077   4.668  11.814 -0.3319 -0.4820  0.2017
 4951SOL    HW126489   3.022   4.703  11.884 -0.2924  0.4156 -0.2167
 4951SOL    HW226490   3.130   0.012  11.807 -0.1968 -0.5656  0.2643
 4952SOL     OW26491   3.913   2.634   7.086  0.1088 -0.4355  0.1503
 4952SOL    HW126492   3.893   2.547   7.051 -3.2207  0.5023 -0.2784
 4952SOL    HW226493   3.849   2.685   7.035 -1.6416 -2.8467 -0.0957
 4953SOL     OW26494   4.157   3.185  16.980 -0.4441  0.7017 -0.3963
 4953SOL    HW126495   4.075   3.232  16.998 -1.6492 -1.6696  0.3470
 4953SOL    HW226496   4.214   3.246  17.025 -0.1572  1.3356 -1.6188
 4954SOL     OW26497   3.727   1.170   8.768 -0.3112 -0.8789  0.5235
 4954SOL    HW126498   3.729   1.133   8.679  2.2426 -0.4828  0.3982
 4954SOL    HW226499   3.671   1.247   8.760  2.0858  0.7670 -0.6268
 4955SOL     OW26500   2.856   4.729  14.880  0.0679  0.0121  0.2911
 4955SOL    HW126501   2.811   4.649  14.851  0.1624 -0.0049  0.1908
 4955SOL    HW226502   2.911   4.731  14.802 -0.0261 -0.1536  0.2187
 4956SOL     OW26503   0.587   2.102  17.278 -0.1108  0.5227  0.2549
 4956SOL    HW126504   0.565   2.069  17.191 -1.1088 -0.5876  0.9182
 4956SOL    HW226505   0.507   2.083  17.328 -0.9412  0.0341 -1.2836
 4957SOL     OW26506   4.676   1.913   7.790  0.2916 -0.0006 -0.3232
 4957SOL    HW126507   0.019   1.966   7.785  0.0279  0.3217 -1.0774
 4957SOL    HW226508   4.621   1.973   7.840  0.7757 -0.9906  1.4123
 4958SOL     OW26509   3.062   1.805   2.726 -0.2086 -0.0087 -0.3497
 4958SOL    HW126510   3.073   1.897   2.703  3.1323  0.1530  1.8889
 4958SOL    HW226511   3.097   1.759   2.649  0.5353 -1.4262  0.8176
 4959SOL     OW26512   1.152   1.059   2.171  0.0537 -0.7245  0.7078
 4959SOL    HW126513   1.218   1.074   2.104  1.0932  0.5615  2.0358
 4959SOL    HW226514   1.207   1.100   2.237  0.4778  0.0345 -0.1304
 4960SOL     OW26515   1.185   3.058   8.174  0.2867 -0.2115 -0.6113
 4960SOL    HW126516   1.153   2.968   8.167 -2.8401  0.9908 -1.8154
 4960SOL    HW226517   1.249   3.047   8.245 -0.6378 -0.4666  0.1933
 4961SOL     OW26518   0.150   3.939   8.699 -0.1902  0.4358 -0.3676
 4961SOL    HW126519   0.204   3.971   8.626  0.3454  2.5300  0.9683
 4961SOL    HW226520   0.062   3.941   8.661 -0.4199 -0.8791  0.0701
 4962SOL     OW26521   2.850   2.691  10.204 -0.4366  0.4118  0.0347
 4962SOL    HW126522   2.892   2.776  10.219  2.2945 -0.9637  0.1493
 4962SOL    HW226523   2.849   2.694  10.108 -0.5323  0.1204  0.0282
 4963SOL     OW26524   4.218   1.055   8.965  0.1295  0.0694  0.0380
 4963SOL    HW126525   4.125   1.073   8.960 -0.0190 -1.0684 -1.2945
 4963SOL    HW226526   4.244   1.046   9.057  3.7416  0.9926 -0.8613
 4964SOL     OW26527   3.272   1.997  10.602  0.0452 -0.3886  0.5031
 4964SOL    HW126528   3.267   2.051  10.681  1.1469 -0.4031  0.5929
 4964SOL    HW226529   3.184   1.963  10.592  0.3428 -0.5337 -1.6476
 4965SOL     OW26530   1.523   1.673   6.135 -0.3078 -0.4470 -0.0473
 4965SOL    HW126531   1.455   1.643   6.074 -0.2557 -0.2805 -0.1864
 4965SOL    HW226532   1.481   1.752   6.170  1.2999  0.2219  0.3780
 4966SOL     OW26533   2.015   2.972  15.361 -0.0360 -0.3958 -0.0482
 4966SOL    HW126534   2.049   2.961  15.450  1.1396  1.0641 -0.3063
 4966SOL    HW226535   2.026   2.884  15.326  1.3077  0.0893 -0.8698
 4967SOL     OW26536   2.566   0.503   6.093  0.0806  0.0678  0.2782
 4967SOL    HW126537   2.559   0.416   6.133 -0.7103  0.0982  0.2041
 4967SOL    HW226538   2.628   0.554   6.145  1.5034 -0.5063 -0.8936
 4968SOL     OW26539   0.158   3.318   2.938  0.3667  0.1147 -0.5058
 4968SOL    HW126540   0.186   3.259   2.868 -2.0259 -0.4131 -1.0232
 4968SOL    HW226541   0.223   3.295   3.004  0.9223 -0.9375 -1.4203
 4969SOL     OW26542   3.902   4.684  16.689 -0.0932 -0.1739 -0.0625
 4969SOL    HW126543   3.976   4.626  16.673 -2.2332 -2.1059 -3.0458
 4969SOL    HW226544   3.934   4.735  16.763  0.7855 -0.3703 -0.3123
 4970SOL     OW26545   0.524   3.519   2.681 -0.2127  0.1291  0.4685
 4970SOL    HW126546   0.501   3.535   2.773  0.3226 -1.3470  0.8502
 4970SOL    HW226547   0.443   3.544   2.637 -0.6932 -0.7967  0.8226
 4971SOL     OW26548   1.358   4.194   9.335 -0.1314  0.8613  0.1435
 4971SOL    HW126549   1.440   4.188   9.286 -0.0201 -0.5016  0.4952
 4971SOL    HW226550   1.372   4.120   9.394 -1.0021  0.5478 -0.0463
 4972SOL     OW26551   3.423   1.958  15.612 -0.3323  0.2432 -0.3079
 4972SOL    HW126552   3.510   1.933  15.582 -1.4203  0.2096 -3.4174
 4972SOL    HW226553   3.389   1.975  15.525  3.0314 -0.3320 -1.7362
 4973SOL     OW26554   0.180   2.016   1.166 -0.1549  0.0175  0.0686
 4973SOL    HW126555   0.097   2.045   1.128  0.1663  2.4179  1.2166
 4973SOL    HW226556   0.152   1.942   1.220  0.3009 -0.3902 -0.2492
 4974SOL     OW26557   3.595   0.450   0.201  0.3526  0.1153  0.1748
 4974SOL    HW126558   3.558   0.364   0.182 -0.4456  0.4005  0.4357
 4974SOL    HW226559   3.587   0.438   0.296  1.9052  1.4087  0.4805
 4975SOL     OW26560   2.008   2.990   2.071  0.3683  0.4720  0.7627
 4975SOL    HW126561   2.043   3.062   2.123 -2.4783  0.2023  3.0790
 4975SOL    HW226562   2.088   2.940   2.056  0.5987  1.0329  0.1156
 4976SOL     OW26563   0.610   3.601   8.250  0.2412  0.3138 -0.0978
 4976SOL    HW126564   0.686   3.545   8.231  0.9735  1.8148 -1.5469
 4976SOL    HW226565   0.578   3.550   8.324 -0.1625  2.2179  1.0168
 4977SOL     OW26566   0.987   3.323   3.926  0.4778  0.5067 -0.0477
 4977SOL    HW126567   0.901   3.309   3.888  0.4655 -1.4081  0.6804
 4977SOL    HW226568   0.977   3.418   3.931  0.5129  0.5344 -0.5126
 4978SOL     OW26569   4.364   4.442   6.904 -0.3615  0.2611 -0.0572
 4978SOL    HW126570   4.287   4.499   6.907 -0.3221  0.2288  1.7828
 4978SOL    HW226571   4.317   4.365   6.937  1.4713 -0.4765  0.8044
 4979SOL     OW26572   2.314   2.098  12.542  0.0598 -0.6989 -0.1179
 4979SOL    HW126573   2.283   2.184  12.513 -0.3548 -1.0505 -0.7171
 4979SOL    HW226574   2.291   2.096  12.635 -1.4153  1.0663 -0.4347
 4980SOL     OW26575   1.809   3.420   9.651 -0.2675 -0.1777  0.0151
 4980SOL    HW126576   1.748   3.452   9.585  0.2713  1.1737  0.1830
 4980SOL    HW226577   1.748   3.365   9.699 -0.6787  0.6366  0.4146
 4981SOL     OW26578   3.426   3.412   8.728 -0.0960 -0.2981  1.0199
 4981SOL    HW126579   3.339   3.452   8.720 -0.4684 -1.0955  1.0327
 4981SOL    HW226580   3.470   3.459   8.657  1.1598 -0.4407  1.7162
 4982SOL     OW26581   4.731   1.607   8.303 -0.2070  0.5451  0.1719
 4982SOL    HW126582   0.069   1.612   8.242  0.5424 -0.6186  0.9894
 4982SOL    HW226583   0.025   1.675   8.363  2.0246 -0.0617 -0.2369
 4983SOL     OW26584   2.058   1.471   3.592  0.0772 -0.0554 -0.0142
 4983SOL    HW126585   2.018   1.549   3.629 -0.3458 -0.2284 -0.1072
 4983SOL    HW226586   2.034   1.399   3.651  2.5549  0.8736  2.0833
 4984SOL     OW26587   4.013   2.876   4.858 -0.0841 -0.2561  0.5358
 4984SOL    HW126588   3.959   2.832   4.923 -1.8666  0.5324 -0.4176
 4984SOL    HW226589   3.967   2.958   4.844  1.4687 -0.3514 -5.2820
 4985SOL     OW26590   3.288   2.205   9.893  0.5844  0.1410 -0.3282
 4985SOL    HW126591   3.379   2.192   9.920  0.3838 -0.5257  0.0460
 4985SOL    HW226592   3.264   2.237   9.980 -1.4428 -0.9883 -0.4588
 4986SOL     OW26593   0.902   2.190   5.823  0.6169  0.0567  0.1646
 4986SOL    HW126594   0.901   2.221   5.913 -0.5281  2.9374 -0.8286
 4986SOL    HW226595   0.892   2.095   5.831 -1.1643  0.3930  2.0022
 4987SOL     OW26596   1.504   4.396   6.848 -0.5969  0.2038  0.2607
 4987SOL    HW126597   1.519   4.337   6.774 -2.1813  1.5209 -1.1107
 4987SOL    HW226598   1.592   4.418   6.878 -0.7862 -0.4622  1.3141
 4988SOL     OW26599   4.572   0.919   3.087 -0.1320  0.6175 -0.2054
 4988SOL    HW126600   4.519   0.842   3.105  1.6069  0.2889  3.3999
 4988SOL    HW226601   4.504   0.981   3.057 -0.6619  0.2330  0.2096
 4989SOL     OW26602   3.977   4.183   2.592 -0.3851 -0.4425  0.2922
 4989SOL    HW126603   4.004   4.098   2.625  0.6962 -0.9270 -1.7886
 4989SOL    HW226604   3.943   4.159   2.506 -4.4421  1.8682  1.2749
 4990SOL     OW26605   3.343   2.039  13.136  0.5646 -0.4768 -0.3104
 4990SOL    HW126606   3.434   2.066  13.148 -0.3138  2.2601  0.3806
 4990SOL    HW226607   3.335   1.954  13.179  2.2711 -0.3080  0.3492
 4991SOL     OW26608   0.760   3.013   2.655  0.4412  0.5304  0.2857
 4991SOL    HW126609   0.804   2.931   2.634  0.0168  0.2075  0.6478
 4991SOL    HW226610   0.806   3.074   2.598  1.6044 -3.5402 -3.1401
 4992SOL     OW26611   1.445   3.283   8.766  0.0611  0.6179 -0.3172
 4992SOL    HW126612   1.354   3.272   8.793  0.3342 -0.5148  0.1597
 4992SOL    HW226613   1.490   3.226   8.829  0.0526  0.4054 -0.5042
 4993SOL     OW26614   2.518   0.595  17.714 -0.2315 -0.2800 -0.3026
 4993SOL    HW126615   2.506   0.675  17.663  1.6885  1.3382  1.7954
 4993SOL    HW226616   2.479   0.614   0.058 -1.2227  0.1776 -0.8680
 4994SOL     OW26617   0.540   1.894   7.296  0.5176 -0.2186  0.1585
 4994SOL    HW126618   0.605   1.825   7.310  0.3667  0.0918  2.3489
 4994SOL    HW226619   0.457   1.847   7.292  0.7883 -0.4833 -2.5137
 4995SOL     OW26620   3.952   2.844   1.123  0.4999 -0.3630 -0.2003
 4995SOL    HW126621   3.907   2.844   1.039  1.6463  1.4494 -0.8026
 4995SOL    HW226622   3.884   2.803   1.176 -0.6088 -1.5996 -2.5793
 4996SOL     OW26623   0.506   1.789   9.929  0.4596  0.6474 -0.0713
 4996SOL    HW126624   0.584   1.741   9.901  0.5071  1.2963 -1.0600
 4996SOL    HW226625   0.461   1.802   9.846  0.1414  0.1406  0.0210
 4997SOL     OW26626   1.229   2.307   6.327 -0.0340 -0.1127  0.3543
 4997SOL    HW126627   1.252   2.386   6.375 -1.4901  1.6016 -1.7526
 4997SOL    HW226628   1.159   2.269   6.380 -0.2267 -0.2386  0.0135
 4998SOL     OW26629   4.348   2.561   4.460  0.6436  0.2230 -0.3467
 4998SOL    HW126630   4.371   2.569   4.553 -0.0254  0.1844 -0.1797
 4998SOL    HW226631   4.393   2.482   4.431 -1.0553 -1.7959  2.5647
 4999SOL     OW26632   2.986   2.010   6.540 -0.1191  0.0178  0.3722
 4999SOL    HW126633   2.897   2.014   6.575  0.0863  1.0633  0.7777
 4999SOL    HW226634   2.973   1.976   6.452  1.3367  2.3120 -0.7376
 5000SOL     OW26635   3.491   3.619   8.513  0.2807 -0.8067 -0.0822
 5000SOL    HW126636   3.461   3.710   8.517 -0.0813 -0.9262 -0.1123
 5000SOL    HW226637   3.517   3.612   8.421 -0.7089  0.6151 -0.4628
 5001SOL     OW26638   4.476   4.638  13.761 -0.1482  0.3198 -0.5512
 5001SOL    HW126639   4.471   4.620  13.855  1.6956 -0.6301 -0.6356
 5001SOL    HW226640   4.519   4.724  13.764  1.7227 -0.5975 -1.2537
 5002SOL     OW26641   1.696   2.743   7.754 -0.0730  0.0467 -0.4491
 5002SOL    HW126642   1.779   2.784   7.779 -0.3407  0.8101 -0.8041
 5002SOL    HW226643   1.734   2.656   7.742  0.4122  0.1111  0.6567
 5003SOL     OW26644   0.379   1.518  11.849 -0.6927 -0.3511 -0.2382
 5003SOL    HW126645   0.349   1.596  11.897  1.0264  0.3198 -0.2315
 5003SOL    HW226646   0.310   1.454  11.865 -0.8401 -0.3592 -0.9360
 5004SOL     OW26647   2.249   0.981   4.785 -0.6444  0.5594 -0.6699
 5004SOL    HW126648   2.190   1.050   4.816 -2.8491 -1.4298 -0.4374
 5004SOL    HW226649   2.221   0.963   4.695 -0.6299  1.1660 -0.8009
 5005SOL     OW26650   4.557   3.680   4.510 -0.0731  0.0104 -0.0460
 5005SOL    HW126651   4.534   3.633   4.591  0.8384  1.7307  1.2053
 5005SOL    HW226652   4.483   3.741   4.508 -0.4513 -0.3770  2.0913
 5006SOL     OW26653   0.773   1.996   4.492  0.2643  0.2078 -0.1363
 5006SOL    HW126654   0.800   1.906   4.472  0.4628  0.5864 -1.5844
 5006SOL    HW226655   0.800   2.012   4.582 -2.1167  1.6382  0.3311
 5007SOL     OW26656   4.721   3.260   8.369  0.3869  0.0037  0.4434
 5007SOL    HW126657   4.692   3.176   8.334  0.0941  1.3861 -2.6842
 5007SOL    HW226658   4.667   3.326   8.325  1.3774  1.1885  1.0302
 5008SOL     OW26659   3.350   0.513   8.251  0.1099 -0.2942  0.1330
 5008SOL    HW126660   3.429   0.465   8.277 -1.5369 -1.4966  2.8897
 5008SOL    HW226661   3.282   0.460   8.292  0.5536  0.6771  2.0985
 5009SOL     OW26662   3.636   2.356   5.994  0.4579  0.3257  0.0764
 5009SOL    HW126663   3.601   2.301   5.925 -0.6351  1.9265 -0.6508
 5009SOL    HW226664   3.725   2.372   5.963  1.7450  0.6769  3.9465
 5010SOL     OW26665   2.989   2.813  14.175 -0.4435  0.2626 -0.4394
 5010SOL    HW126666   2.912   2.811  14.119 -1.2219 -2.7948  0.7343
 5010SOL    HW226667   3.015   2.904  14.162  0.6245  0.1925  1.1407
 5011SOL     OW26668   4.456   2.242   6.472  0.0013  0.0496 -0.4492
 5011SOL    HW126669   4.434   2.164   6.523  3.0283 -1.0039 -0.7317
 5011SOL    HW226670   4.431   2.313   6.532 -0.2812 -0.2384 -0.2296
 5012SOL     OW26671   0.468   2.167   8.525  0.6006  0.1594 -0.5755
 5012SOL    HW126672   0.521   2.134   8.598  0.2939  0.3650 -0.2593
 5012SOL    HW226673   0.484   2.261   8.516  0.7702  0.2028  0.1499
 5013SOL     OW26674   4.315   3.104  11.794 -0.1403 -0.1142  0.1534
 5013SOL    HW126675   4.386   3.053  11.833 -0.2013  0.1773  0.6436
 5013SOL    HW226676   4.367   3.164  11.742  0.4226 -2.2239 -1.7290
 5014SOL     OW26677   0.839   3.213   8.476 -0.0891  0.0692  0.6664
 5014SOL    HW126678   0.818   3.209   8.570  0.1417 -3.0203  0.6100
 5014SOL    HW226679   0.914   3.272   8.483 -0.3437  0.2401  2.1444
 5015SOL     OW26680   1.937   3.911  13.240 -0.0628 -0.5480  0.0840
 5015SOL    HW126681   2.029   3.897  13.261 -0.0824 -0.2163  0.3925
 5015SOL    HW226682   1.937   3.859  13.160 -0.8992 -0.4109 -0.0081
 5016SOL     OW26683   3.912   3.660   0.369 -0.3398 -0.2628  0.8723
 5016SOL    HW126684   3.995   3.626   0.403  0.7428  1.5270  0.0424
 5016SOL    HW226685   3.936   3.726   0.303 -1.6402  0.8937  1.5484
 5017SOL     OW26686   0.429   4.363   0.285 -0.4134  0.2935 -0.2320
 5017SOL    HW126687   0.459   4.274   0.304 -1.1714 -0.3566 -2.1756
 5017SOL    HW226688   0.484   4.402   0.354 -2.5210  3.3269 -0.2830
 5018SOL     OW26689   1.343   4.028   5.291  0.6575  0.6186  0.8623
 5018SOL    HW126690   1.292   4.093   5.244 -2.4256 -2.1761  0.3627
 5018SOL    HW226691   1.312   3.948   5.248  1.1727  0.2597  1.1441
 5019SOL     OW26692   0.771   2.491  15.960  0.1911  0.0800  0.0807
 5019SOL    HW126693   0.789   2.485  16.054  0.4826  0.1567  0.0315
 5019SOL    HW226694   0.704   2.423  15.953  0.7345 -0.4362 -0.0542
 5020SOL     OW26695   1.974   2.939   9.577 -0.6686  0.2658  0.0341
 5020SOL    HW126696   1.917   2.915   9.649 -0.4427 -0.2153  0.0522
 5020SOL    HW226697   2.011   3.020   9.612  2.3384 -1.8718  1.8493
 5021SOL     OW26698   3.000   2.521  12.287 -0.2126 -0.1155 -0.1193
 5021SOL    HW126699   3.029   2.433  12.265  0.5568  0.0149  0.3706
 5021SOL    HW226700   2.961   2.553  12.205  0.7437  1.9283  0.2196
 5022SOL     OW26701   0.590   2.699   3.073  0.5159  0.4935 -0.1137
 5022SOL    HW126702   0.507   2.708   3.025  1.0789  5.1876 -0.2287
 5022SOL    HW226703   0.563   2.704   3.165  2.0323  1.0999  0.3064
 5023SOL     OW26704   2.110   2.467   4.681  0.2661  0.0402 -0.4036
 5023SOL    HW126705   2.130   2.374   4.670 -0.4200 -0.1126 -0.3625
 5023SOL    HW226706   2.159   2.503   4.755  1.2719  2.2394 -2.1484
 5024SOL     OW26707   3.001   3.322  14.951 -0.3111  0.7326 -0.0465
 5024SOL    HW126708   3.083   3.309  14.998  0.7065 -0.2528 -2.0987
 5024SOL    HW226709   2.940   3.344  15.021  1.7058 -0.3844  2.0206
 5025SOL     OW26710   1.473   1.709   6.821 -0.0256  0.0165  0.1322
 5025SOL    HW126711   1.489   1.616   6.804 -0.8065  0.6190 -3.7932
 5025SOL    HW226712   1.561   1.729   6.788  0.1818  2.0624  1.8967
 5026SOL     OW26713   4.268   1.804   4.609 -0.0659  0.3879  0.1791
 5026SOL    HW126714   4.190   1.851   4.638  0.2905  1.9025 -1.3020
 5026SOL    HW226715   4.330   1.877   4.609  0.5295 -0.1317 -0.9858
 5027SOL     OW26716   3.723   3.141   5.076 -0.1389 -0.0037 -0.3825
 5027SOL    HW126717   3.740   3.120   4.984  2.6063  0.8644 -0.0596
 5027SOL    HW226718   3.802   3.157   5.127 -0.6506 -2.5118  1.1548
 5028SOL     OW26719   3.680   2.481  13.158  0.5932  0.1707 -0.2892
 5028SOL    HW126720   3.727   2.464  13.239  3.9247 -0.9984 -2.4654
 5028SOL    HW226721   3.734   2.553  13.125 -0.5670  1.3701  0.4246
 5029SOL     OW26722   2.191   4.659  14.370 -0.4699 -0.5557  0.6494
 5029SOL    HW126723   2.257   4.598  14.404  0.7737 -0.0650 -0.8770
 5029SOL    HW226724   2.148   4.688  14.451 -0.9516  0.9078 -0.1353
 5030SOL     OW26725   0.743   3.331   2.095 -0.1375  0.1501 -0.3318
 5030SOL    HW126726   0.713   3.346   2.184  0.1677 -3.9139  0.4573
 5030SOL    HW226727   0.803   3.258   2.109 -1.2284 -0.4358  1.2558
 5031SOL     OW26728   4.464   3.951   3.284  0.3876 -0.1828  0.0771
 5031SOL    HW126729   4.544   3.991   3.319 -0.0231  2.0115 -1.5572
 5031SOL    HW226730   4.428   4.003   3.213  2.5466 -0.8019 -1.4468
 5032SOL     OW26731   0.593   1.560   1.727 -0.0942 -0.1085 -0.8542
 5032SOL    HW126732   0.532   1.626   1.759 -1.0084 -1.0623 -0.6696
 5032SOL    HW226733   0.611   1.503   1.801  1.5629  0.3345 -0.8997
 5033SOL     OW26734   1.632   2.060   4.036 -0.5043  0.1767 -0.3678
 5033SOL    HW126735   1.680   2.048   3.953  0.8904 -3.0196  0.9013
 5033SOL    HW226736   1.561   2.120   4.013 -0.4013  2.0560  4.4118
 5034SOL     OW26737   0.186   3.922   3.743 -0.5925  0.5771 -0.1594
 5034SOL    HW126738   0.140   3.991   3.791 -0.4314  0.5326  0.0597
 5034SOL    HW226739   0.256   3.889   3.800  0.2769  1.1722 -0.8927
 5035SOL     OW26740   4.384   3.844  17.287 -0.0167  0.1253 -0.5030
 5035SOL    HW126741   4.414   3.869  17.375 -1.3521  1.5027 -0.4394
 5035SOL    HW226742   4.306   3.791  17.303 -0.3575  1.0333  0.8775
 5036SOL     OW26743   3.670   1.048  12.918 -0.2837  0.3849  0.2913
 5036SOL    HW126744   3.597   0.989  12.936 -1.8203  2.1724 -0.0390
 5036SOL    HW226745   3.738   1.007  12.971 -0.6453  1.3780  1.5114
 5037SOL     OW26746   3.452   2.984   8.662 -0.4210 -0.3160  0.2973
 5037SOL    HW126747   3.498   3.057   8.703 -0.6287 -0.5593  0.9637
 5037SOL    HW226748   3.528   2.933   8.635 -1.1669  0.0934 -2.6365
 5038SOL     OW26749   4.376   3.267  15.616 -0.2105  0.6883  0.0176
 5038SOL    HW126750   4.348   3.325  15.687  1.1755 -0.8709  1.8177
 5038SOL    HW226751   4.415   3.336  15.562  1.5606 -2.0221 -2.1753
 5039SOL     OW26752   2.907   1.318   8.612 -0.1916  0.0128  0.1221
 5039SOL    HW126753   2.836   1.335   8.674 -1.5260 -3.2697 -0.5342
 5039SOL    HW226754   2.889   1.226   8.595  0.8498 -0.4697  1.6319
 5040SOL     OW26755   3.111   0.172  12.892  0.0652 -0.2505 -0.3160
 5040SOL    HW126756   3.032   0.164  12.945 -0.6676  2.4222 -0.9839
 5040SOL    HW226757   3.178   0.167  12.960 -0.4522 -0.8776  0.1370
 5041SOL     OW26758   2.726   1.571  11.276  0.5463 -0.1158 -0.2803
 5041SOL    HW126759   2.780   1.492  11.270 -0.7577 -1.0631  0.5563
 5041SOL    HW226760   2.784   1.631  11.323 -3.6900  2.1346  2.0585
 5042SOL     OW26761   4.146   2.927   4.005 -0.3556  0.9175 -0.0590
 5042SOL    HW126762   4.195   2.966   4.077  1.6362 -0.5553 -0.5914
 5042SOL    HW226763   4.077   2.874   4.045 -0.2753 -0.1594 -1.3313
 5043SOL     OW26764   0.453   0.593  15.605  0.3538 -0.4095  0.4077
 5043SOL    HW126765   0.421   0.621  15.690 -0.0637  1.7120 -0.4513
 5043SOL    HW226766   0.389   0.646  15.558  1.7003 -0.7715 -1.8235
 5044SOL     OW26767   0.147   1.678   5.403  0.2726 -0.5188  0.7243
 5044SOL    HW126768   0.111   1.622   5.472 -0.6183 -0.2243  0.5008
 5044SOL    HW226769   0.177   1.738   5.472 -0.4694 -0.5297  1.0590
 5045SOL     OW26770   2.589   1.524   0.129 -0.2983  0.3138 -0.4715
 5045SOL    HW126771   2.629   1.489   0.209 -1.7151 -1.0021 -0.3240
 5045SOL    HW226772   2.669   1.535   0.078  0.3279 -0.3416  0.3668
 5046SOL     OW26773   2.187   2.652  10.385  0.4595  0.0199 -0.4811
 5046SOL    HW126774   2.205   2.642  10.291 -0.8274  1.2835 -0.8593
 5046SOL    HW226775   2.190   2.559  10.405 -2.2112  0.2813  1.1202
 5047SOL     OW26776   2.968   2.010   8.247 -0.2816  0.2610 -0.4114
 5047SOL    HW126777   3.021   2.003   8.326  0.6509  2.6980 -0.8099
 5047SOL    HW226778   2.942   2.101   8.264 -0.8251 -0.2311  1.3277
 5048SOL     OW26779   0.159   0.060   3.723 -0.0954 -0.2976  0.5492
 5048SOL    HW126780   0.073   0.090   3.753 -0.0893 -0.3152  0.5832
 5048SOL    HW226781   0.154   0.066   3.627  0.5094 -0.0070  0.5367
 5049SOL     OW26782   2.416   2.784   4.379  0.5494 -0.5092  0.2105
 5049SOL    HW126783   2.411   2.790   4.474 -0.7862  2.2452 -0.0250
 5049SOL    HW226784   2.407   2.690   4.362  0.3168 -0.3401 -0.6134
 5050SOL     OW26785   4.318   3.108   8.981  0.1418  0.0027 -0.2654
 5050SOL    HW126786   4.311   3.187   9.036 -1.4438  0.2745 -0.8527
 5050SOL    HW226787   4.242   3.062   9.018  0.5040 -0.2781  0.1224
 5051SOL     OW26788   3.420   4.006   8.115 -0.3274  0.2978  0.1607
 5051SOL    HW126789   3.364   3.974   8.185  0.3811  0.1626  0.6615
 5051SOL    HW226790   3.433   4.097   8.143  0.7505 -0.4516  2.0950
 5052SOL     OW26791   0.496   1.823   4.832  0.1904  0.0475  0.6266
 5052SOL    HW126792   0.416   1.777   4.858 -1.3892  2.3686 -0.1592
 5052SOL    HW226793   0.554   1.813   4.907 -0.9127 -2.2603  1.1605
 5053SOL     OW26794   3.611   3.973  15.901  0.6116  0.8795  0.0063
 5053SOL    HW126795   3.581   4.062  15.884 -0.2967  0.9429  1.9489
 5053SOL    HW226796   3.695   3.975  15.856  0.7856 -0.3935  0.2492
 5054SOL     OW26797   0.688   4.260   2.927 -0.1559 -0.0377 -0.1291
 5054SOL    HW126798   0.762   4.312   2.893  1.2337 -0.6016  2.0428
 5054SOL    HW226799   0.611   4.315   2.914 -0.2967 -0.0295  0.7884
 5055SOL     OW26800   2.610   1.728   7.648 -0.0833 -0.0279 -0.1117
 5055SOL    HW126801   2.676   1.728   7.579 -0.5549  2.0568 -0.5565
 5055SOL    HW226802   2.665   1.759   7.721 -0.1394 -2.1306  0.8358
 5056SOL     OW26803   2.344   1.514   5.364  0.3400 -0.2225  0.4385
 5056SOL    HW126804   2.370   1.604   5.382  0.0072  0.2887 -1.6371
 5056SOL    HW226805   2.352   1.470   5.449  0.9134 -0.4547  0.2642
 5057SOL     OW26806   4.072   4.481   9.067  0.0584  0.4797 -0.0141
 5057SOL    HW126807   4.153   4.434   9.050  0.3660  1.5356 -1.4073
 5057SOL    HW226808   4.040   4.454   9.153 -1.2883 -1.2134 -1.0494
 5058SOL     OW26809   2.774   1.341  11.081  0.4111 -0.0441 -0.5437
 5058SOL    HW126810   2.836   1.335  11.154  0.5018  3.0383 -0.3501
 5058SOL    HW226811   2.690   1.334  11.126  1.6229 -0.6674  1.6421
 5059SOL     OW26812   0.253   0.849   7.690 -0.1561 -0.1073  0.0556
 5059SOL    HW126813   0.214   0.761   7.695  1.7891 -0.9992 -0.6025
 5059SOL    HW226814   0.343   0.825   7.670 -0.3626 -0.6757 -0.1898
 5060SOL     OW26815   2.725   3.942   8.974 -0.1643 -0.0046 -0.1179
 5060SOL    HW126816   2.806   3.992   8.966 -1.1585  1.1211 -3.2486
 5060SOL    HW226817   2.665   4.010   9.003 -0.1494 -0.5495  1.1910
 5061SOL     OW26818   3.149   0.379   5.323  0.5063 -0.6167  0.5591
 5061SOL    HW126819   3.143   0.306   5.385  0.9261  0.3188  1.7079
 5061SOL    HW226820   3.058   0.409   5.333  1.0523  1.1387  0.2371
 5062SOL     OW26821   3.615   0.098   8.309 -0.3769 -0.0094  0.0693
 5062SOL    HW126822   3.668   0.145   8.245 -1.2054  1.2719  0.3102
 5062SOL    HW226823   3.543   0.162   8.317 -0.3628 -0.2008  1.6466
 5063SOL     OW26824   3.092   2.413   5.641  0.2340 -0.1104  0.0008
 5063SOL    HW126825   3.181   2.379   5.631  0.1953  0.3660 -1.9885
 5063SOL    HW226826   3.082   2.421   5.736 -2.9419 -1.6997 -0.1982
 5064SOL     OW26827   2.261   2.331   4.896  0.6283 -0.2252 -0.1512
 5064SOL    HW126828   2.188   2.280   4.862  0.6688 -0.3308 -0.0797
 5064SOL    HW226829   2.217   2.387   4.959  0.9137 -0.9075  0.6498
 5065SOL     OW26830   2.926   1.960  15.098 -0.1292 -0.1227  0.0136
 5065SOL    HW126831   2.995   1.989  15.040 -1.1674  1.5526 -0.3758
 5065SOL    HW226832   2.875   1.906  15.038 -1.1761 -1.0787  1.7360
 5066SOL     OW26833   3.411   1.379   8.760 -0.2828 -0.7607  0.5878
 5066SOL    HW126834   3.489   1.363   8.707 -1.8020 -1.2136 -1.5130
 5066SOL    HW226835   3.445   1.443   8.822 -2.3836  0.5757  0.3611
 5067SOL     OW26836   0.417   0.880  11.819  0.0324 -0.2866 -0.2273
 5067SOL    HW126837   0.418   0.889  11.915  0.4192 -0.5789 -0.2012
 5067SOL    HW226838   0.416   0.972  11.794 -0.6718  0.0725  1.1282
 5068SOL     OW26839   2.252   1.986   3.768 -0.5741 -0.1562 -0.2167
 5068SOL    HW126840   2.322   2.039   3.805 -0.3088 -0.7948  0.2006
 5068SOL    HW226841   2.235   1.922   3.837 -0.1292  0.6673  0.6565
 5069SOL     OW26842   1.848   1.393   4.003  0.3987 -0.0610  0.3913
 5069SOL    HW126843   1.864   1.368   3.912  3.0371 -0.7948  1.0441
 5069SOL    HW226844   1.883   1.482   4.004 -1.2466  0.5626  1.8935
 5070SOL     OW26845   0.530   4.579  16.489  0.4126 -0.5735  0.1525
 5070SOL    HW126846   0.581   4.517  16.435  0.7488 -0.5468  0.4401
 5070SOL    HW226847   0.586   4.651  16.517 -0.5589  0.0191  0.5594
 5071SOL     OW26848   4.450   2.315   5.377  0.1514  0.1395  0.5278
 5071SOL    HW126849   4.428   2.249   5.311  0.8012  0.7527 -0.3023
 5071SOL    HW226850   4.524   2.363   5.340  2.3062 -2.3853  1.5476
 5072SOL     OW26851   1.371   1.516   6.353  0.0559  0.2526 -0.2257
 5072SOL    HW126852   1.419   1.598   6.365 -1.5125  0.5523  3.9277
 5072SOL    HW226853   1.424   1.480   6.282 -0.7270 -1.6991  0.1897
 5073SOL     OW26854   3.371   4.553   3.337  0.0673 -0.0072 -0.0699
 5073SOL    HW126855   3.430   4.581   3.407  0.3675 -0.4477 -0.1475
 5073SOL    HW226856   3.331   4.473   3.371 -1.2756 -0.4715 -2.7590
 5074SOL     OW26857   2.696   4.521   6.998 -0.3221  0.4806 -0.2841
 5074SOL    HW126858   2.668   4.437   6.962 -0.0489  0.4073 -0.3302
 5074SOL    HW226859   2.661   4.514   7.086  2.0977 -0.3604  0.6169
 5075SOL     OW26860   0.391   3.204   4.663 -0.5512 -0.0734  0.0069
 5075SOL    HW126861   0.392   3.117   4.624 -0.6627 -0.9182  1.9006
 5075SOL    HW226862   0.425   3.177   4.748  0.5219 -0.0300 -0.4045
 5076SOL     OW26863   1.072   0.718   2.596 -0.1229 -0.1967 -0.3897
 5076SOL    HW126864   1.097   0.640   2.546 -1.6308 -1.5946  1.0485
 5076SOL    HW226865   1.150   0.772   2.579  0.1417 -0.2049  0.7939
 5077SOL     OW26866   1.181   2.725   2.336  0.7531 -0.3925 -0.1646
 5077SOL    HW126867   1.151   2.670   2.408  0.9085 -1.8251 -1.2047
 5077SOL    HW226868   1.242   2.668   2.290  1.3392  0.5401 -0.5526
 5078SOL     OW26869   4.450   3.616   2.182 -0.3462 -0.2272  0.1449
 5078SOL    HW126870   4.355   3.603   2.184 -0.3470 -0.1166  0.8585
 5078SOL    HW226871   4.474   3.567   2.103 -1.7375 -0.1697 -0.3163
 5079SOL     OW26872   4.730   4.113   3.226 -0.0730  0.5059 -0.0481
 5079SOL    HW126873   4.691   4.146   3.307  0.6955  1.7517 -0.1766
 5079SOL    HW226874   0.077   4.082   3.262 -0.9035 -0.9300  0.6389
 5080SOL     OW26875   4.604   1.423   9.463 -0.1683  0.3817 -0.1866
 5080SOL    HW126876   4.564   1.346   9.423  2.2824 -1.9753  1.8848
 5080SOL    HW226877   4.626   1.480   9.389 -2.0521 -0.2842 -1.2433
 5081SOL     OW26878   4.172   1.938  12.370 -0.6294 -0.1671  0.4990
 5081SOL    HW126879   4.170   2.030  12.342 -0.0072 -0.2023  0.3278
 5081SOL    HW226880   4.218   1.901  12.294  0.6274  1.2234  0.5759
 5082SOL     OW26881   3.360   3.218   9.091 -0.1046  0.3682  0.7645
 5082SOL    HW126882   3.434   3.161   9.110 -1.0602 -1.2191 -0.2479
 5082SOL    HW226883   3.295   3.157   9.055 -0.3144  0.9915  0.0881
 5083SOL     OW26884   3.369   2.047   0.940  0.3160 -0.3827 -0.4187
 5083SOL    HW126885   3.336   2.121   0.991 -0.7087  0.4025 -2.2243
 5083SOL    HW226886   3.284   2.012   0.914 -0.2556  0.7741 -0.1391
 5084SOL     OW26887   0.199   1.246   2.856  0.2660 -0.1002  0.4357
 5084SOL    HW126888   0.168   1.167   2.811  1.2856 -0.5295  0.4813
 5084SOL    HW226889   0.122   1.302   2.843 -0.0991 -1.0201 -1.4757
 5085SOL     OW26890   1.757   1.717   8.661  0.8717 -0.8666  0.0933
 5085SOL    HW126891   1.673   1.693   8.621 -0.4434  2.0408  1.1545
 5085SOL    HW226892   1.730   1.707   8.752 -2.1548  0.2071 -0.6753
 5086SOL     OW26893   1.330   4.187   5.959 -0.2226 -0.5564  0.1524
 5086SOL    HW126894   1.312   4.133   6.035 -2.3171 -0.1304 -0.0317
 5086SOL    HW226895   1.351   4.273   5.996 -0.4688 -1.4068  2.2481
 5087SOL     OW26896   0.119   3.439   1.634  1.0948 -0.0237 -0.3404
 5087SOL    HW126897   0.076   3.515   1.595  0.0447 -0.1376  0.5798
 5087SOL    HW226898   0.183   3.425   1.565  0.9093 -1.0548 -0.3131
 5088SOL     OW26899   2.264   0.104  17.670  0.0924 -0.4408  0.1566
 5088SOL    HW126900   2.323   0.177  17.652  1.2375 -1.1008  1.2591
 5088SOL    HW226901   2.237   0.122   0.019 -0.2288 -1.5345  0.2745
 5089SOL     OW26902   4.574   3.569   5.907  0.5441  0.1452 -0.2522
 5089SOL    HW126903   4.582   3.487   5.955 -0.1470  0.0478 -0.3029
 5089SOL    HW226904   4.493   3.605   5.942 -0.2570 -1.7412 -0.1878
 5090SOL     OW26905   4.699   1.197   8.285 -0.3178 -0.0379 -0.1793
 5090SOL    HW126906   0.033   1.229   8.227  1.6103 -0.2889  1.9986
 5090SOL    HW226907   4.647   1.268   8.322  1.9338  0.8113  1.3150
 5091SOL     OW26908   1.692   1.416   1.815  0.1930 -0.2637  0.2055
 5091SOL    HW126909   1.709   1.399   1.723 -1.3080 -0.1250 -0.0967
 5091SOL    HW226910   1.650   1.500   1.802 -1.3899 -1.4856 -2.4369
 5092SOL     OW26911   2.875   3.364   6.723  0.0604  0.8157  0.3936
 5092SOL    HW126912   2.808   3.342   6.659 -0.6759 -0.9811  1.8008
 5092SOL    HW226913   2.883   3.460   6.722 -0.1853  0.8151 -1.9019
 5093SOL     OW26914   1.869   3.885   8.209  0.0495  0.2279  0.3061
 5093SOL    HW126915   1.869   3.803   8.259  0.1331 -0.2839 -0.5336
 5093SOL    HW226916   1.957   3.919   8.223  0.6058 -0.2527 -2.0458
 5094SOL     OW26917   2.794   0.864   3.101  0.2628 -0.5722 -0.1443
 5094SOL    HW126918   2.738   0.789   3.086  0.9891 -1.3434  0.9846
 5094SOL    HW226919   2.842   0.868   3.019 -0.9554  0.7405 -0.7940
 5095SOL     OW26920   3.267   2.249   1.110  0.0840 -0.1012  0.3232
 5095SOL    HW126921   3.227   2.221   1.192  1.6787 -1.0991  0.7540
 5095SOL    HW226922   3.237   2.340   1.108 -1.2270 -0.5512 -0.5216
 5096SOL     OW26923   3.120   3.843   9.486 -0.2491  0.0662 -0.3373
 5096SOL    HW126924   3.205   3.840   9.441 -1.1884  1.7648 -2.1981
 5096SOL    HW226925   3.069   3.888   9.420 -0.4535 -0.2306 -0.3831
 5097SOL     OW26926   2.810   0.193   1.990  0.5412  0.0930 -0.2654
 5097SOL    HW126927   2.847   0.144   2.064  2.0679 -0.3164 -1.2997
 5097SOL    HW226928   2.881   0.183   1.927  2.0156  2.0848  1.0498
 5098SOL     OW26929   2.773   1.890   9.985  0.4609 -0.3355  0.0029
 5098SOL    HW126930   2.813   1.820   9.933 -1.2728 -0.7266 -0.7979
 5098SOL    HW226931   2.683   1.857   9.973 -0.0869  1.3297 -0.3716
 5099SOL     OW26932   0.832   0.718  14.085 -0.8761  0.5976 -0.2321
 5099SOL    HW126933   0.813   0.624  14.085  2.2008 -0.0366 -0.6740
 5099SOL    HW226934   0.750   0.754  14.053 -0.8984  0.0511 -0.8022
 5100SOL     OW26935   3.098   1.894   6.123 -0.2536 -0.4576 -0.7353
 5100SOL    HW126936   3.143   1.818   6.158 -1.2839  0.3270  2.2712
 5100SOL    HW226937   3.017   1.900   6.174 -0.8063 -0.6071 -1.5965
 5101SOL     OW26938   1.630   0.202  14.323  0.5879 -0.2087 -0.0649
 5101SOL    HW126939   1.623   0.111  14.294  0.7714 -0.2936  0.1560
 5101SOL    HW226940   1.571   0.247  14.263  1.4512 -0.5009 -1.1212
 5102SOL     OW26941   1.744   2.109   6.755 -0.1883  0.3513 -0.3565
 5102SOL    HW126942   1.721   2.192   6.797 -0.9523 -0.3602  0.6395
 5102SOL    HW226943   1.784   2.069   6.833 -2.4368  0.1738  0.7162
 5103SOL     OW26944   1.151   1.244   4.239  0.1949  0.3953 -0.3141
 5103SOL    HW126945   1.146   1.150   4.257 -3.3818  0.3570 -1.6241
 5103SOL    HW226946   1.211   1.255   4.165  2.1030 -3.4950  0.6657
 5104SOL     OW26947   2.857   1.074  11.066  0.6682 -0.2342  0.2351
 5104SOL    HW126948   2.805   1.052  10.989  1.7140  0.9741 -0.8253
 5104SOL    HW226949   2.845   1.169  11.069 -0.4745 -0.3691  0.0064
 5105SOL     OW26950   0.242   3.074   4.404 -0.5300  0.6970  0.4654
 5105SOL    HW126951   0.174   3.126   4.448 -0.1832  1.3784  0.1914
 5105SOL    HW226952   0.320   3.122   4.432 -0.2706  1.5110 -1.6122
 5106SOL     OW26953   1.170   2.521   3.182 -0.1287 -0.0918  0.5911
 5106SOL    HW126954   1.189   2.485   3.268 -0.1173  1.5466  1.2700
 5106SOL    HW226955   1.082   2.485   3.171  0.8548 -1.7661 -1.7788
 5107SOL     OW26956   0.650   1.089   9.543 -0.0559 -0.5914  0.0376
 5107SOL    HW126957   0.719   1.050   9.490 -0.8708  0.9671 -2.1585
 5107SOL    HW226958   0.607   1.012   9.583 -0.3652 -0.9882 -1.0578
 5108SOL     OW26959   3.732   0.686   7.884 -0.2316  0.2813  0.0553
 5108SOL    HW126960   3.784   0.632   7.943  0.7224  2.3287  1.0893
 5108SOL    HW226961   3.795   0.757   7.870  0.0389  0.1656  0.6859
 5109SOL     OW26962   0.766   0.495   7.064  0.7834  0.3319  0.3878
 5109SOL    HW126963   0.821   0.573   7.078 -0.1348  1.4113 -2.0685
 5109SOL    HW226964   0.712   0.531   6.994 -0.4507 -0.0970  1.1245
 5110SOL     OW26965   2.345   0.305   4.495 -0.2491  0.1880  0.1647
 5110SOL    HW126966   2.267   0.347   4.459  0.0909  0.7904  0.1257
 5110SOL    HW226967   2.361   0.234   4.432  2.9953  1.2554 -0.2309
 5111SOL     OW26968   2.666   1.735   6.263  0.2543 -0.2830  0.2376
 5111SOL    HW126969   2.640   1.821   6.296 -1.7321 -1.2180  1.0887
 5111SOL    HW226970   2.623   1.746   6.178  1.5462 -0.1340 -0.3961
 5112SOL     OW26971   2.996   0.691   6.200  0.1619  0.0445 -0.2993
 5112SOL    HW126972   2.901   0.684   6.186  0.3632 -0.6561 -1.2800
 5112SOL    HW226973   3.007   0.784   6.177  1.3740  0.1285  0.6099
 5113SOL     OW26974   3.983   4.040   1.617 -0.3282  0.2424  0.1256
 5113SOL    HW126975   4.056   4.080   1.664  0.6076 -0.1077 -1.0388
 5113SOL    HW226976   3.967   3.962   1.670 -0.0002  0.5282  0.6468
 5114SOL     OW26977   0.482   1.552   2.332  0.3921 -0.0350  0.5932
 5114SOL    HW126978   0.558   1.495   2.324  1.3300  1.1851  0.8733
 5114SOL    HW226979   0.483   1.611   2.256 -0.4983  0.4246  0.9371
 5115SOL     OW26980   2.057   0.594   3.537  0.0481  0.2009 -0.1865
 5115SOL    HW126981   2.046   0.574   3.630 -0.5456  3.0242  0.3657
 5115SOL    HW226982   1.970   0.630   3.517 -0.4355 -0.7158  0.2773
 5116SOL     OW26983   1.571   1.526   4.593  0.1200 -0.0169 -0.0072
 5116SOL    HW126984   1.519   1.588   4.543 -1.4265 -0.2397  1.3257
 5116SOL    HW226985   1.642   1.580   4.629  0.1210 -1.7034  2.5380
 5117SOL     OW26986   3.675   2.240   8.472  0.4442  0.6624  0.1643
 5117SOL    HW126987   3.631   2.179   8.413 -0.9062  1.5826  0.2303
 5117SOL    HW226988   3.719   2.301   8.414 -0.3947  0.6728 -0.4499
 5118SOL     OW26989   2.938   1.267   6.596 -0.6400 -0.2400  0.2940
 5118SOL    HW126990   2.950   1.179   6.560 -1.2631 -0.1928 -0.0300
 5118SOL    HW226991   2.909   1.250   6.686  0.4625 -2.0194  0.3285
 5119SOL     OW26992   1.612   3.352   5.314  0.5055  0.6654 -0.4997
 5119SOL    HW126993   1.594   3.304   5.233 -0.1344  0.4549 -0.2318
 5119SOL    HW226994   1.586   3.293   5.385 -0.4206  1.2107 -0.3939
 5120SOL     OW26995   1.859   0.103  13.582  0.5033 -0.4056  0.0660
 5120SOL    HW126996   1.843   0.144  13.667  0.2056  0.0807 -0.2209
 5120SOL    HW226997   1.884   0.175  13.524  1.2736  0.0817  1.0016
 5121SOL     OW26998   4.162   1.507   3.225  0.5017  0.6049 -0.4199
 5121SOL    HW126999   4.134   1.599   3.227 -2.6270 -0.4186  1.0853
 5121SOL    HW227000   4.257   1.507   3.210  1.0033 -2.6976  2.7208
 5122SOL     OW27001   1.850   4.309   1.455  0.5624  0.4105 -0.2644
 5122SOL    HW127002   1.767   4.272   1.484  1.7802 -1.4664  0.8035
 5122SOL    HW227003   1.841   4.299   1.360 -1.4174  1.0267 -0.1401
 5123SOL     OW27004   3.435   0.503   1.395  0.1556  0.2847 -0.6148
 5123SOL    HW127005   3.448   0.582   1.448 -0.0826 -0.7540  1.0019
 5123SOL    HW227006   3.361   0.466   1.443  0.1313 -0.4619 -1.2397
 5124SOL     OW27007   1.814   0.502  14.569 -0.3015  0.2195  0.2317
 5124SOL    HW127008   1.875   0.563  14.529  0.6880  0.6622  2.3821
 5124SOL    HW227009   1.758   0.559  14.622 -1.3687 -0.8995  0.3115
 5125SOL     OW27010   0.838   4.288  10.892 -0.0388 -0.6065  0.9291
 5125SOL    HW127011   0.900   4.216  10.898 -0.8551 -1.2942  1.1028
 5125SOL    HW227012   0.751   4.247  10.887  0.5710 -1.4185 -3.2943
 5126SOL     OW27013   4.246   1.686  13.137  1.1516  0.1324  0.2549
 5126SOL    HW127014   4.311   1.670  13.069  0.8484 -1.2916  0.2917
 5126SOL    HW227015   4.234   1.780  13.137 -0.3783 -0.0595  3.0258
 5127SOL     OW27016   1.866   1.550   5.907 -0.3853 -0.4997  0.5237
 5127SOL    HW127017   1.784   1.508   5.932  0.2653 -0.3266  2.8724
 5127SOL    HW227018   1.885   1.597   5.988  0.5714 -0.7468  0.4378
 5128SOL     OW27019   0.904   4.258   5.122 -0.1528 -0.2070  0.3640
 5128SOL    HW127020   0.861   4.343   5.113  3.0473  1.4077  0.1823
 5128SOL    HW227021   0.882   4.242   5.214 -0.6011 -0.1308  0.2688
 5129SOL     OW27022   2.636   2.583   8.582  0.0298 -0.0964  0.2848
 5129SOL    HW127023   2.650   2.671   8.549  1.7443  0.1786  1.7360
 5129SOL    HW227024   2.567   2.597   8.647 -0.4716  0.2431 -0.3312
 5130SOL     OW27025   3.228   2.991   7.956  0.1640 -0.7759  0.0714
 5130SOL    HW127026   3.160   3.036   7.905 -0.3753 -0.6946  0.8540
 5130SOL    HW227027   3.195   3.018   8.042 -0.7542  0.3636 -0.6287
 5131SOL     OW27028   3.225   0.538   6.198 -0.0725 -0.3536 -0.1782
 5131SOL    HW127029   3.149   0.595   6.211  1.1302  1.0399  0.6182
 5131SOL    HW227030   3.280   0.604   6.157 -1.7700  1.1818 -0.0007
 5132SOL     OW27031   2.998   3.365  10.036 -0.5626  0.2634 -0.4650
 5132SOL    HW127032   3.011   3.428   9.964 -1.6258  0.6855 -0.2941
 5132SOL    HW227033   2.931   3.407  10.090 -1.1068  0.1633 -1.0657
 5133SOL     OW27034   3.260   2.218  17.347 -0.3965 -0.3431  0.5064
 5133SOL    HW127035   3.349   2.236  17.317 -0.7667 -2.6521 -1.9491
 5133SOL    HW227036   3.210   2.288  17.305  0.3553 -2.0168 -3.1297
 5134SOL     OW27037   3.330   4.689   8.956 -0.0357  0.6379 -0.0719
 5134SOL    HW127038   3.334   4.607   9.004 -0.0668  0.6821  0.0082
 5134SOL    HW227039   3.275   4.666   8.881  0.5116 -1.1090  0.0695
 5135SOL     OW27040   0.589   0.448   0.905  0.3821  0.4236  0.0393
 5135SOL    HW127041   0.667   0.450   0.850  1.7566 -1.3758  1.9095
 5135SOL    HW227042   0.619   0.443   0.996  2.1094  1.3012 -0.4831
 5136SOL     OW27043   2.529   3.085   7.028 -0.0444 -0.2188 -0.3157
 5136SOL    HW127044   2.573   3.093   7.113 -0.7741 -0.7234  0.1111
 5136SOL    HW227045   2.459   3.149   7.036 -2.9348 -3.3641 -0.3728
 5137SOL     OW27046   0.358   0.899  17.395 -0.2526  0.1843 -0.4598
 5137SOL    HW127047   0.353   0.876  17.302  0.2179  1.5107 -0.8133
 5137SOL    HW227048   0.444   0.866  17.422 -1.2799 -2.8535 -0.8724
 5138SOL     OW27049   0.738   1.894   5.424 -0.9478 -0.3764 -0.0161
 5138SOL    HW127050   0.758   1.811   5.380 -0.1858  0.0059 -0.3925
 5138SOL    HW227051   0.819   1.911   5.471 -2.4150  0.3178  2.2285
 5139SOL     OW27052   2.444   2.844   6.187  0.0434  0.0078  0.2148
 5139SOL    HW127053   2.482   2.758   6.204  1.6456  1.2884  3.1421
 5139SOL    HW227054   2.357   2.838   6.227  1.1925  1.1455  2.9193
 5140SOL     OW27055   1.788   4.086   2.871  0.2913  0.2699  0.1198
 5140SOL    HW127056   1.875   4.048   2.861  0.0198  0.0508 -1.4256
 5140SOL    HW227057   1.806   4.180   2.859  1.5142 -0.1837 -1.5190
 5141SOL     OW27058   2.312   2.313   3.628 -0.4446  0.0058 -0.1907
 5141SOL    HW127059   2.283   2.405   3.633  3.1945  1.1348  0.0329
 5141SOL    HW227060   2.317   2.290   3.720  0.0960 -1.0844 -0.5048
 5142SOL     OW27061   4.386   1.105   7.659  0.4052  0.9351  0.3942
 5142SOL    HW127062   4.305   1.154   7.660  1.2440  2.3052  3.9526
 5142SOL    HW227063   4.430   1.157   7.727  0.3682 -0.3505  1.4285
 5143SOL     OW27064   4.388   0.022  10.473 -0.1172 -0.2719  0.2457
 5143SOL    HW127065   4.466   0.023  10.417  1.7817 -2.4333  2.8403
 5143SOL    HW227066   4.367   0.113  10.494 -1.9926 -0.9081  1.1626
 5144SOL     OW27067   3.217   1.387   4.484 -0.4410  0.3085  0.1366
 5144SOL    HW127068   3.258   1.445   4.420  0.9584 -0.2943  0.4869
 5144SOL    HW227069   3.169   1.442   4.546 -1.4111 -1.6350  1.1044
 5145SOL     OW27070   0.162   3.682   4.942 -0.3383 -0.4211  0.0578
 5145SOL    HW127071   0.138   3.774   4.947 -0.0764 -0.3534  0.0290
 5145SOL    HW227072   0.080   3.647   4.907 -0.3886  0.5636 -0.7888
 5146SOL     OW27073   1.538   1.478   8.246  0.2551  0.0232  0.1996
 5146SOL    HW127074   1.613   1.481   8.186 -1.4790 -0.5639 -2.0022
 5146SOL    HW227075   1.486   1.415   8.197  0.7873 -0.6501  0.4994
 5147SOL     OW27076   3.343   3.631   6.882  0.4174 -0.3385 -0.0683
 5147SOL    HW127077   3.311   3.541   6.876  3.1253 -1.2829 -0.4128
 5147SOL    HW227078   3.366   3.646   6.974 -0.5803  1.8540 -0.1841
 5148SOL     OW27079   4.102   3.180   9.986  0.7487  0.4900  0.0756
 5148SOL    HW127080   4.045   3.111  10.021 -3.1698  3.5893 -0.1487
 5148SOL    HW227081   4.101   3.234  10.066 -1.3858 -1.6744  1.5019
 5149SOL     OW27082   4.684   0.046   3.138 -0.2406 -0.4472  0.2568
 5149SOL    HW127083   0.042   0.044   3.157 -0.0941 -1.0191 -0.4899
 5149SOL    HW227084   4.668   0.140   3.137 -1.2123 -0.6245 -0.9040
 5150SOL     OW27085   4.084   3.446   6.845 -0.0454  0.1011  0.0099
 5150SOL    HW127086   3.989   3.450   6.856 -0.2831 -1.0702 -1.4737
 5150SOL    HW227087   4.090   3.401   6.760  0.6123 -1.5430  0.9259
 5151SOL     OW27088   2.517   2.180  12.926 -0.8199  0.3129  0.3757
 5151SOL    HW127089   2.455   2.146  12.990 -0.6973  0.9633  0.8373
 5151SOL    HW227090   2.562   2.252  12.971  0.7385 -2.2476  2.8826
 5152SOL     OW27091   2.355   4.160   9.812 -0.2421 -0.4992  0.0262
 5152SOL    HW127092   2.330   4.083   9.863  0.0389 -1.7003 -1.6456
 5152SOL    HW227093   2.427   4.123   9.761  1.1659  1.5242  0.5389
 5153SOL     OW27094   0.349   1.601   4.950  0.1468  0.4761  0.2267
 5153SOL    HW127095   0.324   1.509   4.953  0.1043  0.4139 -2.3562
 5153SOL    HW227096   0.291   1.644   5.013 -1.5583 -2.4096  0.6113
 5154SOL     OW27097   4.531   1.251  13.885  0.3040 -0.4088 -0.9637
 5154SOL    HW127098   4.474   1.202  13.825 -0.1262  1.1826 -1.8566
 5154SOL    HW227099   4.539   1.332  13.834  2.7153 -0.7214 -1.0652
 5155SOL     OW27100   0.349   0.604   4.647 -0.4889  0.3706  0.1230
 5155SOL    HW127101   0.327   0.562   4.730 -0.0780  0.6534  0.3774
 5155SOL    HW227102   0.442   0.621   4.666 -0.9196  2.3425  0.4637
 5156SOL     OW27103   4.491   2.913   4.713 -0.4680 -0.0142 -0.3175
 5156SOL    HW127104   4.426   2.843   4.707 -0.2544 -0.3176  1.0816
 5156SOL    HW227105   4.563   2.865   4.754  0.0771  0.5182 -0.6534
 5157SOL     OW27106   2.236   0.588  13.611 -0.1198  0.2015  0.2713
 5157SOL    HW127107   2.261   0.589  13.519 -2.3185 -0.7385 -0.3329
 5157SOL    HW227108   2.176   0.514  13.602  1.1673 -0.5656 -1.9171
 5158SOL     OW27109   1.243   2.712   5.597  0.7086 -0.6149 -0.2553
 5158SOL    HW127110   1.204   2.798   5.580  1.7693 -0.0859  0.0191
 5158SOL    HW227111   1.189   2.684   5.672  0.1413  0.0559 -0.4050
 5159SOL     OW27112   1.856   1.688  16.850 -0.0610  0.0890 -0.0535
 5159SOL    HW127113   1.774   1.724  16.814 -0.3404 -0.7151 -0.2304
 5159SOL    HW227114   1.908   1.679  16.771  0.0070 -2.1591  0.2272
 5160SOL     OW27115   1.793   1.075   2.904  0.5709  0.3573  0.2618
 5160SOL    HW127116   1.787   1.075   3.000 -0.8375 -2.1683  0.1647
 5160SOL    HW227117   1.774   1.164   2.875 -0.2624 -0.3182 -1.2500
 5161SOL     OW27118   3.792   0.098   8.968  1.2145  0.1366 -0.2627
 5161SOL    HW127119   3.725   0.047   8.923  1.0504 -0.0446  0.1856
 5161SOL    HW227120   3.874   0.064   8.933  1.8427  1.0749  0.2972
 5162SOL     OW27121   0.253   4.434   5.369 -0.6494  0.1707  0.2035
 5162SOL    HW127122   0.324   4.413   5.309 -1.2361 -0.3144 -0.3182
 5162SOL    HW227123   0.248   4.351   5.415 -0.3645  0.4544  0.7454
 5163SOL     OW27124   1.323   4.414   1.075  0.0063 -0.0549  0.2985
 5163SOL    HW127125   1.282   4.492   1.037 -0.6610 -1.9503 -2.8082
 5163SOL    HW227126   1.403   4.403   1.024 -0.1440  1.8400 -0.3572
 5164SOL     OW27127   2.750   1.918   4.847  0.5077  0.2680 -0.1200
 5164SOL    HW127128   2.765   1.954   4.934 -0.9857 -1.1697  0.7559
 5164SOL    HW227129   2.677   1.856   4.854 -0.6245  1.5544 -0.5855
 5165SOL     OW27130   3.063   0.909   0.291  0.2966  0.2280  0.3117
 5165SOL    HW127131   3.101   0.887   0.376  0.5558 -1.3318 -0.2106
 5165SOL    HW227132   3.133   0.876   0.234  1.9844  0.7038  2.1081
 5166SOL     OW27133   4.437   0.444   9.291 -0.0037  0.2373 -0.1208
 5166SOL    HW127134   4.468   0.398   9.214  1.5149 -0.7360  1.0760
 5166SOL    HW227135   4.522   0.467   9.328 -1.2420  0.0995  2.7868
 5167SOL     OW27136   0.913   0.642   2.282 -0.0315 -0.5202  1.0829
 5167SOL    HW127137   0.946   0.552   2.289 -2.3057 -1.4634 -0.3201
 5167SOL    HW227138   0.866   0.649   2.364 -1.5780 -0.7566  0.2129
 5168SOL     OW27139   3.359   0.655   6.988 -0.2614 -0.3477  0.0087
 5168SOL    HW127140   3.421   0.676   6.918 -0.8665  2.3741  0.2493
 5168SOL    HW227141   3.301   0.592   6.946 -1.3879 -1.0389  2.5964
 5169SOL     OW27142   0.205   2.347   6.049 -0.1636 -0.2682  0.3590
 5169SOL    HW127143   0.269   2.402   6.005 -0.3908  0.0783  0.4663
 5169SOL    HW227144   0.173   2.287   5.981 -0.6357  0.1722  0.1964
 5170SOL     OW27145   2.650   0.374  11.213  0.0978 -0.7665  0.0106
 5170SOL    HW127146   2.567   0.342  11.247  0.6435  0.8018  2.7739
 5170SOL    HW227147   2.655   0.452  11.267 -0.9133  1.2100 -2.7516
 5171SOL     OW27148   0.484   1.274   7.760  0.0997 -0.3856 -0.2103
 5171SOL    HW127149   0.529   1.346   7.716  1.7777 -0.7231  0.9434
 5171SOL    HW227150   0.563   1.230   7.791  0.1475  0.1425  0.4147
 5172SOL     OW27151   2.428   0.054   3.288  0.0973 -0.1932 -0.1875
 5172SOL    HW127152   2.515   0.069   3.323 -0.8982  1.5931  1.4962
 5172SOL    HW227153   2.402   0.129   3.235  0.1819  0.3496  0.5429
 5173SOL     OW27154   3.615   3.019   6.329  0.3394 -0.0436  0.2923
 5173SOL    HW127155   3.668   3.098   6.314  1.2215 -0.3276  1.8554
 5173SOL    HW227156   3.527   3.050   6.347  0.0393 -1.3421  1.0922
 5174SOL     OW27157   3.191   2.769   5.615 -0.2428  0.2112  0.3134
 5174SOL    HW127158   3.248   2.697   5.641  1.2795  1.9403  1.7906
 5174SOL    HW227159   3.174   2.740   5.526 -0.0110 -0.1884  0.3995
 5175SOL     OW27160   1.968   3.888  12.953  0.6076  0.8019  0.2751
 5175SOL    HW127161   2.037   3.926  12.898  0.1413 -0.7665 -1.4005
 5175SOL    HW227162   1.897   3.941  12.916  1.4158  1.9987  0.4364
 5176SOL     OW27163   4.539   2.925   5.843 -0.6247  0.1043 -0.5082
 5176SOL    HW127164   4.500   3.009   5.817 -0.5864  0.3648  0.2810
 5176SOL    HW227165   4.545   2.880   5.759 -2.9488 -0.3118 -0.4621
 5177SOL     OW27166   2.211   3.601  17.297 -0.3550  0.4742  0.0674
 5177SOL    HW127167   2.287   3.549  17.271 -1.1772  0.2070 -1.7511
 5177SOL    HW227168   2.231   3.673  17.238  1.9177  0.2367  0.5385
 5178SOL     OW27169   3.072   1.530   5.363  0.1671 -0.2955 -0.3727
 5178SOL    HW127170   3.099   1.459   5.421  1.4810  1.7997  1.6034
 5178SOL    HW227171   3.025   1.482   5.295  0.0419 -0.2035 -0.3511
 5179SOL     OW27172   2.470   3.209  10.594  0.0206 -0.3120  0.4043
 5179SOL    HW127173   2.394   3.266  10.581 -0.3194 -0.5623  1.2514
 5179SOL    HW227174   2.471   3.146  10.523 -0.0196 -0.1330  0.2455
 5180SOL     OW27175   2.058   4.022   5.773 -0.6395 -0.6981 -0.3576
 5180SOL    HW127176   2.036   4.076   5.849  0.4878  1.5930 -1.6572
 5180SOL    HW227177   2.079   3.942   5.820 -1.3347 -0.8289 -0.2673
 5181SOL     OW27178   2.995   3.296  17.549 -0.6672  0.7355 -0.4029
 5181SOL    HW127179   2.950   3.217  17.577  0.4264  0.5770  0.9271
 5181SOL    HW227180   3.034   3.330  17.629  0.0283 -0.1156 -0.3804
 5182SOL     OW27181   0.631   0.272  10.847  0.0841 -0.0667  0.0795
 5182SOL    HW127182   0.618   0.326  10.769 -0.3715 -0.3221 -0.0228
 5182SOL    HW227183   0.623   0.336  10.918  1.1356 -0.4659  0.5627
 5183SOL     OW27184   4.174   1.594   4.426  0.3492  0.1581 -0.1867
 5183SOL    HW127185   4.087   1.633   4.418  1.2701  2.8393  2.9846
 5183SOL    HW227186   4.207   1.637   4.505 -2.3172 -1.0524  1.5647
 5184SOL     OW27187   2.415   0.904   7.196 -0.3907 -0.5362 -0.4119
 5184SOL    HW127188   2.469   0.950   7.132 -2.8205  2.9715  0.0817
 5184SOL    HW227189   2.360   0.977   7.225  0.4938 -0.2651  0.5870
 5185SOL     OW27190   4.471   1.349   3.138  0.1301 -0.7036 -0.0422
 5185SOL    HW127191   4.559   1.380   3.114 -0.3693  1.6218  1.1305
 5185SOL    HW227192   4.452   1.420   3.200  3.6504 -0.5890  0.9021
 5186SOL     OW27193   2.891   2.496   1.783 -0.3360 -1.0136 -0.4181
 5186SOL    HW127194   2.934   2.548   1.851  2.0277 -1.7873 -1.3195
 5186SOL    HW227195   2.963   2.501   1.720  0.3394 -0.2509  0.4128
 5187SOL     OW27196   2.164   0.663   3.278 -0.2027 -0.9576 -0.1580
 5187SOL    HW127197   2.133   0.655   3.368  0.4041  1.7349  0.2853
 5187SOL    HW227198   2.250   0.705   3.279 -1.1153  0.8630  1.0633
 5188SOL     OW27199   2.298   1.203  17.387 -0.1896  0.3231 -0.3024
 5188SOL    HW127200   2.204   1.191  17.404 -0.1699  0.5448 -0.0449
 5188SOL    HW227201   2.334   1.221  17.474  0.1444 -2.5949  0.1651
 5189SOL     OW27202   2.077   3.193   7.749  0.2144 -0.1258  0.0594
 5189SOL    HW127203   2.135   3.118   7.733 -0.1684 -0.1234 -1.3137
 5189SOL    HW227204   2.065   3.232   7.662  1.6455 -0.6252 -0.3740
 5190SOL     OW27205   2.536   3.034   6.357  0.6030  0.2649  0.3406
 5190SOL    HW127206   2.629   3.010   6.352  0.5465  0.5526 -2.1499
 5190SOL    HW227207   2.505   2.964   6.299  1.5865  1.1003 -1.1758
 5191SOL     OW27208   1.536   1.634   7.933 -0.0170 -0.0341  0.2268
 5191SOL    HW127209   1.553   1.691   7.858 -0.9743 -0.6551 -0.4691
 5191SOL    HW227210   1.627   1.612   7.952 -0.5343 -0.0131  2.7322
 5192SOL     OW27211   0.574   4.337   4.409 -0.4393 -0.4151 -0.7860
 5192SOL    HW127212   0.485   4.329   4.443 -0.0068  0.1328  0.4738
 5192SOL    HW227213   0.611   4.352   4.496 -0.9591 -0.3535 -0.5803
 5193SOL     OW27214   1.116   3.830   7.865  0.1431 -0.0951  0.2852
 5193SOL    HW127215   1.130   3.736   7.858 -1.9310 -0.3106 -0.6777
 5193SOL    HW227216   1.207   3.861   7.860  0.1702 -0.4631 -1.4092
 5194SOL     OW27217   2.095   2.949   8.900 -0.5275  0.0607 -0.1075
 5194SOL    HW127218   2.027   2.971   8.964  0.9803  1.9266  0.8623
 5194SOL    HW227219   2.042   2.906   8.833 -0.2471  0.5848 -0.6725
 5195SOL     OW27220   0.695   2.403   6.413  0.1856  0.5580 -0.0437
 5195SOL    HW127221   0.660   2.320   6.443  0.1245  2.6704  5.7502
 5195SOL    HW227222   0.769   2.366   6.365 -1.4335 -1.4749 -0.9377
 5196SOL     OW27223   2.892   2.432  17.290 -0.2975 -0.0345 -0.5027
 5196SOL    HW127224   2.847   2.407  17.209  0.3417  2.2750 -1.5936
 5196SOL    HW227225   2.983   2.448  17.264 -0.6879  1.4702 -0.9876
 5197SOL     OW27226   1.620   1.662   1.736 -0.3145  0.4328 -0.4935
 5197SOL    HW127227   1.619   1.723   1.811  0.4586 -2.0409  1.5227
 5197SOL    HW227228   1.712   1.648   1.717 -0.6226 -2.1277 -0.0497
 5198SOL     OW27229   4.655   3.233  14.904 -0.2119  0.0866  0.5706
 5198SOL    HW127230   4.569   3.194  14.918 -1.0307  2.1854  1.3154
 5198SOL    HW227231   4.641   3.324  14.880 -1.0511 -0.1724  0.0775
 5199SOL     OW27232   3.224   0.580  13.264 -0.0894  0.5475 -0.0976
 5199SOL    HW127233   3.248   0.547  13.351 -0.7216 -2.1649 -0.9709
 5199SOL    HW227234   3.135   0.608  13.287 -0.2498 -0.1337  0.1276
 5200SOL     OW27235   1.307   3.703   5.729 -1.0058 -0.3502 -0.2770
 5200SOL    HW127236   1.373   3.654   5.777  1.2890  1.4841 -1.5689
 5200SOL    HW227237   1.359   3.713   5.650  1.9951 -0.1474  1.7044
 5201SOL     OW27238   0.372   2.135   6.949  0.3981 -0.5757 -0.0545
 5201SOL    HW127239   0.412   2.135   7.036  0.5811 -0.2514 -0.1392
 5201SOL    HW227240   0.312   2.060   6.952  0.7920 -0.9118 -0.5642
 5202SOL     OW27241   3.843   0.163   6.214  0.8251  0.0211 -0.1404
 5202SOL    HW127242   3.872   0.198   6.298  0.1700 -1.9691  0.9143
 5202SOL    HW227243   3.879   0.236   6.163 -1.9958  1.1708 -0.5254
 5203SOL     OW27244   4.640   1.498  13.788  0.0104 -0.3236  0.2285
 5203SOL    HW127245   4.676   1.580  13.754 -3.0167  0.8629 -0.1755
 5203SOL    HW227246   4.617   1.524  13.877 -0.6087  0.5259 -0.1722
 5204SOL     OW27247   3.647   0.543   1.736  0.3868 -0.3606  0.2520
 5204SOL    HW127248   3.565   0.557   1.687 -0.5102 -0.1687  1.8139
 5204SOL    HW227249   3.655   0.624   1.787  2.1312 -0.1365 -0.3814
 5205SOL     OW27250   4.050   3.667   9.675  0.5516 -0.2939 -0.1591
 5205SOL    HW127251   4.046   3.634   9.586  1.1209 -0.8429  0.0236
 5205SOL    HW227252   3.978   3.610   9.702  0.0998  0.1531 -0.4073
 5206SOL     OW27253   2.366   2.581   5.234  0.1588 -0.0504  0.5203
 5206SOL    HW127254   2.461   2.595   5.228  0.1747 -0.2826  0.2704
 5206SOL    HW227255   2.368   2.492   5.269  1.0855 -0.6410 -1.0573
 5207SOL     OW27256   0.290   2.745   5.804  0.0821 -0.2478 -0.3120
 5207SOL    HW127257   0.364   2.805   5.791 -0.0097  0.2854  1.5401
 5207SOL    HW227258   0.251   2.738   5.717 -1.0013 -0.2676  0.1794
 5208SOL     OW27259   1.520   1.851  17.232  0.4338 -0.2713  0.8573
 5208SOL    HW127260   1.589   1.849  17.167  0.6848 -1.7055  1.1650
 5208SOL    HW227261   1.488   1.761  17.232 -1.2710  0.3141 -2.5999
 5209SOL     OW27262   2.345   0.615   2.981  0.2175 -0.5911  0.2871
 5209SOL    HW127263   2.401   0.578   2.912  0.9341  1.7902 -0.4256
 5209SOL    HW227264   2.365   0.709   2.976 -1.5839 -0.3025 -1.0524
 5210SOL     OW27265   1.940   0.210   6.748  0.2364  0.1923  0.1137
 5210SOL    HW127266   1.899   0.214   6.661 -0.6129 -2.0494  0.4165
 5210SOL    HW227267   1.863   0.184   6.798  0.2694  1.3322  0.7498
 5211SOL     OW27268   0.290   2.094   5.356  0.6965  0.3119  0.2558
 5211SOL    HW127269   0.385   2.096   5.352  0.6335 -1.7919 -2.1759
 5211SOL    HW227270   0.265   2.187   5.360 -0.4604  0.0026  0.3468
 5212SOL     OW27271   2.460   0.268  16.560 -0.5377  0.6626  0.1695
 5212SOL    HW127272   2.414   0.304  16.636 -0.3164 -0.2676  0.7484
 5212SOL    HW227273   2.514   0.346  16.545  3.2208 -1.8386  0.9274
 5213SOL     OW27274   0.797   0.524  11.038 -0.7867  0.9027  0.0736
 5213SOL    HW127275   0.717   0.548  10.992 -0.5625  0.8020 -0.3736
 5213SOL    HW227276   0.766   0.501  11.126  0.7606  0.3629  0.4855
 5214SOL     OW27277   0.672   1.043  17.504  0.3017  0.1113  0.2169
 5214SOL    HW127278   0.768   1.040  17.499  0.3254  0.5782  0.4157
 5214SOL    HW227279   0.651   0.950  17.509  1.6127 -0.0829  1.9630
 5215SOL     OW27280   4.413   3.945  12.057  0.4982  0.2816 -0.1938
 5215SOL    HW127281   4.480   4.010  12.076 -1.4274  2.3632 -0.5070
 5215SOL    HW227282   4.425   3.876  12.123 -0.9129  0.4544  0.2634
 5216SOL     OW27283   2.124   1.252   6.975 -0.4111  0.1168  0.0134
 5216SOL    HW127284   2.206   1.212   6.949 -1.5213 -2.1835  0.0767
 5216SOL    HW227285   2.129   1.327   6.916  3.2903 -0.2441 -0.1403
 5217SOL     OW27286   1.837   3.859   6.529 -0.2410 -0.3145  0.8383
 5217SOL    HW127287   1.881   3.875   6.612 -0.9483  1.4490  0.8673
 5217SOL    HW227288   1.825   3.764   6.520 -0.8817 -0.0241 -1.3319
 5218SOL     OW27289   4.396   1.734   1.922  0.0845 -0.2813 -0.5262
 5218SOL    HW127290   4.344   1.776   1.853  0.5672 -1.1486 -1.4129
 5218SOL    HW227291   4.466   1.689   1.875  0.0826  1.2093 -1.9414
 5219SOL     OW27292   2.808   2.722   4.650 -0.2009  0.0470  0.0415
 5219SOL    HW127293   2.859   2.794   4.611  1.1299 -0.9688 -0.0754
 5219SOL    HW227294   2.872   2.695   4.715 -0.6511 -2.4120 -0.5678
 5220SOL     OW27295   1.081   0.070  13.031 -0.8460 -0.0375  0.0864
 5220SOL    HW127296   1.008   0.072  12.969 -1.0519 -0.7257  0.3062
 5220SOL    HW227297   1.065   4.713  13.052  0.2724 -0.2564 -0.0512
 5221SOL     OW27298   2.292   0.325   2.175 -0.1143 -0.0667  0.5537
 5221SOL    HW127299   2.206   0.285   2.183 -1.3484  2.7150  1.3809
 5221SOL    HW227300   2.343   0.267   2.231 -0.9400 -0.7717  0.5749
 5222SOL     OW27301   0.551   1.757  13.070 -0.0490  0.0156  0.3132
 5222SOL    HW127302   0.561   1.788  12.980 -0.6516 -0.1580  0.1842
 5222SOL    HW227303   0.537   1.664  13.053 -1.0505  0.9497 -4.1737
 5223SOL     OW27304   0.080   3.625  14.096  0.4546 -0.3096 -0.1694
 5223SOL    HW127305   0.086   3.540  14.052 -1.0156 -0.4324 -0.1323
 5223SOL    HW227306   0.048   3.610  14.185  0.0407 -3.1211 -0.8107
 5224SOL     OW27307   0.108   1.429   8.563  0.0343  0.2134 -0.5026
 5224SOL    HW127308   0.087   1.420   8.655 -0.3144  2.2012 -0.3791
 5224SOL    HW227309   0.038   1.374   8.528  1.1400 -0.2235 -2.0703
 5225SOL     OW27310   2.372   4.660   6.261 -0.3147 -0.0995  0.0353
 5225SOL    HW127311   2.288   4.688   6.298  0.2167 -0.1911  1.3317
 5225SOL    HW227312   2.405   4.616   6.340  1.3117  1.8483  0.4504
 5226SOL     OW27313   2.257   4.006   1.149 -0.0100 -0.7619  0.3843
 5226SOL    HW127314   2.272   3.958   1.231 -0.2407 -0.5679  0.5395
 5226SOL    HW227315   2.269   3.932   1.089  1.0066  0.3370 -0.7845
 5227SOL     OW27316   2.912   4.084   7.689  0.4476 -0.3491  0.6510
 5227SOL    HW127317   2.963   4.003   7.699 -0.4062 -1.0087 -0.2512
 5227SOL    HW227318   2.960   4.136   7.753 -2.6436  2.4337  0.7228
 5228SOL     OW27319   2.800   0.654   9.378  0.2202  0.4144  0.0718
 5228SOL    HW127320   2.727   0.597   9.401  0.3011 -0.0489 -0.8280
 5228SOL    HW227321   2.765   0.671   9.291  0.0647 -0.9421 -0.1310
 5229SOL     OW27322   1.579   2.742   3.686 -0.1059 -0.7189 -0.2760
 5229SOL    HW127323   1.628   2.817   3.718 -1.3677  0.3966 -0.9614
 5229SOL    HW227324   1.520   2.775   3.618  1.3235  0.3476 -0.9959
 5230SOL     OW27325   1.899   3.636   3.847  0.5954 -0.0088 -0.2514
 5230SOL    HW127326   1.940   3.659   3.930  0.2424  2.7546 -0.8517
 5230SOL    HW227327   1.872   3.545   3.863  0.0592  0.4035  1.1986
 5231SOL     OW27328   1.905   2.810   5.917  0.0347  0.0522  0.4895
 5231SOL    HW127329   1.898   2.895   5.960 -1.7674 -0.5602  1.3712
 5231SOL    HW227330   2.000   2.804   5.925 -0.2777 -2.6479  1.9390
 5232SOL     OW27331   3.334   1.698   5.989 -0.0966 -0.0546 -0.4609
 5232SOL    HW127332   3.426   1.678   5.969 -0.2227  1.0611 -2.1741
 5232SOL    HW227333   3.347   1.793   5.998  0.8603 -0.2836  0.5845
 5233SOL     OW27334   3.484   1.702   1.623 -0.1741  0.4105  0.0920
 5233SOL    HW127335   3.547   1.630   1.629  0.1845  0.7817  0.7475
 5233SOL    HW227336   3.403   1.659   1.650  1.6313 -2.9318  0.2653
 5234SOL     OW27337   0.983   4.279  11.174 -0.1722 -0.1200  0.4924
 5234SOL    HW127338   0.937   4.349  11.128 -1.2201 -0.5791  0.8476
 5234SOL    HW227339   1.064   4.326  11.192  0.8241 -1.7040  0.0910
 5235SOL     OW27340   3.883   0.971  13.219  0.0562  0.6296  0.2522
 5235SOL    HW127341   3.965   0.997  13.261  1.0636  3.4467 -3.3971
 5235SOL    HW227342   3.915   0.923  13.143  0.7184 -1.0445  1.6144
 5236SOL     OW27343   0.587   3.540  14.835 -0.0794 -0.2893  0.0578
 5236SOL    HW127344   0.550   3.496  14.759  2.9710 -0.7059 -1.1789
 5236SOL    HW227345   0.669   3.492  14.847 -0.4175 -0.6136  1.0777
 5237SOL     OW27346   0.782   3.394   2.704 -0.4982 -0.3386 -0.7172
 5237SOL    HW127347   0.698   3.438   2.715  0.3371  0.9985  0.2011
 5237SOL    HW227348   0.800   3.351   2.787 -0.8724  0.1008 -0.4122
 5238SOL     OW27349   1.820   0.158   3.790  0.5932  0.0406  0.0048
 5238SOL    HW127350   1.820   0.113   3.705 -0.9200 -1.3516  0.7728
 5238SOL    HW227351   1.853   0.089   3.847  0.3509  0.8033  1.0592
 5239SOL     OW27352   0.694   4.112   7.147 -0.0417 -0.0745  0.2828
 5239SOL    HW127353   0.712   4.167   7.223  0.3219  0.8293 -0.4539
 5239SOL    HW227354   0.598   4.105   7.152  0.0490 -1.8598 -0.5430
 5240SOL     OW27355   4.328   4.286   7.678 -0.3919 -0.0293  0.2611
 5240SOL    HW127356   4.344   4.269   7.771  0.8955  0.2392  0.0936
 5240SOL    HW227357   4.323   4.382   7.673 -1.8000 -0.1530 -0.6563
 5241SOL     OW27358   2.893   2.899   8.947 -0.7311  0.0939  0.2320
 5241SOL    HW127359   2.941   2.820   8.970  0.0352  0.2298 -0.8704
 5241SOL    HW227360   2.813   2.856   8.918  0.2121 -0.7555 -1.1263
 5242SOL     OW27361   2.977   3.464   8.516 -0.1940  0.8674 -0.1296
 5242SOL    HW127362   3.067   3.473   8.485 -0.9181 -0.6105 -2.6347
 5242SOL    HW227363   2.982   3.524   8.591  1.6344  0.6911 -0.1148
 5243SOL     OW27364   3.176   3.657   3.634  0.1364 -0.2976 -0.3034
 5243SOL    HW127365   3.258   3.671   3.683 -0.6810  0.7564  0.7804
 5243SOL    HW227366   3.202   3.583   3.580 -0.4847 -1.5853  1.1507
 5244SOL     OW27367   3.895   3.921   6.388  0.2508  0.1298 -0.0281
 5244SOL    HW127368   3.932   4.010   6.386  0.7326 -0.1150 -2.3311
 5244SOL    HW227369   3.828   3.931   6.320  0.2340  2.2098  0.2921
 5245SOL     OW27370   1.486   1.255   5.147  0.8915 -0.0256  0.1214
 5245SOL    HW127371   1.576   1.255   5.112  0.7866 -0.1553 -0.1514
 5245SOL    HW227372   1.492   1.305   5.228  0.2674 -0.1019  0.2077
 5246SOL     OW27373   0.115   2.670  12.660 -0.6103  0.2992  0.1070
 5246SOL    HW127374   0.114   2.756  12.702  0.1912  0.5507 -0.3757
 5246SOL    HW227375   0.171   2.679  12.582 -3.0148  1.2599 -1.4835
 5247SOL     OW27376   0.019   3.015  15.255  0.3623  0.7893  0.2361
 5247SOL    HW127377   4.722   2.979  15.173 -2.9570  1.1991  1.3677
 5247SOL    HW227378   0.048   3.104  15.235  2.6676 -0.0019  0.0562
 5248SOL     OW27379   2.298   0.475  12.578  0.2808  0.0591  0.6038
 5248SOL    HW127380   2.305   0.564  12.543  3.2630 -0.7778 -0.9753
 5248SOL    HW227381   2.225   0.483  12.639 -0.0122 -0.5800  0.3431
 5249SOL     OW27382   0.050   2.308   7.724  0.1998  0.8912  0.0747
 5249SOL    HW127383   0.106   2.232   7.707  0.7318  1.4467 -0.6617
 5249SOL    HW227384   0.008   2.316   7.639  1.6814  1.5182 -0.5898
 5250SOL     OW27385   3.874   3.386   2.868 -0.1873 -0.1243 -0.6631
 5250SOL    HW127386   3.799   3.344   2.910  1.2450 -0.4680  1.5565
 5250SOL    HW227387   3.935   3.341   2.925 -0.1632  2.0746  1.0507
 5251SOL     OW27388   4.166   2.657   9.464 -0.3257  0.2825  0.0628
 5251SOL    HW127389   4.242   2.601   9.448 -0.9836 -0.1795 -1.4940
 5251SOL    HW227390   4.143   2.678   9.373 -1.9790 -0.6995  0.2476
 5252SOL     OW27391   0.575   3.236   7.995 -0.2172 -0.5427  0.5604
 5252SOL    HW127392   0.624   3.159   8.024  0.5644  0.2946  1.4154
 5252SOL    HW227393   0.520   3.249   8.072  1.3435 -1.2021  1.7740
 5253SOL     OW27394   1.998   2.650   3.687  0.0671 -0.0750  0.0503
 5253SOL    HW127395   2.010   2.556   3.706 -2.3482 -0.6139 -1.1932
 5253SOL    HW227396   2.016   2.649   3.593 -0.4600  0.1136 -0.0516
 5254SOL     OW27397   1.319   4.428   9.861  0.2526  0.4783 -0.0461
 5254SOL    HW127398   1.294   4.457   9.949  0.3841  1.7333 -0.4262
 5254SOL    HW227399   1.391   4.369   9.885 -0.9419 -0.5209  1.1437
 5255SOL     OW27400   1.190   0.996   7.090  0.2938 -0.5249  0.0010
 5255SOL    HW127401   1.154   0.921   7.043 -1.2573 -0.1050  0.5200
 5255SOL    HW227402   1.255   1.026   7.026 -1.8687  2.2689 -0.9076
 5256SOL     OW27403   1.872   2.432   3.485  0.0958 -0.5926  0.0449
 5256SOL    HW127404   1.929   2.385   3.425 -1.7275 -2.6881 -0.0570
 5256SOL    HW227405   1.787   2.432   3.442  0.4377  1.5240 -0.6382
 5257SOL     OW27406   0.191   2.448  15.960  0.0389  0.3605 -0.0344
 5257SOL    HW127407   0.112   2.503  15.960 -0.4191 -0.3046  1.2862
 5257SOL    HW227408   0.257   2.493  16.012  0.8138  0.2585 -0.9354
 5258SOL     OW27409   1.708   1.778   6.725  0.2762 -0.2511 -0.0159
 5258SOL    HW127410   1.789   1.766   6.775 -0.4473 -1.3730  0.8982
 5258SOL    HW227411   1.697   1.873   6.721  0.4961 -0.2377 -0.2798
 5259SOL     OW27412   0.415   1.584   8.695 -0.3815  0.1037 -0.3135
 5259SOL    HW127413   0.495   1.596   8.643 -2.6553  1.4176 -3.5029
 5259SOL    HW227414   0.382   1.506   8.651  0.7759 -0.1196 -0.7828
 5260SOL     OW27415   4.049   1.356   5.974  0.0278  0.0658  0.1753
 5260SOL    HW127416   3.990   1.344   5.899  0.1698  0.3132  0.0246
 5260SOL    HW227417   4.100   1.431   5.942 -0.3420  0.3588  0.2719
 5261SOL     OW27418   0.853   0.931  17.179 -0.1441 -0.0281  1.3693
 5261SOL    HW127419   0.883   0.846  17.213 -1.1004 -1.5472 -1.5586
 5261SOL    HW227420   0.878   0.979  17.257  0.7753  0.7491  0.5958
 5262SOL     OW27421   1.208   0.423   7.942 -0.0082 -0.6861 -0.2375
 5262SOL    HW127422   1.188   0.501   7.994  0.1078 -0.6515 -0.2456
 5262SOL    HW227423   1.286   0.381   7.978  0.6746 -0.3178 -1.2995
 5263SOL     OW27424   2.583   2.004   3.210 -0.0007  0.4305 -0.0722
 5263SOL    HW127425   2.604   2.091   3.243  0.2302 -0.6510  2.6487
 5263SOL    HW227426   2.618   1.943   3.275  1.1187  0.4023 -0.7042
 5264SOL     OW27427   1.710   0.049   8.465  0.4330 -0.4486  0.0868
 5264SOL    HW127428   1.791   0.085   8.502  0.2534 -0.0979  0.1364
 5264SOL    HW227429   1.725   4.694   8.439  1.3052 -1.6834  4.7668
 5265SOL     OW27430   2.096   4.406   9.787  0.2886 -0.1596  0.4562
 5265SOL    HW127431   2.065   4.325   9.828 -2.0076  0.7956  0.5848
 5265SOL    HW227432   2.099   4.461   9.866 -2.3339  0.8973 -0.1897
 5266SOL     OW27433   3.559   2.537   9.736  0.5891  0.8309  0.5478
 5266SOL    HW127434   3.531   2.523   9.826 -0.5155 -0.2571  0.0352
 5266SOL    HW227435   3.488   2.590   9.699  1.1568  0.7074 -0.7455
 5267SOL     OW27436   4.030   2.825   2.312 -0.1586  0.4896  0.0741
 5267SOL    HW127437   4.082   2.815   2.232  0.7918 -3.1670  1.1496
 5267SOL    HW227438   3.960   2.765   2.287  0.9070 -0.4387 -0.7272
 5268SOL     OW27439   2.642   0.007  15.202 -0.3148  0.6072 -0.6117
 5268SOL    HW127440   2.681   0.075  15.255 -0.2109 -0.2721  0.4302
 5268SOL    HW227441   2.702   4.672  15.225 -0.0305  0.0060 -3.1593
 5269SOL     OW27442   1.462   4.505   2.099  0.0534 -0.9143  0.4558
 5269SOL    HW127443   1.427   4.418   2.077  1.3268 -1.4132  0.3773
 5269SOL    HW227444   1.392   4.536   2.156 -0.5118  0.8673 -1.2231
 5270SOL     OW27445   3.949   2.996  10.125 -0.0037  0.3065 -0.1633
 5270SOL    HW127446   3.870   2.991  10.179  0.5225  2.1622  0.7904
 5270SOL    HW227447   4.002   2.930  10.169 -0.9509 -1.5173 -1.7734
 5271SOL     OW27448   4.338   0.631   6.289  0.5095  0.4821 -0.7267
 5271SOL    HW127449   4.424   0.648   6.251  0.7468  1.8215  0.4064
 5271SOL    HW227450   4.333   0.664   6.378 -2.0802  0.5458 -0.8966
 5272SOL     OW27451   2.732   0.753   4.168  0.2652  0.1163 -0.2675
 5272SOL    HW127452   2.664   0.819   4.158 -0.6873 -0.6929  0.8876
 5272SOL    HW227453   2.810   0.804   4.146  0.9337 -1.1412 -0.7999
 5273SOL     OW27454   4.639   4.562   4.077 -0.2153 -0.6225  0.1269
 5273SOL    HW127455   4.549   4.587   4.056  0.4640 -0.2673 -2.3819
 5273SOL    HW227456   4.623   4.471   4.104  2.6708 -1.7480 -2.0481
 5274SOL     OW27457   0.304   3.568   5.367  0.1433 -0.4136  0.5500
 5274SOL    HW127458   0.344   3.529   5.289 -1.1342  0.1858 -0.4133
 5274SOL    HW227459   0.300   3.660   5.343 -1.2399 -0.9941 -1.4701
 5275SOL     OW27460   3.859   3.754   5.132  0.8761 -0.0780  0.1730
 5275SOL    HW127461   3.856   3.666   5.094  2.4265  0.3881 -1.0369
 5275SOL    HW227462   3.842   3.742   5.225 -1.2252 -0.5757 -0.2668
 5276SOL     OW27463   2.844   1.189  17.730  0.6847 -0.1716  0.2439
 5276SOL    HW127464   2.754   1.205  17.702  1.0804  0.5641 -0.6415
 5276SOL    HW227465   2.827   1.163   0.079 -0.5651 -1.8466 -0.4699
 5277SOL     OW27466   0.257   3.874   1.162 -0.2255 -0.2580 -0.0122
 5277SOL    HW127467   0.177   3.905   1.205  1.0972 -0.5353  2.6379
 5277SOL    HW227468   0.264   3.787   1.201 -0.7975 -0.7912 -1.0874
 5278SOL     OW27469   1.562   3.720   5.198  0.3498  0.2949  0.1186
 5278SOL    HW127470   1.478   3.750   5.163  0.3082  0.2167  0.1522
 5278SOL    HW227471   1.525   3.662   5.264  0.7692 -0.4448 -0.2991
 5279SOL     OW27472   3.318   0.721   6.586 -0.0382 -0.3016  0.2042
 5279SOL    HW127473   3.343   0.758   6.501 -0.0272 -0.6974  0.0383
 5279SOL    HW227474   3.306   0.629   6.565 -0.1518  0.2270 -2.0489
 5280SOL     OW27475   3.030   1.485  12.829 -0.0086  0.3766 -0.2601
 5280SOL    HW127476   2.993   1.455  12.746 -1.1478  0.3685  0.2539
 5280SOL    HW227477   3.013   1.579  12.822 -1.4585  0.2362  1.2907
 5281SOL     OW27478   3.925   2.947   3.232  0.1139  0.0271 -0.1152
 5281SOL    HW127479   3.980   3.024   3.248 -0.5660  0.3578  0.6348
 5281SOL    HW227480   3.951   2.915   3.146  0.1652  0.1373 -0.1400
 5282SOL     OW27481   3.938   0.289   8.042  0.4726 -0.2328 -0.0397
 5282SOL    HW127482   3.887   0.358   8.001 -1.8372 -1.3626  0.9580
 5282SOL    HW227483   3.882   0.234   8.097  0.8152 -0.0331  0.5092
 5283SOL     OW27484   2.168   3.179  15.292  0.1446  0.1434  0.2376
 5283SOL    HW127485   2.097   3.242  15.308  1.3731  1.1522  1.7168
 5283SOL    HW227486   2.122   3.096  15.305  1.6055 -0.4934  1.3157
 5284SOL     OW27487   2.636   1.637  14.503  0.0031 -0.2103  0.1812
 5284SOL    HW127488   2.554   1.678  14.473  0.1894  0.3427  0.4243
 5284SOL    HW227489   2.683   1.621  14.421 -1.2212 -1.2857 -0.3045
 5285SOL     OW27490   0.106   2.369   5.418 -0.0116  0.1952 -0.0662
 5285SOL    HW127491   0.062   2.416   5.489 -1.0076 -1.4302  0.3955
 5285SOL    HW227492   0.041   2.395   5.352  0.8630  0.9121 -0.6427
 5286SOL     OW27493   2.344   1.081   3.325  0.3969  0.0171  0.3207
 5286SOL    HW127494   2.283   1.128   3.383 -0.1739 -0.7760  0.3641
 5286SOL    HW227495   2.427   1.100   3.369  1.6577  1.1480 -2.5926
 5287SOL     OW27496   0.023   0.519   3.004  0.0881  0.0545  0.0473
 5287SOL    HW127497   0.118   0.513   2.993  0.4979  1.7195  2.7041
 5287SOL    HW227498   0.025   0.605   3.046 -0.3733  0.0807  0.0166
 5288SOL     OW27499   1.162   2.827   3.910  0.2783  0.7165  0.7756
 5288SOL    HW127500   1.102   2.896   3.936  0.1215  2.0198 -3.0950
 5288SOL    HW227501   1.247   2.872   3.912  1.6352 -1.7882  0.4025
 5289SOL     OW27502   2.533   0.139  10.786 -0.6774 -0.3842 -0.0016
 5289SOL    HW127503   2.474   0.208  10.757  0.5580  0.6442 -0.0851
 5289SOL    HW227504   2.598   0.185  10.839 -1.4966  1.1098 -0.3095
 5290SOL     OW27505   3.701   1.746  14.253  0.3194 -0.0054  0.4474
 5290SOL    HW127506   3.705   1.700  14.336 -1.9457 -1.2869 -0.1763
 5290SOL    HW227507   3.701   1.670  14.195  2.5553 -1.1497  1.9378
 5291SOL     OW27508   3.754   1.293   4.688 -0.1726  0.4560 -0.2798
 5291SOL    HW127509   3.743   1.284   4.782 -1.7009 -2.3800 -0.7016
 5291SOL    HW227510   3.659   1.300   4.676 -0.3108 -0.5238  0.2369
 5292SOL     OW27511   3.960   0.897   8.681 -0.3975  0.0092  0.4129
 5292SOL    HW127512   4.051   0.924   8.665  0.2527 -0.3670  3.5845
 5292SOL    HW227513   3.939   0.942   8.762 -2.4237  0.0614 -0.1564
 5293SOL     OW27514   3.424   0.669   3.053 -0.1400  0.9283  0.9418
 5293SOL    HW127515   3.513   0.705   3.054  0.7381 -1.2849  2.8639
 5293SOL    HW227516   3.436   0.590   3.106 -3.2899 -0.5391 -0.5427
 5294SOL     OW27517   0.354   3.510   5.057  0.7247 -0.2716  0.0270
 5294SOL    HW127518   0.273   3.540   5.016  0.7760 -0.7551 -0.4307
 5294SOL    HW227519   0.422   3.547   5.001  0.6464  0.1844  0.2355
 5295SOL     OW27520   1.682   4.138  13.980 -0.6369 -0.1436  0.3412
 5295SOL    HW127521   1.724   4.172  13.901 -2.6676 -1.8636 -1.4704
 5295SOL    HW227522   1.594   4.173  13.966  0.6663  2.2046 -2.1703
 5296SOL     OW27523   2.760   2.238   6.705  0.4819  0.5522 -0.2355
 5296SOL    HW127524   2.674   2.279   6.712  1.0496  1.8344 -0.8733
 5296SOL    HW227525   2.801   2.311   6.659 -0.3937  0.4402 -1.1854
 5297SOL     OW27526   1.257   2.390   8.355 -0.3187 -0.1559  0.6492
 5297SOL    HW127527   1.325   2.452   8.381 -1.4100  1.2992  0.0476
 5297SOL    HW227528   1.271   2.310   8.406 -1.9214 -1.3551 -0.7734
 5298SOL     OW27529   4.594   1.171  11.183 -0.1396 -0.2662  0.3698
 5298SOL    HW127530   4.664   1.106  11.171 -1.7425 -1.9436  0.1158
 5298SOL    HW227531   4.515   1.122  11.160  1.1989 -1.9181 -0.7398
 5299SOL     OW27532   0.895   1.338   2.824  0.2807  0.4581 -1.0116
 5299SOL    HW127533   0.855   1.254   2.848  0.0159  1.4670  2.1278
 5299SOL    HW227534   0.815   1.368   2.782  0.6638  1.4350 -1.0483
 5300SOL     OW27535   4.489   1.655   1.352  0.5234  0.0819  0.1038
 5300SOL    HW127536   4.466   1.747   1.366  1.6870  0.2506  0.9728
 5300SOL    HW227537   4.463   1.642   1.261 -3.4149  1.0663  1.1016
 5301SOL     OW27538   3.494   2.130  16.813 -0.5510 -0.9174  0.6906
 5301SOL    HW127539   3.464   2.039  16.803 -1.1330 -0.4198 -2.0273
 5301SOL    HW227540   3.447   2.156  16.892  1.7714  0.4417  1.6118
 5302SOL     OW27541   1.091   2.520   6.022  0.3817 -0.6693 -0.0603
 5302SOL    HW127542   1.018   2.521   6.083  3.5581  0.5257  3.7046
 5302SOL    HW227543   1.131   2.434   6.035  1.1206 -0.3306 -0.1298
 5303SOL     OW27544   2.220   0.645  17.617 -0.0981 -0.1315  0.6540
 5303SOL    HW127545   2.191   0.722  17.666 -1.7000 -0.9516  1.0008
 5303SOL    HW227546   2.301   0.678  17.579  0.1339 -0.6609  0.6909
 5304SOL     OW27547   2.774   0.570   2.258 -0.0793 -0.3619 -0.3017
 5304SOL    HW127548   2.695   0.525   2.290  0.4148 -0.0528  1.3848
 5304SOL    HW227549   2.829   0.493   2.245  0.6436  0.2433 -0.8409
 5305SOL     OW27550   3.649   2.033   2.774  0.3193 -0.1711 -0.0718
 5305SOL    HW127551   3.712   2.060   2.840  0.4940 -1.8071  0.4290
 5305SOL    HW227552   3.638   1.938   2.773 -0.3701 -0.0978  0.1882
 5306SOL     OW27553   1.688   3.022  13.519  0.6751  0.3811  0.0686
 5306SOL    HW127554   1.627   2.950  13.531  0.5392  0.4966  0.0751
 5306SOL    HW227555   1.646   3.075  13.451 -2.2523  0.7574  2.1578
 5307SOL     OW27556   3.101   2.455   4.585  0.5591 -0.0582  0.0824
 5307SOL    HW127557   3.025   2.407   4.617  0.5406  0.7374  1.2269
 5307SOL    HW227558   3.166   2.394   4.548  0.7209 -0.0040  0.2815
 5308SOL     OW27559   1.214   1.023  10.069 -0.3272 -0.2836 -0.2807
 5308SOL    HW127560   1.254   0.983  10.146  0.9168  1.1173 -0.2030
 5308SOL    HW227561   1.286   1.026  10.006 -0.3029  3.5106 -0.0784
 5309SOL     OW27562   1.704   3.780  13.359  0.1336  0.0284  0.1086
 5309SOL    HW127563   1.781   3.830  13.331 -0.7344  1.2790 -0.0558
 5309SOL    HW227564   1.641   3.848  13.334 -0.5380 -0.8925 -0.6635
 5310SOL     OW27565   4.259   0.404  11.182  0.1403  0.5630 -0.9175
 5310SOL    HW127566   4.279   0.437  11.270 -0.7255 -0.0320 -0.4967
 5310SOL    HW227567   4.307   0.463  11.124 -0.6370  0.1311 -2.0088
 5311SOL     OW27568   3.887   1.445  13.993 -0.1760  0.1056 -0.7050
 5311SOL    HW127569   3.802   1.483  14.016 -1.2953 -1.7946 -1.7286
 5311SOL    HW227570   3.942   1.501  14.048  0.1274 -2.7515  1.9049
 5312SOL     OW27571   1.047   1.265  10.878 -0.1680 -0.3992  0.3234
 5312SOL    HW127572   1.120   1.302  10.929 -0.6757 -1.8215  2.0657
 5312SOL    HW227573   1.058   1.171  10.887  1.4763 -0.4234 -1.8641
 5313SOL     OW27574   1.093   4.530   4.436 -0.0525 -0.2390 -0.5206
 5313SOL    HW127575   1.041   4.468   4.385  0.9271  1.1654 -3.2201
 5313SOL    HW227576   1.111   4.600   4.373  0.9537  0.1088  0.1428
 5314SOL     OW27577   1.153   3.217  17.292 -0.0995  0.0938 -0.0931
 5314SOL    HW127578   1.216   3.175  17.233  0.8975 -0.0132  1.0494
 5314SOL    HW227579   1.123   3.139  17.339 -1.5749  0.7090  0.0054
 5315SOL     OW27580   1.859   1.929   2.998  0.2386 -0.3926  0.2806
 5315SOL    HW127581   1.889   1.864   2.934 -3.3884 -2.7550  0.9716
 5315SOL    HW227582   1.938   1.953   3.047  0.4397 -3.1706  1.3548
 5316SOL     OW27583   3.013   2.014   8.632  0.7372  0.6090 -0.0591
 5316SOL    HW127584   3.035   1.928   8.668  1.4304  1.6677  2.0611
 5316SOL    HW227585   3.078   2.069   8.677 -0.2090  1.4878  0.2240
 5317SOL     OW27586   0.654   3.395   9.030 -0.6243  0.1961 -0.2829
 5317SOL    HW127587   0.720   3.465   9.029  0.1067 -0.4637  1.3307
 5317SOL    HW227588   0.601   3.414   8.953 -0.6922  1.0197 -0.0292
 5318SOL     OW27589   4.662   1.357   1.875  0.4174 -0.4266 -0.4115
 5318SOL    HW127590   4.723   1.333   1.945  1.5513  0.1134 -1.2123
 5318SOL    HW227591   4.704   1.307   1.805 -0.5637 -0.3694 -1.0349
 5319SOL     OW27592   0.071   2.728   4.624  0.0567 -0.4072  0.1051
 5319SOL    HW127593   0.125   2.691   4.554 -1.3779  3.1404 -2.8842
 5319SOL    HW227594   4.730   2.733   4.566  0.2647 -1.7174 -0.2828
 5320SOL     OW27595   0.040   3.626   1.443 -0.2097 -0.2713  0.4436
 5320SOL    HW127596   4.706   3.682   1.479 -0.4473  1.0208 -2.0310
 5320SOL    HW227597   0.076   3.689   1.381 -0.6238 -0.9445 -0.4745
 5321SOL     OW27598   1.112   0.473   0.773 -0.3428 -0.1895 -0.0382
 5321SOL    HW127599   1.053   0.407   0.738  2.1294 -1.7465 -1.1818
 5321SOL    HW227600   1.125   0.440   0.862 -1.0783  2.4849  1.0855
 5322SOL     OW27601   1.290   0.318   6.629 -0.0113  0.6289  0.2820
 5322SOL    HW127602   1.203   0.327   6.590  0.2777  0.2805 -0.4589
 5322SOL    HW227603   1.305   0.224   6.618 -1.5660  0.5289 -0.9171
 5323SOL     OW27604   1.181   1.572   6.783 -0.3874 -0.0662  0.3772
 5323SOL    HW127605   1.274   1.556   6.763 -0.1454 -0.1201  1.5521
 5323SOL    HW227606   1.178   1.665   6.804  0.3429  0.4107 -1.6073
 5324SOL     OW27607   1.310   4.661   5.842 -0.2206  0.3702  0.0082
 5324SOL    HW127608   1.272   0.013   5.833 -1.7065 -0.2066  0.6974
 5324SOL    HW227609   1.231   4.609   5.845  1.6136 -2.4413 -0.4810
 5325SOL     OW27610   2.871   4.184   3.405  0.3018  0.6126  0.0999
 5325SOL    HW127611   2.843   4.116   3.344  0.8547 -1.6381  2.3970
 5325SOL    HW227612   2.945   4.139   3.445 -1.5274 -2.1155  0.4201
 5326SOL     OW27613   4.485   1.826   2.177 -0.1951  0.2665  0.0999
 5326SOL    HW127614   4.440   1.807   2.094  1.0680  0.1738 -0.5684
 5326SOL    HW227615   4.432   1.768   2.231  0.7112 -1.0204 -0.3916
 5327SOL     OW27616   4.720   4.481   3.567 -0.0817 -0.4701  0.1563
 5327SOL    HW127617   4.664   4.507   3.639 -1.8960 -0.0269 -1.4222
 5327SOL    HW227618   4.663   4.471   3.491  0.4019 -1.1442 -0.1181
 5328SOL     OW27619   1.550   0.522   2.054 -0.0188  0.2693  0.1780
 5328SOL    HW127620   1.502   0.439   2.052 -0.2524  0.3973  0.5481
 5328SOL    HW227621   1.571   0.522   1.960 -0.1226 -0.0903  0.1551
 5329SOL     OW27622   2.740   0.645   4.663 -0.5261  0.2764 -0.0576
 5329SOL    HW127623   2.736   0.558   4.623 -0.2806 -0.0215  0.5541
 5329SOL    HW227624   2.824   0.639   4.709 -0.2967  0.1812 -0.4897
 5330SOL     OW27625   0.771   1.120   2.892  0.0461  0.0402  0.7984
 5330SOL    HW127626   0.725   1.101   2.974  0.1958 -0.0127  0.8693
 5330SOL    HW227627   0.704   1.079   2.836 -0.1900  1.2384  0.2036
 5331SOL     OW27628   4.413   1.512   5.906  0.5162 -0.1212  0.4373
 5331SOL    HW127629   4.443   1.585   5.852  2.8161 -1.2523  0.1622
 5331SOL    HW227630   4.319   1.506   5.890  0.4422  0.5091  0.6244
 5332SOL     OW27631   4.566   2.344   0.980  0.2648 -0.1671  0.1665
 5332SOL    HW127632   4.484   2.388   1.002 -1.0004 -1.0301 -2.6782
 5332SOL    HW227633   4.579   2.369   0.888 -1.6222 -0.6204 -0.2229
 5333SOL     OW27634   3.257   2.722   7.297  0.2518 -0.6113 -0.1153
 5333SOL    HW127635   3.223   2.657   7.235  1.2454 -0.1556 -1.1276
 5333SOL    HW227636   3.337   2.756   7.256 -0.0449  0.5484  0.2867
 5334SOL     OW27637   2.028   4.132   7.225  0.0537 -0.1586  0.2328
 5334SOL    HW127638   2.062   4.104   7.310 -1.0703 -0.1454  0.6850
 5334SOL    HW227639   2.117   4.137   7.188 -0.3203  0.3281 -0.6107
 5335SOL     OW27640   3.470   4.563   8.339  1.0325  0.5595 -0.0505
 5335SOL    HW127641   3.564   4.548   8.329  0.8799  0.0700 -0.7458
 5335SOL    HW227642   3.442   4.541   8.250  0.2353 -3.0146  1.1125
 5336SOL     OW27643   2.980   4.445   0.182  0.2927  0.2793 -0.3368
 5336SOL    HW127644   3.031   4.526   0.186 -0.1118  0.5474 -0.6366
 5336SOL    HW227645   3.013   4.409   0.265 -0.1343  0.7000  0.0135
 5337SOL     OW27646   2.010   3.102   5.385 -0.2886  0.1626 -0.7276
 5337SOL    HW127647   2.077   3.104   5.316 -1.0143  0.1714 -1.4260
 5337SOL    HW227648   2.001   3.197   5.395 -0.2010  0.0272  0.6381
 5338SOL     OW27649   2.303   4.570  16.890 -0.4608  0.4330 -0.0959
 5338SOL    HW127650   2.287   4.513  16.815 -0.4887 -0.7607  0.8058
 5338SOL    HW227651   2.388   4.610  16.875  0.3955 -0.9684  0.9595
 5339SOL     OW27652   3.567   2.542   0.266  0.1474 -0.6876  0.2763
 5339SOL    HW127653   3.567   2.469   0.328 -3.7187 -0.7295  0.2036
 5339SOL    HW227654   3.658   2.571   0.263 -0.5853  1.3790 -1.2684
 5340SOL     OW27655   4.068   1.910   3.539 -0.2766 -0.3247  0.1288
 5340SOL    HW127656   4.148   1.858   3.535  1.5120  2.5561 -1.5791
 5340SOL    HW227657   4.018   1.859   3.475  0.7689 -1.8669  0.5420
 5341SOL     OW27658   3.360   3.965   4.706  0.1337 -0.2643  0.2107
 5341SOL    HW127659   3.281   3.936   4.752  0.3219  1.0230  1.3496
 5341SOL    HW227660   3.384   4.041   4.760  0.8489 -0.2824 -0.0849
 5342SOL     OW27661   3.908   0.249  14.538 -0.0123  0.3044 -0.2822
 5342SOL    HW127662   3.998   0.277  14.552 -0.0593 -0.5604  1.7608
 5342SOL    HW227663   3.900   0.233  14.444 -1.5834  0.6115 -0.2041
 5343SOL     OW27664   4.352   2.529   2.502  0.0885 -0.1079  0.1568
 5343SOL    HW127665   4.272   2.523   2.450 -1.0468  2.1950  1.6536
 5343SOL    HW227666   4.353   2.622   2.521  0.3823  0.2159 -1.4346
 5344SOL     OW27667   2.335   3.924  17.349 -0.3326 -0.2217 -0.8177
 5344SOL    HW127668   2.396   3.987  17.385 -1.5245  0.3603  0.2061
 5344SOL    HW227669   2.397   3.865  17.307 -0.6029  0.8845 -2.7807
 5345SOL     OW27670   0.872   1.821  10.260 -0.1037 -0.1689  0.2540
 5345SOL    HW127671   0.873   1.787  10.349 -0.0082 -3.6078 -1.0849
 5345SOL    HW227672   0.787   1.796  10.226  1.3361 -2.1340 -1.8801
 5346SOL     OW27673   3.666   0.423   6.422 -0.0880  0.3870  0.1160
 5346SOL    HW127674   3.631   0.337   6.446  4.2916 -0.8429  2.0529
 5346SOL    HW227675   3.761   0.409   6.424 -0.2399 -0.6677  0.1803
 5347SOL     OW27676   1.010   1.677   2.164  0.1112  0.2100  0.0376
 5347SOL    HW127677   0.917   1.658   2.156  0.8325 -3.1378 -0.4974
 5347SOL    HW227678   1.042   1.652   2.077 -1.7275 -0.5070 -0.4365
 5348SOL     OW27679   4.466   1.590   3.317 -0.1339 -0.0030  0.2151
 5348SOL    HW127680   4.424   1.640   3.388  1.1178  2.0044 -0.4597
 5348SOL    HW227681   4.500   1.660   3.261 -1.2846 -0.0310 -0.5258
 5349SOL     OW27682   2.146   3.311   8.011 -0.5717  0.3617 -0.6819
 5349SOL    HW127683   2.078   3.377   7.999  1.1651  2.1555 -0.6734
 5349SOL    HW227684   2.148   3.281   7.920 -0.5408  0.0465 -0.5772
 5350SOL     OW27685   0.019   3.482   7.454 -1.1244 -0.0781 -0.2429
 5350SOL    HW127686   4.717   3.499   7.540 -0.4630  0.8244 -0.1387
 5350SOL    HW227687   0.110   3.513   7.457 -1.5313  1.2751 -1.6906
 5351SOL     OW27688   0.512   2.745  16.421  0.3882 -0.2967 -0.3541
 5351SOL    HW127689   0.492   2.757  16.328  1.9506 -4.0697 -1.1976
 5351SOL    HW227690   0.592   2.796  16.433 -0.3991  0.6181  0.9948
 5352SOL     OW27691   3.956   4.057   3.577  0.5499 -0.8227  0.3682
 5352SOL    HW127692   4.037   4.006   3.578  1.8670  1.3347  2.3270
 5352SOL    HW227693   3.904   4.015   3.508 -1.2618  1.2235  0.4893
 5353SOL     OW27694   4.368   2.379   2.985  0.0560 -0.4472 -0.4355
 5353SOL    HW127695   4.405   2.410   2.902  0.4289 -1.3915 -0.6154
 5353SOL    HW227696   4.326   2.299   2.954 -0.0384 -0.2325 -0.8621
 5354SOL     OW27697   2.400   0.754   9.229 -0.5832 -0.3432 -0.4335
 5354SOL    HW127698   2.395   0.789   9.140 -1.7311 -0.1591 -0.3031
 5354SOL    HW227699   2.308   0.739   9.251  0.2102 -4.5923  0.0526
 5355SOL     OW27700   2.855   2.771   0.367  0.1129 -0.1015  0.0888
 5355SOL    HW127701   2.905   2.801   0.291  0.8172 -0.4516  0.4041
 5355SOL    HW227702   2.807   2.850   0.393  1.2463  0.2550  1.1082
 5356SOL     OW27703   2.215   1.144   5.560  0.1279  0.1475 -0.3446
 5356SOL    HW127704   2.256   1.226   5.588  0.9246 -0.1161 -0.7209
 5356SOL    HW227705   2.126   1.167   5.588 -0.3999 -2.4703  0.0743
 5357SOL     OW27706   4.624   2.525   5.887  0.2525  0.1389 -0.2378
 5357SOL    HW127707   4.669   2.517   5.971 -0.6338  0.8045  0.3098
 5357SOL    HW227708   4.658   2.456   5.830  1.1760  0.3968  0.0042
 5358SOL     OW27709   3.874   3.991   6.859  0.2368  0.8071 -0.4164
 5358SOL    HW127710   3.912   3.932   6.923 -2.9658 -0.4671  0.2866
 5358SOL    HW227711   3.938   3.984   6.788 -0.8573 -1.7549 -1.1442
 5359SOL     OW27712   2.450   3.433   4.690 -0.4911 -0.2606  0.2943
 5359SOL    HW127713   2.519   3.384   4.646  1.2204  1.9950  0.4512
 5359SOL    HW227714   2.489   3.516   4.717 -1.5774  0.4824 -0.4252
 5360SOL     OW27715   4.511   1.759  11.753 -0.0435 -0.3808  0.6735
 5360SOL    HW127716   4.562   1.769  11.834 -0.0055 -1.1028  0.7435
 5360SOL    HW227717   4.496   1.853  11.744 -1.2504 -0.7288 -1.0111
 5361SOL     OW27718   2.781   2.854   6.620 -0.3409 -0.2123  0.0272
 5361SOL    HW127719   2.873   2.876   6.612 -0.8670  1.4453 -1.3702
 5361SOL    HW227720   2.741   2.906   6.690 -0.3442  0.0342 -0.1609
 5362SOL     OW27721   1.606   2.499   8.506  0.4415  0.5177 -0.4502
 5362SOL    HW127722   1.577   2.552   8.431 -2.5090 -0.2980  0.1069
 5362SOL    HW227723   1.675   2.443   8.470 -0.0074 -0.1837 -0.2264
 5363SOL     OW27724   3.640   1.228   9.346  0.1567  0.2433 -0.1072
 5363SOL    HW127725   3.547   1.214   9.363  0.1643 -0.3008 -0.5252
 5363SOL    HW227726   3.659   1.177   9.268 -1.9435 -0.6412 -0.0115
 5364SOL     OW27727   2.324   0.260   8.332 -0.0678  0.0905 -0.1549
 5364SOL    HW127728   2.273   0.214   8.266  0.2449  0.4944 -0.6793
 5364SOL    HW227729   2.313   0.349   8.300 -0.8050 -0.0505 -0.2913
 5365SOL     OW27730   4.117   0.522   3.165  0.1890 -0.2009  0.0310
 5365SOL    HW127731   4.047   0.477   3.119 -0.7975  3.3918 -1.9491
 5365SOL    HW227732   4.186   0.456   3.176  0.4501  0.3384  1.7049
 5366SOL     OW27733   3.233   2.430  13.158 -0.2280  0.1782  0.0949
 5366SOL    HW127734   3.145   2.461  13.180  0.0281  0.8591  0.1469
 5366SOL    HW227735   3.209   2.343  13.126 -0.4409  0.0732  0.5363
 5367SOL     OW27736   0.410   1.320   2.614  0.1296 -0.0242  0.3125
 5367SOL    HW127737   0.385   1.246   2.670 -2.0894 -0.3600 -1.1077
 5367SOL    HW227738   0.498   1.346   2.643  0.0680 -0.7086  1.1185
 5368SOL     OW27739   1.263   0.867  13.827  0.4622  0.3295  0.9563
 5368SOL    HW127740   1.347   0.856  13.783  0.5743 -0.2142  1.3108
 5368SOL    HW227741   1.225   0.940  13.778 -1.8094 -1.7772 -0.4506
 5369SOL     OW27742   4.265   1.899   0.830  0.0189 -0.2950  0.1762
 5369SOL    HW127743   4.214   1.821   0.810  0.7873 -0.0657 -2.6705
 5369SOL    HW227744   4.200   1.958   0.867 -1.9900 -2.4872  0.1295
 5370SOL     OW27745   0.505   0.182   8.529  0.2046 -0.1695 -0.0818
 5370SOL    HW127746   0.533   0.111   8.472 -0.6051  1.3792 -2.3971
 5370SOL    HW227747   0.511   0.256   8.469 -0.1659  0.7234  0.9817
 5371SOL     OW27748   3.008   4.208   2.884  0.0354 -0.2797  0.0147
 5371SOL    HW127749   3.088   4.212   2.937 -1.1433  3.0262  1.5306
 5371SOL    HW227750   3.027   4.296   2.849 -0.2408 -0.4289 -0.5050
 5372SOL     OW27751   4.614   4.034  11.075  0.1002  0.2322 -0.3431
 5372SOL    HW127752   4.561   4.029  10.995  0.7042 -1.3662 -0.6434
 5372SOL    HW227753   4.687   4.091  11.050  0.0752  0.6607  0.5669
 5373SOL     OW27754   3.881   4.509   4.108  0.1854  0.7264 -0.5940
 5373SOL    HW127755   3.864   4.502   4.202 -0.4525 -2.3775 -0.9162
 5373SOL    HW227756   3.975   4.501   4.099  0.0151 -2.7871  0.6720
 5374SOL     OW27757   0.223   4.063   6.609 -0.1530  0.3233 -0.0963
 5374SOL    HW127758   0.148   4.121   6.621 -0.2414  0.4524 -1.2748
 5374SOL    HW227759   0.236   4.026   6.696  0.5648  1.7208  0.3902
 5375SOL     OW27760   3.345   3.797   6.428 -0.2633  0.0110 -0.1790
 5375SOL    HW127761   3.316   3.885   6.407  0.3106  0.3224  0.3274
 5375SOL    HW227762   3.371   3.814   6.519  1.7581 -2.9373 -0.2075
 5376SOL     OW27763   3.860   4.598  16.318  0.0558  0.1222 -0.0969
 5376SOL    HW127764   3.919   4.526  16.296 -1.6796 -1.7113  1.3739
 5376SOL    HW227765   3.790   4.565  16.372  0.6925  0.6851  1.0711
 5377SOL     OW27766   1.065   2.652  13.681 -0.0039 -0.2035 -0.6785
 5377SOL    HW127767   1.004   2.622  13.613  0.5358  2.0978 -2.1732
 5377SOL    HW227768   1.146   2.646  13.631  0.7838  2.6651  0.2844
 5378SOL     OW27769   4.352   0.501   1.793 -0.3029 -0.3306  0.8954
 5378SOL    HW127770   4.328   0.514   1.702 -0.3999 -3.8650  0.4121
 5378SOL    HW227771   4.436   0.456   1.782 -1.2779 -1.5304 -1.5137
 5379SOL     OW27772   1.868   0.019   2.066  0.0786  0.5752 -0.1627
 5379SOL    HW127773   1.784   0.053   2.036 -0.3798  0.5695  1.0971
 5379SOL    HW227774   1.837   4.681   2.118  0.4329  0.3602 -0.2574
 5380SOL     OW27775   3.295   4.036   6.343 -0.0363  0.4825 -0.2402
 5380SOL    HW127776   3.303   4.123   6.383 -0.3504 -0.4430  1.8195
 5380SOL    HW227777   3.295   4.061   6.250 -2.3287 -0.1346 -0.4135
 5381SOL     OW27778   0.299   2.930   4.157 -0.0956 -0.0953  0.3001
 5381SOL    HW127779   0.291   2.979   4.238  0.1892  2.9651 -1.4991
 5381SOL    HW227780   0.382   2.958   4.119  0.1071 -1.5653 -0.3421
 5382SOL     OW27781   1.521   0.729  15.233  0.1518 -0.0878  0.6802
 5382SOL    HW127782   1.551   0.819  15.240 -2.2574  0.5482  2.7022
 5382SOL    HW227783   1.576   0.685  15.298  1.3428 -0.6187 -0.6759
 5383SOL     OW27784   0.028   2.549   0.849  0.6503 -0.1611  0.1548
 5383SOL    HW127785   0.123   2.541   0.846  0.4618 -2.7522  1.2312
 5383SOL    HW227786   0.019   2.630   0.899 -1.3671  0.0478 -0.5535
 5384SOL     OW27787   0.307   0.231   4.024  0.3957 -0.4074 -0.3552
 5384SOL    HW127788   0.335   0.269   4.107 -0.7815  1.8840 -0.9954
 5384SOL    HW227789   0.291   0.139   4.046  1.4361 -0.2174  1.1953
 5385SOL     OW27790   0.770   4.587   4.363  0.3773 -0.0738 -0.4643
 5385SOL    HW127791   0.746   4.544   4.445 -0.7069 -1.0559 -1.3053
 5385SOL    HW227792   0.818   4.524   4.311 -0.5655 -1.8366  0.7801
 5386SOL     OW27793   3.472   1.197   3.101  0.0676 -0.2627 -0.0416
 5386SOL    HW127794   3.548   1.146   3.072  1.3231 -0.0198  2.8892
 5386SOL    HW227795   3.488   1.285   3.067 -1.9444  0.1686  0.1328
 5387SOL     OW27796   2.372   0.473   3.238  0.5096 -0.1562 -0.3693
 5387SOL    HW127797   2.290   0.500   3.277 -0.2801 -1.1756 -1.3215
 5387SOL    HW227798   2.353   0.500   3.148 -0.2144 -1.6111 -0.6594
 5388SOL     OW27799   4.046   2.464   3.223 -0.2400  0.2804 -0.0898
 5388SOL    HW127800   4.047   2.482   3.129  1.3810  0.3644 -0.0598
 5388SOL    HW227801   3.991   2.533   3.260 -0.5387  1.3782 -2.5634
 5389SOL     OW27802   1.339   3.925   4.121  0.1238 -0.0440 -0.6017
 5389SOL    HW127803   1.391   4.005   4.129  0.9119 -0.6531  0.3371
 5389SOL    HW227804   1.353   3.901   4.029  3.1250  1.0313 -0.4392
 5390SOL     OW27805   0.542   3.099   2.864  0.3733  0.3210 -0.1462
 5390SOL    HW127806   0.569   3.071   2.776 -0.7642 -1.2555  0.0211
 5390SOL    HW227807   0.584   3.034   2.921  0.7615 -0.9679 -1.8997
 5391SOL     OW27808   0.850   0.184   2.798 -0.1493 -0.5309  0.7033
 5391SOL    HW127809   0.868   0.191   2.892 -0.8206 -0.7611  0.8506
 5391SOL    HW227810   0.802   0.101   2.796 -1.3608  0.2254 -1.0659
 5392SOL     OW27811   1.192   1.165   6.457  0.3039  0.0592 -0.8484
 5392SOL    HW127812   1.162   1.188   6.369 -1.6895  1.2917  0.1597
 5392SOL    HW227813   1.107   1.153   6.499  1.9051  0.2381  2.4240
 5393SOL     OW27814   1.485   3.963   6.445 -0.7329 -0.3467 -0.0635
 5393SOL    HW127815   1.556   4.001   6.497  0.7441  1.4495 -3.4050
 5393SOL    HW227816   1.536   3.894   6.402 -1.9934 -1.0739 -0.3964
 5394SOL     OW27817   1.856   3.563   3.084 -0.0728  0.3519 -0.3275
 5394SOL    HW127818   1.765   3.562   3.113  0.5335 -2.8316  1.5036
 5394SOL    HW227819   1.869   3.653   3.056 -1.0222  0.4595 -0.4004
 5395SOL     OW27820   3.387   3.041   7.422  0.1633 -0.5333 -0.0554
 5395SOL    HW127821   3.465   3.077   7.381 -1.8108  1.6065 -1.9038
 5395SOL    HW227822   3.398   3.078   7.510 -1.0307 -0.6061  0.1229
 5396SOL     OW27823   0.557   4.568   9.150 -0.1696 -0.0452 -0.6719
 5396SOL    HW127824   0.621   4.561   9.080  0.7384 -1.7056  0.3066
 5396SOL    HW227825   0.585   4.649   9.192 -1.6348 -0.4517  1.1286
 5397SOL     OW27826   2.199   1.000  15.304  0.0780 -0.3424  0.7004
 5397SOL    HW127827   2.151   1.018  15.385  0.3498  0.4337  0.6954
 5397SOL    HW227828   2.141   0.957  15.242 -1.5903  1.0281  1.3216
 5398SOL     OW27829   1.218   3.308   4.356  0.1781  0.0695 -0.5517
 5398SOL    HW127830   1.297   3.361   4.367  0.4768  0.2206 -3.1943
 5398SOL    HW227831   1.172   3.366   4.295  0.1413  0.0829 -0.5113
 5399SOL     OW27832   3.632   0.983   9.201  0.2094 -0.1228  0.0141
 5399SOL    HW127833   3.602   0.929   9.275 -1.3514  1.8313  0.7894
 5399SOL    HW227834   3.619   0.929   9.123  0.3433 -0.5631  0.2931
 5400SOL     OW27835   2.494   2.192   9.454  0.2348  0.1970  0.1581
 5400SOL    HW127836   2.588   2.202   9.439  0.3262  0.4096  0.8343
 5400SOL    HW227837   2.453   2.171   9.371 -0.7961  2.6722  0.0301
 5401SOL     OW27838   0.460   0.011   7.696  0.1438 -0.2010 -0.6556
 5401SOL    HW127839   0.522   0.067   7.742 -0.7121  0.9927 -0.9380
 5401SOL    HW227840   0.482   0.037   7.606  1.2799 -0.4117 -0.4291
 5402SOL     OW27841   4.671   0.959   8.060 -0.2559  0.1470 -0.2273
 5402SOL    HW127842   4.610   1.033   8.062 -2.2109 -1.4432 -0.6524
 5402SOL    HW227843   0.006   1.005   8.014  1.0069 -2.0139 -0.4276
 5403SOL     OW27844   0.735   4.540  10.957  0.0233 -0.6046  0.1122
 5403SOL    HW127845   0.771   4.457  10.926  1.6682 -0.2640  1.0895
 5403SOL    HW227846   0.747   4.532  11.052  0.8133 -2.1018 -0.1111
 5404SOL     OW27847   1.105   0.158   7.845  0.2230 -0.0337 -0.2722
 5404SOL    HW127848   1.110   0.209   7.764 -2.1220  0.6343 -0.0245
 5404SOL    HW227849   1.122   0.227   7.910 -0.4148 -1.2927  1.2552
 5405SOL     OW27850   4.573   2.778   6.997  0.3448  0.3217  0.0966
 5405SOL    HW127851   4.606   2.831   7.070 -2.5385  2.2436 -0.0267
 5405SOL    HW227852   4.589   2.841   6.926 -0.3992 -0.6878 -0.9483
 5406SOL     OW27853   4.623   3.462   3.367  0.0564 -0.2965  0.0299
 5406SOL    HW127854   4.593   3.545   3.331  1.8951 -0.5682 -2.1283
 5406SOL    HW227855   4.532   3.432   3.375 -0.1479  0.0837 -0.9677
 5407SOL     OW27856   0.338   2.941   3.152  0.2207  0.0615  0.7385
 5407SOL    HW127857   0.242   2.948   3.145 -0.0457 -0.2837  3.7375
 5407SOL    HW227858   0.352   2.897   3.236  2.4163 -1.1664 -0.2935
 5408SOL     OW27859   1.620   4.479  13.895  0.6882 -0.3756  0.1745
 5408SOL    HW127860   1.564   4.402  13.909  0.9646 -0.4383  0.9603
 5408SOL    HW227861   1.705   4.443  13.919 -0.2815 -2.6542  0.1998
 5409SOL     OW27862   3.942   1.239   8.281  0.3612  0.1204  0.9608
 5409SOL    HW127863   3.862   1.263   8.235  0.2282  1.4773  1.8813
 5409SOL    HW227864   3.909   1.163   8.328 -1.9911  0.8929  0.5214
 5410SOL     OW27865   2.391   4.145   5.361  0.1632  0.1115  0.5559
 5410SOL    HW127866   2.365   4.087   5.433  2.0835 -1.3944  0.0510
 5410SOL    HW227867   2.304   4.169   5.329 -1.1912 -4.0159  1.1971
 5411SOL     OW27868   3.303   4.273   1.855 -0.0401 -0.1697  0.6505
 5411SOL    HW127869   3.361   4.322   1.798 -1.9157  1.7970  0.4159
 5411SOL    HW227870   3.324   4.304   1.943 -1.7511  3.2982 -0.1457
 5412SOL     OW27871   3.341   4.662  12.866  0.3922 -0.0184 -0.1763
 5412SOL    HW127872   3.354   0.014  12.902 -0.6200 -0.0598  0.2736
 5412SOL    HW227873   3.314   4.690  12.778  0.1331  2.5711  0.7202
 5413SOL     OW27874   0.237   2.090   6.161 -0.5992 -0.2492  0.4617
 5413SOL    HW127875   0.236   2.185   6.152 -0.7070 -0.2656  0.3045
 5413SOL    HW227876   0.322   2.076   6.203 -0.7952  0.3488  1.0475
 5414SOL     OW27877   4.566   3.930  13.521 -0.3833 -0.2929  0.6875
 5414SOL    HW127878   4.489   3.952  13.574 -0.2237 -0.5472  1.0317
 5414SOL    HW227879   4.539   3.854  13.469  2.7535  0.9352 -2.6702
 5415SOL     OW27880   4.364   0.876  11.742  0.1973  0.3209  0.1599
 5415SOL    HW127881   4.294   0.896  11.679  0.7797  0.9548 -0.2817
 5415SOL    HW227882   4.376   0.961  11.785 -0.4964  0.8432 -0.6744
 5416SOL     OW27883   4.123   3.152   5.490 -0.0587  0.4414  0.0650
 5416SOL    HW127884   4.129   3.090   5.562  2.7930  1.1409  0.4414
 5416SOL    HW227885   4.211   3.144   5.452  0.3716 -0.1948  1.1949
 5417SOL     OW27886   3.657   1.385   8.595 -0.1665  0.2118  0.0132
 5417SOL    HW127887   3.667   1.308   8.538 -1.3142  0.7357 -0.8881
 5417SOL    HW227888   3.742   1.380   8.638  0.0839  0.3110 -0.4718
 5418SOL     OW27889   0.320   3.193   5.744 -0.5742 -0.1586 -0.5035
 5418SOL    HW127890   0.236   3.148   5.740 -1.0288  0.7182 -0.7526
 5418SOL    HW227891   0.301   3.274   5.697 -1.1969  0.1577  0.3011
 5419SOL     OW27892   3.944   0.292   3.444 -0.0225 -0.1794  0.0456
 5419SOL    HW127893   4.013   0.234   3.476 -0.1033  0.6739  1.7687
 5419SOL    HW227894   4.001   0.369   3.439 -0.6198  0.1153 -2.2122
 5420SOL     OW27895   0.206   0.133   9.355  0.2194 -0.1496  0.2525
 5420SOL    HW127896   0.185   0.074   9.428  0.5456 -0.7707 -0.1537
 5420SOL    HW227897   0.176   0.080   9.281  1.5501 -0.6426  0.0675
 5421SOL     OW27898   1.641   0.206   2.944 -0.0577  0.4772  0.0808
 5421SOL    HW127899   1.607   0.286   2.904  2.1507  1.2067 -0.3690
 5421SOL    HW227900   1.565   0.149   2.942  0.1954  0.0746  2.7608
 5422SOL     OW27901   1.957   0.398   3.775 -0.5860  0.5999  0.3175
 5422SOL    HW127902   2.042   0.364   3.802 -0.3202  1.6854  0.8552
 5422SOL    HW227903   1.902   0.320   3.780  1.6200 -1.0165 -0.9111
 5423SOL     OW27904   4.576   2.590   6.458 -0.3342 -0.1775  0.7929
 5423SOL    HW127905   4.621   2.510   6.430 -3.2083 -0.0791 -4.2523
 5423SOL    HW227906   4.498   2.596   6.402  0.2672 -1.9733 -0.2425
 5424SOL     OW27907   4.291   3.533   9.485 -0.8773  0.4137  0.3276
 5424SOL    HW127908   4.361   3.510   9.424 -1.9146 -1.3321 -0.1910
 5424SOL    HW227909   4.217   3.494   9.439  0.0313 -1.1939  0.2425
 5425SOL     OW27910   4.176   2.941  16.926  0.3548 -0.1735  0.7080
 5425SOL    HW127911   4.194   2.983  16.842  1.2688  0.0050  0.9884
 5425SOL    HW227912   4.170   3.021  16.978  0.0815  0.0128  0.3824
 5426SOL     OW27913   2.923   4.687   3.397  0.0654  0.3142 -0.3505
 5426SOL    HW127914   2.919   4.702   3.492  1.6205  1.7096 -0.5045
 5426SOL    HW227915   2.924   4.591   3.392  1.7428  0.3448 -0.6074
 5427SOL     OW27916   0.613   1.380  12.553 -0.3114  0.0605  0.4248
 5427SOL    HW127917   0.620   1.367  12.458 -1.2562  2.1932  0.0655
 5427SOL    HW227918   0.704   1.376  12.581  0.1125  2.9126 -0.5173
 5428SOL     OW27919   2.899   0.637   6.469 -0.0556 -0.1036 -0.0925
 5428SOL    HW127920   2.829   0.588   6.424 -0.0395 -1.6085  1.5320
 5428SOL    HW227921   2.927   0.671   6.384  1.5279  1.1945  0.9739
 5429SOL     OW27922   4.096   3.988  12.208 -0.4987  0.1659 -0.0844
 5429SOL    HW127923   4.032   3.949  12.268 -2.1210  3.2691  0.2343
 5429SOL    HW227924   4.148   4.032  12.276 -0.4683  1.2306 -0.8015
 5430SOL     OW27925   2.698   3.475   3.801  0.0981 -0.5155 -0.0037
 5430SOL    HW127926   2.621   3.528   3.820 -0.0091 -0.8125  0.3808
 5430SOL    HW227927   2.773   3.535   3.812 -0.1159 -0.1794 -0.3607
 5431SOL     OW27928   3.474   0.157   4.003  0.5027  0.3887 -0.6760
 5431SOL    HW127929   3.475   0.065   4.028  0.5667  0.3978 -0.6444
 5431SOL    HW227930   3.471   0.206   4.085  0.9438 -0.4840 -0.1397
 5432SOL     OW27931   2.822   2.753   3.752 -0.2357 -0.5853  0.6831
 5432SOL    HW127932   2.818   2.682   3.816 -2.2958 -2.4555 -1.4998
 5432SOL    HW227933   2.747   2.806   3.782 -1.0245 -1.4059  0.1625
 5433SOL     OW27934   0.006   3.732   3.222 -0.0797  0.1569 -0.1334
 5433SOL    HW127935   4.652   3.737   3.189 -0.0294  1.5264 -0.0693
 5433SOL    HW227936   0.053   3.681   3.156  2.2757  1.5824  0.4278
 5434SOL     OW27937   2.956   4.081   9.464  0.3035  0.2119  0.1827
 5434SOL    HW127938   2.990   4.142   9.398  2.1656 -0.3875  0.5732
 5434SOL    HW227939   3.005   4.115   9.539  0.7644  3.4761 -1.5647
 5435SOL     OW27940   1.873   4.195   3.873 -0.1444 -0.0878  0.0679
 5435SOL    HW127941   1.897   4.103   3.877  1.5384  0.3344 -0.1791
 5435SOL    HW227942   1.784   4.180   3.904  0.0366 -0.0691  0.5944
 5436SOL     OW27943   4.434   1.821   4.149 -0.1629  0.3505 -0.3615
 5436SOL    HW127944   4.376   1.883   4.195  0.9491  0.6929  0.5756
 5436SOL    HW227945   4.389   1.739   4.167  0.4807 -0.0450 -0.5609
 5437SOL     OW27946   2.220   1.037   4.098 -0.2819  0.1512 -0.1300
 5437SOL    HW127947   2.209   1.104   4.030  4.6295 -0.1297 -1.1720
 5437SOL    HW227948   2.191   1.095   4.168 -1.4794 -1.7679  0.9683
 5438SOL     OW27949   3.137   1.039   9.880 -0.5172  0.2165 -0.1892
 5438SOL    HW127950   3.112   1.069   9.967  0.8115  2.3630 -0.5352
 5438SOL    HW227951   3.228   1.013   9.894 -0.7223 -1.1094 -1.3229
 5439SOL     OW27952   3.047   3.172   6.861  0.1129 -0.1921  0.5973
 5439SOL    HW127953   2.962   3.216   6.853  0.7941  0.9411 -0.2986
 5439SOL    HW227954   3.026   3.081   6.882  0.0323 -0.0310  1.2139
 5440SOL     OW27955   2.556   2.233   5.255  0.7937 -0.1275 -0.1767
 5440SOL    HW127956   2.589   2.302   5.314 -1.4623  2.6615 -2.1815
 5440SOL    HW227957   2.565   2.273   5.168 -1.6933 -1.5675 -1.1019
 5441SOL     OW27958   2.805   1.469   7.961  0.2496  0.4914 -0.5279
 5441SOL    HW127959   2.734   1.489   8.021 -0.3671 -1.5675 -0.5686
 5441SOL    HW227960   2.778   1.386   7.922 -1.0596  0.8085 -0.2808
 5442SOL     OW27961   4.593   3.109   8.048 -0.1504 -0.0412  0.2666
 5442SOL    HW127962   4.530   3.076   7.984  0.3780 -1.4680  0.4792
 5442SOL    HW227963   4.633   3.024   8.065  0.5338  0.3614  0.6845
 5443SOL     OW27964   3.245   0.015   0.866 -0.3079 -0.3120 -0.2808
 5443SOL    HW127965   3.316   4.711   0.916  2.0759 -1.0157 -4.1772
 5443SOL    HW227966   3.168   4.719   0.913  0.4580 -1.3465  0.2823
 5444SOL     OW27967   2.971   2.990   2.823 -0.2442 -0.1275  0.2784
 5444SOL    HW127968   3.014   3.018   2.742  0.6139  2.5144  1.6426
 5444SOL    HW227969   2.895   2.941   2.792 -2.4715  3.1630  0.5275
 5445SOL     OW27970   2.622   4.143  10.052  0.5986 -0.4249  0.2207
 5445SOL    HW127971   2.644   4.233  10.031  0.4890 -0.3597  0.3875
 5445SOL    HW227972   2.581   4.158  10.137 -1.0800 -1.3205 -0.4384
 5446SOL     OW27973   0.649   2.505   5.780  0.6737 -0.7400  0.5752
 5446SOL    HW127974   0.565   2.458   5.773  1.1120 -1.4406  0.0680
 5446SOL    HW227975   0.640   2.568   5.709 -1.8076  1.5409  2.9149
 5447SOL     OW27976   2.736   4.613   8.000 -0.0696  0.0118 -0.1646
 5447SOL    HW127977   2.768   4.533   7.958 -0.0598 -0.9477  1.6598
 5447SOL    HW227978   2.805   4.676   7.980 -0.2096  0.4189  0.6297
 5448SOL     OW27979   3.925   3.733   3.990 -0.1471 -0.1490  0.5544
 5448SOL    HW127980   3.980   3.658   4.013 -0.5193 -0.5841  0.0693
 5448SOL    HW227981   3.879   3.699   3.912  0.6918  0.0774 -0.0335
 5449SOL     OW27982   1.976   0.429  17.179 -0.0524  0.0984  0.1178
 5449SOL    HW127983   1.891   0.455  17.212  1.7002  2.5565  2.7085
 5449SOL    HW227984   1.963   0.334  17.187  1.2295 -0.0623  0.3091
 5450SOL     OW27985   1.939   0.878   1.079  0.3125 -0.0303  0.4821
 5450SOL    HW127986   1.868   0.854   1.138  0.1962  1.0382  0.7703
 5450SOL    HW227987   1.995   0.806   1.109  0.2476 -1.5762 -3.0753
 5451SOL     OW27988   4.451   3.999   9.323 -0.2666  0.0607 -0.6138
 5451SOL    HW127989   4.435   4.090   9.346  2.3095 -0.0571  1.7511
 5451SOL    HW227990   4.373   3.951   9.350 -0.1757 -0.4350 -1.2261
 5452SOL     OW27991   4.472   4.678   8.438  0.2374 -0.2106  0.0839
 5452SOL    HW127992   4.382   4.653   8.460  0.4004 -1.2660 -0.4677
 5452SOL    HW227993   4.518   4.678   8.522  0.3878 -2.8990  0.0121
 5453SOL     OW27994   0.974   0.752   6.339  0.3979  0.1734 -0.0687
 5453SOL    HW127995   0.943   0.794   6.258  0.1599  0.6553  0.2711
 5453SOL    HW227996   1.066   0.773   6.324  0.6341 -0.3932  0.5916
 5454SOL     OW27997   2.090   0.275   0.630 -0.1394 -0.3417 -0.6640
 5454SOL    HW127998   2.154   0.220   0.584  0.8139 -0.1236  0.3871
 5454SOL    HW227999   2.103   0.357   0.581  1.5086  0.5705  1.2965
 5455SOL     OW28000   1.502   0.576  10.644  0.1762 -0.0370  0.1624
 5455SOL    HW128001   1.477   0.502  10.700  1.4694 -1.7471 -1.5392
 5455SOL    HW228002   1.580   0.608  10.689  0.3761 -0.3922  0.0714
 5456SOL     OW28003   2.111   1.458   4.484  0.1662  0.3463  0.0176
 5456SOL    HW128004   2.045   1.453   4.553  0.4922 -0.9684  0.2466
 5456SOL    HW228005   2.184   1.422   4.535  0.6514  0.4988 -0.5625
 5457SOL     OW28006   4.273   1.238   4.948  0.4729 -0.0660  0.7001
 5457SOL    HW128007   4.272   1.309   4.884  0.8221 -4.1721 -3.8701
 5457SOL    HW228008   4.349   1.184   4.925  0.3227  0.2942 -0.6695
 5458SOL     OW28009   3.520   2.065   3.721 -0.6854  0.0453  0.3947
 5458SOL    HW128010   3.593   2.105   3.675  0.2328  0.7364  2.4502
 5458SOL    HW228011   3.471   2.145   3.744  1.4459  0.5455  3.2164
 5459SOL     OW28012   3.794   0.118   7.863  0.3439 -0.6837 -0.0011
 5459SOL    HW128013   3.785   0.034   7.817  0.3490 -1.3635  1.2288
 5459SOL    HW228014   3.786   0.099   7.957 -3.3030  0.9083 -0.0206
 5460SOL     OW28015   3.190   3.710   4.524 -0.0398 -0.2401  0.1799
 5460SOL    HW128016   3.206   3.619   4.549  1.4314 -0.1955 -0.5720
 5460SOL    HW228017   3.143   3.748   4.597 -1.7827  3.7217 -3.0355
 5461SOL     OW28018   2.010   3.365   5.429 -0.1918 -0.0501  0.3111
 5461SOL    HW128019   1.956   3.388   5.505 -0.7174 -1.3424  0.3296
 5461SOL    HW228020   2.063   3.444   5.425 -0.2965  0.0223  0.3490
 5462SOL     OW28021   0.254   0.185   8.610  0.8675 -0.1129 -0.8362
 5462SOL    HW128022   0.222   0.147   8.528 -0.2492 -0.9442 -0.0184
 5462SOL    HW228023   0.348   0.173   8.603  1.1955  1.8239  0.3642
 5463SOL     OW28024   0.479   2.528   9.200 -0.3721 -0.0364  0.2689
 5463SOL    HW128025   0.521   2.447   9.228  1.8018  1.6946  2.0219
 5463SOL    HW228026   0.412   2.498   9.139  1.0037 -2.7844  0.1271
 5464SOL     OW28027   2.049   3.958   9.320  0.0181  0.7748 -0.5791
 5464SOL    HW128028   2.030   3.864   9.326 -0.0434  0.6226 -2.8959
 5464SOL    HW228029   2.124   3.970   9.379  0.6167 -0.4588 -1.0754
 5465SOL     OW28030   2.757   0.877   9.558  0.2954  0.2932 -0.6078
 5465SOL    HW128031   2.775   0.791   9.520 -2.2463 -0.6932  0.4169
 5465SOL    HW228032   2.829   0.903   9.614  0.5735 -2.2355  0.2093
 5466SOL     OW28033   1.921   4.239   6.387 -0.5734  0.3580  0.2574
 5466SOL    HW128034   2.012   4.265   6.401  0.0688 -1.9962  0.3913
 5466SOL    HW228035   1.882   4.238   6.474 -2.0415  1.5851 -0.3887
 5467SOL     OW28036   0.837   0.616   8.896  0.0798  0.0090 -1.0326
 5467SOL    HW128037   0.867   0.541   8.947 -1.7144  0.8150  1.1964
 5467SOL    HW228038   0.798   0.573   8.820 -2.9196  0.5747  0.1644
 5468SOL     OW28039   0.902   1.864   3.708  0.3287  0.3479  0.0795
 5468SOL    HW128040   0.908   1.855   3.803 -1.7389 -1.2645  0.0387
 5468SOL    HW228041   0.876   1.781   3.670 -0.9986  0.2145  1.2960
 5469SOL     OW28042   1.382   4.279   1.472 -0.5386  0.0870 -0.6906
 5469SOL    HW128043   1.361   4.372   1.464 -2.2299 -0.2447 -0.1015
 5469SOL    HW228044   1.345   4.252   1.388 -0.0971 -1.9462 -0.2461
 5470SOL     OW28045   3.982   3.915  12.430  0.2337 -0.0343  0.1263
 5470SOL    HW128046   3.996   3.829  12.469  2.5592  0.6463  0.8225
 5470SOL    HW228047   3.970   3.970  12.508 -1.0662  0.3148 -0.3240
 5471SOL     OW28048   0.585   0.791  17.468  0.3368 -0.4356 -0.1832
 5471SOL    HW128049   0.629   0.743  17.538 -2.3858 -1.8187  0.5550
 5471SOL    HW228050   0.613   0.737  17.394  0.5306  2.0935 -1.9394
 5472SOL     OW28051   0.011   0.807  17.486 -0.3234 -0.0215  0.5166
 5472SOL    HW128052   0.004   0.891  17.440  0.2850 -0.9014 -1.1841
 5472SOL    HW228053   0.059   0.838  17.562  1.8906  1.5730 -1.5424
 5473SOL     OW28054   1.002   3.927   1.923  0.3065 -0.5531 -0.1810
 5473SOL    HW128055   1.068   3.955   1.859 -0.1936  1.5536  0.2448
 5473SOL    HW228056   1.071   3.907   1.986  1.3073 -0.2661 -1.1922
 5474SOL     OW28057   2.948   2.945  10.257  0.3267  0.2268 -0.0795
 5474SOL    HW128058   2.979   3.031  10.228  0.1368 -0.1067 -1.2539
 5474SOL    HW228059   2.857   2.964  10.280  0.1143 -1.3429  0.3684
 5475SOL     OW28060   3.260   3.706  14.572  0.5072 -0.2201  0.3352
 5475SOL    HW128061   3.331   3.768  14.556  1.4145 -0.5422  3.1151
 5475SOL    HW228062   3.265   3.694  14.667  3.0185 -1.2475  0.0599
 5476SOL     OW28063   0.910   0.718  10.901 -0.5463 -0.1313 -0.0737
 5476SOL    HW128064   0.924   0.788  10.965 -3.1914 -0.1847  0.5689
 5476SOL    HW228065   0.883   0.646  10.959 -2.1799 -1.2374 -2.2082
 5477SOL     OW28066   2.327   0.505   8.215  0.5902 -0.3662  0.4880
 5477SOL    HW128067   2.381   0.577   8.246 -0.9296  1.8273 -2.0295
 5477SOL    HW228068   2.368   0.485   8.131  2.2443  0.8131  1.0094
 5478SOL     OW28069   2.316   3.938   1.430 -0.1731 -0.2919  0.0359
 5478SOL    HW128070   2.307   3.999   1.503  1.0460  0.7758 -0.6906
 5478SOL    HW228071   2.271   3.862   1.465 -0.6424  0.7120  1.5985
 5479SOL     OW28072   2.396   4.524  14.550 -0.1828 -0.5199 -0.3849
 5479SOL    HW128073   2.434   4.580  14.618  1.2870 -0.5315 -1.1914
 5479SOL    HW228074   2.345   4.463  14.604 -0.7204 -0.9731 -1.4005
 5480SOL     OW28075   3.121   3.322   1.663  1.2734 -0.1616  0.1401
 5480SOL    HW128076   3.131   3.231   1.692  2.1630 -0.0793  0.0713
 5480SOL    HW228077   3.063   3.364   1.727  0.5607  1.6144 -1.6606
 5481SOL     OW28078   2.944   0.850   9.040  0.9366  0.1740  0.2936
 5481SOL    HW128079   2.945   0.756   9.024  0.2199 -0.2747  2.8685
 5481SOL    HW228080   2.876   0.870   8.976 -0.8841 -2.4388  1.4132
 5482SOL     OW28081   2.352   0.777   4.917  0.1820  0.3766 -0.3320
 5482SOL    HW128082   2.317   0.861   4.885  1.3962 -0.1017 -2.8975
 5482SOL    HW228083   2.269   0.730   4.928  1.3659 -1.3308  1.1129
 5483SOL     OW28084   2.228   1.447   9.592 -0.1464 -0.3472 -0.3649
 5483SOL    HW128085   2.215   1.538   9.566  1.1671 -0.0028  0.1432
 5483SOL    HW228086   2.322   1.431   9.583 -0.3689 -1.1712 -1.1876
 5484SOL     OW28087   1.141   2.289  16.792 -0.1517 -0.1250 -0.0156
 5484SOL    HW128088   1.119   2.274  16.884  2.0746  0.0256  0.5485
 5484SOL    HW228089   1.235   2.282  16.807 -0.1701 -0.5283 -0.0878
 5485SOL     OW28090   0.582   0.605   6.846  0.1276 -0.4789  0.3531
 5485SOL    HW128091   0.568   0.516   6.813  0.3939 -0.2256 -0.4381
 5485SOL    HW228092   0.510   0.619   6.908  1.8045 -0.6798  2.3323
 5486SOL     OW28093   1.452   2.077  14.014 -0.1055 -0.0865 -0.0954
 5486SOL    HW128094   1.540   2.104  14.037  0.2779 -1.0415 -0.4522
 5486SOL    HW228095   1.459   1.984  14.032  1.2511  0.1354  0.4987
 5487SOL     OW28096   2.622   2.535   7.135 -0.0231 -0.2402 -0.8099
 5487SOL    HW128097   2.564   2.481   7.189 -0.0487  1.7625  1.1696
 5487SOL    HW228098   2.568   2.554   7.059 -1.1777  3.8747  1.0404
 5488SOL     OW28099   1.704   0.479   8.039 -0.4290  0.3987 -0.8197
 5488SOL    HW128100   1.695   0.573   8.025 -0.3522  0.7982  1.7874
 5488SOL    HW228101   1.617   0.447   8.014 -1.6819  2.9052  0.3914
 5489SOL     OW28102   1.909   0.843   0.129  0.4100 -0.6177  0.2396
 5489SOL    HW128103   1.823   0.825   0.089  1.0841 -0.5561 -1.2611
 5489SOL    HW228104   1.901   0.800   0.214 -0.4220 -2.1348 -0.5922
 5490SOL     OW28105   2.665   2.651   8.996 -1.0733 -0.0570 -0.5797
 5490SOL    HW128106   2.604   2.658   9.069 -1.4184  1.6347 -1.0254
 5490SOL    HW228107   2.629   2.706   8.925  0.5449 -0.1140 -1.4456
 5491SOL     OW28108   0.211   2.112   8.542  0.0249 -0.1382 -0.2228
 5491SOL    HW128109   0.219   2.173   8.615 -3.3762  0.6282 -0.5024
 5491SOL    HW228110   0.293   2.132   8.497  0.1358 -1.1367 -0.4702
 5492SOL     OW28111   4.412   2.655   6.226 -0.0508 -0.1687  0.0131
 5492SOL    HW128112   4.419   2.674   6.133 -2.5177 -0.2625 -0.1885
 5492SOL    HW228113   4.328   2.694   6.252  0.0320  0.6180 -0.9145
 5493SOL     OW28114   4.306   0.275   4.382  0.2045  0.2788  0.2642
 5493SOL    HW128115   4.232   0.271   4.443  0.2735 -0.3413  0.3092
 5493SOL    HW228116   4.265   0.348   4.334 -0.6195 -1.0646 -1.0863
 5494SOL     OW28117   1.890   1.791   5.185  0.1560 -0.2936  0.0060
 5494SOL    HW128118   1.892   1.881   5.153  1.7238 -0.3423 -0.0076
 5494SOL    HW228119   1.806   1.782   5.230 -2.2546 -0.4975 -4.5432
 5495SOL     OW28120   0.678   2.555  12.120  0.2459  0.4855 -0.5772
 5495SOL    HW128121   0.645   2.503  12.046  0.2485 -1.6486  0.9320
 5495SOL    HW228122   0.739   2.493  12.161  2.6452  0.9426 -3.4428
 5496SOL     OW28123   1.128   0.572   7.418 -0.7126 -0.1773  0.5027
 5496SOL    HW128124   1.136   0.565   7.513  3.6881  1.7856  0.3035
 5496SOL    HW228125   1.210   0.534   7.386 -1.1209 -0.6521  0.0311
 5497SOL     OW28126   2.429   0.897   9.003 -0.9570  0.1549 -0.0180
 5497SOL    HW128127   2.385   0.968   8.955  0.5169  0.3221 -1.1080
 5497SOL    HW228128   2.487   0.868   8.933 -2.3880  1.2096 -1.6491
 5498SOL     OW28129   2.619   2.827   7.648 -0.0354  0.0730  0.5098
 5498SOL    HW128130   2.567   2.751   7.674  1.3050 -1.1269 -0.3035
 5498SOL    HW228131   2.631   2.819   7.553  1.4940  1.2358  0.5962
 5499SOL     OW28132   0.131   1.018   5.986 -0.5418 -0.3923  0.2298
 5499SOL    HW128133   0.036   1.004   5.981 -1.0076  2.3714  1.5037
 5499SOL    HW228134   0.147   1.082   5.917 -2.0919  0.7118  0.8886
 5500SOL     OW28135   3.313   4.397   6.279 -0.3168 -0.3494  0.1585
 5500SOL    HW128136   3.229   4.380   6.322  0.4654 -1.6577  1.2102
 5500SOL    HW228137   3.323   4.482   6.322  1.2951 -0.6673  0.4182
 5501SOL     OW28138   1.632   0.480   3.887 -0.6390  0.1368 -0.0333
 5501SOL    HW128139   1.565   0.431   3.935 -2.7290  2.5027 -0.6040
 5501SOL    HW228140   1.707   0.439   3.931 -0.6699 -0.5176 -0.5883
 5502SOL     OW28141   4.665   2.647  11.011  0.1943  0.3199 -0.3678
 5502SOL    HW128142   4.717   2.708  11.064 -1.2789 -0.3565  1.8702
 5502SOL    HW228143   4.607   2.701  10.957 -0.1555 -0.0096 -0.3185
 5503SOL     OW28144   3.537   2.711   6.185 -0.0950  0.0897  0.0160
 5503SOL    HW128145   3.514   2.622   6.211  0.0442  0.4486  1.3745
 5503SOL    HW228146   3.632   2.713   6.199  0.1943  0.6941 -2.0319
 5504SOL     OW28147   0.498   4.636   4.206 -0.0443  0.0738  0.1038
 5504SOL    HW128148   0.559   4.581   4.256 -0.1434  0.1026  0.2555
 5504SOL    HW228149   0.522   4.610   4.117 -3.4467  2.0588 -1.3788
 5505SOL     OW28150   2.697   3.663   8.144 -0.5416  0.1188 -0.2451
 5505SOL    HW128151   2.602   3.665   8.159 -0.5920 -1.5770 -0.3271
 5505SOL    HW228152   2.726   3.591   8.200  1.6994 -1.4266 -3.3730
 5506SOL     OW28153   1.977   1.338   8.674  0.2021  0.1690 -0.5391
 5506SOL    HW128154   1.896   1.355   8.626 -0.0112 -0.7509 -0.5079
 5506SOL    HW228155   2.048   1.355   8.612  0.2094 -0.5364 -0.7248
 5507SOL     OW28156   2.092   0.349  16.876 -0.3908 -0.9029 -0.3544
 5507SOL    HW128157   2.008   0.387  16.851  0.7518  1.5830 -0.3947
 5507SOL    HW228158   2.075   0.346  16.970  4.4897 -1.9392  0.5032
 5508SOL     OW28159   2.730   1.956   2.926  0.3312 -0.5017  0.5738
 5508SOL    HW128160   2.808   1.902   2.936  0.1925 -1.0343 -1.2784
 5508SOL    HW228161   2.690   1.965   3.013 -1.9059  0.5185 -0.5595
 5509SOL     OW28162   0.208   3.616   9.329  0.0255 -0.1365 -0.7432
 5509SOL    HW128163   0.187   3.648   9.417  0.4226 -1.0639 -0.3100
 5509SOL    HW228164   0.185   3.689   9.272  0.1722  0.0975 -0.4960
 5510SOL     OW28165   3.437   0.365   3.468 -0.2227 -0.0738 -0.4223
 5510SOL    HW128166   3.363   0.306   3.452 -0.4595  0.3998 -1.0732
 5510SOL    HW228167   3.505   0.299   3.484 -2.1278 -1.9607  0.0438
 5511SOL     OW28168   1.353   0.804   3.449 -0.2034 -0.7671  0.1969
 5511SOL    HW128169   1.284   0.785   3.513  0.0027 -0.8274  0.3971
 5511SOL    HW228170   1.352   0.899   3.438  2.1355 -0.8424 -0.5325
 5512SOL     OW28171   4.239   2.149   5.605  0.2347  0.1846  0.0254
 5512SOL    HW128172   4.209   2.232   5.643 -0.0936  0.3234 -0.5341
 5512SOL    HW228173   4.157   2.134   5.557  0.9583  1.0235 -1.4637
 5513SOL     OW28174   3.180   2.869   3.259 -0.2118  0.5295 -0.4567
 5513SOL    HW128175   3.253   2.818   3.223 -2.2236 -2.1907 -0.6953
 5513SOL    HW228176   3.167   2.930   3.186 -0.1041  1.4463  0.3090
 5514SOL     OW28177   2.459   3.475   1.039  0.4326  0.2808  0.0840
 5514SOL    HW128178   2.555   3.484   1.045  0.4516  0.6542 -0.7499
 5514SOL    HW228179   2.448   3.492   0.945 -3.6219  0.5604  0.6464
 5515SOL     OW28180   1.314   0.122  17.349 -0.1731  0.2856 -0.2066
 5515SOL    HW128181   1.309   0.120  17.444  0.1040  1.8090 -0.1563
 5515SOL    HW228182   1.389   0.063  17.350 -0.3297  0.0709 -1.1672
 5516SOL     OW28183   2.612   1.087  13.715 -0.1794  0.4141 -0.1288
 5516SOL    HW128184   2.611   1.159  13.653 -2.4446  0.4992  0.0107
 5516SOL    HW228185   2.525   1.047  13.712 -0.2303  0.3399  1.7845
 5517SOL     OW28186   0.680   1.941   3.076 -0.4296 -0.6916  0.0298
 5517SOL    HW128187   0.744   1.942   3.005  0.6337 -4.1876  0.9385
 5517SOL    HW228188   0.600   1.935   3.023 -1.3098  0.6938  1.2085
 5518SOL     OW28189   1.079   4.138  14.356 -0.1561 -0.0039  0.1757
 5518SOL    HW128190   1.062   4.073  14.287  1.1150  0.1202 -0.2480
 5518SOL    HW228191   1.030   4.209  14.313  0.3011 -0.1555 -0.6027
 5519SOL     OW28192   0.236   1.896   7.062  0.8618 -0.3760  0.0513
 5519SOL    HW128193   0.148   1.872   7.091  0.4285  0.3103 -0.7023
 5519SOL    HW228194   0.293   1.824   7.090  0.7466 -1.7761 -3.2921
 5520SOL     OW28195   3.739   0.320   4.052 -1.2352  0.5348  0.1676
 5520SOL    HW128196   3.663   0.337   3.997 -1.2495 -1.7814 -0.5136
 5520SOL    HW228197   3.755   0.226   4.050  0.8956  0.9231 -1.8468
 5521SOL     OW28198   3.315   2.534   4.732  0.3771 -0.3245  0.5570
 5521SOL    HW128199   3.241   2.501   4.682  1.3484 -1.3361 -0.2078
 5521SOL    HW228200   3.269   2.595   4.789 -0.2524 -0.6061  0.3461
 5522SOL     OW28201   1.040   0.210  15.140  0.3348  0.0603  0.2363
 5522SOL    HW128202   1.015   0.176  15.054 -1.0287 -0.2627  0.7621
 5522SOL    HW228203   1.102   0.278  15.112  0.5372  0.0800  0.7218
 5523SOL     OW28204   3.217   1.719   6.985 -0.0531 -0.7083  0.0712
 5523SOL    HW128205   3.297   1.766   7.010  0.2774 -0.8968 -0.6003
 5523SOL    HW228206   3.202   1.738   6.892 -1.0995  2.9990  0.9918
 5524SOL     OW28207   1.360   0.657  12.244  0.3120 -0.0255 -0.0267
 5524SOL    HW128208   1.309   0.576  12.249  1.1976 -0.6437 -1.0243
 5524SOL    HW228209   1.287   0.720  12.247  0.0200 -0.4256  1.3305
 5525SOL     OW28210   4.570   0.117   3.410  0.2314 -0.4428  0.0814
 5525SOL    HW128211   4.596   0.057   3.340  0.6379 -0.0838 -0.0694
 5525SOL    HW228212   4.565   0.205   3.374 -1.5750  0.3223  2.2072
 5526SOL     OW28213   1.799   2.557  16.478  0.5033 -0.0201  0.0199
 5526SOL    HW128214   1.792   2.481  16.536  0.8208 -1.6667 -2.1289
 5526SOL    HW228215   1.850   2.519  16.407  1.3406  1.6087 -0.2479
 5527SOL     OW28216   2.340   0.497   6.417  0.6697  0.8743  0.1413
 5527SOL    HW128217   2.410   0.552   6.452 -0.0677  1.8657  0.0798
 5527SOL    HW228218   2.277   0.516   6.486 -2.4577  2.6895 -3.2104
 5528SOL     OW28219   3.860   2.865  11.797  0.6003  0.1378  0.4229
 5528SOL    HW128220   3.792   2.862  11.864 -0.9138 -2.2483 -1.2238
 5528SOL    HW228221   3.937   2.873  11.854  0.9012 -0.5417  0.1097
 5529SOL     OW28222   0.244   3.601   7.840 -0.3920 -0.3102  0.2922
 5529SOL    HW128223   0.291   3.632   7.918 -0.8544  0.1627  0.3827
 5529SOL    HW228224   0.208   3.520   7.876 -0.0195 -0.6637 -0.1239
 5530SOL     OW28225   4.717   1.287   1.411  0.2334 -0.0805 -0.2625
 5530SOL    HW128226   0.014   1.247   1.491  1.4038 -0.3124 -0.8611
 5530SOL    HW228227   4.676   1.370   1.436  1.9531  0.0818  2.0116
 5531SOL     OW28228   1.599   0.999  12.739 -0.2679 -0.4566 -0.3245
 5531SOL    HW128229   1.695   1.001  12.744 -0.1669  1.9553 -3.4705
 5531SOL    HW228230   1.586   1.094  12.737  1.7056 -0.1866 -0.4566
 5532SOL     OW28231   1.093   1.836   0.886  0.4723  0.4486 -0.3164
 5532SOL    HW128232   1.063   1.754   0.846  0.6787  1.0284 -1.6579
 5532SOL    HW228233   1.049   1.903   0.833  0.1004 -1.1291 -2.0216
 5533SOL     OW28234   4.049   3.117   8.121 -0.0345  1.0966 -0.1377
 5533SOL    HW128235   4.060   3.028   8.089  0.3703  0.0502  2.9504
 5533SOL    HW228236   4.087   3.175   8.054  0.6358  1.5797  0.6630
 5534SOL     OW28237   2.564   1.616   3.601 -0.0946 -0.5291 -0.3868
 5534SOL    HW128238   2.563   1.564   3.681 -0.9430  0.9028  0.5262
 5534SOL    HW228239   2.643   1.584   3.559 -1.1471 -0.3803 -2.5038
 5535SOL     OW28240   2.720   0.329   7.917 -0.2187 -0.1030  0.4320
 5535SOL    HW128241   2.796   0.284   7.882 -0.9768 -0.7659 -0.3528
 5535SOL    HW228242   2.661   0.254   7.912 -1.3835  0.9859 -1.9549
 5536SOL     OW28243   3.532   3.638   4.961  0.4648  0.3041  0.0056
 5536SOL    HW128244   3.578   3.684   5.032  1.4648 -0.8796  0.1081
 5536SOL    HW228245   3.517   3.549   4.992 -1.3813 -0.0198 -1.7959
 5537SOL     OW28246   4.098   3.003   9.087  0.2649  0.0515 -0.0644
 5537SOL    HW128247   4.007   3.021   9.062  0.1821  1.3828  1.1845
 5537SOL    HW228248   4.082   2.919   9.129  0.8414 -0.5920 -1.1394
 5538SOL     OW28249   4.578   4.234   9.601  0.5671 -0.1278 -0.9005
 5538SOL    HW128250   4.581   4.176   9.677 -0.3042  0.2226 -0.5971
 5538SOL    HW228251   4.494   4.277   9.618  0.1578 -1.5471  0.6615
 5539SOL     OW28252   2.233   0.840  15.026 -0.4251  0.3279 -0.0735
 5539SOL    HW128253   2.147   0.877  15.046 -0.2811  0.7790 -0.3013
 5539SOL    HW228254   2.237   0.791  15.109 -1.7478 -0.9114 -0.7398
 5540SOL     OW28255   2.088   0.151   1.342 -0.2182 -0.0954 -0.5336
 5540SOL    HW128256   2.151   0.210   1.301 -0.3168  1.3585  1.4135
 5540SOL    HW228257   2.091   0.070   1.292 -0.6589 -0.1452 -0.4791
 5541SOL     OW28258   0.446   1.544   6.579  0.2070 -0.3391 -0.0034
 5541SOL    HW128259   0.415   1.585   6.499 -0.6934 -0.3841  0.3169
 5541SOL    HW228260   0.365   1.535   6.630  0.2162  0.3182  0.1241
 5542SOL     OW28261   2.888   3.797   9.890  0.1457 -0.3547  0.0510
 5542SOL    HW128262   2.882   3.825   9.982  0.9820 -2.5570  0.7842
 5542SOL    HW228263   2.964   3.846   9.858 -0.8093  1.6298  0.8016
 5543SOL     OW28264   3.121   3.585   4.031  0.3374 -0.0188 -0.1671
 5543SOL    HW128265   3.182   3.657   4.050 -0.6029  0.8038 -0.2761
 5543SOL    HW228266   3.179   3.511   4.048  0.0193 -0.3039 -0.3369
 5544SOL     OW28267   3.523   3.916  10.869  0.2082 -0.1262  0.2262
 5544SOL    HW128268   3.482   3.832  10.851  1.8004 -0.8074 -0.1458
 5544SOL    HW228269   3.478   3.939  10.950 -0.2262 -0.3016  0.0343
 5545SOL     OW28270   4.174   2.108   1.921 -0.3070 -0.5221  0.0148
 5545SOL    HW128271   4.187   2.019   1.954 -0.8005 -1.0294 -1.1506
 5545SOL    HW228272   4.162   2.087   1.829  0.4887  2.9684 -0.8865
 5546SOL     OW28273   0.590   3.698   6.489  0.4722  0.4488 -0.0827
 5546SOL    HW128274   0.645   3.623   6.468  0.4373 -0.2372  2.2858
 5546SOL    HW228275   0.524   3.685   6.420  0.0403 -0.6466  0.5367
 5547SOL     OW28276   0.458   0.655   2.454  0.0996 -0.4478  0.7530
 5547SOL    HW128277   0.464   0.724   2.388 -2.5300 -0.5529  0.3814
 5547SOL    HW228278   0.395   0.688   2.519  0.1039  0.7995  0.1283
 5548SOL     OW28279   1.062   2.705   7.201  0.0869  0.7111  0.0596
 5548SOL    HW128280   1.060   2.795   7.234 -2.3134  1.4407 -2.0705
 5548SOL    HW228281   1.013   2.717   7.120  0.2822  2.1923  0.1604
 5549SOL     OW28282   0.159   1.505   1.172 -0.0035  0.4360 -0.2513
 5549SOL    HW128283   0.230   1.484   1.232 -1.2383 -0.8958  0.7559
 5549SOL    HW228284   0.149   1.422   1.125 -0.2610  1.8724 -2.7278
 5550SOL     OW28285   0.981   3.347  11.049  0.2244 -0.3078 -0.5228
 5550SOL    HW128286   0.939   3.430  11.029 -1.0473 -0.7135  0.4589
 5550SOL    HW228287   1.000   3.359  11.142 -3.1521 -1.2865  0.3104
 5551SOL     OW28288   0.740   2.873   8.976  0.2519 -0.0584 -0.3962
 5551SOL    HW128289   0.744   2.792   9.027  0.0389  0.9273  1.2072
 5551SOL    HW228290   0.755   2.937   9.046 -1.5200 -0.2560  0.1697
 5552SOL     OW28291   1.070   3.154  11.469 -0.1750  0.2467  0.1264
 5552SOL    HW128292   1.137   3.155  11.538 -0.0738  1.1188  0.0108
 5552SOL    HW228293   1.105   3.086  11.411 -1.8441  0.2431 -0.8541
 5553SOL     OW28294   2.995   1.604   4.920  0.7723  0.9173  0.2070
 5553SOL    HW128295   2.921   1.644   4.874  0.9599  1.5983  0.4968
 5553SOL    HW228296   3.041   1.676   4.963 -0.5866  1.1340  1.2904
 5554SOL     OW28297   4.476   4.307   8.464 -0.3379 -0.3630  0.1478
 5554SOL    HW128298   4.511   4.234   8.414 -1.8731 -0.4083 -0.8710
 5554SOL    HW228299   4.540   4.313   8.535 -0.2318  0.6896 -0.0244
 5555SOL     OW28300   1.617   4.599   7.491 -0.3059 -0.2302  0.0986
 5555SOL    HW128301   1.632   4.561   7.578  2.5449  0.4096 -0.1035
 5555SOL    HW228302   1.538   4.652   7.503 -1.3060 -1.9420  1.1652
 5556SOL     OW28303   3.750   3.048   6.819  0.3263  0.6788 -0.0808
 5556SOL    HW128304   3.691   3.106   6.771 -2.2569 -0.7535  1.3732
 5556SOL    HW228305   3.735   3.066   6.911 -1.3142 -2.1103  0.2274
 5557SOL     OW28306   3.025   3.776  15.572 -0.5814  0.3657 -0.2935
 5557SOL    HW128307   2.992   3.689  15.594 -2.4335  0.6344 -2.0252
 5557SOL    HW228308   2.961   3.829  15.621 -1.3664 -0.7364 -0.1242
 5558SOL     OW28309   1.986   3.781   4.055  0.5566  0.5159  0.1978
 5558SOL    HW128310   1.994   3.876   4.065  3.3729  0.3713 -0.7332
 5558SOL    HW228311   2.039   3.753   4.130  1.4257 -0.3324 -0.7198
 5559SOL     OW28312   1.112   2.837  10.206 -0.1708 -0.1688  0.6286
 5559SOL    HW128313   1.095   2.747  10.236 -2.1826 -0.3565 -1.1013
 5559SOL    HW228314   1.020   2.861  10.214 -0.0450  0.6556 -0.4767
 5560SOL     OW28315   0.407   2.672   4.058  0.1841 -0.1748 -0.1151
 5560SOL    HW128316   0.461   2.680   3.980  0.5943  0.7945  0.2749
 5560SOL    HW228317   0.355   2.752   4.062  0.3952  0.0522 -2.4307
 5561SOL     OW28318   2.530   3.738   3.317  0.4256  0.0477  0.2424
 5561SOL    HW128319   2.435   3.721   3.314  0.6932 -1.1983 -1.6541
 5561SOL    HW228320   2.561   3.655   3.353 -0.3443 -0.0350  0.7266
 5562SOL     OW28321   2.029   3.516   4.211  0.0458 -0.8670 -0.3851
 5562SOL    HW128322   2.001   3.487   4.298  0.4477  0.1811  0.0849
 5562SOL    HW228323   2.088   3.442   4.195 -0.4113 -1.3385  0.0970
 5563SOL     OW28324   1.177   1.087   7.633 -0.1852  0.5133 -0.3265
 5563SOL    HW128325   1.087   1.121   7.633 -0.9949 -1.6562  1.1110
 5563SOL    HW228326   1.161   1.031   7.557  1.6868  1.7249 -1.6072
 5564SOL     OW28327   0.745   1.650   7.042 -0.0967 -0.3709  0.0802
 5564SOL    HW128328   0.807   1.707   6.997 -1.8904  1.8511  0.4675
 5564SOL    HW228329   0.661   1.670   7.001  0.0113 -0.1407 -0.0262
 5565SOL     OW28330   0.735   4.066   2.024  0.1968  0.0065  0.3121
 5565SOL    HW128331   0.800   3.997   2.034  0.4736  0.4073  1.2596
 5565SOL    HW228332   0.793   4.141   2.038  0.2430  0.0260  0.0127
 5566SOL     OW28333   0.440   1.109   6.678 -0.9621 -0.0547  0.1514
 5566SOL    HW128334   0.363   1.083   6.728 -0.9307 -0.3069  0.0650
 5566SOL    HW228335   0.453   1.035   6.619  0.8503  0.1347  0.3189
 5567SOL     OW28336   2.613   3.438   9.064 -0.3006  0.2937 -0.1444
 5567SOL    HW128337   2.590   3.393   8.982 -0.3178  1.5591 -0.8254
 5567SOL    HW228338   2.626   3.526   9.029 -3.1141  0.7414 -0.1220
 5568SOL     OW28339   1.050   0.588   3.265 -0.3163 -0.2731  0.1133
 5568SOL    HW128340   0.981   0.597   3.330  0.6369  1.0573  0.9296
 5568SOL    HW228341   1.121   0.618   3.322  1.6365 -2.3336 -1.2146
 5569SOL     OW28342   4.068   3.065   2.097  0.0278  0.7286  0.1211
 5569SOL    HW128343   4.021   3.015   2.030  2.6459 -2.5504  0.7879
 5569SOL    HW228344   4.003   3.078   2.166 -0.0453  2.9304 -0.3580
 5570SOL     OW28345   0.744   2.062   9.041 -0.2542 -0.1864  0.0090
 5570SOL    HW128346   0.656   2.026   9.031  0.3577 -2.6089  3.1231
 5570SOL    HW228347   0.792   1.989   9.080  0.0127 -0.5946 -1.1089
 5571SOL     OW28348   3.431   2.788   4.239  0.3602  0.1893  0.2679
 5571SOL    HW128349   3.336   2.784   4.249  0.4553 -2.6859 -0.1914
 5571SOL    HW228350   3.435   2.827   4.152 -0.2835  0.8403  0.5246
 5572SOL     OW28351   2.798   0.191  15.367  0.0029 -0.9371  0.5101
 5572SOL    HW128352   2.842   0.145  15.439 -0.8670  1.0520  2.2994
 5572SOL    HW228353   2.873   0.189  15.308 -0.5411 -1.0423 -0.1811
 5573SOL     OW28354   2.387   2.613   3.748 -0.4134 -0.4198  0.1791
 5573SOL    HW128355   2.342   2.694   3.770  0.7014  0.6378 -1.4271
 5573SOL    HW228356   2.364   2.613   3.655 -0.0668  1.3075  0.0949
 5574SOL     OW28357   1.104   0.900   5.293  0.3304 -0.6732 -0.2274
 5574SOL    HW128358   1.179   0.842   5.278 -0.8294 -2.2237  0.0813
 5574SOL    HW228359   1.048   0.850   5.236  1.2282  0.2575 -1.9294
 5575SOL     OW28360   2.689   0.359   8.418  0.2790 -0.4131 -0.0710
 5575SOL    HW128361   2.668   0.279   8.370  1.2833 -0.8755  0.2505
 5575SOL    HW228362   2.606   0.367   8.465  0.5455  2.6270 -0.1070
 5576SOL     OW28363   4.631   0.805  13.058 -0.0654  0.6907  0.0857
 5576SOL    HW128364   4.692   0.843  13.122 -2.1598  1.8702  1.3821
 5576SOL    HW228365   4.544   0.831  13.088 -1.3618 -2.8393 -0.5640
 5577SOL     OW28366   0.471   0.472   4.379  0.2501 -0.2389  0.1383
 5577SOL    HW128367   0.549   0.520   4.406 -0.4361  0.3370  1.0604
 5577SOL    HW228368   0.422   0.466   4.461  1.9207 -1.2036  1.0658
 5578SOL     OW28369   0.410   4.287   5.210  0.6100 -0.1320  0.7054
 5578SOL    HW128370   0.457   4.229   5.150 -3.1870 -2.5913  0.1030
 5578SOL    HW228371   0.415   4.244   5.295  0.4731 -3.7574 -1.1087
 5579SOL     OW28372   3.046   0.807   7.814 -0.3378  0.1579 -0.2279
 5579SOL    HW128373   2.978   0.850   7.866  0.1257 -2.1944  2.3265
 5579SOL    HW228374   3.009   0.719   7.804  0.1782 -0.2815  1.7892
 5580SOL     OW28375   2.506   2.998  15.925  0.4122 -0.4240 -0.0858
 5580SOL    HW128376   2.592   3.017  15.889 -0.0022  1.3923 -0.1120
 5580SOL    HW228377   2.472   3.075  15.971 -0.5683 -1.2927  0.6583
 5581SOL     OW28378   3.589   2.406  10.059 -0.1850 -0.1466 -0.6401
 5581SOL    HW128379   3.558   2.417  10.149  0.6310 -3.7414  0.0780
 5581SOL    HW228380   3.564   2.490  10.020  1.0452  0.0867 -0.9499
 5582SOL     OW28381   0.444   4.627   9.511 -0.4413  0.0537 -0.6967
 5582SOL    HW128382   0.445   4.687   9.437  1.4149  1.1993  0.2678
 5582SOL    HW228383   0.352   4.628   9.537 -0.5596 -1.5445 -1.0514
 5583SOL     OW28384   3.385   0.276   5.311 -0.1558 -0.2338  0.6420
 5583SOL    HW128385   3.389   0.233   5.226 -0.4723 -1.2142  1.1201
 5583SOL    HW228386   3.302   0.323   5.312  0.6103  1.1011  0.7738
 5584SOL     OW28387   0.466   3.040   2.117  0.6516 -0.8180  0.2075
 5584SOL    HW128388   0.493   2.998   2.199 -0.9682  0.2586  1.3044
 5584SOL    HW228389   0.521   2.993   2.054  2.6179 -1.2851  2.2398
 5585SOL     OW28390   4.261   4.280   9.705  0.1655  0.0189 -0.8560
 5585SOL    HW128391   4.196   4.312   9.768  1.6469  0.6415  0.3647
 5585SOL    HW228392   4.197   4.234   9.651  0.1764  0.5964 -1.3654
 5586SOL     OW28393   1.527   0.991   4.203 -0.2802  0.3062 -0.1733
 5586SOL    HW128394   1.522   0.984   4.107  0.0933  0.0096 -0.1756
 5586SOL    HW228395   1.578   1.072   4.213 -0.8554  0.7599 -0.9417
 5587SOL     OW28396   1.161   3.674  10.733  0.5436  0.5271  0.0151
 5587SOL    HW128397   1.103   3.691  10.807  0.2730  0.9951 -0.3021
 5587SOL    HW228398   1.134   3.740  10.668  1.1602  0.0283 -0.7452
 5588SOL     OW28399   3.810   2.609   2.463  0.2727 -0.0958  0.0401
 5588SOL    HW128400   3.850   2.632   2.378  0.7905  0.8142  0.5265
 5588SOL    HW228401   3.725   2.651   2.451 -0.0182 -0.7703 -0.2673
 5589SOL     OW28402   1.559   2.075   8.658 -0.3367  0.4534  0.0667
 5589SOL    HW128403   1.642   2.051   8.618 -0.3639 -0.8535  0.7926
 5589SOL    HW228404   1.555   2.014   8.732 -1.8631 -0.4258 -0.7363
 5590SOL     OW28405   3.864   2.072  13.408  0.0810 -0.3440 -0.5442
 5590SOL    HW128406   3.944   2.023  13.389  0.2220 -0.6863  0.8776
 5590SOL    HW228407   3.848   2.044  13.498 -0.6873 -1.1442 -0.9344
 5591SOL     OW28408   2.452   0.761   4.647 -0.9151  1.1971  0.0620
 5591SOL    HW128409   2.397   0.738   4.721 -2.5529  3.6329 -0.3727
 5591SOL    HW228410   2.529   0.705   4.651  0.5229  3.1427  0.0218
 5592SOL     OW28411   3.389   0.428   4.717 -0.0301  0.7695  0.5790
 5592SOL    HW128412   3.369   0.486   4.643  2.2710  2.1750  1.0589
 5592SOL    HW228413   3.473   0.458   4.751  0.1485  3.0766 -1.8703
 5593SOL     OW28414   2.632   4.128   4.539  0.2145  0.3647 -0.8206
 5593SOL    HW128415   2.586   4.174   4.610  2.5089 -0.6051  1.2666
 5593SOL    HW228416   2.676   4.206   4.505  1.3094  0.2969  0.4783
 5594SOL     OW28417   0.745   1.389   4.003  0.2409 -0.0809  0.3687
 5594SOL    HW128418   0.766   1.339   4.082 -2.1410 -1.5402  0.0561
 5594SOL    HW228419   0.747   1.480   4.032 -0.0879 -0.2925  1.0535
 5595SOL     OW28420   3.568   0.435   5.002 -0.0183  0.9726  0.2096
 5595SOL    HW128421   3.591   0.362   5.059 -0.7903  2.1905  2.0827
 5595SOL    HW228422   3.474   0.425   5.010  0.2225  0.8318  2.8529
 5596SOL     OW28423   3.847   3.539   9.761 -0.6854 -0.7636 -0.5614
 5596SOL    HW128424   3.768   3.508   9.716 -1.1609 -0.9538  0.3868
 5596SOL    HW228425   3.888   3.453   9.775  0.4377 -0.2519 -0.7565
 5597SOL     OW28426   4.702   2.606   8.748 -0.1483  0.1663  0.3403
 5597SOL    HW128427   0.027   2.672   8.781  0.1974  0.0808 -0.1153
 5597SOL    HW228428   4.635   2.609   8.817 -0.1608 -1.0717  0.3716
 5598SOL     OW28429   3.533   4.723  14.382 -0.5296 -0.1746 -0.0043
 5598SOL    HW128430   3.480   4.680  14.449  0.4138  0.3336  1.0659
 5598SOL    HW228431   3.579   0.056  14.430  0.3051 -0.7129 -0.0337
 5599SOL     OW28432   3.403   1.133   2.635  0.2429  0.1115 -0.0394
 5599SOL    HW128433   3.497   1.122   2.647  0.5365  0.0125 -2.3889
 5599SOL    HW228434   3.408   1.156   2.542  1.0719 -0.0861 -0.0469
 5600SOL     OW28435   2.185   0.396   9.716 -0.0371  0.6952  0.7163
 5600SOL    HW128436   2.123   0.365   9.649 -1.6940  1.5126  1.8636
 5600SOL    HW228437   2.129   0.439   9.781 -0.0713 -1.5058  2.1453
 5601SOL     OW28438   3.589   1.302  16.370  0.0389  0.3643  0.0374
 5601SOL    HW128439   3.623   1.298  16.459  2.5142  0.0726 -0.9261
 5601SOL    HW228440   3.672   1.269  16.335 -0.0374 -1.2364  1.3807
 5602SOL     OW28441   2.402   3.558   3.701  0.4860  0.4151 -0.2701
 5602SOL    HW128442   2.326   3.612   3.677  0.7429  1.1243  0.5060
 5602SOL    HW228443   2.369   3.495   3.764  0.1661  0.8029 -0.0534
 5603SOL     OW28444   1.070   0.644   0.163 -0.3457  0.5390  0.5123
 5603SOL    HW128445   1.088   0.666   0.254  1.7415  1.0448 -0.0183
 5603SOL    HW228446   1.018   0.718   0.130 -0.8484 -0.3071 -0.5682
 5604SOL     OW28447   4.282   4.182  16.535  0.2976 -0.5736  0.2943
 5604SOL    HW128448   4.325   4.216  16.457  0.7310  2.4221  1.8442
 5604SOL    HW228449   4.307   4.089  16.533 -0.1583 -0.7192  1.3447
 5605SOL     OW28450   2.315   4.705   1.795 -0.2099  0.0417  0.3751
 5605SOL    HW128451   2.282   0.058   1.777  0.4317  0.6218  1.9459
 5605SOL    HW228452   2.405   4.707   1.762  0.4295 -2.3013  1.9839
 5606SOL     OW28453   2.556   3.318   5.752  0.1011  0.5492  0.1048
 5606SOL    HW128454   2.635   3.287   5.708  1.5843  2.5923  1.3457
 5606SOL    HW228455   2.601   3.385   5.804  2.3511  0.2997 -1.5502
 5607SOL     OW28456   4.082   3.167   2.743 -0.1334  0.0254  0.2531
 5607SOL    HW128457   4.079   3.193   2.835 -1.9069 -0.9823  0.4845
 5607SOL    HW228458   3.992   3.136   2.735 -0.5563  0.8810  1.8384
 5608SOL     OW28459   1.898   3.790   8.556  0.1596  0.3139  0.5294
 5608SOL    HW128460   1.857   3.870   8.523 -1.0471 -0.8556 -0.8083
 5608SOL    HW228461   1.844   3.768   8.632  1.4216  0.6109  1.5009
 5609SOL     OW28462   2.211   1.564   9.265 -0.3323  0.5856  0.5116
 5609SOL    HW128463   2.301   1.552   9.296 -0.3934  1.6349  1.0634
 5609SOL    HW228464   2.208   1.480   9.219  0.6687  2.3885 -2.8945
 5610SOL     OW28465   3.804   0.468  14.348  0.5363  0.3003  0.3704
 5610SOL    HW128466   3.859   0.412  14.293  0.9477  1.2650 -0.2116
 5610SOL    HW228467   3.857   0.548  14.351  0.8741  0.0969 -0.2670
 5611SOL     OW28468   1.247   0.256   4.516  0.0929 -0.5202 -0.0445
 5611SOL    HW128469   1.304   0.204   4.459  0.7442  0.2172 -0.0601
 5611SOL    HW228470   1.252   0.341   4.473  1.6294 -0.6798 -0.1936
 5612SOL     OW28471   3.127   2.190  13.008 -0.1854 -0.5285 -0.4254
 5612SOL    HW128472   3.071   2.174  12.932 -1.3603 -0.6244  0.4653
 5612SOL    HW228473   3.207   2.161  12.965  1.1130  0.7936  1.0734
 5613SOL     OW28474   1.832   2.796  16.357 -0.0472 -0.1143  0.3147
 5613SOL    HW128475   1.816   2.713  16.401 -0.0310 -0.4947 -0.3921
 5613SOL    HW228476   1.786   2.779  16.275 -0.7581  1.2730  0.4248
 5614SOL     OW28477   3.645   3.187  15.228 -0.5925  0.2122 -0.1668
 5614SOL    HW128478   3.599   3.253  15.281  0.7739  0.7471  0.3752
 5614SOL    HW228479   3.573   3.143  15.184  1.0292 -0.8794 -1.7325
 5615SOL     OW28480   1.546   1.725   7.482  0.2907  0.1999 -0.2333
 5615SOL    HW128481   1.575   1.816   7.473  1.7905 -0.1778  0.7237
 5615SOL    HW228482   1.456   1.733   7.450  0.0332 -0.0399  0.4357
 5616SOL     OW28483   1.913   0.146   1.746 -0.1988  0.1150  0.3228
 5616SOL    HW128484   1.990   0.123   1.797 -0.7528 -0.1889  1.0278
 5616SOL    HW228485   1.918   0.084   1.674 -2.7713  1.5397 -1.0898
 5617SOL     OW28486   3.809   3.701   5.396 -0.0322 -0.1665  0.3760
 5617SOL    HW128487   3.763   3.772   5.441 -0.9786 -1.0839  0.8627
 5617SOL    HW228488   3.892   3.690   5.443  1.9266 -0.5387 -3.1782
 5618SOL     OW28489   1.049   3.268  17.621  0.6452 -0.2055 -0.0959
 5618SOL    HW128490   0.954   3.258  17.613  0.7088  0.4826 -1.7512
 5618SOL    HW228491   1.082   3.187  17.581  0.9777  0.7249 -1.7155
 5619SOL     OW28492   3.140   2.815   4.622 -0.4671 -0.3117 -0.2487
 5619SOL    HW128493   3.222   2.842   4.581  0.3880 -1.4361  0.7259
 5619SOL    HW228494   3.079   2.809   4.549  1.3644  0.6983 -1.8581
 5620SOL     OW28495   4.653   0.418  12.639  0.7566 -0.0170  0.1606
 5620SOL    HW128496   0.009   0.394  12.626  0.3437 -1.1565 -0.5977
 5620SOL    HW228497   4.655   0.441  12.732 -1.5372 -0.4703  0.3345
 5621SOL     OW28498   0.528   1.875   5.592  0.2053 -0.0128 -0.0495
 5621SOL    HW128499   0.518   1.782   5.573 -1.4664  0.4018 -1.1957
 5621SOL    HW228500   0.576   1.913   5.519 -0.5099 -1.1872 -1.1179
 5622SOL     OW28501   2.759   2.508   7.736 -0.6511  0.0276 -0.6071
 5622SOL    HW128502   2.804   2.539   7.658 -0.6677  1.1789 -0.1621
 5622SOL    HW228503   2.801   2.559   7.806 -0.1896  1.2319 -1.7674
 5623SOL     OW28504   2.349   0.624   2.155  0.1470 -0.2760 -0.3299
 5623SOL    HW128505   2.354   0.554   2.221  2.0933  0.3431  0.1968
 5623SOL    HW228506   2.393   0.585   2.080  1.8332 -0.8060  0.9207
 5624SOL     OW28507   1.601   4.338  13.392  0.0097 -0.4630 -0.1708
 5624SOL    HW128508   1.610   4.398  13.466  1.6950  0.4340 -1.0922
 5624SOL    HW228509   1.518   4.365  13.353  1.3630  1.9150 -1.4370
 5625SOL     OW28510   1.403   2.291   5.260 -0.1743 -0.5370 -0.5991
 5625SOL    HW128511   1.401   2.259   5.169  1.3716 -0.0559 -0.8048
 5625SOL    HW228512   1.333   2.353   5.242  2.1844  2.0511 -0.9996
 5626SOL     OW28513   0.205   1.149   5.507 -0.0219 -0.1504  0.3688
 5626SOL    HW128514   0.119   1.172   5.473  0.4100  0.0597 -0.5698
 5626SOL    HW228515   0.238   1.111   5.426 -1.7339  0.7393 -0.7400
 5627SOL     OW28516   1.244   1.731   3.534 -0.0011 -0.2830 -0.1105
 5627SOL    HW128517   1.285   1.800   3.587 -0.4333  0.6445 -0.9728
 5627SOL    HW228518   1.284   1.748   3.449  3.3325  0.3102  1.5722
 5628SOL     OW28519   2.058   4.667   6.361 -0.2312  0.2459 -0.4864
 5628SOL    HW128520   1.989   4.617   6.318 -0.8647  2.2575 -1.8383
 5628SOL    HW228521   2.066   4.633   6.450 -2.3749 -0.2585 -0.4708
 5629SOL     OW28522   3.704   2.535   6.414 -0.2478 -0.0055 -0.4402
 5629SOL    HW128523   3.707   2.630   6.425  2.0390 -0.2784  1.1772
 5629SOL    HW228524   3.798   2.529   6.431 -0.5644 -0.0143  1.2658
 5630SOL     OW28525   2.209   3.997   2.093 -0.5658 -0.4370  0.2491
 5630SOL    HW128526   2.149   4.029   2.160  1.7610 -1.4952  2.8458
 5630SOL    HW228527   2.278   3.978   2.157 -2.1759  0.5585  2.2986
 5631SOL     OW28528   2.838   2.690   9.934 -0.3761 -0.0240 -0.5031
 5631SOL    HW128529   2.849   2.734   9.849  0.0217  0.6161 -0.1165
 5631SOL    HW228530   2.825   2.601   9.903  0.7731  0.3280 -2.0587
 5632SOL     OW28531   0.519   4.539   2.151  0.1673  0.1617  0.0999
 5632SOL    HW128532   0.523   4.444   2.153  2.1235  0.2436  0.4693
 5632SOL    HW228533   0.529   4.566   2.243  1.1165  0.8208 -0.2016
 5633SOL     OW28534   2.006   3.559   8.701  0.4848  0.3952 -1.2309
 5633SOL    HW128535   1.971   3.604   8.624 -2.1330  1.2729  0.4811
 5633SOL    HW228536   2.041   3.480   8.661  1.3366 -1.6916  3.6149
 5634SOL     OW28537   4.041   3.105   8.614  0.2894  0.2429  0.6060
 5634SOL    HW128538   3.974   3.044   8.643 -0.8077  1.2988  0.3012
 5634SOL    HW228539   4.064   3.069   8.528  0.1849  2.1847 -0.2434
 5635SOL     OW28540   4.580   1.980   6.782 -0.0260  0.1541 -0.2566
 5635SOL    HW128541   4.578   2.074   6.766  1.0430  0.3798  0.9493
 5635SOL    HW228542   4.528   1.945   6.710 -1.1045 -0.0009  0.5936
 5636SOL     OW28543   2.152   2.033  10.268  0.4992  0.1044  0.8061
 5636SOL    HW128544   2.237   1.990  10.276  0.4975 -0.2527 -1.0351
 5636SOL    HW228545   2.163   2.103  10.203 -0.9421  0.0033  0.4427
 5637SOL     OW28546   1.597   3.078   8.904  0.0908 -0.3115 -0.3815
 5637SOL    HW128547   1.632   2.989   8.898 -1.6130 -0.8775 -1.7562
 5637SOL    HW228548   1.662   3.130   8.857  1.3539 -0.2881  1.3569
 5638SOL     OW28549   0.667   2.193  16.716 -0.6025  0.2836 -0.1611
 5638SOL    HW128550   0.648   2.241  16.796 -1.1321 -0.2784  0.0464
 5638SOL    HW228551   0.639   2.104  16.736 -0.8260  0.8256  1.9000
 5639SOL     OW28552   0.506   1.877   2.889  0.1751 -0.1012 -0.2121
 5639SOL    HW128553   0.459   1.912   2.814 -1.6289  0.1770  1.0379
 5639SOL    HW228554   0.487   1.784   2.879 -0.5574  0.1494 -1.1957
 5640SOL     OW28555   4.064   1.945  15.725 -0.1659  0.0802 -0.6141
 5640SOL    HW128556   4.139   2.003  15.714  0.3452 -0.3567  0.6035
 5640SOL    HW228557   4.101   1.876  15.780 -1.2513 -0.0456 -0.0350
 5641SOL     OW28558   2.217   0.174   1.584  0.4912 -0.2677  0.4509
 5641SOL    HW128559   2.242   0.266   1.590  1.6469 -0.6225  1.1150
 5641SOL    HW228560   2.152   0.176   1.514 -0.5916  2.2729  1.5649
 5642SOL     OW28561   0.749   1.704   5.951  0.8085 -0.3969  0.1210
 5642SOL    HW128562   0.685   1.643   5.990  0.2276  0.6354  0.7908
 5642SOL    HW228563   0.797   1.645   5.893  2.2874  1.0485 -0.1071
 5643SOL     OW28564   4.326   0.042   2.787  0.6716 -0.2512  0.0823
 5643SOL    HW128565   4.261   0.018   2.721  0.6658 -1.4055  0.4932
 5643SOL    HW228566   4.297   0.126   2.821 -2.2095 -1.0932 -0.2747
 5644SOL     OW28567   0.574   2.348  10.859  0.3165 -0.3733 -0.1052
 5644SOL    HW128568   0.482   2.320  10.868 -0.6895  2.7864 -0.8147
 5644SOL    HW228569   0.598   2.387  10.943 -0.0789 -1.9421  0.7368
 5645SOL     OW28570   2.147   0.883  17.718 -0.7394  0.3142  0.2119
 5645SOL    HW128571   2.130   0.910  17.628 -0.1886 -0.9091 -0.2593
 5645SOL    HW228572   2.067   0.897   0.029  0.2358  1.0810  1.5141
 5646SOL     OW28573   4.292   0.344  10.238  0.2449 -0.0692  0.1988
 5646SOL    HW128574   4.299   0.435  10.266 -0.9157 -0.2651  1.1274
 5646SOL    HW228575   4.203   0.324  10.268  0.1659 -1.4968 -1.0118
 5647SOL     OW28576   0.607   2.338   7.143 -0.0060 -0.0536 -0.0961
 5647SOL    HW128577   0.653   2.255   7.126 -1.5853 -0.8906 -0.2526
 5647SOL    HW228578   0.586   2.320   7.234 -1.0339  2.3924  0.1392
 5648SOL     OW28579   3.357   2.172   7.221  0.0956 -0.2458  0.0782
 5648SOL    HW128580   3.339   2.226   7.298 -0.3068  1.4565 -1.1984
 5648SOL    HW228581   3.274   2.128   7.204  0.8900 -2.2878  1.5328
 5649SOL     OW28582   1.619   2.699   2.986  0.3979 -0.2060 -0.4571
 5649SOL    HW128583   1.589   2.787   3.008 -0.7003 -0.8327  0.5465
 5649SOL    HW228584   1.660   2.731   2.906 -1.4337  0.1101 -1.2595
 5650SOL     OW28585   4.427   2.500   1.574 -0.2893  0.3762  0.4279
 5650SOL    HW128586   4.519   2.476   1.558 -0.6915 -1.5256  1.0649
 5650SOL    HW228587   4.401   2.443   1.646 -0.4595  0.6150  0.5548
 5651SOL     OW28588   1.196   0.597   0.539  0.1463 -0.0770 -0.1064
 5651SOL    HW128589   1.154   0.574   0.622 -1.3189 -1.2330 -1.1601
 5651SOL    HW228590   1.258   0.662   0.571  0.5121 -0.0027 -0.9545
 5652SOL     OW28591   1.465   1.446   6.774  0.3442  0.5491 -0.0987
 5652SOL    HW128592   1.473   1.395   6.693  1.5776 -1.4145  1.2391
 5652SOL    HW228593   1.460   1.381   6.845  0.9196 -1.5846 -1.9916
 5653SOL     OW28594   2.023   1.625  17.554  0.3667 -0.5588  0.0796
 5653SOL    HW128595   2.084   1.637  17.481 -0.4136  0.7129 -0.3613
 5653SOL    HW228596   1.939   1.637  17.508  0.1507 -1.3035  0.2858
 5654SOL     OW28597   1.657   3.707  17.562  0.3006 -0.2446 -0.4444
 5654SOL    HW128598   1.699   3.622  17.553  0.1676 -0.4356  0.6582
 5654SOL    HW228599   1.726   3.764  17.528 -0.0438  0.8226  0.6415
 5655SOL     OW28600   0.979   0.617  12.473  0.5963  0.1372 -0.4060
 5655SOL    HW128601   1.017   0.676  12.538  1.1587 -0.5935 -0.0685
 5655SOL    HW228602   1.001   0.534  12.515  2.1493  0.0859 -1.3325
 5656SOL     OW28603   3.158   2.846   4.290  0.2128  0.0014 -0.2816
 5656SOL    HW128604   3.078   2.863   4.340  0.7048  0.8516  0.2094
 5656SOL    HW228605   3.127   2.837   4.200  3.1844  1.0238 -1.4262
 5657SOL     OW28606   0.934   1.407  10.223  0.0854 -0.1104  0.7553
 5657SOL    HW128607   0.862   1.442  10.274 -1.5684 -1.2066 -0.8350
 5657SOL    HW228608   0.985   1.352  10.282 -0.3663 -0.1307  1.1279
 5658SOL     OW28609   3.126   2.094  12.717  0.3457 -0.4618 -0.0456
 5658SOL    HW128610   3.110   2.184  12.690  1.4198 -0.5443 -0.9489
 5658SOL    HW228611   3.035   2.075  12.740  0.3690 -0.4420  0.0631
 5659SOL     OW28612   1.732   1.676   4.779  0.0716 -0.4715 -0.3372
 5659SOL    HW128613   1.803   1.731   4.814 -0.3069 -1.1450  1.4922
 5659SOL    HW228614   1.656   1.725   4.810  1.2683  1.1323  0.0639
 5660SOL     OW28615   1.766   2.474   5.185  0.3798 -0.2687  0.0441
 5660SOL    HW128616   1.799   2.444   5.100 -2.4216 -0.4326 -1.0106
 5660SOL    HW228617   1.761   2.569   5.176 -0.6367 -0.4404 -1.2781
 5661SOL     OW28618   1.333   2.866   7.115  0.0528  0.3967  0.4742
 5661SOL    HW128619   1.257   2.861   7.172  1.0398  1.6796  1.8881
 5661SOL    HW228620   1.316   2.948   7.069  1.1126  0.1867 -0.2933
 5662SOL     OW28621   1.131   3.085   5.103 -0.3095 -0.1867 -0.0961
 5662SOL    HW128622   1.208   3.117   5.150 -0.3268 -0.1790 -0.0730
 5662SOL    HW228623   1.162   3.000   5.070  0.0770  0.3115 -1.0362
 5663SOL     OW28624   0.246   1.095   2.079  0.2301 -0.3515 -0.3618
 5663SOL    HW128625   0.305   1.166   2.053  0.8650 -0.7667 -0.0496
 5663SOL    HW228626   0.257   1.098   2.174 -0.7733  0.6640 -0.2911
 5664SOL     OW28627   1.216   0.628   8.147  0.5147  0.5212  0.1692
 5664SOL    HW128628   1.168   0.695   8.197  0.7934  0.5761  0.3626
 5664SOL    HW228629   1.234   0.574   8.223  2.4764  0.2567 -0.4902
 5665SOL     OW28630   3.784   0.565   0.030  0.1233 -0.0007  0.5527
 5665SOL    HW128631   3.739   0.642   0.065  0.6325  1.1997 -1.4732
 5665SOL    HW228632   3.738   0.503   0.087  0.6198 -1.1738 -0.3185
 5666SOL     OW28633   3.853   2.609   9.823  0.2713 -0.0048 -0.0296
 5666SOL    HW128634   3.812   2.695   9.815 -0.5026 -0.2577  1.2142
 5666SOL    HW228635   3.810   2.554   9.757 -2.1844 -0.0742  1.6077
 5667SOL     OW28636   2.644   3.721  11.378  0.3551  0.1354 -0.0591
 5667SOL    HW128637   2.712   3.770  11.423 -0.5162  0.2297  1.1529
 5667SOL    HW228638   2.574   3.716  11.443  0.4749  0.5578  0.1010
 5668SOL     OW28639   1.948   0.882   7.996 -0.8129 -0.3273 -0.0363
 5668SOL    HW128640   1.944   0.878   7.901 -1.9497 -2.7586  0.1320
 5668SOL    HW228641   1.952   0.790   8.023  0.9053 -0.1901  0.1445
 5669SOL     OW28642   4.018   1.398   4.271 -0.0463  0.7549 -0.4166
 5669SOL    HW128643   3.945   1.339   4.292  2.3017 -0.9823  2.8933
 5669SOL    HW228644   4.013   1.451   4.351 -0.7616 -2.1857  1.5058
 5670SOL     OW28645   1.558   4.512   0.178  0.1167 -0.3217  0.5253
 5670SOL    HW128646   1.551   4.545   0.267  0.8268 -2.3406  1.3328
 5670SOL    HW228647   1.567   4.417   0.187 -1.6072 -0.4284  1.2577
 5671SOL     OW28648   0.153   2.347   6.836 -0.4729  0.1482 -0.0162
 5671SOL    HW128649   0.105   2.408   6.892  0.0272  0.2028  0.3512
 5671SOL    HW228650   0.202   2.312   6.910 -0.6306 -0.4005 -0.1698
 5672SOL     OW28651   4.441   3.669   3.271 -0.1595  0.0723 -0.5271
 5672SOL    HW128652   4.468   3.759   3.290  2.9650 -0.3347 -3.0928
 5672SOL    HW228653   4.351   3.670   3.238 -0.2658  1.5969 -0.1922
 5673SOL     OW28654   1.950   2.635  17.398 -0.3503  0.1563 -0.2996
 5673SOL    HW128655   1.941   2.723  17.361 -0.1684 -0.6414 -2.2496
 5673SOL    HW228656   2.033   2.609  17.359  1.0659  1.8398  1.6589
 5674SOL     OW28657   3.967   3.694   6.242 -0.4628  0.2135 -0.7318
 5674SOL    HW128658   3.915   3.771   6.265 -1.9600 -0.7556 -0.8648
 5674SOL    HW228659   3.962   3.698   6.147  0.7681 -2.0359 -0.8964
 5675SOL     OW28660   2.044   3.444   8.382 -0.1933  0.4931 -0.2480
 5675SOL    HW128661   2.031   3.537   8.366  0.9929  0.5114 -1.0722
 5675SOL    HW228662   1.978   3.405   8.323  1.5032 -0.9916 -1.1617
 5676SOL     OW28663   1.835   3.363  11.059 -0.1693 -0.1942 -0.5244
 5676SOL    HW128664   1.822   3.457  11.053  1.9615  0.0547 -1.3931
 5676SOL    HW228665   1.834   3.341  10.966 -0.3347  1.4110 -0.8982
 5677SOL     OW28666   4.730   3.299   5.040  0.3681 -0.3954 -0.1864
 5677SOL    HW128667   0.071   3.253   5.073  0.2723 -0.2148  0.2832
 5677SOL    HW228668   4.713   3.378   5.091  2.7959  0.4710 -0.7422
 5678SOL     OW28669   1.482   2.695   5.688 -0.3270  0.0142 -0.1897
 5678SOL    HW128670   1.395   2.687   5.648 -0.4509 -3.5003  0.7856
 5678SOL    HW228671   1.459   2.680   5.780 -1.0356 -0.0533 -0.3738
 5679SOL     OW28672   3.685   4.473   8.568 -0.1622 -0.3640  0.3857
 5679SOL    HW128673   3.708   4.380   8.565 -0.6881 -0.5963  3.5850
 5679SOL    HW228674   3.590   4.470   8.580 -0.3464  0.0298 -0.9799
 5680SOL     OW28675   0.628   3.407   6.518 -0.8169  0.0512 -0.8782
 5680SOL    HW128676   0.643   3.401   6.612  0.1040  0.8045 -0.9799
 5680SOL    HW228677   0.691   3.352   6.471  0.4272  1.1038 -0.4439
 5681SOL     OW28678   1.355   3.329   5.500  0.1197  0.3269 -0.0239
 5681SOL    HW128679   1.269   3.301   5.468  0.4497  2.3023 -2.6267
 5681SOL    HW228680   1.378   3.246   5.542  0.3664 -0.4954 -1.7770
 5682SOL     OW28681   0.438   3.666   5.779 -0.7445  0.3757 -0.1703
 5682SOL    HW128682   0.417   3.601   5.847  1.6863  1.4647  1.6007
 5682SOL    HW228683   0.361   3.678   5.723 -0.9697 -2.5536 -0.5063
 5683SOL     OW28684   1.664   0.411   0.837  0.2922  0.1978  0.6021
 5683SOL    HW128685   1.752   0.373   0.841 -0.0977 -0.8745 -1.4084
 5683SOL    HW228686   1.614   0.331   0.856  0.1372  0.3745  0.9371
 5684SOL     OW28687   2.041   2.423   7.950  0.2225 -0.2460 -0.5242
 5684SOL    HW128688   2.076   2.393   7.866  1.4449 -1.3168  0.3690
 5684SOL    HW228689   2.003   2.342   7.985  2.9329 -1.6691 -0.9240
 5685SOL     OW28690   2.198   1.345   2.934 -0.1362  0.0913 -0.0137
 5685SOL    HW128691   2.265   1.378   2.994  0.2032 -3.6948  1.6612
 5685SOL    HW228692   2.136   1.313   3.000  2.4295  0.2056  2.4177
 5686SOL     OW28693   1.469   2.632   2.306  0.1849  0.6010  0.1370
 5686SOL    HW128694   1.420   2.551   2.292  1.7209 -0.2488 -0.2896
 5686SOL    HW228695   1.444   2.680   2.228 -1.7588  0.0822  0.4455
 5687SOL     OW28696   2.469   1.570   9.308  0.2879  0.2469 -0.5369
 5687SOL    HW128697   2.545   1.613   9.268  1.0127 -1.6414 -1.2214
 5687SOL    HW228698   2.508   1.504   9.365  0.2119  1.0260  0.4121
 5688SOL     OW28699   3.825   3.466   6.324 -0.8098 -0.2498 -0.3679
 5688SOL    HW128700   3.832   3.499   6.413 -0.6130  0.7246 -0.7395
 5688SOL    HW228701   3.840   3.546   6.273 -0.7783 -0.7469 -1.1469
 5689SOL     OW28702   1.272   1.593   4.297  0.0243 -0.0292  0.1559
 5689SOL    HW128703   1.341   1.653   4.329 -0.0783  0.2876 -0.2206
 5689SOL    HW228704   1.319   1.516   4.329 -1.2888 -1.3504 -1.1469
 5690SOL     OW28705   0.902   2.727  13.895 -0.0924  0.0476 -0.0373
 5690SOL    HW128706   0.922   2.638  13.926 -0.4001  0.9742  2.8486
 5690SOL    HW228707   0.956   2.721  13.816 -1.0552 -0.8940 -0.6144
 5691SOL     OW28708   4.659   2.362   1.417 -0.6540  0.1178 -0.2553
 5691SOL    HW128709   4.635   2.395   1.331  0.0263 -1.2181 -0.9569
 5691SOL    HW228710   4.700   2.280   1.390 -0.2996 -0.1463  1.0870
 5692SOL     OW28711   3.092   3.591   3.298 -0.2034 -0.0803 -0.3573
 5692SOL    HW128712   3.015   3.624   3.344  0.8656 -1.3155  2.2925
 5692SOL    HW228713   3.097   3.659   3.231 -0.4666  0.4532  0.1674
 5693SOL     OW28714   1.754   2.035   3.789 -0.3662  0.1826  0.2598
 5693SOL    HW128715   1.849   2.046   3.794 -0.2575 -0.9297  0.7737
 5693SOL    HW228716   1.738   2.077   3.705  1.0504 -0.5698 -0.3949
 5694SOL     OW28717   0.375   1.255  12.758  0.4232 -0.0152  0.1755
 5694SOL    HW128718   0.416   1.205  12.688 -0.9095  0.6580 -1.0874
 5694SOL    HW228719   0.296   1.292  12.719  1.4295  0.7855 -1.0743
 5695SOL     OW28720   0.188   2.706   2.117  0.2038  0.6048 -0.4518
 5695SOL    HW128721   0.180   2.756   2.036  0.6750 -0.0717 -0.9150
 5695SOL    HW228722   0.282   2.690   2.120 -0.0781 -0.6508  1.8266
 5696SOL     OW28723   0.355   1.577   3.688  0.2672 -0.5620 -0.4076
 5696SOL    HW128724   0.377   1.496   3.735 -1.1211 -0.3567  0.5874
 5696SOL    HW228725   0.287   1.617   3.743  1.0195  1.3114 -0.8437
 5697SOL     OW28726   1.662   2.902   9.774 -0.0556 -0.3681 -0.6966
 5697SOL    HW128727   1.676   2.964   9.703  1.1557 -0.3316 -0.4427
 5697SOL    HW228728   1.747   2.893   9.817 -0.2533  0.3658 -0.1535
 5698SOL     OW28729   3.613   2.825  13.702  0.5101  0.0625 -0.1820
 5698SOL    HW128730   3.621   2.747  13.648  2.3057 -0.6500  1.0808
 5698SOL    HW228731   3.573   2.887  13.641 -0.4802 -0.1561  0.2593
 5699SOL     OW28732   0.126   3.827  10.293  0.3387  0.1593  0.3879
 5699SOL    HW128733   0.074   3.792  10.221  1.3299 -0.6728  0.0762
 5699SOL    HW228734   0.139   3.746  10.343  2.7501 -1.4023 -2.7662
 5700SOL     OW28735   3.674   2.190   0.340  0.6893 -0.4034 -0.0391
 5700SOL    HW128736   3.734   2.238   0.282 -0.9273  2.5656  0.7102
 5700SOL    HW228737   3.675   2.241   0.421 -1.3241 -1.3314  0.5572
 5701SOL     OW28738   1.528   4.262   5.185 -0.3512 -0.0277 -0.2482
 5701SOL    HW128739   1.446   4.312   5.178 -0.1523  0.1697 -1.2204
 5701SOL    HW228740   1.497   4.180   5.224 -0.0354 -0.4975 -0.9868
 5702SOL     OW28741   2.823   0.554   8.042 -0.4757 -0.2315  0.2068
 5702SOL    HW128742   2.768   0.484   8.005  0.7402 -0.0575 -1.9377
 5702SOL    HW228743   2.905   0.540   7.994 -0.9622  0.5228 -0.8585
 5703SOL     OW28744   4.481   2.289   2.360 -0.2997 -0.0320  0.6397
 5703SOL    HW128745   4.397   2.289   2.314  0.7883  2.1668 -1.3505
 5703SOL    HW228746   4.477   2.371   2.409 -0.0825  0.3237  0.0708
 5704SOL     OW28747   2.816   3.772  16.490 -0.2149 -0.1648  0.3821
 5704SOL    HW128748   2.744   3.765  16.553 -0.0882 -0.9978  0.4347
 5704SOL    HW228749   2.812   3.866  16.472 -1.0932 -0.0192  1.3470
 5705SOL     OW28750   3.149   1.518   5.871 -0.3859  0.4319 -0.2105
 5705SOL    HW128751   3.084   1.488   5.934 -1.2189 -1.3664 -1.9239
 5705SOL    HW228752   3.176   1.605   5.901 -0.7460  0.2363  0.6924
 5706SOL     OW28753   2.046   4.282   1.649  0.5578 -0.1224 -0.3108
 5706SOL    HW128754   2.128   4.262   1.604  0.1073 -0.0942 -1.1303
 5706SOL    HW228755   1.982   4.271   1.579  1.8730  2.6207 -1.9292
 5707SOL     OW28756   3.915   2.412   3.718  0.3383 -0.7068 -0.2957
 5707SOL    HW128757   3.835   2.464   3.724  1.0043  0.3138 -0.1516
 5707SOL    HW228758   3.985   2.471   3.746  0.8415 -1.7415  0.6256
 5708SOL     OW28759   0.539   0.811   5.243  0.0206  0.2016  0.2275
 5708SOL    HW128760   0.530   0.822   5.148 -1.3484 -1.5839  0.1524
 5708SOL    HW228761   0.593   0.732   5.244  2.3836  1.8252  1.1252
 5709SOL     OW28762   1.892   3.840   3.070  0.6635  0.4937 -0.0574
 5709SOL    HW128763   1.819   3.874   3.122  0.1876  0.1561 -0.4968
 5709SOL    HW228764   1.964   3.820   3.129  0.4912 -0.6526 -0.2265
 5710SOL     OW28765   2.524   3.995  12.182 -0.5626  0.0925  0.1405
 5710SOL    HW128766   2.600   4.026  12.232  1.6227 -2.0264 -1.8210
 5710SOL    HW228767   2.543   4.020  12.091 -2.2049  0.6772 -0.0410
 5711SOL     OW28768   2.769   4.630   3.081 -0.3629 -0.5578  0.2672
 5711SOL    HW128769   2.765   4.562   3.013  0.5708 -0.7926  0.4463
 5711SOL    HW228770   2.861   4.639   3.108  0.2381  0.3737 -2.1341
 5712SOL     OW28771   3.687   3.858   5.662 -0.2489 -0.1509  0.2889
 5712SOL    HW128772   3.599   3.883   5.693 -0.8717 -0.1126 -1.5039
 5712SOL    HW228773   3.702   3.767   5.688  0.3870 -0.4543 -1.1899
 5713SOL     OW28774   1.283   0.142   6.320  0.3610  0.2683 -0.1978
 5713SOL    HW128775   1.335   0.120   6.397 -0.1857 -1.0905 -0.2134
 5713SOL    HW228776   1.355   0.161   6.260  0.1998  1.2971 -0.0684
 5714SOL     OW28777   0.878   2.126   7.189  0.0953 -0.2752 -0.3492
 5714SOL    HW128778   0.959   2.076   7.180 -0.6013 -0.7602 -3.9128
 5714SOL    HW228779   0.900   2.219   7.191 -0.5815 -0.1268  0.1073
 5715SOL     OW28780   2.864   2.264   7.076 -0.4213 -0.0292  0.2832
 5715SOL    HW128781   2.894   2.296   7.161 -1.7599  0.3856  0.5907
 5715SOL    HW228782   2.792   2.204   7.094 -0.3822 -0.0019  0.5257
 5716SOL     OW28783   2.812   3.189   6.126  0.2152  0.2517 -0.1493
 5716SOL    HW128784   2.822   3.095   6.111 -0.6415  0.2261 -0.5664
 5716SOL    HW228785   2.716   3.182   6.124  0.2293 -0.1893  0.8601
 5717SOL     OW28786   3.542   1.333   6.155  0.0240 -0.1895  0.1086
 5717SOL    HW128787   3.471   1.340   6.092  0.9185  0.4927 -0.8162
 5717SOL    HW228788   3.536   1.420   6.195 -1.0084 -0.1506 -0.1126
 5718SOL     OW28789   2.677   1.690   9.159 -0.0336  0.4628 -0.0945
 5718SOL    HW128790   2.727   1.768   9.183  0.1925 -0.0974  1.2404
 5718SOL    HW228791   2.745   1.626   9.141 -0.4646 -0.2294  0.7335
 5719SOL     OW28792   2.412   1.752  10.996  0.2499 -0.2211 -0.7411
 5719SOL    HW128793   2.336   1.801  11.030 -0.1736  0.0360 -2.0683
 5719SOL    HW228794   2.390   1.659  10.998  1.1644 -0.3409  2.9777
 5720SOL     OW28795   2.421   0.852   4.366  0.7991 -0.3757 -0.0462
 5720SOL    HW128796   2.467   0.935   4.378 -1.6713  1.0477 -0.3075
 5720SOL    HW228797   2.446   0.814   4.450 -2.1193  0.2541  1.1163
 5721SOL     OW28798   1.289   3.682   2.774  0.6823  0.2603  0.0948
 5721SOL    HW128799   1.339   3.675   2.693 -0.7895 -1.9798 -0.6210
 5721SOL    HW228800   1.208   3.639   2.747  1.3183 -0.4299 -0.7162
 5722SOL     OW28801   2.875   1.357   6.921 -0.0506  0.0048  0.0829
 5722SOL    HW128802   2.822   1.425   6.879  0.6211  0.8907  0.6737
 5722SOL    HW228803   2.924   1.427   6.964  0.8598 -0.5384 -0.0696
 5723SOL     OW28804   4.697   3.940   2.984  0.2903 -0.7740 -0.0212
 5723SOL    HW128805   4.717   3.924   3.076  1.5546 -1.7362 -0.4744
 5723SOL    HW228806   4.670   4.032   2.990  2.0742 -0.2413 -0.2328
 5724SOL     OW28807   1.688   0.881   4.369 -0.1350  0.3821  0.5283
 5724SOL    HW128808   1.635   0.917   4.299 -0.3490  0.4545  0.7277
 5724SOL    HW228809   1.652   0.792   4.364 -0.7549  0.6159  0.9051
 5725SOL     OW28810   4.711   3.087  10.615  0.2325 -0.5270 -0.2022
 5725SOL    HW128811   4.665   3.061  10.694  0.4717  0.6914  0.3327
 5725SOL    HW228812   4.638   3.133  10.574  1.4361  1.2779 -0.3176
 5726SOL     OW28813   4.502   3.918   2.140 -0.0908  0.0867  0.5298
 5726SOL    HW128814   4.489   3.931   2.046  0.1447  0.9700  0.6235
 5726SOL    HW228815   4.499   3.823   2.153  1.2447 -0.1368 -0.7635
 5727SOL     OW28816   3.771   0.297   4.494 -0.3955 -0.3248 -0.0484
 5727SOL    HW128817   3.726   0.367   4.445  1.8599  1.0425 -0.1390
 5727SOL    HW228818   3.700   0.270   4.553  1.4576 -1.6410  1.5509
 5728SOL     OW28819   2.438   0.802   3.300 -0.2173  0.3206  0.4747
 5728SOL    HW128820   2.387   0.880   3.325  0.3479  1.6610 -2.5138
 5728SOL    HW228821   2.459   0.826   3.210 -1.1568  0.3958  0.2766
 5729SOL     OW28822   3.335   3.803   9.924  0.6312 -0.1615  0.3670
 5729SOL    HW128823   3.303   3.754   9.999  1.3865  1.7226  1.9264
 5729SOL    HW228824   3.260   3.833   9.872 -1.4307 -1.7319  2.4364
 5730SOL     OW28825   3.314   0.574   9.649  0.8745 -0.0623  0.3798
 5730SOL    HW128826   3.389   0.553   9.704  0.6239 -2.2333 -0.0905
 5730SOL    HW228827   3.331   0.664   9.624  1.2184 -0.2390 -0.0267
 5731SOL     OW28828   0.466   4.599   1.218  0.0727  0.1811 -0.3146
 5731SOL    HW128829   0.495   4.677   1.265 -0.7395 -0.6236  1.5333
 5731SOL    HW228830   0.516   4.592   1.137 -0.5081 -1.0080 -0.5747
 5732SOL     OW28831   0.201   1.060  14.387 -0.3828  0.2023 -0.5248
 5732SOL    HW128832   0.173   1.048  14.477 -0.5329 -1.0031 -0.7325
 5732SOL    HW228833   0.270   0.995  14.380 -1.7628 -1.1341 -1.7647
 5733SOL     OW28834   3.360   1.071  14.185 -0.2488 -0.1071  0.5386
 5733SOL    HW128835   3.393   0.982  14.185  0.1721  0.0592 -0.7221
 5733SOL    HW228836   3.346   1.090  14.278 -2.0514  2.9967 -0.3308
 5734SOL     OW28837   0.110   0.456  12.317 -0.3572 -0.1449 -0.3671
 5734SOL    HW128838   0.169   0.531  12.317  1.3799 -1.5140 -1.0111
 5734SOL    HW228839   0.029   0.506  12.306 -0.6428 -0.5353 -0.0324
 5735SOL     OW28840   0.750   3.536   3.745  0.5393 -0.1019  0.2780
 5735SOL    HW128841   0.824   3.549   3.803  1.8248 -0.8945 -1.1973
 5735SOL    HW228842   0.777   3.583   3.666  1.0181  0.1476  0.5934
 5736SOL     OW28843   1.624   2.349   3.255 -0.2094  0.2014  0.4042
 5736SOL    HW128844   1.641   2.431   3.301  0.6460 -1.7182  3.5548
 5736SOL    HW228845   1.539   2.322   3.289 -0.8336  1.6467 -0.0323
 5737SOL     OW28846   0.273   1.621   1.836 -0.5715  0.7188 -0.2082
 5737SOL    HW128847   0.230   1.683   1.895  1.5379  0.7756  1.2808
 5737SOL    HW228848   0.261   1.648   1.745  0.7568 -1.1692 -0.9479
 5738SOL     OW28849   1.945   3.388  10.589 -0.2446 -0.2979 -0.2955
 5738SOL    HW128850   1.985   3.419  10.670  0.5294  0.6967 -1.0505
 5738SOL    HW228851   1.871   3.340  10.625 -0.3083 -0.7424 -1.0091
 5739SOL     OW28852   3.816   2.713   2.215  0.2448 -0.8050 -0.4395
 5739SOL    HW128853   3.730   2.747   2.238  1.1418  0.3189  1.3184
 5739SOL    HW228854   3.773   2.655   2.152  0.0248  0.5371 -1.5220
 5740SOL     OW28855   2.596   3.368  14.759 -0.3363  0.8378  0.2987
 5740SOL    HW128856   2.604   3.274  14.749 -2.1197  0.4978  2.0921
 5740SOL    HW228857   2.504   3.375  14.785 -0.6718 -1.0563 -0.3671
 5741SOL     OW28858   1.169   3.602   8.650 -0.8623  0.0790 -0.0303
 5741SOL    HW128859   1.160   3.682   8.597 -2.6988 -0.7425 -0.9872
 5741SOL    HW228860   1.123   3.627   8.731 -0.3305  1.8227 -0.2591
 5742SOL     OW28861   4.093   2.149   6.772  0.1129 -0.1617 -0.1553
 5742SOL    HW128862   4.117   2.076   6.828 -0.9362 -0.8995 -0.6682
 5742SOL    HW228863   4.049   2.206   6.836  0.7384  2.6378 -2.2117
 5743SOL     OW28864   2.540   3.656   9.662  0.1430  0.7674 -0.2847
 5743SOL    HW128865   2.550   3.568   9.624  0.2311  1.4196 -1.7372
 5743SOL    HW228866   2.479   3.626   9.729  2.1758 -0.3849  1.0731
 5744SOL     OW28867   0.299   0.185   5.845 -0.3264 -0.2792 -0.0243
 5744SOL    HW128868   0.242   0.120   5.805 -2.9712  0.2967  2.7876
 5744SOL    HW228869   0.231   0.244   5.877  0.3174  0.7938 -0.6277
 5745SOL     OW28870   4.089   4.064   8.224  0.3538 -0.1372  0.5458
 5745SOL    HW128871   4.054   3.986   8.180  2.5434 -1.2594  0.8164
 5745SOL    HW228872   4.162   4.040   8.280  0.4742  1.6869  1.1768
 5746SOL     OW28873   2.280   3.408   5.908 -0.6384 -0.0343 -0.1261
 5746SOL    HW128874   2.197   3.453   5.890 -0.7463 -0.6733 -1.2483
 5746SOL    HW228875   2.266   3.313   5.912  1.2236 -0.2341  1.6564
 5747SOL     OW28876   0.787   2.528   3.009 -0.2347  0.4935 -0.3154
 5747SOL    HW128877   0.819   2.514   3.098  0.9504 -1.1948 -0.9947
 5747SOL    HW228878   0.734   2.606   3.023 -0.6187  0.0556  0.6385
 5748SOL     OW28879   4.178   2.814   4.623  0.4981 -0.1090 -0.0678
 5748SOL    HW128880   4.122   2.886   4.595 -0.3010 -0.5417  0.4114
 5748SOL    HW228881   4.160   2.806   4.717  1.0812  0.6034  0.1081
 5749SOL     OW28882   2.774   3.854  17.503 -0.1557  0.3383 -0.3487
 5749SOL    HW128883   2.694   3.894  17.470  0.1456  1.0480 -0.2226
 5749SOL    HW228884   2.807   3.925  17.559  1.4555 -0.9037  0.2965
 5750SOL     OW28885   3.808   4.317  16.613 -0.3231  0.8413  0.4086
 5750SOL    HW128886   3.884   4.266  16.585 -0.1980  1.1440  0.1984
 5750SOL    HW228887   3.832   4.328  16.705 -0.4588 -0.4635  0.6041
 5751SOL     OW28888   0.238   4.541   8.553 -0.2585  0.1982  0.3948
 5751SOL    HW128889   0.173   4.543   8.623 -0.6052 -2.7462  0.1640
 5751SOL    HW228890   0.237   4.446   8.540 -1.3497  0.7189 -3.2398
 5752SOL     OW28891   0.798   0.377   2.143  0.7629  0.1040  0.1421
 5752SOL    HW128892   0.709   0.348   2.163  0.3987  0.2832 -1.1869
 5752SOL    HW228893   0.791   0.408   2.053 -0.5262  2.5370  1.0905
 5753SOL     OW28894   2.195   1.257   3.929  0.2423 -0.1955 -0.5290
 5753SOL    HW128895   2.119   1.269   3.872 -1.7522 -0.8276  2.0064
 5753SOL    HW228896   2.238   1.342   3.917 -0.5695  0.1971 -0.6674
 5754SOL     OW28897   2.756   0.489   7.437 -0.2614 -0.7129  0.3456
 5754SOL    HW128898   2.707   0.452   7.510  0.3686  2.3908  2.3086
 5754SOL    HW228899   2.691   0.548   7.399  2.0393  0.8318 -1.1849
 5755SOL     OW28900   2.632   3.911   0.880  0.1218 -0.4084  0.1550
 5755SOL    HW128901   2.704   3.939   0.938 -0.1840  2.6806 -0.9461
 5755SOL    HW228902   2.659   3.940   0.792 -1.3264  1.4301  0.3124
 5756SOL     OW28903   4.679   0.753   2.650 -1.1407  0.1013  0.1810
 5756SOL    HW128904   4.607   0.691   2.635 -1.0517  0.0608 -0.0921
 5756SOL    HW228905   4.621   0.829   2.656 -2.4920 -0.7520 -2.2534
 5757SOL     OW28906   4.272   0.413   7.019  0.3118 -0.0525 -0.5203
 5757SOL    HW128907   4.268   0.318   7.024 -0.0276 -0.1056 -1.7226
 5757SOL    HW228908   4.204   0.436   7.082  0.6622  0.5827 -0.3665
 5758SOL     OW28909   3.372   2.971   6.955 -0.2588 -0.7567 -0.1936
 5758SOL    HW128910   3.412   2.925   7.029 -0.6754 -0.1679  0.4020
 5758SOL    HW228911   3.381   3.062   6.985  0.1549 -0.2184 -1.9414
 5759SOL     OW28912   0.228   2.448   6.582  0.1048 -0.0886  0.6002
 5759SOL    HW128913   0.205   2.403   6.663  1.2106 -0.4591  0.7107
 5759SOL    HW228914   0.284   2.379   6.546  0.6231  1.9718 -2.5719
 5760SOL     OW28915   4.668   0.312   3.192 -0.0436 -0.2670  0.0070
 5760SOL    HW128916   0.000   0.356   3.243 -0.8081  0.4996  0.3702
 5760SOL    HW228917   4.690   0.339   3.103  0.7910 -0.0097  0.2929
 5761SOL     OW28918   2.574   3.558  16.133 -0.5466  0.0783  0.2444
 5761SOL    HW128919   2.619   3.617  16.194  1.1702  0.2562 -1.1900
 5761SOL    HW228920   2.522   3.623  16.086 -3.4155 -1.2730  1.5842
 5762SOL     OW28921   2.304   1.929  16.687 -0.1144 -0.0371  0.0550
 5762SOL    HW128922   2.313   1.915  16.593 -0.2452 -0.7568  0.1519
 5762SOL    HW228923   2.254   2.010  16.689 -0.0251  0.0090  0.5861
 5763SOL     OW28924   2.765   3.475   9.295 -0.5049  0.8790 -0.3623
 5763SOL    HW128925   2.734   3.421   9.222  0.6779  0.8357 -0.8322
 5763SOL    HW228926   2.765   3.566   9.265 -1.1112  1.2631  0.8171
 5764SOL     OW28927   2.780   0.918   0.827 -0.3308  0.0976 -0.2982
 5764SOL    HW128928   2.788   0.860   0.902 -0.4343  0.0983 -0.2869
 5764SOL    HW228929   2.806   0.860   0.755  0.0166 -0.3495  0.1923
 5765SOL     OW28930   1.524   4.071   3.408  0.0619  0.9584  0.3549
 5765SOL    HW128931   1.577   4.009   3.358  3.3405  3.9827 -0.0091
 5765SOL    HW228932   1.576   4.079   3.488  1.7488  0.4488 -0.6870
 5766SOL     OW28933   4.201   3.758   9.873  0.7093 -0.1005  0.0047
 5766SOL    HW128934   4.156   3.713   9.944 -0.4823  0.7293 -0.2193
 5766SOL    HW228935   4.146   3.721   9.804  2.3724  1.1333 -1.9957
 5767SOL     OW28936   1.515   1.912   8.400 -0.2539 -0.3756  0.0360
 5767SOL    HW128937   1.602   1.882   8.426  0.4540  1.6364 -0.0650
 5767SOL    HW228938   1.472   1.828   8.381 -1.4008  0.3788 -0.6538
 5768SOL     OW28939   4.222   1.313  11.181 -0.1570 -0.3069  0.4529
 5768SOL    HW128940   4.286   1.384  11.194  1.3112 -1.5514  0.0085
 5768SOL    HW228941   4.247   1.265  11.260  0.6326  0.5038  0.6974
 5769SOL     OW28942   1.017   2.170  13.336  0.1197  0.3875 -0.2228
 5769SOL    HW128943   0.987   2.094  13.285  3.0843 -1.8625  1.4086
 5769SOL    HW228944   0.944   2.231  13.347  0.9597  1.2052  0.7329
 5770SOL     OW28945   2.401   2.675  17.055 -0.5210 -0.0058  0.0960
 5770SOL    HW128946   2.487   2.647  17.087 -1.6280 -0.3855  2.7195
 5770SOL    HW228947   2.429   2.708  16.969  0.4755 -0.4816  0.2442
 5771SOL     OW28948   1.467   2.227   7.600  0.3161  0.0501 -0.0812
 5771SOL    HW128949   1.428   2.313   7.582  0.0803  0.5339  2.6722
 5771SOL    HW228950   1.384   2.179   7.593  0.6815 -0.7329  0.9482
 5772SOL     OW28951   0.209   3.519  11.931  0.0032 -0.0020 -0.3185
 5772SOL    HW128952   0.221   3.560  11.846  2.9523  1.1740  0.6564
 5772SOL    HW228953   0.225   3.427  11.910  0.3719  0.2001 -0.9199
 5773SOL     OW28954   0.923   0.844  17.705  0.1440  0.1496  0.3179
 5773SOL    HW128955   0.972   0.839  17.623  0.7480  0.4400  0.6602
 5773SOL    HW228956   0.893   0.754  17.711 -0.4938  0.4007  0.9857
 5774SOL     OW28957   3.048   2.312  12.100 -0.3237 -0.3218 -0.0910
 5774SOL    HW128958   3.006   2.244  12.047 -0.6713  2.4969 -3.4440
 5774SOL    HW228959   3.058   2.385  12.038 -1.8797  0.8697  1.0823
 5775SOL     OW28960   1.371   1.246   7.520  0.3170  0.1428  0.1066
 5775SOL    HW128961   1.308   1.193   7.568  0.6804 -0.0966  0.3202
 5775SOL    HW228962   1.378   1.322   7.578  0.5761  1.6388 -1.8597
 5776SOL     OW28963   4.205   4.072  11.971 -0.0743  0.4042 -0.2560
 5776SOL    HW128964   4.149   4.044  12.044 -0.3247  2.7639  0.4844
 5776SOL    HW228965   4.290   4.039  12.000 -0.4427 -0.4718 -0.1957
 5777SOL     OW28966   3.666   3.226   3.283  0.7602  0.0111  0.2871
 5777SOL    HW128967   3.680   3.186   3.369  1.9340  0.9170  0.5241
 5777SOL    HW228968   3.573   3.248   3.280  0.8451  0.1687 -1.0450
 5778SOL     OW28969   0.644   0.308   8.283 -0.2717 -0.4083 -0.1516
 5778SOL    HW128970   0.557   0.341   8.306  0.6556  2.2413 -0.4545
 5778SOL    HW228971   0.627   0.287   8.191  1.0084  1.6130 -0.8502
 5779SOL     OW28972   1.066   2.655   8.825 -0.5221 -0.4672 -0.3366
 5779SOL    HW128973   1.157   2.639   8.847 -0.3475  0.7269 -0.2209
 5779SOL    HW228974   1.072   2.644   8.730 -1.2707 -1.4139 -0.2823
 5780SOL     OW28975   0.588   3.248  13.476 -0.5657 -0.3632 -0.7616
 5780SOL    HW128976   0.676   3.221  13.502 -1.3158 -1.4989  0.5840
 5780SOL    HW228977   0.582   3.205  13.391 -0.1986 -0.3995 -0.7703
 5781SOL     OW28978   4.289   4.432   2.715  0.1920  0.2304  0.1157
 5781SOL    HW128979   4.194   4.438   2.727  0.3823  0.0384  1.7345
 5781SOL    HW228980   4.311   4.350   2.759 -1.7785  0.2802  1.1880
 5782SOL     OW28981   2.045   1.515   6.380  0.1188 -0.0159 -0.0435
 5782SOL    HW128982   2.106   1.477   6.317 -0.6768 -0.0348 -0.8151
 5782SOL    HW228983   2.059   1.609   6.365  0.0732 -0.2833 -1.7232
 5783SOL     OW28984   3.780   2.147  11.780 -0.1980 -0.8588 -0.3461
 5783SOL    HW128985   3.693   2.176  11.805  0.2918  0.4683 -0.1499
 5783SOL    HW228986   3.822   2.142  11.866  0.6288  1.1175 -0.6245
 5784SOL     OW28987   0.641   2.452   2.792  0.6253  0.4131 -0.2937
 5784SOL    HW128988   0.662   2.365   2.826  1.6619 -0.5629 -3.3873
 5784SOL    HW228989   0.667   2.501   2.870 -1.8265  1.2779 -0.0128
 5785SOL     OW28990   4.511   0.274   1.529  0.0341 -0.1122 -0.6170
 5785SOL    HW128991   4.520   0.346   1.592 -4.1884 -0.0435 -0.1220
 5785SOL    HW228992   4.595   0.228   1.527 -0.3255 -0.7241 -1.3827
 5786SOL     OW28993   4.313   1.218   2.730 -0.0822  0.0679 -0.1660
 5786SOL    HW128994   4.276   1.291   2.780  1.5696  1.2503 -0.6908
 5786SOL    HW228995   4.232   1.168   2.727 -0.3490  0.4530  0.4819
 5787SOL     OW28996   0.605   0.453  10.388  0.2765 -0.3935 -0.1378
 5787SOL    HW128997   0.578   0.434  10.299 -1.0461  0.0537  0.1725
 5787SOL    HW228998   0.578   0.545  10.389 -1.2243 -0.8231 -1.3185
 5788SOL     OW28999   3.103   4.003   3.483 -0.0021 -0.4135 -0.3263
 5788SOL    HW129000   3.150   4.032   3.561  3.0668  0.6016 -2.5150
 5788SOL    HW229001   3.083   3.916   3.517  0.9503 -0.0347  1.2087
 5789SOL     OW29002   3.444   2.097  17.725  0.1523  0.1769  0.1989
 5789SOL    HW129003   3.420   2.115   0.075 -1.0641 -0.6649  0.0442
 5789SOL    HW229004   3.404   2.010  17.716  0.5887  0.0868 -0.9304
 5790SOL     OW29005   3.061   0.396   4.411 -0.0921  0.3435  0.8157
 5790SOL    HW129006   3.001   0.469   4.397 -0.9521 -0.3523  0.8105
 5790SOL    HW229007   3.061   0.350   4.327  2.1488  1.9976 -0.0860
 5791SOL     OW29008   0.541   4.651   7.211 -0.0267 -0.1673  0.0892
 5791SOL    HW129009   0.615   4.700   7.177  0.5233 -0.5721  0.6964
 5791SOL    HW229010   0.567   4.562   7.186  1.4010  0.2851 -0.0141
 5792SOL     OW29011   2.279   2.655   8.504 -0.6250  0.1473 -0.2577
 5792SOL    HW129012   2.339   2.612   8.566 -0.9360 -1.6998 -1.2311
 5792SOL    HW229013   2.211   2.680   8.566 -1.4131 -1.9402 -0.2759
 5793SOL     OW29014   2.676   2.933   0.456 -0.3493 -0.6230 -0.2041
 5793SOL    HW129015   2.676   3.015   0.506  1.8504 -0.2728 -0.7816
 5793SOL    HW229016   2.598   2.894   0.495 -1.2915 -0.1886 -1.6622
 5794SOL     OW29017   0.879   4.335   0.320 -0.9373  0.1515  0.3902
 5794SOL    HW129018   0.912   4.357   0.407  0.1468  0.1736 -0.0294
 5794SOL    HW229019   0.842   4.247   0.331 -2.1251  0.6781  0.5129
 5795SOL     OW29020   3.059   0.169   8.874 -0.4896  0.6073  0.1015
 5795SOL    HW129021   3.109   0.111   8.816  0.2125  1.3304 -0.0325
 5795SOL    HW229022   3.130   0.211   8.923  1.5902 -1.9517 -0.7525
 5796SOL     OW29023   3.000   1.824   7.648  0.4090  0.4101  0.2999
 5796SOL    HW129024   3.076   1.774   7.677  0.3500  0.9522  1.4048
 5796SOL    HW229025   2.922   1.778   7.679  0.5359 -0.7251 -1.0918
 5797SOL     OW29026   0.673   3.066   1.368 -0.2499  0.3055  0.1507
 5797SOL    HW129027   0.730   2.991   1.385 -3.2181 -1.8757  0.5168
 5797SOL    HW229028   0.739   3.123   1.329  0.4911 -1.1961 -0.7910
 5798SOL     OW29029   3.339   3.013  13.929 -0.1920 -0.7067 -0.6197
 5798SOL    HW129030   3.328   3.103  13.961  4.7359  0.1107 -1.3136
 5798SOL    HW229031   3.335   3.017  13.833  0.5570  0.3716 -0.6051
 5799SOL     OW29032   3.094   4.020  11.475  0.1045 -0.1142 -0.2554
 5799SOL    HW129033   3.152   4.032  11.399  1.7483  1.5147  1.2421
 5799SOL    HW229034   3.138   4.079  11.537 -0.1805 -0.4089  0.2236
 5800SOL     OW29035   3.970   2.516  17.174  0.1457  0.4969 -0.4810
 5800SOL    HW129036   3.949   2.609  17.183 -1.8672 -0.1223  1.3368
 5800SOL    HW229037   4.051   2.524  17.125  1.1785 -3.1510  0.6087
 5801SOL     OW29038   1.256   3.897   6.795  0.4466  0.1454  0.1251
 5801SOL    HW129039   1.173   3.882   6.839  0.7835  0.6145  0.9362
 5801SOL    HW229040   1.246   3.990   6.776  0.4820  0.5706  2.1126
 5802SOL     OW29041   3.980   4.367  16.276 -0.0450  0.7602  0.4285
 5802SOL    HW129042   4.019   4.282  16.297 -0.1227  0.2694 -1.3973
 5802SOL    HW229043   3.946   4.336  16.192  2.5512 -0.3427 -0.2269
 5803SOL     OW29044   3.659   2.408   8.914  0.0946 -0.5092 -0.5466
 5803SOL    HW129045   3.700   2.327   8.944  0.6145  0.1695  0.5696
 5803SOL    HW229046   3.708   2.481   8.952 -1.6532 -1.0134  2.6589
 5804SOL     OW29047   4.712   4.185   3.795 -0.8856 -0.1322 -0.7522
 5804SOL    HW129048   4.629   4.215   3.756 -0.1265  2.6132 -0.2533
 5804SOL    HW229049   4.677   4.170   3.883  1.0916  0.7776  0.1788
 5805SOL     OW29050   0.299   4.274   9.664 -0.4065  0.0727 -0.4058
 5805SOL    HW129051   0.282   4.191   9.707 -0.7404 -0.2363 -1.1413
 5805SOL    HW229052   0.330   4.255   9.576 -1.4592 -0.3177 -0.6926
 5806SOL     OW29053   2.457   4.310   9.547  0.1053 -0.3796 -0.5713
 5806SOL    HW129054   2.539   4.355   9.567  0.2917 -1.6094  1.4001
 5806SOL    HW229055   2.460   4.227   9.593  1.1013 -0.3261 -0.5422
 5807SOL     OW29056   2.962   0.427   3.985  0.5813  0.0937  0.1912
 5807SOL    HW129057   2.898   0.479   4.034 -2.7554 -1.2954 -2.7149
 5807SOL    HW229058   2.909   0.397   3.911 -0.4539  0.0908  0.9229
 5808SOL     OW29059   3.883   0.375   8.810 -0.0341 -0.1406 -1.2224
 5808SOL    HW129060   3.864   0.286   8.838 -0.3203 -0.0032 -0.9698
 5808SOL    HW229061   3.975   0.368   8.785  0.1736  2.8940 -1.3105
 5809SOL     OW29062   1.524   3.009  11.810  0.1912  0.4185  0.4959
 5809SOL    HW129063   1.492   3.060  11.884 -0.3252 -1.1746  1.3816
 5809SOL    HW229064   1.617   3.026  11.823  0.7520 -0.7998 -1.9089
 5810SOL     OW29065   3.501   2.737   5.327  0.1526  0.3971  0.0868
 5810SOL    HW129066   3.472   2.781   5.247 -1.0042 -0.7454 -0.1028
 5810SOL    HW229067   3.588   2.771   5.351  0.0268  3.3843 -3.5239
 5811SOL     OW29068   1.078   1.819   2.675 -0.0541  0.1585  0.0125
 5811SOL    HW129069   1.133   1.812   2.597  1.3307  0.6099  0.9340
 5811SOL    HW229070   1.057   1.730   2.701 -2.2004  1.2988  2.1456
 5812SOL     OW29071   3.707   3.172   5.848  0.5122 -0.3150 -0.9023
 5812SOL    HW129072   3.615   3.198   5.855  1.1899  1.3488  1.8641
 5812SOL    HW229073   3.728   3.187   5.756 -0.8067  1.7054 -0.8875
 5813SOL     OW29074   3.557   2.788   5.029  0.2792  0.0092  0.4314
 5813SOL    HW129075   3.569   2.793   4.935  2.4342  1.7013  0.7905
 5813SOL    HW229076   3.600   2.706   5.053  0.9103  0.1905 -0.0844
 5814SOL     OW29077   0.301   4.082   3.523  0.0806 -0.1880 -0.7883
 5814SOL    HW129078   0.242   4.148   3.557 -1.2489 -1.1875 -1.1533
 5814SOL    HW229079   0.264   4.001   3.559 -0.8771  0.6935  0.2014
 5815SOL     OW29080   2.501   0.375  13.506  0.7121 -0.7600 -0.4099
 5815SOL    HW129081   2.420   0.388  13.457 -0.0563  0.9287  1.2890
 5815SOL    HW229082   2.524   0.285  13.485  1.6463 -0.3132 -1.3348
 5816SOL     OW29083   0.320   2.485   0.946 -0.3112 -0.3311  0.3532
 5816SOL    HW129084   0.316   2.404   0.996  0.0456 -0.0629  0.8189
 5816SOL    HW229085   0.413   2.469   0.937 -0.6568 -1.3400 -1.4138
 5817SOL     OW29086   3.427   4.629  16.497  0.2710  0.2413 -0.5625
 5817SOL    HW129087   3.414   4.538  16.523  1.0996  0.7826  1.7790
 5817SOL    HW229088   3.513   4.632  16.538  0.2779  2.6780 -0.7414
 5818SOL     OW29089   2.364   0.258  15.395 -0.3324 -0.2145  0.5708
 5818SOL    HW129090   2.335   0.215  15.314  1.1633  0.4999 -0.3377
 5818SOL    HW229091   2.456   0.276  15.378 -0.0770 -0.7948  1.3411
 5819SOL     OW29092   1.895   2.078   8.785 -0.3534  0.9316 -0.0729
 5819SOL    HW129093   1.975   2.026   8.785 -0.4585  0.7713 -0.3341
 5819SOL    HW229094   1.868   2.058   8.874  0.6122  2.2642  0.5132
 5820SOL     OW29095   2.922   2.270   8.336 -0.3888  0.4769 -0.1831
 5820SOL    HW129096   2.904   2.344   8.277  2.0871  1.5575  0.4254
 5820SOL    HW229097   2.887   2.287   8.423  0.2669 -0.2710  0.2305
 5821SOL     OW29098   0.935   0.035  11.801 -0.1572 -0.0334 -0.1936
 5821SOL    HW129099   0.877   4.715  11.853 -1.7132  1.3167 -0.5103
 5821SOL    HW229100   0.988   4.696  11.773 -1.7208 -0.7063 -1.3469
 5822SOL     OW29101   1.288   1.296   4.991  0.0925 -0.0960 -0.2691
 5822SOL    HW129102   1.270   1.203   4.974 -0.1480  0.1032 -1.1013
 5822SOL    HW229103   1.371   1.283   5.037  0.6477  2.8698 -0.4428
 5823SOL     OW29104   3.531   2.596   4.468 -0.3263 -0.0629 -0.5508
 5823SOL    HW129105   3.568   2.511   4.492 -0.0792  0.7094  1.8043
 5823SOL    HW229106   3.591   2.626   4.400 -0.0693 -2.7802 -1.5586
 5824SOL     OW29107   0.439   1.937   8.406 -0.5187  0.9237 -0.7926
 5824SOL    HW129108   0.346   1.938   8.383 -0.1924 -2.3916 -2.1333
 5824SOL    HW229109   0.447   2.025   8.444 -1.7900  0.8838 -0.4215
 5825SOL     OW29110   4.103   2.111   6.288  0.0480  0.2465  0.8594
 5825SOL    HW129111   4.185   2.064   6.276  0.8862  0.9775  3.8106
 5825SOL    HW229112   4.043   2.036   6.287 -0.9340  1.0703 -1.5025
 5826SOL     OW29113   2.248   3.413  13.184 -0.1074  0.5492 -0.6408
 5826SOL    HW129114   2.217   3.421  13.274 -1.0872 -4.4985 -0.5481
 5826SOL    HW229115   2.169   3.440  13.137  0.2048 -0.1359 -1.5631
 5827SOL     OW29116   2.189   4.004   5.524  0.1431 -0.5245  0.3026
 5827SOL    HW129117   2.153   3.999   5.612 -0.9289 -1.2224 -0.1771
 5827SOL    HW229118   2.109   4.000   5.472 -0.1715 -0.9791  0.8327
 5828SOL     OW29119   0.695   0.091   7.805  0.2034 -0.4798  0.0351
 5828SOL    HW129120   0.659   0.051   7.884 -1.4815  1.8752  0.4565
 5828SOL    HW229121   0.787   0.075   7.823 -0.3769  0.1572  3.5333
 5829SOL     OW29122   0.176   0.481  13.537 -0.0313 -0.1749  0.3490
 5829SOL    HW129123   0.123   0.560  13.548 -2.2194 -1.4572 -0.9717
 5829SOL    HW229124   0.110   0.411  13.539  1.3497 -1.4501  0.8438
 5830SOL     OW29125   3.764   1.963  10.087  0.1301  0.2416  0.1921
 5830SOL    HW129126   3.857   1.962  10.109 -0.0198  1.1627  0.8972
 5830SOL    HW229127   3.723   1.981  10.172 -0.8660 -0.2807 -0.1734
 5831SOL     OW29128   0.312   4.464  12.565 -0.1843  0.1634 -0.6653
 5831SOL    HW129129   0.299   4.523  12.639  2.4033 -0.6992  0.4904
 5831SOL    HW229130   0.291   4.379  12.603  1.5917  0.0469  0.0689
 5832SOL     OW29131   2.480   3.698  10.286 -0.3653  0.1755  0.4198
 5832SOL    HW129132   2.462   3.619  10.235 -2.0409  1.2840 -0.7008
 5832SOL    HW229133   2.503   3.749  10.208  0.1317 -0.0189  0.4386
 5833SOL     OW29134   0.587   3.365   7.124 -0.1222 -0.2521  0.4096
 5833SOL    HW129135   0.508   3.347   7.175 -1.8697  0.8275 -1.9164
 5833SOL    HW229136   0.562   3.311   7.049  1.1673  2.1967 -1.7779
 5834SOL     OW29137   0.536   1.844  12.509  0.0976  0.5055  0.5508
 5834SOL    HW129138   0.614   1.800  12.475  0.4239 -0.1720  2.1643
 5834SOL    HW229139   0.571   1.926  12.543 -0.2200  0.7794  0.2204
 5835SOL     OW29140   3.161   1.933   9.894  0.1009  0.1793 -0.2990
 5835SOL    HW129141   3.152   1.868   9.963 -1.0783 -0.4039 -0.9849
 5835SOL    HW229142   3.143   2.012   9.945  2.2892 -1.5011  3.0089
 5836SOL     OW29143   4.126   4.106   7.896  0.3419 -0.1843 -0.2669
 5836SOL    HW129144   4.107   4.095   7.989 -2.5778  2.4654 -0.5506
 5836SOL    HW229145   4.049   4.153   7.865 -0.2681 -0.8911  0.1865
 5837SOL     OW29146   4.517   3.481   2.502 -0.2225 -0.4040  0.4053
 5837SOL    HW129147   4.553   3.570   2.504 -1.2625  0.0260 -0.2763
 5837SOL    HW229148   4.569   3.423   2.558  0.2103 -0.5975 -0.1949
 5838SOL     OW29149   0.328   3.362   7.225  0.2939  0.3983 -0.0465
 5838SOL    HW129150   0.282   3.279   7.211 -1.4859  1.3073  0.3970
 5838SOL    HW229151   0.320   3.364   7.321 -2.3778 -2.0528 -0.2014
 5839SOL     OW29152   2.788   3.496   4.771  0.9063 -0.3027  0.3375
 5839SOL    HW129153   2.869   3.507   4.721  0.2967  4.7386  0.4313
 5839SOL    HW229154   2.734   3.573   4.753 -0.4938 -1.8578 -2.0082
 5840SOL     OW29155   2.986   0.829   3.429 -0.3093 -0.3126 -0.0717
 5840SOL    HW129156   3.063   0.862   3.382 -0.6993 -1.7039 -1.6819
 5840SOL    HW229157   2.944   0.910   3.456  3.6634  1.8472 -0.3601
 5841SOL     OW29158   2.195   4.342   7.683 -0.0134  0.1547 -0.0942
 5841SOL    HW129159   2.243   4.261   7.697 -0.3129  0.0104  0.0961
 5841SOL    HW229160   2.122   4.294   7.644  0.3670 -0.4787 -0.0274
 5842SOL     OW29161   3.483   0.788   8.759  0.2517  0.3860  0.6644
 5842SOL    HW129162   3.419   0.723   8.787  0.1321 -0.3096 -1.1887
 5842SOL    HW229163   3.418   0.857   8.745 -0.8323 -1.0635 -1.5605
 5843SOL     OW29164   3.838   0.365   7.752  0.0464 -0.0800 -0.8663
 5843SOL    HW129165   3.782   0.364   7.675  1.7379 -1.0488 -2.0877
 5843SOL    HW229166   3.824   0.275   7.784 -2.3126  1.0305  1.2326
 5844SOL     OW29167   1.719   1.795  17.064  0.0231 -0.3833 -0.3739
 5844SOL    HW129168   1.750   1.758  16.982 -0.0549  2.1227 -1.5486
 5844SOL    HW229169   1.782   1.867  17.079 -1.1113  0.3461  0.9113
 5845SOL     OW29170   0.277   2.574   0.162 -0.1326  0.1285  0.0300
 5845SOL    HW129171   0.196   2.616   0.189 -0.3667  0.0594 -0.5708
 5845SOL    HW229172   0.331   2.644   0.126  0.7054 -0.2586  0.5187
 5846SOL     OW29173   3.990   4.198   4.911  0.6642  0.2096 -0.2142
 5846SOL    HW129174   4.054   4.135   4.880  0.9516  0.8221 -0.8534
 5846SOL    HW229175   4.029   4.233   4.991 -0.7538 -1.9466  1.4088
 5847SOL     OW29176   0.682   4.440  17.328  0.3978 -0.2012 -0.4636
 5847SOL    HW129177   0.664   4.374  17.395 -0.5409 -0.8007 -1.3118
 5847SOL    HW229178   0.600   4.433  17.279  0.1689  2.9434 -0.5649
 5848SOL     OW29179   3.810   0.937   6.127 -0.5302 -0.9373  1.2479
 5848SOL    HW129180   3.839   0.928   6.218 -0.5525 -0.4159  1.3074
 5848SOL    HW229181   3.729   0.985   6.147 -0.6237 -1.0738  1.1969
 5849SOL     OW29182   0.442   3.889   2.667 -0.4484  0.8155  0.1441
 5849SOL    HW129183   0.511   3.955   2.673 -1.0083  1.2603  1.7362
 5849SOL    HW229184   0.491   3.808   2.684 -0.4080  0.4477 -1.7085
 5850SOL     OW29185   3.720   3.180   3.542  0.0399  0.2271  0.0048
 5850SOL    HW129186   3.811   3.209   3.553 -0.1565  0.6033  0.6712
 5850SOL    HW229187   3.669   3.248   3.586  0.3743  1.2364 -1.1645
 5851SOL     OW29188   4.030   0.030   1.081 -0.1563  0.0529 -0.6501
 5851SOL    HW129189   4.069   0.049   0.995 -0.7931 -0.0992 -0.9751
 5851SOL    HW229190   4.110   0.008   1.127 -0.1482  0.3211 -0.5387
 5852SOL     OW29191   2.088   3.480  17.492  0.0414  0.3853 -0.1080
 5852SOL    HW129192   2.121   3.392  17.478  0.0064  0.4120 -0.3610
 5852SOL    HW229193   2.113   3.527  17.412 -3.5815 -0.1886 -1.5705
 5853SOL     OW29194   1.083   4.130   6.240 -0.0510 -0.1876  0.0570
 5853SOL    HW129195   1.165   4.084   6.220 -0.0823 -0.7848  1.2575
 5853SOL    HW229196   1.035   4.139   6.158 -2.2152 -1.1935  1.2180
 5854SOL     OW29197   3.887   2.825   3.765 -0.1600 -0.4958 -0.1466
 5854SOL    HW129198   3.903   2.841   3.672  0.8973 -3.2346 -0.4186
 5854SOL    HW229199   3.964   2.778   3.798  1.5444  2.4042  0.0226
 5855SOL     OW29200   4.388   4.677  16.669 -0.3642  0.2418  0.3559
 5855SOL    HW129201   4.370   0.023  16.715  0.6801  1.0893 -0.7791
 5855SOL    HW229202   4.483   4.667  16.669 -0.1173  2.5847  1.2801
 5856SOL     OW29203   2.855   1.068   5.005  0.0460  0.1752  0.1900
 5856SOL    HW129204   2.828   1.033   4.920  0.8047 -2.2612  0.9817
 5856SOL    HW229205   2.769   1.086   5.043 -0.4297  0.8326 -1.1906
 5857SOL     OW29206   1.767   1.475   6.697 -0.4079 -0.2303  0.4139
 5857SOL    HW129207   1.845   1.526   6.719  1.0552 -0.2277 -4.7521
 5857SOL    HW229208   1.719   1.469   6.779  1.2809 -2.5713  1.2257
 5858SOL     OW29209   0.088   0.125   4.738  0.2703 -0.4460 -0.8367
 5858SOL    HW129210   0.151   0.131   4.667 -1.4327  1.1706 -2.2191
 5858SOL    HW229211   0.043   0.046   4.711  0.1446 -0.1690 -1.4295
 5859SOL     OW29212   1.044   3.799   5.087 -0.4021  0.2630  0.6931
 5859SOL    HW129213   0.996   3.716   5.089 -1.5269  0.9294  1.4141
 5859SOL    HW229214   0.975   3.865   5.092  0.4270  1.3163 -1.8071
 5860SOL     OW29215   2.169   2.810   6.023 -0.0631 -0.7816 -0.3379
 5860SOL    HW129216   2.178   2.773   6.111  0.7221  0.7483  0.2207
 5860SOL    HW229217   2.263   2.824   6.011 -0.0362 -1.0040 -0.3907
 5861SOL     OW29218   0.458   3.991   4.874  0.0697  0.1818  0.4815
 5861SOL    HW129219   0.400   4.049   4.923  1.5131  1.8397  0.2525
 5861SOL    HW229220   0.456   3.914   4.930 -0.3421 -0.8959 -1.0073
 5862SOL     OW29221   2.427   1.219  11.922 -0.3494  0.2416  0.5923
 5862SOL    HW129222   2.440   1.134  11.880  1.4810  0.5468  0.5406
 5862SOL    HW229223   2.333   1.238  11.920 -0.6527 -1.4164 -1.6103
 5863SOL     OW29224   1.221   1.479   3.457 -0.0566 -0.0362 -0.3022
 5863SOL    HW129225   1.227   1.568   3.491 -0.0168 -0.0693 -0.2229
 5863SOL    HW229226   1.141   1.444   3.497 -0.9328 -0.1704 -2.1177
 5864SOL     OW29227   3.075   1.740   8.459 -0.3807 -0.4473  0.0477
 5864SOL    HW129228   3.089   1.672   8.525 -0.9793  2.9986  3.7294
 5864SOL    HW229229   3.063   1.685   8.381 -0.3325 -0.5524  0.1146
 5865SOL     OW29230   2.423   3.301  14.440 -0.1727 -0.2516 -0.0749
 5865SOL    HW129231   2.442   3.232  14.504  1.6361  0.2024 -0.1141
 5865SOL    HW229232   2.377   3.254  14.371 -1.4631  0.7856  0.0858
 5866SOL     OW29233   2.158   1.270   9.404 -0.3587  0.2559  0.1308
 5866SOL    HW129234   2.133   1.335   9.469  2.2775  1.6635 -0.2568
 5866SOL    HW229235   2.193   1.198   9.458  0.4834 -0.9197 -1.9960
 5867SOL     OW29236   2.122   0.803  15.561  0.4119  0.1595  0.0884
 5867SOL    HW129237   2.127   0.792  15.656  1.9934 -1.0841 -0.1439
 5867SOL    HW229238   2.128   0.898  15.568  2.3850 -0.0075  0.5061
 5868SOL     OW29239   0.488   3.113  16.906 -0.2658  0.4681 -0.2220
 5868SOL    HW129240   0.469   3.194  16.859 -2.5543  1.3204  2.2350
 5868SOL    HW229241   0.437   3.114  16.986  0.7558  2.7162  0.3887
 5869SOL     OW29242   2.901   0.083  11.987  0.0496  0.3020 -0.2397
 5869SOL    HW129243   2.973   0.131  11.946 -1.7104  1.4136 -2.0369
 5869SOL    HW229244   2.888   0.144  12.060 -0.1209 -1.3282  1.1029
 5870SOL     OW29245   4.157   2.130   3.871  0.7762 -0.2177 -0.9648
 5870SOL    HW129246   4.226   2.064   3.882 -1.1513 -2.1384 -0.4277
 5870SOL    HW229247   4.195   2.188   3.805  1.9788 -0.3108 -0.3467
 5871SOL     OW29248   1.279   3.548   4.905  0.2849 -0.1336  0.3795
 5871SOL    HW129249   1.227   3.525   4.982 -1.4384  2.1204 -0.1310
 5871SOL    HW229250   1.324   3.465   4.891  0.5720  0.5298 -2.5693
 5872SOL     OW29251   1.601   0.404  10.986 -0.0107 -0.2897  0.4069
 5872SOL    HW129252   1.524   0.388  11.040 -1.9533  0.9274 -1.9644
 5872SOL    HW229253   1.608   0.327  10.930  1.8047  1.3681 -1.6580
 5873SOL     OW29254   4.663   1.158   3.328 -0.1945 -0.6809 -0.5118
 5873SOL    HW129255   4.652   1.090   3.261 -1.5547 -0.3474 -0.6127
 5873SOL    HW229256   4.718   1.219   3.277 -2.2954  1.7267  0.1346
 5874SOL     OW29257   2.628   2.271   6.398 -0.7648 -0.1228 -0.0914
 5874SOL    HW129258   2.667   2.304   6.317 -0.0504 -1.3335 -0.2463
 5874SOL    HW229259   2.693   2.315   6.453  0.0294 -0.3929 -0.8030
 5875SOL     OW29260   0.927   4.377  14.290 -0.1132  0.1123 -0.3234
 5875SOL    HW129261   0.921   4.399  14.197  1.1611  0.7172 -0.2569
 5875SOL    HW229262   0.930   4.466  14.325 -0.3560 -1.0850  2.7448
 5876SOL     OW29263   0.362   1.209   1.134 -0.0850  0.1789  0.5414
 5876SOL    HW129264   0.442   1.259   1.151  0.0298 -0.0496  0.6746
 5876SOL    HW229265   0.326   1.253   1.057 -0.2432 -0.2069  0.3962
 5877SOL     OW29266   2.975   1.493  16.884  0.0341 -0.0262  0.2680
 5877SOL    HW129267   2.910   1.537  16.940 -1.4348 -1.3694 -0.3892
 5877SOL    HW229268   2.942   1.490  16.795 -0.6155  0.3056  0.4974
 5878SOL     OW29269   1.515   0.773  14.179 -0.5133  0.6154  0.3533
 5878SOL    HW129270   1.425   0.803  14.166 -0.6346  0.6646  1.3398
 5878SOL    HW229271   1.550   0.781  14.090  0.6339 -4.3439  0.3344
 5879SOL     OW29272   4.424   1.557  17.200  0.0252  0.1948 -0.0774
 5879SOL    HW129273   4.476   1.529  17.276 -2.3663  1.3483  1.9757
 5879SOL    HW229274   4.363   1.615  17.246 -1.3946 -1.4350  0.1000
 5880SOL     OW29275   0.600   2.246   6.824  0.4382 -0.0617  0.6546
 5880SOL    HW129276   0.514   2.210   6.845 -0.3747  0.2992 -2.0706
 5880SOL    HW229277   0.617   2.298   6.903  1.1125  0.3863  0.2137
 5881SOL     OW29278   2.427   0.983   5.552  0.2812 -0.1199  0.5444
 5881SOL    HW129279   2.412   0.975   5.458  0.5079  0.9176  0.4162
 5881SOL    HW229280   2.350   1.032   5.578 -0.3534 -1.2412  0.7807
 5882SOL     OW29281   0.498   1.865  13.688  0.4477 -0.3007  0.6754
 5882SOL    HW129282   0.487   1.787  13.743  1.7397 -1.4137 -0.6265
 5882SOL    HW229283   0.422   1.861  13.629 -0.4850 -1.2627  1.9472
 5883SOL     OW29284   0.074   4.150   5.232 -0.2529  0.1569 -0.3634
 5883SOL    HW129285   0.067   4.203   5.311  2.3288  0.1637 -0.1117
 5883SOL    HW229286   0.012   4.200   5.179  0.7936 -0.1410 -1.8782
 5884SOL     OW29287   0.133   3.155  14.734  0.3449 -0.8156 -0.0876
 5884SOL    HW129288   0.071   3.172  14.805  0.1064 -0.5903 -0.3501
 5884SOL    HW229289   0.093   3.094  14.671  0.2206 -1.3777  0.5324
 5885SOL     OW29290   1.199   1.234  12.985  0.4822 -0.0674  0.0538
 5885SOL    HW129291   1.265   1.274  12.928 -0.5603  1.5830 -0.0051
 5885SOL    HW229292   1.198   1.144  12.951 -0.6600  0.0977 -0.3548
 5886SOL     OW29293   4.403   0.411   4.988  0.4279 -0.1212 -0.5036
 5886SOL    HW129294   4.310   0.436   4.989  0.8778  1.5640 -2.0318
 5886SOL    HW229295   4.427   0.461   5.066 -1.9675  0.6976 -0.2813
 5887SOL     OW29296   1.107   0.182  17.634  0.3187  0.4672 -0.7465
 5887SOL    HW129297   1.095   0.258  17.692  0.7554  0.0448 -0.1009
 5887SOL    HW229298   1.196   0.206  17.610  0.0335  0.4222 -1.8358
 5888SOL     OW29299   3.861   1.714   6.453 -0.1108 -0.6052 -0.2001
 5888SOL    HW129300   3.915   1.754   6.385  1.0440  2.4366  2.4841
 5888SOL    HW229301   3.778   1.762   6.448  0.2500  0.1481  0.9876
 5889SOL     OW29302   1.197   0.377   0.383 -0.3484  0.2818 -0.4913
 5889SOL    HW129303   1.200   0.303   0.444 -2.3279 -1.5389 -2.6553
 5889SOL    HW229304   1.169   0.443   0.446 -1.6762  1.7182 -2.6064
 5890SOL     OW29305   0.395   2.123   7.673  0.1516  0.4362 -0.2464
 5890SOL    HW129306   0.468   2.061   7.683  1.8831  2.5251  0.1203
 5890SOL    HW229307   0.366   2.117   7.582  1.9015 -0.5679 -0.7365
 5891SOL     OW29308   1.459   4.032   2.048 -0.4634 -0.1354  0.2012
 5891SOL    HW129309   1.467   4.069   1.960 -1.3775 -1.7294 -0.5548
 5891SOL    HW229310   1.377   3.983   2.039 -0.0515 -1.0096  1.2544
 5892SOL     OW29311   1.915   1.148  14.740  0.3830  0.3056  0.1599
 5892SOL    HW129312   2.007   1.150  14.714  0.3824  1.7427  0.3029
 5892SOL    HW229313   1.888   1.059  14.715  1.0041  0.8284 -2.3439
 5893SOL     OW29314   3.000   0.305   6.472  0.0913  0.2601  0.0120
 5893SOL    HW129315   2.981   0.247   6.399 -0.8935  0.9973 -0.3282
 5893SOL    HW229316   2.909   0.329   6.492 -0.2679 -1.3517  0.3006
 5894SOL     OW29317   3.984   2.038   8.187 -0.0317  0.3881  0.4406
 5894SOL    HW129318   3.934   2.103   8.135 -0.3116  1.4869  2.0852
 5894SOL    HW229319   4.005   1.964   8.131  1.7733  1.8438 -0.8106
 5895SOL     OW29320   1.318   2.924   7.634 -0.4115  0.6802 -0.6303
 5895SOL    HW129321   1.404   2.962   7.652 -0.7610  0.6966  0.9288
 5895SOL    HW229322   1.301   2.933   7.540  0.1010 -0.5281 -0.8337
 5896SOL     OW29323   3.837   4.164   5.492  0.4613  0.3439  0.1624
 5896SOL    HW129324   3.742   4.173   5.492  0.5612  1.3203 -1.1592
 5896SOL    HW229325   3.862   4.247   5.452  2.1971 -0.6659 -0.8467
 5897SOL     OW29326   1.931   4.439   1.852  0.4900  0.1469 -0.4279
 5897SOL    HW129327   1.845   4.398   1.841  0.2054  0.5690  0.2519
 5897SOL    HW229328   1.984   4.380   1.798  0.7774  1.3541 -1.4737
 5898SOL     OW29329   1.341   2.800  11.986  0.4173 -0.3846  0.1377
 5898SOL    HW129330   1.284   2.868  11.949  0.1241 -0.1760  0.9768
 5898SOL    HW229331   1.426   2.842  11.994 -0.2368  0.4923  2.4888
 5899SOL     OW29332   1.884   3.490  15.627  0.0231 -0.0049  0.8943
 5899SOL    HW129333   1.824   3.496  15.553  0.4409  1.1113  0.6409
 5899SOL    HW229334   1.946   3.430  15.585 -0.7219 -1.1668  1.4592
 5900SOL     OW29335   4.695   1.859   1.317  0.0214  0.3164 -0.1631
 5900SOL    HW129336   4.638   1.782   1.309 -1.4270  1.4824 -1.2159
 5900SOL    HW229337   4.630   1.926   1.293 -0.8656 -0.6218 -0.3870
 5901SOL     OW29338   4.612   2.908   4.003 -0.1340 -0.0705  0.3374
 5901SOL    HW129339   4.668   2.861   4.065  0.0897 -0.5310 -0.2140
 5901SOL    HW229340   4.649   2.996   4.007 -1.3225  0.4184  0.6612
 5902SOL     OW29341   2.219   0.551  10.268  0.3967  0.2101  0.9540
 5902SOL    HW129342   2.184   0.462  10.268  1.7528 -0.3385 -0.1192
 5902SOL    HW229343   2.153   0.607  10.309  0.3827  0.8965  0.0093
 5903SOL     OW29344   2.160   3.088  14.593 -0.3394 -0.1926 -0.4803
 5903SOL    HW129345   2.094   3.126  14.535  1.9273  1.6717 -1.8289
 5903SOL    HW229346   2.144   3.131  14.676  2.2453  0.9086 -0.5486
 5904SOL     OW29347   4.247   0.257  16.394  0.0028  0.0286 -0.5496
 5904SOL    HW129348   4.233   0.164  16.374  2.7079 -0.5783  0.3916
 5904SOL    HW229349   4.154   0.281  16.390  0.5398  2.0295 -0.9634
 5905SOL     OW29350   3.301   2.639   7.972 -0.0330  0.3450 -0.1676
 5905SOL    HW129351   3.212   2.623   8.006  0.0810 -0.7762 -0.4059
 5905SOL    HW229352   3.278   2.707   7.909  1.2165 -0.8871 -1.9254
 5906SOL     OW29353   0.576   0.841   5.697  0.0094  0.0446  0.2687
 5906SOL    HW129354   0.513   0.772   5.718  0.7595 -0.6703  0.1717
 5906SOL    HW229355   0.614   0.808   5.616 -0.7792 -0.0037 -0.0811
 5907SOL     OW29356   3.133   1.636   0.450 -0.3236 -0.2034 -0.1064
 5907SOL    HW129357   3.089   1.650   0.534  0.9354 -1.5240  0.7693
 5907SOL    HW229358   3.079   1.569   0.407 -1.1593 -0.4490  1.3191
 5908SOL     OW29359   2.905   2.619   5.981 -0.5359  0.0474 -1.0037
 5908SOL    HW129360   2.971   2.651   6.043 -1.4112 -3.1388  1.5885
 5908SOL    HW229361   2.951   2.549   5.935  2.4019  1.5888 -0.4751
 5909SOL     OW29362   1.954   4.589   7.695  0.0418 -0.0278  0.1363
 5909SOL    HW129363   1.906   4.510   7.669 -0.2513  0.2081 -0.0505
 5909SOL    HW229364   2.038   4.548   7.716 -0.6507 -0.9264  1.1344
 5910SOL     OW29365   1.997   4.121   6.034 -0.0723 -0.3380  0.2217
 5910SOL    HW129366   2.081   4.135   6.077  0.2371  0.1832 -0.5504
 5910SOL    HW229367   1.969   4.036   6.070 -1.5016 -1.1575 -2.8785
 5911SOL     OW29368   2.607   2.879   8.885 -0.1311 -0.0354 -0.1947
 5911SOL    HW129369   2.568   2.907   8.802 -0.5194  0.2804  0.0936
 5911SOL    HW229370   2.544   2.921   8.944 -1.2279 -2.0804  0.0862
 5912SOL     OW29371   2.582   4.077  16.180  0.2386 -0.8321 -0.0943
 5912SOL    HW129372   2.641   4.056  16.252  1.2726 -1.0925 -0.9964
 5912SOL    HW229373   2.535   4.146  16.226  0.9534  0.0595 -0.6848
 5913SOL     OW29374   3.331   4.493  10.917 -0.3263 -0.4137  0.3966
 5913SOL    HW129375   3.393   4.515  10.848 -1.1112  0.2451 -0.0937
 5913SOL    HW229376   3.276   4.571  10.924  0.7617  0.2645  1.4929
 5914SOL     OW29377   2.989   3.753   1.641 -0.3447 -0.1255  0.3111
 5914SOL    HW129378   3.010   3.702   1.563  1.4917  0.0409  0.6970
 5914SOL    HW229379   3.078   3.776   1.668 -0.3031 -2.0561  1.8653
 5915SOL     OW29380   0.380   2.409   5.650 -0.4696  0.1978  0.4590
 5915SOL    HW129381   0.415   2.437   5.566  3.8733 -4.1139  0.9016
 5915SOL    HW229382   0.339   2.324   5.632  0.8870 -0.5701  1.0264
 5916SOL     OW29383   2.041   1.738   0.315  0.0357  0.2406 -0.3968
 5916SOL    HW129384   2.007   1.721   0.227  0.9971 -1.2082 -0.4865
 5916SOL    HW229385   1.992   1.816   0.342 -0.5652 -0.7214  1.2832
 5917SOL     OW29386   0.670   2.144   8.741 -0.2927 -0.1177 -0.2607
 5917SOL    HW129387   0.684   2.236   8.762  1.6391  0.1453 -2.7466
 5917SOL    HW229388   0.761   2.115   8.735 -0.5514 -1.2245  1.0545
 5918SOL     OW29389   2.595   4.641   5.736  0.4864  0.2847  0.3464
 5918SOL    HW129390   2.544   4.560   5.745  1.1767 -0.3168 -1.2667
 5918SOL    HW229391   2.524   4.696   5.701  1.2302  1.2069  0.2904
 5919SOL     OW29392   2.474   4.667   9.758 -0.3311 -0.1728 -0.1747
 5919SOL    HW129393   2.561   4.708   9.754 -0.0962 -0.5586  0.8469
 5919SOL    HW229394   2.495   4.577   9.784  0.5628 -0.0597 -0.4977
 5920SOL     OW29395   1.317   1.779   7.984  0.0790  0.3405 -0.0775
 5920SOL    HW129396   1.382   1.717   7.951  0.0056 -0.4945  1.3032
 5920SOL    HW229397   1.325   1.753   8.076  0.4120  0.0138 -0.2003
 5921SOL     OW29398   3.482   3.082   7.923  0.1213  0.1983  0.1388
 5921SOL    HW129399   3.453   3.162   7.967 -1.1219  0.1057 -0.5186
 5921SOL    HW229400   3.400   3.035   7.937  0.4267 -0.6947 -1.0034
 5922SOL     OW29401   0.242   3.121   2.762  0.2280  1.0525 -0.2376
 5922SOL    HW129402   0.337   3.129   2.760  0.0593  3.0585  0.4816
 5922SOL    HW229403   0.246   3.034   2.802  0.5627  0.4129 -1.6562
 5923SOL     OW29404   0.935   0.800   7.558  0.6576 -0.4354  0.2502
 5923SOL    HW129405   0.995   0.780   7.486 -0.8805 -2.2580 -0.5395
 5923SOL    HW229406   0.902   0.711   7.571 -0.2361 -0.1685 -0.2589
 5924SOL     OW29407   3.743   1.473   0.051 -0.0532 -0.0134  0.2974
 5924SOL    HW129408   3.773   1.544  17.736  0.5031  0.4579  1.1901
 5924SOL    HW229409   3.699   1.420  17.726  1.2393 -0.6188 -0.0822
 5925SOL     OW29410   4.311   0.474  11.452  0.2852 -0.3283 -0.2724
 5925SOL    HW129411   4.361   0.399  11.484 -3.7318 -2.3562  1.2626
 5925SOL    HW229412   4.382   0.538  11.458 -0.1481  0.2246 -0.8796
 5926SOL     OW29413   2.232   0.453   1.507  0.3226  0.2894 -0.1845
 5926SOL    HW129414   2.268   0.486   1.424 -2.3229  1.6958 -0.7800
 5926SOL    HW229415   2.300   0.485   1.566  0.9761  1.7447 -1.7063
 5927SOL     OW29416   3.095   3.904  10.134  0.4421  0.0958 -0.0893
 5927SOL    HW129417   3.003   3.924  10.149  0.0311 -1.2556 -0.8036
 5927SOL    HW229418   3.101   3.809  10.142 -1.5024  0.0589  0.7276
 5928SOL     OW29419   0.826   1.641   8.773  0.4322  0.2485 -0.7393
 5928SOL    HW129420   0.907   1.675   8.812 -1.2207  0.9692  2.1323
 5928SOL    HW229421   0.816   1.561   8.825  0.3648  0.6044 -0.1988
 5929SOL     OW29422   3.698   3.215  17.087 -0.2209  0.1894  0.0800
 5929SOL    HW129423   3.695   3.135  17.139 -0.8736 -0.7585 -1.4386
 5929SOL    HW229424   3.606   3.231  17.066 -0.3582 -1.3623 -0.4701
 5930SOL     OW29425   2.144   4.478   3.577 -0.3281 -0.5985 -1.1868
 5930SOL    HW129426   2.220   4.499   3.632 -1.1629 -0.2905 -0.1599
 5930SOL    HW229427   2.155   4.533   3.499  0.4356  1.3801  0.3138
 5931SOL     OW29428   2.214   3.712   2.403  0.2424  0.1216  0.0051
 5931SOL    HW129429   2.131   3.687   2.361 -0.3395  0.6499  0.8618
 5931SOL    HW229430   2.272   3.636   2.408 -1.0247 -0.8269  0.5356
 5932SOL     OW29431   0.489   4.067  15.577 -0.3308  0.2173  0.2341
 5932SOL    HW129432   0.428   4.027  15.515 -0.6324  1.9128 -0.5634
 5932SOL    HW229433   0.460   4.157  15.586  0.0448  0.3504  0.1129
 5933SOL     OW29434   2.045   3.624  10.468  0.4161 -0.7455  0.0924
 5933SOL    HW129435   2.029   3.694  10.532 -1.2405  0.2474 -1.4222
 5933SOL    HW229436   1.984   3.560  10.504 -0.0887 -1.5872 -2.2972
 5934SOL     OW29437   1.674   2.130   3.565  0.3214  0.4259  0.0882
 5934SOL    HW129438   1.580   2.111   3.570  0.1588  0.9612 -0.9352
 5934SOL    HW229439   1.683   2.101   3.474 -1.3531  0.7737 -0.1923
 5935SOL     OW29440   3.881   0.758  14.292 -0.1788 -0.0491 -0.0586
 5935SOL    HW129441   3.810   0.739  14.230  0.1671 -0.3385 -0.3706
 5935SOL    HW229442   3.923   0.828  14.242 -0.3054 -0.3700 -0.6203
 5936SOL     OW29443   3.713   0.604  17.392 -0.4468 -0.4386 -0.1139
 5936SOL    HW129444   3.783   0.550  17.355 -1.2745 -0.2926 -1.8797
 5936SOL    HW229445   3.639   0.547  17.371 -0.4820 -0.2145 -0.6005
 5937SOL     OW29446   2.844   4.700   8.956  0.0752  0.4436  0.6207
 5937SOL    HW129447   2.802   4.733   8.876 -0.8174 -0.1409  0.8532
 5937SOL    HW229448   2.925   0.016   8.953  1.8559 -2.4034  0.3181
 5938SOL     OW29449   1.468   0.272   7.272 -0.1362  0.3793  0.2680
 5938SOL    HW129450   1.434   0.351   7.230  1.6486  0.1090 -1.6831
 5938SOL    HW229451   1.392   0.218   7.251  0.5315 -0.1393 -0.8049
 5939SOL     OW29452   4.380   4.729   8.927  0.1025 -0.3012 -0.5749
 5939SOL    HW129453   4.313   0.018   8.863  1.6510  0.7106 -1.8136
 5939SOL    HW229454   4.341   0.029   9.007  0.5683  0.6681 -0.7695
 5940SOL     OW29455   1.864   2.809  12.710  0.1664 -0.1599  0.0281
 5940SOL    HW129456   1.883   2.865  12.635 -1.0981  3.7098  2.6248
 5940SOL    HW229457   1.850   2.731  12.656 -0.1055 -0.4952  0.5837
 5941SOL     OW29458   1.000   2.280  12.025 -0.0853 -0.2151 -0.3285
 5941SOL    HW129459   1.030   2.196  11.991 -1.8190 -1.0895  0.3061
 5941SOL    HW229460   1.082   2.327  12.010  0.2017 -1.1129 -1.5645
 5942SOL     OW29461   1.854   4.467  10.216  0.1447 -0.4977 -0.5337
 5942SOL    HW129462   1.822   4.526  10.283 -0.1700 -0.9638 -0.2769
 5942SOL    HW229463   1.799   4.501  10.146  1.1909  0.4029 -0.9228
 5943SOL     OW29464   1.005   4.033  11.399 -0.4231 -0.7415 -0.0048
 5943SOL    HW129465   0.918   4.048  11.361  0.2534  2.5074 -0.3010
 5943SOL    HW229466   1.040   4.120  11.377  0.6476 -1.2972 -0.4702
 5944SOL     OW29467   2.443   0.246   6.653 -0.0514 -0.6096  0.3948
 5944SOL    HW129468   2.369   0.228   6.711 -0.8300  0.2750 -0.3233
 5944SOL    HW229469   2.496   0.299   6.712  0.4733  0.3341 -0.9164
 5945SOL     OW29470   4.404   2.876   2.714  0.0362 -0.0794 -0.4034
 5945SOL    HW129471   4.414   2.968   2.739  0.0759 -0.0140 -0.6519
 5945SOL    HW229472   4.347   2.878   2.637  1.5671  0.7304 -1.5237
 5946SOL     OW29473   1.444   4.233  10.551 -0.2099 -0.0123 -0.1099
 5946SOL    HW129474   1.504   4.278  10.610  0.8216 -0.7482 -0.5907
 5946SOL    HW229475   1.360   4.251  10.592  0.0942 -1.3464  1.1239
 5947SOL     OW29476   4.303   2.580   9.795 -0.5707 -0.3997 -0.1259
 5947SOL    HW129477   4.356   2.614   9.867 -0.2244 -3.0645  0.8633
 5947SOL    HW229478   4.216   2.567   9.832  0.1524 -1.7358  1.0754
 5948SOL     OW29479   4.670   2.482   2.218 -0.7238  0.2262 -0.3648
 5948SOL    HW129480   4.648   2.396   2.253 -0.3747  2.1864  4.6387
 5948SOL    HW229481   0.005   2.494   2.282 -2.5462 -0.9605  1.8422
 5949SOL     OW29482   0.312   1.286  10.170 -0.5251 -0.2597 -0.2845
 5949SOL    HW129483   0.284   1.197  10.193 -1.3919 -0.1305 -0.8656
 5949SOL    HW229484   0.232   1.337  10.163 -0.1790  0.2604 -0.3965
 5950SOL     OW29485   0.035   2.088   8.311 -0.3590 -0.4866  0.5956
 5950SOL    HW129486   0.078   2.083   8.396 -0.1568 -0.5775  0.4875
 5950SOL    HW229487   0.077   2.013   8.268 -1.7722 -1.1833  0.4321
 5951SOL     OW29488   1.175   1.406  10.083 -0.5614 -0.1293  0.4594
 5951SOL    HW129489   1.248   1.439  10.136 -1.7827  1.5340  1.1111
 5951SOL    HW229490   1.103   1.395  10.145 -1.4402  0.9162 -0.3762
 5952SOL     OW29491   4.686   2.577   6.857  0.5364  0.1297  0.1728
 5952SOL    HW129492   4.641   2.632   6.922  0.2142  0.0788 -0.0089
 5952SOL    HW229493   4.679   2.641   6.786  0.5021  1.1835  1.1223
 5953SOL     OW29494   2.833   1.417  17.130 -0.3901 -0.4346  1.0178
 5953SOL    HW129495   2.799   1.482  17.192 -0.8786  0.7299 -0.4741
 5953SOL    HW229496   2.766   1.401  17.064 -0.1168 -0.8170  0.8329
 5954SOL     OW29497   1.341   4.437   6.096 -0.0189  0.6002  0.1694
 5954SOL    HW129498   1.280   4.509   6.110  1.2010  1.5312  0.6792
 5954SOL    HW229499   1.397   4.446   6.173  0.3003  1.7732 -0.1973
 5955SOL     OW29500   3.779   1.680   4.987 -0.2913  0.0877  0.0483
 5955SOL    HW129501   3.735   1.717   5.063  1.0696  3.0915 -0.6046
 5955SOL    HW229502   3.715   1.619   4.949 -0.2203  1.2116 -1.8564
 5956SOL     OW29503   1.683   4.521  12.615 -0.4892 -0.5225 -0.5278
 5956SOL    HW129504   1.615   4.545  12.551 -0.6488 -0.7460 -0.4416
 5956SOL    HW229505   1.721   4.606  12.638  2.4725 -2.4606  1.7452
 5957SOL     OW29506   0.147   2.102   2.145  0.1333 -0.5883  0.1635
 5957SOL    HW129507   0.052   2.109   2.157  0.1925  0.0222  0.2363
 5957SOL    HW229508   0.162   2.161   2.072  1.0279 -0.6983  0.2648
 5958SOL     OW29509   1.195   0.647   4.967  0.2883 -0.2420 -0.2139
 5958SOL    HW129510   1.130   0.676   4.903  0.4943  0.4777 -0.0933
 5958SOL    HW229511   1.142   0.642   5.046 -1.1506 -1.8278 -1.2624
 5959SOL     OW29512   4.015   3.803   8.096 -0.0139 -0.3128  0.0750
 5959SOL    HW129513   3.978   3.738   8.037 -2.2036  1.3384 -0.3462
 5959SOL    HW229514   3.991   3.765   8.181 -0.7952  2.6318  1.1639
 5960SOL     OW29515   3.356   3.456  11.741 -0.8512 -0.0725  0.4253
 5960SOL    HW129516   3.296   3.403  11.793 -0.6383  0.7694  1.5429
 5960SOL    HW229517   3.291   3.484  11.677 -1.1142  0.3404  0.8663
 5961SOL     OW29518   0.721   1.439   4.461  0.1452  0.2083 -0.6407
 5961SOL    HW129519   0.773   1.392   4.526 -2.2214 -1.7268 -0.1270
 5961SOL    HW229520   0.708   1.520   4.510  0.2608 -0.6920  0.9043
 5962SOL     OW29521   1.032   4.196   1.339 -0.3312  0.4586  0.1543
 5962SOL    HW129522   1.017   4.240   1.423 -1.2838 -1.2690  0.8873
 5962SOL    HW229523   1.125   4.204   1.319 -0.5059  2.0448  0.0124
 5963SOL     OW29524   1.772   0.505   3.160 -0.4562 -0.2013 -0.4428
 5963SOL    HW129525   1.821   0.588   3.155 -0.2650 -0.3650 -1.2758
 5963SOL    HW229526   1.848   0.451   3.141  0.0094  0.7331 -1.2604
 5964SOL     OW29527   3.386   2.450   2.913  0.1142 -0.3759 -0.2261
 5964SOL    HW129528   3.390   2.407   2.998  1.1542  0.2232  0.0277
 5964SOL    HW229529   3.399   2.372   2.859 -0.8108  1.0372 -2.4794
 5965SOL     OW29530   0.797   2.250   0.987  0.1188 -0.0213 -0.0259
 5965SOL    HW129531   0.755   2.166   0.966  1.6099 -0.9168  0.5399
 5965SOL    HW229532   0.878   2.219   1.028 -1.6853 -2.0263  1.9942
 5966SOL     OW29533   0.266   2.704   6.542 -0.7399 -0.3917 -0.7813
 5966SOL    HW129534   0.280   2.613   6.518  1.4019 -0.2428 -0.0386
 5966SOL    HW229535   0.173   2.711   6.562 -1.4826  0.4035 -4.4502
 5967SOL     OW29536   4.075   3.765   3.537 -0.2284  0.4809 -0.1326
 5967SOL    HW129537   4.069   3.676   3.503  1.1326  0.3881 -0.1165
 5967SOL    HW229538   4.105   3.811   3.459  0.0873  3.0100  1.4800
 5968SOL     OW29539   4.374   1.595   2.908  0.9948  0.5227  0.2450
 5968SOL    HW129540   4.327   1.624   2.830 -0.6746 -1.8733  0.3391
 5968SOL    HW229541   4.345   1.657   2.975  0.0893 -1.0735  1.3581
 5969SOL     OW29542   1.798   2.900   8.344  0.1641  0.7318  0.4309
 5969SOL    HW129543   1.834   2.874   8.259 -0.5743  1.4835 -0.1078
 5969SOL    HW229544   1.822   2.992   8.353 -2.5281  1.3434  1.2048
 5970SOL     OW29545   2.363   2.333   6.393  0.1826 -0.4211  0.3138
 5970SOL    HW129546   2.457   2.316   6.396  0.2668 -0.0944 -0.5576
 5970SOL    HW229547   2.338   2.255   6.344 -1.7217 -0.5147  1.4372
 5971SOL     OW29548   2.483   0.424  11.437  0.1032 -0.2619  1.3435
 5971SOL    HW129549   2.504   0.463  11.522  0.1580  2.1016  0.2424
 5971SOL    HW229550   2.458   0.505  11.392 -2.6123 -2.0471 -0.3184
 5972SOL     OW29551   4.369   4.162  16.122  0.0437  0.1355  0.1461
 5972SOL    HW129552   4.396   4.224  16.190 -0.5904  0.9377 -0.3287
 5972SOL    HW229553   4.288   4.204  16.095 -0.4349 -0.7461  0.2322
 5973SOL     OW29554   0.199   0.324   2.471 -0.0974 -0.0068 -0.5054
 5973SOL    HW129555   0.257   0.259   2.431  0.4753 -0.9879  1.8773
 5973SOL    HW229556   0.221   0.396   2.413  0.2845 -1.1962 -1.8372
 5974SOL     OW29557   1.423   2.672   7.732 -0.0210 -0.3588 -0.1569
 5974SOL    HW129558   1.367   2.741   7.697  0.0984 -1.2687 -2.1205
 5974SOL    HW229559   1.509   2.711   7.751 -0.9477  1.8878 -0.6180
 5975SOL     OW29560   0.448   0.512  12.078 -0.3687  0.5574 -0.0162
 5975SOL    HW129561   0.406   0.443  12.026  1.1024  1.2650 -2.1303
 5975SOL    HW229562   0.495   0.456  12.140 -0.6118  0.1782 -0.1744
 5976SOL     OW29563   0.707   1.078  13.605 -0.4438  0.3130 -0.4498
 5976SOL    HW129564   0.750   1.010  13.658 -0.0557  0.0045 -1.1574
 5976SOL    HW229565   0.616   1.049  13.600 -0.4063  0.8879 -3.8216
 5977SOL     OW29566   1.030   4.026  15.612 -0.3565 -0.1135 -0.1272
 5977SOL    HW129567   0.971   4.101  15.602  0.1715  0.0429 -2.0589
 5977SOL    HW229568   1.102   4.060  15.665 -1.5983  1.2336  0.6922
 5978SOL     OW29569   1.606   3.025   5.752 -0.8722 -0.3703 -0.1121
 5978SOL    HW129570   1.685   2.988   5.711  0.4708  1.5041  0.7652
 5978SOL    HW229571   1.569   2.940   5.773 -2.1429  0.3365  0.5078
 5979SOL     OW29572   2.932   4.358   3.848 -0.6860 -0.4061 -0.2162
 5979SOL    HW129573   2.867   4.288   3.836 -0.6378 -0.3853 -0.6059
 5979SOL    HW229574   2.933   4.367   3.943  2.2446 -1.2855 -0.1707
 5980SOL     OW29575   0.500   3.824   5.479  0.2587  0.0057 -0.3248
 5980SOL    HW129576   0.545   3.781   5.551 -1.8513 -1.7307 -0.0472
 5980SOL    HW229577   0.575   3.837   5.421  1.3503  1.3903  1.4049
 5981SOL     OW29578   1.282   2.173  11.665  0.3334  0.0838 -0.2305
 5981SOL    HW129579   1.227   2.162  11.588 -3.1153 -1.1487  2.4462
 5981SOL    HW229580   1.328   2.251  11.634 -0.9378  1.3036  1.0178
 5982SOL     OW29581   2.436   2.504   9.559  0.0028  0.2692  0.5390
 5982SOL    HW129582   2.449   2.412   9.582 -0.0165  0.1092 -0.1110
 5982SOL    HW229583   2.524   2.542   9.563  1.4768 -3.2050  1.3536
 5983SOL     OW29584   3.525   3.796   5.199 -0.2021 -0.0562  0.1417
 5983SOL    HW129585   3.472   3.747   5.261  0.6131  0.5545  1.3156
 5983SOL    HW229586   3.570   3.853   5.261  1.6228 -1.2905 -0.0636
 5984SOL     OW29587   2.050   3.876   1.677 -0.0252  0.1468 -0.3834
 5984SOL    HW129588   2.107   3.821   1.731  1.2994  0.8436 -1.0519
 5984SOL    HW229589   2.114   3.947   1.670  0.8718 -0.8060 -1.7696
 5985SOL     OW29590   2.717   4.563   6.433  0.5808 -0.0588  0.1871
 5985SOL    HW129591   2.759   4.506   6.496  1.7264  0.5802  0.0079
 5985SOL    HW229592   2.688   4.638   6.486  0.1595 -0.8949  1.1273
 5986SOL     OW29593   0.525   0.221   3.611 -0.1410  0.7011  0.3890
 5986SOL    HW129594   0.486   0.134   3.599  0.2112  0.7352 -1.0702
 5986SOL    HW229595   0.489   0.256   3.692  0.4179  1.3861  0.3322
 5987SOL     OW29596   1.286   4.640   0.895 -0.1405  0.5401  0.6335
 5987SOL    HW129597   1.203   4.668   0.858 -1.1248 -2.5263  0.5804
 5987SOL    HW229598   1.316   4.577   0.830 -0.9956  3.1172 -2.2266
 5988SOL     OW29599   4.520   4.659   2.409  0.5851  0.5175  0.5471
 5988SOL    HW129600   4.596   4.711   2.385 -0.1909  1.4923  0.1966
 5988SOL    HW229601   4.546   4.616   2.490 -0.8726  0.2937  0.9044
 5989SOL     OW29602   0.710   3.765   8.018  0.5306  0.0436 -0.0966
 5989SOL    HW129603   0.676   3.744   8.105 -0.1645 -0.4150 -0.4830
 5989SOL    HW229604   0.790   3.712   8.020 -0.0329 -0.7831  0.8937
 5990SOL     OW29605   1.244   0.992   8.533 -0.1399  0.0223  0.4427
 5990SOL    HW129606   1.316   0.986   8.596  0.9216 -1.3714 -0.8761
 5990SOL    HW229607   1.285   0.968   8.449  1.7983 -1.2875  1.7465
 5991SOL     OW29608   0.141   2.749  13.844 -0.4242 -0.2033 -0.0828
 5991SOL    HW129609   0.183   2.752  13.930  0.8837 -0.2544 -0.7159
 5991SOL    HW229610   0.047   2.752  13.865 -0.6044  2.0900 -1.1330
 5992SOL     OW29611   2.480   2.485   3.994 -0.0435  0.9714  0.6951
 5992SOL    HW129612   2.453   2.518   3.908 -1.8025 -0.6695  0.6049
 5992SOL    HW229613   2.400   2.451   4.034 -1.7593  2.2903 -1.6564
 5993SOL     OW29614   4.566   1.833   3.204 -0.4861 -0.8097  0.0524
 5993SOL    HW129615   4.558   1.899   3.273 -1.6263 -0.3592 -0.5070
 5993SOL    HW229616   4.522   1.881   3.134 -0.8629 -3.0086 -1.2281
 5994SOL     OW29617   4.198   1.053  10.847 -0.1662 -0.3631  0.0587
 5994SOL    HW129618   4.232   1.137  10.877 -2.6547  0.9491 -0.7786
 5994SOL    HW229619   4.122   1.089  10.801  0.2442 -2.5980 -2.3726
 5995SOL     OW29620   2.997   4.107  15.287  0.1958  0.0348  0.1438
 5995SOL    HW129621   3.039   4.053  15.220  0.3886 -0.4994  0.6973
 5995SOL    HW229622   2.903   4.093  15.275 -0.1207  1.9655  0.3840
 5996SOL     OW29623   1.731   1.521   0.718  0.2149 -0.4102  0.0649
 5996SOL    HW129624   1.800   1.551   0.659  0.6003  0.5951  1.0233
 5996SOL    HW229625   1.765   1.437   0.751  0.9503 -0.0183  0.3067
 5997SOL     OW29626   1.589   3.298   4.146 -0.0045  0.3641  0.4519
 5997SOL    HW129627   1.677   3.280   4.181 -0.0944 -0.0509  0.4725
 5997SOL    HW229628   1.543   3.233   4.199  0.2939 -0.9761 -0.9311
 5998SOL     OW29629   2.169   3.506   7.482  0.0472 -0.2012  0.4488
 5998SOL    HW129630   2.195   3.492   7.392 -1.3279  0.3832 -0.0466
 5998SOL    HW229631   2.093   3.448   7.485 -0.4783  0.5157  1.0833
 5999SOL     OW29632   0.143   2.512   1.538  0.0847 -0.0354  0.1075
 5999SOL    HW129633   0.097   2.442   1.491  0.4242 -1.1937  1.5120
 5999SOL    HW229634   0.097   2.591   1.511  1.7368  0.4720 -1.2395
 6000SOL     OW29635   3.056   1.672   9.158  0.0396 -0.0834  0.1672
 6000SOL    HW129636   3.011   1.682   9.242 -2.4461 -0.1175 -1.1667
 6000SOL    HW229637   3.143   1.687   9.195 -0.5111 -0.7316  1.7119
 6001SOL     OW29638   2.420   3.267  12.809  0.1679 -0.3052 -0.2857
 6001SOL    HW129639   2.514   3.284  12.816  0.0408  0.4953 -0.5425
 6001SOL    HW229640   2.427   3.219  12.726  1.0578  0.9377 -0.9111
 6002SOL     OW29641   0.954   1.524   5.850 -0.4693  0.1464  0.2620
 6002SOL    HW129642   1.044   1.557   5.849 -0.8284  1.1007  0.2350
 6002SOL    HW229643   0.959   1.476   5.933  0.9187 -0.5211 -0.2111
 6003SOL     OW29644   0.310   2.809   8.173  0.0731 -0.0652 -0.3230
 6003SOL    HW129645   0.236   2.770   8.219 -0.5325  2.5561  0.9072
 6003SOL    HW229646   0.267   2.872   8.114 -0.3632 -0.0889 -0.0316
 6004SOL     OW29647   2.863   3.973   4.493  0.4998 -0.0528 -0.5820
 6004SOL    HW129648   2.870   3.956   4.399  0.4774 -1.2089 -0.3727
 6004SOL    HW229649   2.810   4.052   4.499  1.8098  1.0744 -3.4711
 6005SOL     OW29650   3.713   2.317  12.780  0.1382 -0.7493 -0.1087
 6005SOL    HW129651   3.680   2.291  12.867 -0.9580  0.3098 -0.2058
 6005SOL    HW229652   3.781   2.375  12.814 -2.2377  1.1219  1.4233
 6006SOL     OW29653   3.044   3.466  10.386 -0.2787  0.3454  0.0219
 6006SOL    HW129654   3.020   3.513  10.467 -0.3882  1.7454 -0.8203
 6006SOL    HW229655   2.953   3.448  10.360 -0.1577 -2.1769  1.3600
 6007SOL     OW29656   1.255   3.602   7.357  0.4624  0.8067 -0.0127
 6007SOL    HW129657   1.234   3.585   7.448 -1.4329 -1.0069 -0.8019
 6007SOL    HW229658   1.351   3.607   7.354  0.4351  1.8101  1.0642
 6008SOL     OW29659   0.765   0.719  12.302 -0.1911  0.2942 -0.0884
 6008SOL    HW129660   0.841   0.686  12.350 -1.1932 -1.3832  0.3362
 6008SOL    HW229661   0.710   0.641  12.293 -2.6022  2.4760 -4.4201
 6009SOL     OW29662   3.651   4.468  10.117 -0.4295 -0.2578 -0.4428
 6009SOL    HW129663   3.629   4.495  10.207  0.1866 -0.5800 -0.1910
 6009SOL    HW229664   3.627   4.376  10.127 -0.2740 -0.2752 -0.2245
 6010SOL     OW29665   1.905   1.213   4.511  0.0513  0.3968 -0.3877
 6010SOL    HW129666   1.941   1.267   4.582 -1.4543 -0.2442  0.8676
 6010SOL    HW229667   1.843   1.276   4.474 -0.6309 -0.4631 -0.7124
 6011SOL     OW29668   1.299   1.842  14.080 -0.2380  0.3153  0.4129
 6011SOL    HW129669   1.278   1.839  14.173 -3.1621 -1.9137 -0.3450
 6011SOL    HW229670   1.249   1.921  14.058 -0.6870  0.1460  0.8376
 6012SOL     OW29671   2.338   3.553   4.075 -0.6319 -0.3002  0.3821
 6012SOL    HW129672   2.353   3.519   4.163  1.2309 -2.1449 -0.6389
 6012SOL    HW229673   2.364   3.645   4.072 -2.2985  0.2221  1.8779
 6013SOL     OW29674   0.545   1.744   6.883 -0.3505  0.2583 -0.1194
 6013SOL    HW129675   0.473   1.761   6.823 -0.5607  0.2457  0.1272
 6013SOL    HW229676   0.524   1.797   6.960  1.8525 -0.1202  0.7520
 6014SOL     OW29677   0.844   3.244   4.616 -0.8234  0.1371 -0.5173
 6014SOL    HW129678   0.890   3.320   4.581 -0.8746 -0.4823 -1.8973
 6014SOL    HW229679   0.778   3.221   4.551 -1.6727  1.0459  0.0165
 6015SOL     OW29680   3.489   4.329   9.089 -0.8263  0.2073 -0.1790
 6015SOL    HW129681   3.576   4.312   9.124 -1.3044  0.6685  1.2480
 6015SOL    HW229682   3.499   4.309   8.996  0.4192 -1.4293  0.3178
 6016SOL     OW29683   0.860   4.338   8.045  0.1823 -0.0608  0.0852
 6016SOL    HW129684   0.938   4.388   8.022 -1.0982  0.8672 -2.3249
 6016SOL    HW229685   0.861   4.272   7.975 -1.2988  0.7368 -0.6869
 6017SOL     OW29686   4.656   1.846   7.112  0.1757 -0.2058 -0.0942
 6017SOL    HW129687   4.617   1.783   7.052 -0.5235  0.2510 -0.1158
 6017SOL    HW229688   4.611   1.930   7.098 -0.0677 -0.1904  0.8477
 6018SOL     OW29689   4.183   1.360   2.922  0.1729 -0.5151 -0.1830
 6018SOL    HW129690   4.105   1.409   2.947  0.5241  0.5594 -1.2038
 6018SOL    HW229691   4.258   1.413   2.949 -0.8386  0.4261  0.8169
 6019SOL     OW29692   0.908   3.470   4.956  0.3733  0.2207  0.0249
 6019SOL    HW129693   0.912   3.511   4.869 -1.5181  1.5745  0.5855
 6019SOL    HW229694   0.820   3.432   4.953  0.2698  0.5964 -2.0045
 6020SOL     OW29695   3.954   3.324  17.084 -0.0448  0.1057  0.0095
 6020SOL    HW129696   3.956   3.413  17.048  0.3255  0.3785  0.6835
 6020SOL    HW229697   3.866   3.293  17.063 -0.6537  0.8444  1.4117
 6021SOL     OW29698   1.894   2.663   6.271  0.4697  0.5941  0.0284
 6021SOL    HW129699   1.908   2.570   6.254  1.8875  0.6528  0.9696
 6021SOL    HW229700   1.944   2.700   6.198  0.0552  2.2375  0.5897
 6022SOL     OW29701   4.121   0.189   8.229  0.4445  0.1588  0.1837
 6022SOL    HW129702   4.091   0.226   8.146 -0.3035  0.4382  0.5770
 6022SOL    HW229703   4.136   0.273   8.273 -0.8923  0.7986 -0.6050
 6023SOL     OW29704   1.348   2.531   1.004 -0.2455  0.2247 -0.3134
 6023SOL    HW129705   1.300   2.467   1.057 -1.4784  0.3403 -1.2904
 6023SOL    HW229706   1.291   2.549   0.929  0.3244 -0.1760 -0.8480
 6024SOL     OW29707   2.063   1.628   4.797  0.1440 -0.0281 -0.1136
 6024SOL    HW129708   2.139   1.680   4.772  0.3498 -0.2950 -0.0522
 6024SOL    HW229709   2.007   1.693   4.837 -1.7257 -1.6673 -0.0940
 6025SOL     OW29710   3.117   0.022   4.345 -0.3294 -0.0956  0.8406
 6025SOL    HW129711   3.167   0.055   4.419  0.3672 -1.6986  1.0778
 6025SOL    HW229712   3.184   0.017   4.276 -1.4750 -3.4246 -0.0102
 6026SOL     OW29713   0.957   0.066   4.062 -0.0185 -0.3657  0.3964
 6026SOL    HW129714   0.984   0.005   3.994 -1.5357  1.4036 -1.7837
 6026SOL    HW229715   0.970   0.155   4.028  2.2964  0.0927  2.4377
 6027SOL     OW29716   4.145   2.513   2.331 -0.2596  0.2421  0.1655
 6027SOL    HW129717   4.201   2.457   2.276 -1.5814  0.4264 -1.3707
 6027SOL    HW229718   4.082   2.544   2.267 -0.6616  1.2155  1.0370
 6028SOL     OW29719   3.367   0.195   7.034  0.0595 -0.6498  0.4368
 6028SOL    HW129720   3.451   0.171   6.996  0.0094  0.9731 -0.6635
 6028SOL    HW229721   3.373   0.287   7.058  0.0325 -0.0924 -1.7140
 6029SOL     OW29722   2.522   4.663   9.174  0.0342  0.0564  0.0251
 6029SOL    HW129723   2.551   4.700   9.091 -0.2070  2.5078  1.0415
 6029SOL    HW229724   2.426   4.670   9.174  0.1122  1.1708  1.2557
 6030SOL     OW29725   4.297   2.201   8.355 -0.0724 -0.1060  0.1271
 6030SOL    HW129726   4.341   2.121   8.384  0.4219  0.5590  1.2316
 6030SOL    HW229727   4.290   2.184   8.261  0.6823 -1.7573  0.3768
 6031SOL     OW29728   3.715   0.055  10.261  0.4352  0.3071  0.1288
 6031SOL    HW129729   3.705   4.704  10.302 -0.1071  1.4320  2.4130
 6031SOL    HW229730   3.733   0.024  10.173 -3.0274  2.4250 -1.3279
 6032SOL     OW29731   1.837   2.932   4.214 -0.1101 -0.5179 -0.1989
 6032SOL    HW129732   1.931   2.947   4.224 -0.2060 -0.2436  0.2965
 6032SOL    HW229733   1.808   2.964   4.300  0.3338 -1.3342  0.2565
 6033SOL     OW29734   1.490   0.790  17.425 -0.0365 -0.4149 -0.0452
 6033SOL    HW129735   1.420   0.772  17.363 -0.1170  0.4518 -0.2114
 6033SOL    HW229736   1.522   0.876  17.398 -0.8701 -0.0628  0.0989
 6034SOL     OW29737   4.143   4.586   6.883  0.1785 -1.0790  0.5293
 6034SOL    HW129738   4.081   4.551   6.946 -0.5587 -0.9318 -0.1069
 6034SOL    HW229739   4.112   4.677   6.882 -0.0382 -1.1748 -1.4037
 6035SOL     OW29740   2.681   1.475   5.136  0.0933  0.6767  0.3955
 6035SOL    HW129741   2.670   1.570   5.131 -2.5236  0.4499  1.6736
 6035SOL    HW229742   2.650   1.454   5.224  0.6122 -0.4891  0.3070
 6036SOL     OW29743   3.054   3.630   4.774 -0.0233 -0.2613 -0.6486
 6036SOL    HW129744   3.114   3.673   4.836 -0.1224 -1.2696  0.1499
 6036SOL    HW229745   3.021   3.708   4.730 -0.4732  0.5483  1.1189
 6037SOL     OW29746   4.228   4.194   3.332 -0.2760 -0.9654  0.0215
 6037SOL    HW129747   4.161   4.142   3.287  1.0469 -1.6761 -1.1422
 6037SOL    HW229748   4.230   4.268   3.272  0.7483 -0.1566  1.0374
 6038SOL     OW29749   0.985   0.959   3.838 -0.1295  0.2694 -0.2622
 6038SOL    HW129750   0.919   1.007   3.789  0.2676 -0.8177 -1.8496
 6038SOL    HW229751   0.946   0.951   3.925 -2.2145 -2.2376 -1.4635
 6039SOL     OW29752   3.244   1.728  16.045  0.4091 -0.4415  0.0911
 6039SOL    HW129753   3.314   1.744  16.109 -2.1492  1.2914  2.4648
 6039SOL    HW229754   3.272   1.789  15.976  0.1222  0.1554  0.5006
 6040SOL     OW29755   3.533   1.565  12.404 -0.0720 -0.2398  0.4982
 6040SOL    HW129756   3.490   1.650  12.408 -1.4829 -0.9429  0.3183
 6040SOL    HW229757   3.560   1.558  12.495  0.5529  3.1917  0.5587
 6041SOL     OW29758   1.652   2.073   7.712 -0.1019  0.0906  0.3704
 6041SOL    HW129759   1.578   2.128   7.689 -0.5630 -0.5631  0.2859
 6041SOL    HW229760   1.694   2.062   7.627  0.3278 -0.6465  0.6739
 6042SOL     OW29761   3.541   3.316   5.026 -0.0396 -0.6604 -0.0401
 6042SOL    HW129762   3.619   3.262   5.039  0.3157  0.2805  1.6445
 6042SOL    HW229763   3.525   3.304   4.932  1.2173  0.3054 -0.3696
 6043SOL     OW29764   1.171   4.560   3.397 -0.2792  0.4390  0.1442
 6043SOL    HW129765   1.129   4.530   3.316 -1.2511  0.1878  0.7352
 6043SOL    HW229766   1.248   4.598   3.356 -0.3236 -0.2434 -0.5720
 6044SOL     OW29767   3.797   3.129   9.272  0.0499  0.7620  0.3762
 6044SOL    HW129768   3.875   3.173   9.238  1.5969 -2.5578 -0.3539
 6044SOL    HW229769   3.843   3.080   9.341 -2.3278 -1.0854  0.6103
 6045SOL     OW29770   2.182   0.282   0.909 -0.0708 -0.1902  0.5567
 6045SOL    HW129771   2.094   0.319   0.899  0.1404  0.1218 -0.1386
 6045SOL    HW229772   2.179   0.221   0.836  1.4679 -1.7928  1.8295
 6046SOL     OW29773   0.732   3.593   5.863 -0.0919 -0.4297 -0.2093
 6046SOL    HW129774   0.764   3.670   5.911  0.7387 -2.1493  2.0201
 6046SOL    HW229775   0.658   3.633   5.817  0.2477 -1.3772 -1.5630
 6047SOL     OW29776   3.706   4.311   4.406 -0.2376 -0.1245  0.2379
 6047SOL    HW129777   3.670   4.237   4.455  0.9998 -1.0421 -0.2476
 6047SOL    HW229778   3.709   4.370   4.481  1.8552  0.6874 -0.4914
 6048SOL     OW29779   1.499   1.295  12.637 -0.2372  0.7580 -0.2417
 6048SOL    HW129780   1.583   1.340  12.641  0.0211  0.2352  0.2781
 6048SOL    HW229781   1.448   1.315  12.716  0.7511  0.0403  0.5647
 6049SOL     OW29782   0.871   2.053  16.556 -0.0638 -0.1459  0.4676
 6049SOL    HW129783   0.942   2.106  16.518 -1.8340 -0.2651 -3.0767
 6049SOL    HW229784   0.813   2.121  16.591  0.5925  0.0870  1.0969
 6050SOL     OW29785   4.636   3.368   2.022  0.8465  0.0308 -0.0307
 6050SOL    HW129786   4.653   3.300   1.956  0.9504 -0.2855  0.3157
 6050SOL    HW229787   4.630   3.449   1.972  0.5570  0.0805  0.0874
 6051SOL     OW29788   4.491   2.193   7.371 -0.1678  0.2150 -0.6372
 6051SOL    HW129789   4.483   2.099   7.389 -0.5955  0.1687 -1.0540
 6051SOL    HW229790   4.455   2.195   7.282 -1.5142  0.1440 -0.1022
 6052SOL     OW29791   3.240   0.247   4.879 -0.1327 -0.8479 -0.3240
 6052SOL    HW129792   3.176   0.310   4.912  1.3613 -0.2400  1.4071
 6052SOL    HW229793   3.280   0.297   4.808  0.3288  0.6274  0.9725
 6053SOL     OW29794   0.005   0.185   7.507 -0.0638 -0.0728 -0.3971
 6053SOL    HW129795   0.049   0.101   7.509  1.2036  0.5878 -0.6955
 6053SOL    HW229796   4.651   0.149   7.506  0.0950 -0.4986  1.1082
 6054SOL     OW29797   0.720   3.099  13.672 -0.1671 -0.1297  0.0530
 6054SOL    HW129798   0.739   3.076  13.762 -1.2413 -0.6675  0.1415
 6054SOL    HW229799   0.625   3.109  13.679 -0.2588 -0.7465 -0.2873
 6055SOL     OW29800   4.373   1.660   6.679  0.3061 -0.3614 -0.0361
 6055SOL    HW129801   4.360   1.673   6.585 -2.3829 -0.4439  0.3280
 6055SOL    HW229802   4.360   1.565   6.679  3.8493 -0.8393 -0.3642
 6056SOL     OW29803   0.263   2.223   9.858 -1.2279  0.2984  0.2188
 6056SOL    HW129804   0.201   2.258   9.793  0.0396  0.7735 -0.7422
 6056SOL    HW229805   0.326   2.178   9.802 -2.3553  1.3080 -1.8992
 6057SOL     OW29806   4.531   1.462   4.433 -0.1284  0.5128  0.4828
 6057SOL    HW129807   4.561   1.500   4.516  1.0579  2.1242 -0.6870
 6057SOL    HW229808   4.563   1.372   4.434 -1.0717  0.1756 -0.3718
 6058SOL     OW29809   3.921   3.897   8.564  0.3344 -0.2477 -0.0459
 6058SOL    HW129810   3.990   3.861   8.508 -1.5899 -1.2750 -1.7554
 6058SOL    HW229811   3.866   3.821   8.582 -0.6582  0.6470  0.6540
 6059SOL     OW29812   0.663   1.486   3.338 -0.3746  0.0629  0.3823
 6059SOL    HW129813   0.664   1.575   3.305  0.6452 -0.4795 -1.0797
 6059SOL    HW229814   0.661   1.437   3.256  1.3085 -0.2772  0.5358
 6060SOL     OW29815   1.301   2.127  14.283  0.2001  0.2839  0.3385
 6060SOL    HW129816   1.220   2.086  14.251  0.6781  0.8253 -1.5403
 6060SOL    HW229817   1.266   2.214  14.302  1.0532  0.6559  0.1676
 6061SOL     OW29818   4.189   2.451   5.371  0.1322  0.3515 -0.3304
 6061SOL    HW129819   4.246   2.374   5.378 -1.4002 -0.9624 -2.5714
 6061SOL    HW229820   4.218   2.492   5.453 -0.7424 -0.8259  0.5521
 6062SOL     OW29821   1.771   3.637   4.194 -0.0534 -0.2686 -0.1709
 6062SOL    HW129822   1.853   3.588   4.193 -0.5508 -1.0809 -1.1071
 6062SOL    HW229823   1.782   3.691   4.273 -2.9643 -1.2516  0.9248
 6063SOL     OW29824   0.095   3.101  13.029 -0.2638  0.2368 -1.0013
 6063SOL    HW129825   0.162   3.121  13.094 -0.7358 -0.1838 -0.3807
 6063SOL    HW229826   0.110   3.008  13.012  1.9686  0.7007 -1.4767
 6064SOL     OW29827   0.475   3.741   6.209  0.0945  0.3116  0.2425
 6064SOL    HW129828   0.435   3.665   6.166  2.3947 -0.7257 -0.0876
 6064SOL    HW229829   0.411   3.812   6.203  1.5555  1.5652 -0.4236
 6065SOL     OW29830   4.707   3.517   4.801  0.2139  0.5330  0.2571
 6065SOL    HW129831   4.688   3.439   4.853  2.3649 -0.5017 -0.5325
 6065SOL    HW229832   4.635   3.515   4.738 -0.3725  0.4208  0.9313
 6066SOL     OW29833   3.805   3.003   2.381 -0.0158 -0.2129  0.1085
 6066SOL    HW129834   3.865   2.966   2.317  0.7497 -0.8980  1.2177
 6066SOL    HW229835   3.832   2.947   2.454 -2.4327  0.7656  1.7612
 6067SOL     OW29836   3.246   0.461   3.665 -0.2207 -0.9584  0.4496
 6067SOL    HW129837   3.167   0.502   3.629  0.5577  0.4466  0.3486
 6067SOL    HW229838   3.308   0.470   3.592 -1.0240  0.2148 -0.1027
 6068SOL     OW29839   0.460   2.375   4.410 -0.3107 -0.4593  0.0439
 6068SOL    HW129840   0.453   2.281   4.392 -4.1697  0.0288 -1.1002
 6068SOL    HW229841   0.379   2.399   4.455 -0.0375  1.8280 -0.6872
 6069SOL     OW29842   3.523   4.395   4.799  0.0192 -0.1420 -0.5487
 6069SOL    HW129843   3.546   4.326   4.861 -1.7286  2.3660  2.9087
 6069SOL    HW229844   3.515   4.472   4.854 -0.4996 -0.4043 -0.2673
 6070SOL     OW29845   0.687   0.761  15.663  0.1868 -0.3200  0.6138
 6070SOL    HW129846   0.697   0.819  15.588  0.4402 -1.4974 -0.2633
 6070SOL    HW229847   0.615   0.705  15.633  0.6845 -0.3518 -0.5117
 6071SOL     OW29848   2.641   2.396   5.629 -0.1841  0.0016 -0.2858
 6071SOL    HW129849   2.711   2.344   5.668  1.6211  1.4042 -1.6503
 6071SOL    HW229850   2.693   2.470   5.596  0.8336 -0.3078  0.6354
 6072SOL     OW29851   0.066   1.044  12.822  0.0522  0.5326 -0.1473
 6072SOL    HW129852   0.017   1.109  12.773  0.7178  1.7067  0.7444
 6072SOL    HW229853   4.730   0.997  12.864 -0.6810  0.9573 -0.9436
 6073SOL     OW29854   1.497   1.894   2.695  0.2876 -0.5666 -0.7162
 6073SOL    HW129855   1.438   1.870   2.767  0.2513  0.9483 -0.2342
 6073SOL    HW229856   1.442   1.871   2.619  3.3095 -1.2411 -2.6855
 6074SOL     OW29857   2.405   4.249   7.988  0.2565 -0.7707  0.0501
 6074SOL    HW129858   2.448   4.215   7.909 -0.7520 -0.0745 -0.8042
 6074SOL    HW229859   2.464   4.243   8.063 -1.7372  0.7388  1.7462
 6075SOL     OW29860   0.458   3.356   3.563 -0.1012 -0.2332 -1.0459
 6075SOL    HW129861   0.420   3.438   3.595 -0.3052 -1.2685  1.3825
 6075SOL    HW229862   0.376   3.323   3.527 -1.4102  0.7981  0.9409
 6076SOL     OW29863   2.484   2.693   5.011  0.4968 -0.2552 -0.2348
 6076SOL    HW129864   2.433   2.690   4.930 -0.0286  1.6842  0.0233
 6076SOL    HW229865   2.417   2.726   5.070  2.6308 -0.0312  2.0655
 6077SOL     OW29866   3.224   4.435   6.004  0.6986  0.8264  0.5810
 6077SOL    HW129867   3.261   4.372   5.942  0.6923 -0.1683  1.5990
 6077SOL    HW229868   3.293   4.450   6.068  1.0571 -1.5269  0.7536
 6078SOL     OW29869   4.374   1.888   8.157  0.2478 -0.2803 -0.3889
 6078SOL    HW129870   4.436   1.908   8.088  0.6139  1.6714  0.5184
 6078SOL    HW229871   4.415   1.943   8.223 -0.7101 -0.2134  0.1612
 6079SOL     OW29872   1.170   2.068   0.407 -0.1817  0.2898 -0.3349
 6079SOL    HW129873   1.227   1.992   0.415  1.8314  2.0577  2.1792
 6079SOL    HW229874   1.148   2.095   0.496  1.1458  1.8594 -0.4807
 6080SOL     OW29875   1.592   4.370  10.722  1.3408  0.0912  0.3301
 6080SOL    HW129876   1.538   4.420  10.783 -0.2386 -0.7330 -0.3921
 6080SOL    HW229877   1.597   4.421  10.642 -3.0440  1.0287  0.6558
 6081SOL     OW29878   1.022   0.587   9.253  0.1533  0.5815  0.0262
 6081SOL    HW129879   1.030   0.552   9.341  0.9165 -0.4502 -0.4499
 6081SOL    HW229880   0.931   0.566   9.231 -0.6223  1.1138  2.7040
 6082SOL     OW29881   4.544   0.648  15.505  0.4135 -0.1184 -0.2350
 6082SOL    HW129882   4.452   0.631  15.526  0.9430 -1.4841  1.0512
 6082SOL    HW229883   4.533   0.738  15.474  0.3741  0.1535  0.5687
 6083SOL     OW29884   2.497   1.080   0.423  0.6225  0.4101 -0.3841
 6083SOL    HW129885   2.430   1.017   0.449 -0.1133  1.3835  0.1006
 6083SOL    HW229886   2.471   1.128   0.344  2.4864  1.6078 -0.2832
 6084SOL     OW29887   0.910   2.106  11.793 -0.1882  0.2416 -0.1188
 6084SOL    HW129888   0.958   2.065  11.865 -1.2865  0.6709  0.8590
 6084SOL    HW229889   0.967   2.104  11.716  0.6148 -3.2116  0.5439
 6085SOL     OW29890   4.275   4.000   8.407 -0.6921 -0.1164 -0.1058
 6085SOL    HW129891   4.210   4.025   8.473  1.9731 -0.0032  2.4863
 6085SOL    HW229892   4.330   3.937   8.454 -0.0377 -1.0523 -2.1502
 6086SOL     OW29893   4.598   0.816   7.151  0.3100  0.0191 -0.5537
 6086SOL    HW129894   4.518   0.851   7.190 -0.5688  0.7240 -2.9448
 6086SOL    HW229895   4.663   0.882   7.175  0.9697 -0.3852 -1.2234
 6087SOL     OW29896   1.311   3.174   6.787  0.6986 -0.0428 -0.0498
 6087SOL    HW129897   1.277   3.222   6.862 -1.1817  2.2532 -2.4011
 6087SOL    HW229898   1.406   3.172   6.802  0.9029  1.4023 -1.2023
 6088SOL     OW29899   4.424   2.950  10.196 -0.0589  0.3641 -0.4178
 6088SOL    HW129900   4.475   2.885  10.244 -1.9302  1.2412  2.7900
 6088SOL    HW229901   4.371   2.995  10.261  0.7380  1.7936 -0.7357
 6089SOL     OW29902   2.764   1.953   9.199  0.5959 -0.0143 -0.7894
 6089SOL    HW129903   2.840   1.991   9.242  3.2115 -3.4465 -2.3798
 6089SOL    HW229904   2.779   1.984   9.109  0.4108  1.4186 -0.3320
 6090SOL     OW29905   1.830   0.250   1.389 -0.1316  0.3588  0.1658
 6090SOL    HW129906   1.906   0.195   1.372 -0.7285 -1.1174  2.3443
 6090SOL    HW229907   1.865   0.332   1.355  0.2831  0.7700  1.5827
 6091SOL     OW29908   3.848   2.548   0.198 -0.0107 -0.0047  0.3598
 6091SOL    HW129909   3.839   2.455   0.175  0.7845  0.4142 -1.6082
 6091SOL    HW229910   3.883   2.584   0.117  0.0992  1.4421  1.0563
 6092SOL     OW29911   0.882   4.298   4.009 -0.0614 -0.4861 -0.2981
 6092SOL    HW129912   0.842   4.293   3.922  0.0713 -0.9025 -0.3342
 6092SOL    HW229913   0.972   4.310   3.979 -0.0935  1.5329  0.4380
 6093SOL     OW29914   0.682   2.062  13.682  0.5317  0.4689 -0.0071
 6093SOL    HW129915   0.604   2.009  13.697  2.4332 -2.5149 -0.4485
 6093SOL    HW229916   0.719   2.016  13.606 -0.8198 -0.3033 -0.1980
 6094SOL     OW29917   2.975   0.062   0.100  0.1934 -0.2768  0.1551
 6094SOL    HW129918   2.913   0.125   0.062  0.3207 -1.4413 -1.9723
 6094SOL    HW229919   2.937   0.058   0.188 -0.2448  1.4342  0.0447
 6095SOL     OW29920   4.505   1.204  12.565 -0.0413  0.2113 -0.9809
 6095SOL    HW129921   4.477   1.204  12.657 -2.8458  0.7454 -1.8362
 6095SOL    HW229922   4.550   1.120  12.560 -1.0016 -0.4029  0.7053
 6096SOL     OW29923   3.971   1.126   3.483 -0.1562  0.4849  0.3103
 6096SOL    HW129924   4.028   1.148   3.410 -1.1460 -1.2835 -1.0085
 6096SOL    HW229925   3.996   1.037   3.507 -1.1357 -0.2416 -1.3647
 6097SOL     OW29926   3.750   0.891   3.657  0.3374 -0.4306 -0.2936
 6097SOL    HW129927   3.760   0.870   3.564  0.5609  0.2731 -0.4299
 6097SOL    HW229928   3.834   0.869   3.696  0.0306  0.2798  0.7803
 6098SOL     OW29929   3.981   2.052   5.552  0.4751  0.3461  0.1251
 6098SOL    HW129930   3.929   2.039   5.631  0.8975 -2.2687 -0.0123
 6098SOL    HW229931   3.960   2.142   5.528  0.4650  0.3741  0.2376
 6099SOL     OW29932   4.043   4.461   2.233 -0.6468 -0.0470  0.2897
 6099SOL    HW129933   4.048   4.376   2.188 -0.9884  0.8153 -1.3892
 6099SOL    HW229934   4.125   4.454   2.281  0.2443  2.2320 -0.9224
 6100SOL     OW29935   1.275   1.248   1.968 -0.0181  0.1531  0.2966
 6100SOL    HW129936   1.349   1.188   1.958 -0.9050 -0.5897 -1.9179
 6100SOL    HW229937   1.316   1.325   2.007 -1.0905  0.6966  0.3408
 6101SOL     OW29938   0.844   0.605   3.017 -0.0562 -0.5218  0.6703
 6101SOL    HW129939   0.905   0.567   3.080  0.6257 -0.4001  0.0814
 6101SOL    HW229940   0.900   0.603   2.940 -0.0313  0.1509  0.6750
 6102SOL     OW29941   0.636   1.440   7.621  0.0208 -0.0245 -0.2530
 6102SOL    HW129942   0.657   1.533   7.626  0.2789 -0.0474 -0.9493
 6102SOL    HW229943   0.706   1.391   7.663  1.8725  0.4906 -2.7452
 6103SOL     OW29944   4.730   2.519   6.156 -0.2925 -0.7610 -0.2278
 6103SOL    HW129945   0.061   2.466   6.114 -0.0965 -1.1843  0.6122
 6103SOL    HW229946   4.729   2.471   6.239 -2.5793  0.3609  0.4118
 6104SOL     OW29947   3.826   1.257   5.240 -0.4303  0.5752 -0.2241
 6104SOL    HW129948   3.846   1.198   5.312  1.7187  0.5507 -0.8331
 6104SOL    HW229949   3.908   1.243   5.192  0.1121  2.5210  0.1223
 6105SOL     OW29950   4.214   4.213   6.961  0.1303 -0.3000  0.8343
 6105SOL    HW129951   4.147   4.205   7.029 -0.5599 -0.8800  0.0913
 6105SOL    HW229952   4.262   4.132   6.974 -0.8869 -0.9893  0.2874
 6106SOL     OW29953   3.299   0.426   2.044  0.0685  0.0478  0.5087
 6106SOL    HW129954   3.388   0.408   2.013 -0.5641 -2.0033 -0.1301
 6106SOL    HW229955   3.298   0.520   2.058  2.7818  0.0185  0.9253
 6107SOL     OW29956   4.198   0.017   2.169  0.0186 -0.2583  0.2064
 6107SOL    HW129957   4.202   4.670   2.218  1.5521 -0.0973  0.3738
 6107SOL    HW229958   4.108   0.010   2.137 -0.8377  2.2655  1.9945
 6108SOL     OW29959   4.207   0.717   3.801 -0.0700 -0.4394  0.1253
 6108SOL    HW129960   4.209   0.642   3.741  0.8436  0.2382 -0.6879
 6108SOL    HW229961   4.301   0.732   3.817 -0.1631  0.2118  0.0605
 6109SOL     OW29962   3.894   1.197   4.453 -0.5214 -0.0546  0.0217
 6109SOL    HW129963   3.859   1.221   4.538 -0.6476 -0.5880  0.1199
 6109SOL    HW229964   3.988   1.212   4.467 -0.4794 -0.9409  0.6097
 6110SOL     OW29965   4.619   3.014  16.681 -0.3430 -0.0979  0.7122
 6110SOL    HW129966   4.567   3.071  16.737 -0.5609 -0.1637  0.5798
 6110SOL    HW229967   4.687   2.987  16.743  0.4381  1.4985  0.5350
 6111SOL     OW29968   2.497   2.838   3.452  0.4105  0.3207 -0.2309
 6111SOL    HW129969   2.431   2.907   3.448 -1.9412 -2.0085 -1.9160
 6111SOL    HW229970   2.576   2.893   3.454 -0.6969  1.9499 -0.9758
 6112SOL     OW29971   3.665   2.023  14.307  0.1838  0.1294  0.2018
 6112SOL    HW129972   3.671   1.928  14.295 -1.2570 -0.1325  1.6267
 6112SOL    HW229973   3.643   2.047  14.217 -0.7079 -0.5194  0.2556
 6113SOL     OW29974   3.983   0.328   6.073  0.2652  0.2835 -0.3692
 6113SOL    HW129975   4.010   0.403   6.021  0.5173  1.2490  1.1353
 6113SOL    HW229976   4.064   0.308   6.120 -0.5110 -0.0886  0.8291
 6114SOL     OW29977   4.526   2.085  15.564 -0.5824 -0.4297  0.3759
 6114SOL    HW129978   4.552   2.000  15.600  0.9216  0.4348  1.3579
 6114SOL    HW229979   4.497   2.065  15.475  0.1055 -3.2368  0.7772
 6115SOL     OW29980   4.668   2.723   1.653  0.0354  0.1324  0.6040
 6115SOL    HW129981   4.726   2.779   1.704  0.7980 -0.3825  0.2952
 6115SOL    HW229982   4.696   2.734   1.562 -1.6737  0.5730  0.1166
 6116SOL     OW29983   0.077   0.788   3.112 -0.0456 -0.4647 -0.5745
 6116SOL    HW129984   0.104   0.791   3.020 -2.6147  2.4458 -1.2520
 6116SOL    HW229985   0.002   0.847   3.103  0.2170 -0.3342 -1.8747
 6117SOL     OW29986   3.013   4.196  16.369  0.3424 -0.1984  0.0612
 6117SOL    HW129987   3.096   4.217  16.326 -0.4949 -1.1613 -2.0527
 6117SOL    HW229988   2.969   4.173  16.287 -2.4664 -3.1216  2.3781
 6118SOL     OW29989   2.066   2.787   8.184 -0.4500  0.6873 -0.2747
 6118SOL    HW129990   2.131   2.830   8.129  0.9007  1.7004  2.1225
 6118SOL    HW229991   1.992   2.800   8.124  0.3613  2.1605 -0.9291
 6119SOL     OW29992   1.396   2.956   8.590  0.5713  0.0892 -0.4180
 6119SOL    HW129993   1.392   2.916   8.678 -0.1829  0.2015 -0.4022
 6119SOL    HW229994   1.342   3.031   8.615  0.7994 -0.4040  1.5528
 6120SOL     OW29995   1.112   2.207   7.915  0.1226  0.4616 -0.0943
 6120SOL    HW129996   1.085   2.287   7.870  0.8987 -0.2606 -1.8090
 6120SOL    HW229997   1.035   2.184   7.967 -0.7707  3.2257 -0.2076
 6121SOL     OW29998   2.585   1.056   8.680  0.0496  0.3194 -0.2977
 6121SOL    HW129999   2.518   1.049   8.612 -0.9147  2.0581  0.4939
 6121SOL    HW230000   2.640   1.125   8.645 -0.5440  0.3388 -1.1919
 6122SOL     OW30001   2.897   3.105   9.819 -0.0753 -0.4113  0.2615
 6122SOL    HW130002   2.803   3.121   9.827  0.1593  1.4583 -0.8442
 6122SOL    HW230003   2.925   3.188   9.779  3.9237 -1.9797 -0.2426
 6123SOL     OW30004   1.133   3.314   2.883  0.1647  0.6373 -0.5103
 6123SOL    HW130005   1.171   3.369   2.815  0.6977  1.6146  0.5851
 6123SOL    HW230006   1.064   3.370   2.917  0.4046  0.7082 -0.1457
 6124SOL     OW30007   4.717   2.724   1.064  0.7582 -0.7481  0.0644
 6124SOL    HW130008   0.026   2.784   1.124 -0.9892  1.7907 -1.1467
 6124SOL    HW230009   4.632   2.767   1.053  0.4323 -1.2657  0.5818
 6125SOL     OW30010   0.225   1.616   8.131  0.0433  0.2863 -0.7300
 6125SOL    HW130011   0.184   1.561   8.065 -0.1192 -1.0076  0.4666
 6125SOL    HW230012   0.311   1.576   8.143  0.3934  0.0181 -4.2744
 6126SOL     OW30013   1.636   1.434  14.688 -0.4757  0.1543  0.1111
 6126SOL    HW130014   1.689   1.513  14.695 -1.4196  0.6353  1.9521
 6126SOL    HW230015   1.581   1.438  14.766 -1.4511  0.4853 -0.5839
 6127SOL     OW30016   1.607   0.300  15.564 -0.7653  0.4808  0.5744
 6127SOL    HW130017   1.679   0.260  15.516 -1.4982 -1.1019  0.7838
 6127SOL    HW230018   1.611   0.257  15.650 -1.6403 -0.1848  0.2812
 6128SOL     OW30019   4.576   2.213   9.153 -0.0004 -0.1990 -0.1549
 6128SOL    HW130020   4.583   2.173   9.066 -0.4823 -0.0103 -0.2824
 6128SOL    HW230021   4.494   2.180   9.190 -0.6767 -0.7880 -2.1314
 6129SOL     OW30022   0.247   2.094   2.914  0.2166  0.7241  0.1971
 6129SOL    HW130023   0.314   2.058   2.972  1.8211  2.3520 -0.6230
 6129SOL    HW230024   0.165   2.063   2.952  1.3966  1.2531  3.1644
 6130SOL     OW30025   2.341   4.525   6.513 -0.0438  0.4783 -0.0839
 6130SOL    HW130026   2.261   4.546   6.562 -0.7525 -0.2614 -0.9209
 6130SOL    HW230027   2.368   4.451   6.567 -0.4385 -0.9923 -1.9183
 6131SOL     OW30028   1.674   0.615   1.374 -0.2574 -0.6243 -0.0335
 6131SOL    HW130029   1.691   0.705   1.402  1.2527 -0.9383  0.0984
 6131SOL    HW230030   1.629   0.622   1.289 -1.6731  2.4826  0.9626
 6132SOL     OW30031   0.452   4.341   0.781  0.4893  0.6324  0.6245
 6132SOL    HW130032   0.493   4.323   0.696 -3.4933  0.3098 -1.2453
 6132SOL    HW230033   0.524   4.383   0.828 -0.1826  0.4469  1.8294
 6133SOL     OW30034   2.311   3.561   4.924  0.0580 -0.1309  0.0076
 6133SOL    HW130035   2.400   3.593   4.936 -0.7431  1.6863  1.0239
 6133SOL    HW230036   2.314   3.519   4.838  0.2220  1.8187 -0.9394
 6134SOL     OW30037   0.911   4.497   2.775 -0.4387 -0.2925 -0.2702
 6134SOL    HW130038   0.950   4.410   2.766  1.7091  0.5439  0.8106
 6134SOL    HW230039   0.987   4.541   2.813 -0.8909  0.3939 -0.1670
 6135SOL     OW30040   4.352   1.363   3.989 -0.0593  0.4233  0.2317
 6135SOL    HW130041   4.388   1.394   4.072  1.5020  0.9883 -0.6639
 6135SOL    HW230042   4.260   1.387   3.998 -0.9728 -3.1295  0.4319
 6136SOL     OW30043   4.069   0.357   8.474 -0.3325  0.0073  0.1240
 6136SOL    HW130044   4.114   0.399   8.400 -1.8762  0.3528 -0.6195
 6136SOL    HW230045   4.035   0.436   8.517  2.4681 -0.0403  2.4021
 6137SOL     OW30046   1.463   1.988  13.638 -0.4801 -0.2663 -0.1555
 6137SOL    HW130047   1.395   1.999  13.570  0.1275 -1.2409 -0.9153
 6137SOL    HW230048   1.430   1.911  13.684 -0.8217  0.3506  0.6350
 6138SOL     OW30049   0.073   1.948   3.117 -0.4515  1.0932 -0.1956
 6138SOL    HW130050   0.008   2.017   3.121 -0.6390  0.7862  1.7482
 6138SOL    HW230051   0.033   1.861   3.120 -0.1827  0.9993  0.7228
 6139SOL     OW30052   3.022   0.411   2.128  0.8421  0.3395 -0.0152
 6139SOL    HW130053   3.113   0.441   2.123  1.3535 -1.5658 -1.7526
 6139SOL    HW230054   2.980   0.462   2.059 -0.8449 -2.1656 -0.8426
 6140SOL     OW30055   2.280   3.640   9.868  0.2245  0.6508 -0.3445
 6140SOL    HW130056   2.259   3.570   9.807 -0.5718  1.2550 -0.7714
 6140SOL    HW230057   2.323   3.594   9.940  1.2819 -0.1863 -1.5165
 6141SOL     OW30058   2.312   1.101  16.079 -0.0622  0.4181  0.0977
 6141SOL    HW130059   2.224   1.075  16.050  1.2341 -3.0792 -0.6372
 6141SOL    HW230060   2.292   1.169  16.144 -0.9986  0.8677 -0.6593
 6142SOL     OW30061   4.090   0.945   3.156  0.0135  0.1200 -0.5808
 6142SOL    HW130062   4.018   0.916   3.212  0.4394 -1.1078 -0.6797
 6142SOL    HW230063   4.097   1.037   3.180  1.1006  0.3206 -1.6438
 6143SOL     OW30064   2.772   4.182   2.381  0.3044 -0.2373 -0.2593
 6143SOL    HW130065   2.782   4.106   2.439  1.5326  1.0591  1.2416
 6143SOL    HW230066   2.736   4.131   2.309 -0.7551  0.9204 -0.5362
 6144SOL     OW30067   1.571   2.580   3.415 -0.2885  0.1003  0.2006
 6144SOL    HW130068   1.641   2.644   3.403  0.5644 -0.6402  1.2686
 6144SOL    HW230069   1.491   2.630   3.398  0.0650  1.1833  1.7237
 6145SOL     OW30070   0.709   2.197   2.884  0.0995 -0.0296 -0.1173
 6145SOL    HW130071   0.801   2.175   2.899  0.5855  2.0811  0.0198
 6145SOL    HW230072   0.665   2.209   2.968  0.9753 -0.0172  0.3393
 6146SOL     OW30073   2.332   0.380  16.774  0.1634 -0.6787  0.2485
 6146SOL    HW130074   2.388   0.371  16.851  1.0071 -1.3357 -0.4466
 6146SOL    HW230075   2.248   0.361  16.815  1.2024 -2.3904  1.6119
 6147SOL     OW30076   0.024   4.181   7.433  0.3468  0.6302  0.0507
 6147SOL    HW130077   4.677   4.179   7.482 -0.7491 -0.4253 -1.8608
 6147SOL    HW230078   0.077   4.113   7.474 -1.5391 -0.4105  0.7864
 6148SOL     OW30079   1.787   2.742   3.402  0.5929 -0.1441  0.0445
 6148SOL    HW130080   1.854   2.703   3.459  0.8387  0.8347  0.4261
 6148SOL    HW230081   1.842   2.759   3.326 -0.5535 -1.8976 -1.1772
 6149SOL     OW30082   2.076   3.756   1.271 -0.2107  0.8120 -0.2793
 6149SOL    HW130083   2.053   3.668   1.301  1.3361  0.5095 -0.0149
 6149SOL    HW230084   2.170   3.748   1.256 -0.3987  0.2383 -1.1365
 6150SOL     OW30085   4.586   3.531   9.308  0.5826  0.0861  0.4220
 6150SOL    HW130086   4.611   3.620   9.332 -0.1086  0.8579 -1.7071
 6150SOL    HW230087   4.503   3.544   9.261 -0.3986 -0.6670  1.9699
 6151SOL     OW30088   3.188   3.465   6.094 -0.1611  0.2446 -0.2058
 6151SOL    HW130089   3.248   3.459   6.020  1.4253  1.1884  1.0035
 6151SOL    HW230090   3.251   3.452   6.165  0.6942 -1.0612 -1.2101
 6152SOL     OW30091   1.997   0.338   5.162 -0.1916 -0.1545  0.1065
 6152SOL    HW130092   1.950   0.414   5.127  0.6994  0.1622 -0.4089
 6152SOL    HW230093   2.064   0.327   5.094 -0.2701  0.8251 -0.1345
 6153SOL     OW30094   3.081   4.531  15.625 -0.1887  0.0698 -0.4438
 6153SOL    HW130095   3.061   4.439  15.609  0.0297  0.1125 -0.9413
 6153SOL    HW230096   3.169   4.540  15.661 -0.4908  0.4161  0.2237
 6154SOL     OW30097   1.821   3.249  10.809  0.0677  0.3529 -0.0081
 6154SOL    HW130098   1.742   3.222  10.762  1.4014 -0.8602 -1.5451
 6154SOL    HW230099   1.835   3.175  10.868  1.7678  0.8677  0.2208
 6155SOL     OW30100   2.173   3.208   3.064 -0.5411  0.2150  0.1150
 6155SOL    HW130101   2.264   3.187   3.046 -1.1367 -2.3921  0.1438
 6155SOL    HW230102   2.149   3.231   2.975  2.1764 -2.0943 -1.2026
 6156SOL     OW30103   4.609   3.778   3.814  0.0929  0.4577 -0.5003
 6156SOL    HW130104   4.659   3.834   3.873 -0.4841  0.7398 -0.2777
 6156SOL    HW230105   4.670   3.705   3.806 -0.9732 -0.4153 -0.6243
 6157SOL     OW30106   0.694   2.338   9.106 -0.4377 -0.1559 -0.0085
 6157SOL    HW130107   0.698   2.376   9.018  3.1930 -0.5100  0.0205
 6157SOL    HW230108   0.729   2.252   9.088 -0.3592 -0.5497  2.0348
 6158SOL     OW30109   1.222   2.251  11.407  0.7056  0.3157  0.5533
 6158SOL    HW130110   1.240   2.344  11.411  2.3064  0.0641 -0.7704
 6158SOL    HW230111   1.277   2.231  11.331 -0.2562  1.6219 -0.4888
 6159SOL     OW30112   1.534   3.757   8.493  0.6414 -0.1661  0.2633
 6159SOL    HW130113   1.507   3.711   8.413  2.7427 -2.7108  1.0141
 6159SOL    HW230114   1.508   3.688   8.555  1.5165  0.5131  1.3893
 6160SOL     OW30115   2.797   1.478   8.339 -0.4253 -0.1379  0.0604
 6160SOL    HW130116   2.730   1.440   8.281  1.6142 -2.4406 -0.7604
 6160SOL    HW230117   2.743   1.503   8.414 -1.1266 -0.2919 -0.3895
 6161SOL     OW30118   2.606   0.007   4.109 -1.0435  0.4520 -0.1212
 6161SOL    HW130119   2.572   0.096   4.101  2.9115  1.8749 -1.3036
 6161SOL    HW230120   2.650   4.733   4.024  1.2177  0.2474  1.0751
 6162SOL     OW30121   3.833   2.654   8.914 -0.3061 -0.0022  0.3403
 6162SOL    HW130122   3.916   2.631   8.955 -0.6957 -1.8675  0.1052
 6162SOL    HW230123   3.848   2.641   8.820  2.2362 -0.7518  0.8456
 6163SOL     OW30124   0.267   4.424   6.052 -0.1607 -0.1420 -0.6950
 6163SOL    HW130125   0.276   4.347   5.995  0.4717  0.5181 -1.4866
 6163SOL    HW230126   0.243   4.379   6.133 -0.9551  0.5287 -0.5612
 6164SOL     OW30127   3.373   2.849   1.576  0.2213  0.2584 -0.6993
 6164SOL    HW130128   3.445   2.788   1.594  0.6242  0.2309 -2.3965
 6164SOL    HW230129   3.380   2.910   1.650  0.2197 -1.8365  1.0241
 6165SOL     OW30130   4.322   3.011   7.058  0.0282  0.1485 -0.2755
 6165SOL    HW130131   4.239   3.058   7.066 -0.1886 -0.2922  0.0784
 6165SOL    HW230132   4.356   3.028   7.146  0.0941  1.6015 -0.5846
 6166SOL     OW30133   0.788   0.857   1.482  0.0257 -0.3925 -0.1065
 6166SOL    HW130134   0.743   0.936   1.453 -2.6412 -1.4334  1.2181
 6166SOL    HW230135   0.872   0.869   1.439 -0.7185  0.0771 -1.4239
 6167SOL     OW30136   1.419   2.351  14.128 -0.4100 -0.1888  0.5209
 6167SOL    HW130137   1.417   2.255  14.120 -2.8727 -0.0568 -0.7648
 6167SOL    HW230138   1.328   2.371  14.104 -0.6521 -0.6008  1.1029
 6168SOL     OW30139   0.439   1.318   2.946 -0.7945 -0.0275  0.3737
 6168SOL    HW130140   0.427   1.291   3.036  1.4103  3.0980  1.6174
 6168SOL    HW230141   0.353   1.293   2.910  0.8745 -1.3118 -2.7443
 6169SOL     OW30142   0.355   4.023   8.865 -0.1889 -0.3478 -0.5222
 6169SOL    HW130143   0.362   4.118   8.862 -0.8479 -0.2593  1.1406
 6169SOL    HW230144   0.269   4.019   8.823 -0.1871 -0.6138 -0.5000
 6170SOL     OW30145   2.573   0.665   0.489 -0.6533 -0.0170 -0.1672
 6170SOL    HW130146   2.565   0.570   0.477  1.5886 -0.3239  0.7087
 6170SOL    HW230147   2.550   0.695   0.401 -0.5599  2.4100  0.6377
 6171SOL     OW30148   3.014   4.037  16.663 -0.2072  0.0897 -0.7351
 6171SOL    HW130149   2.998   4.043  16.568 -2.8981 -1.1293 -0.3578
 6171SOL    HW230150   2.998   3.945  16.682  0.5223  0.2720  0.7160
 6172SOL     OW30151   2.441   4.523  13.649 -0.3638 -1.0324 -0.1867
 6172SOL    HW130152   2.381   4.576  13.703  0.2803  0.0625 -0.5416
 6172SOL    HW230153   2.468   4.452  13.706 -0.1762  0.8073  2.0155
 6173SOL     OW30154   3.494   1.153  17.401  0.3531 -0.0893  0.0639
 6173SOL    HW130155   3.422   1.099  17.434 -0.4183  0.6825 -0.3556
 6173SOL    HW230156   3.458   1.173  17.314  1.3207 -0.5315 -0.4389
 6174SOL     OW30157   0.866   2.643   5.483  0.1404 -0.7218 -0.1492
 6174SOL    HW130158   0.847   2.560   5.527  1.8475 -0.2094  1.5554
 6174SOL    HW230159   0.795   2.699   5.514  1.3689  0.5625  0.3544
 6175SOL     OW30160   2.485   4.368  14.087  0.6800 -0.0091 -0.4442
 6175SOL    HW130161   2.497   4.456  14.122 -1.3872 -0.5553  1.6635
 6175SOL    HW230162   2.436   4.314  14.149 -1.4331  0.4884 -1.6724
 6176SOL     OW30163   0.101   4.074  13.668  0.2552 -0.1893  0.1906
 6176SOL    HW130164   0.017   4.112  13.645  1.5612  2.1051 -0.7728
 6176SOL    HW230165   0.106   3.992  13.617  0.3477 -0.1750  0.1757
 6177SOL     OW30166   0.406   1.912   2.645  0.0566  0.4419 -0.1603
 6177SOL    HW130167   0.394   1.895   2.551  0.1794 -0.4751 -0.0085
 6177SOL    HW230168   0.340   1.979   2.660  0.1085 -0.2774  3.1199
 6178SOL     OW30169   3.379   4.430  13.004  0.3049 -0.2825  0.6170
 6178SOL    HW130170   3.375   4.496  12.935  0.1716  0.5916  1.4726
 6178SOL    HW230171   3.412   4.353  12.958  0.0197 -0.0331 -0.0180
 6179SOL     OW30172   1.580   0.674  10.939  0.3644  0.3350 -0.3043
 6179SOL    HW130173   1.597   0.584  10.969  1.5866 -0.0440 -2.1408
 6179SOL    HW230174   1.487   0.669  10.916  0.2547 -1.9717  0.5930
 6180SOL     OW30175   4.338   3.070   1.195  0.6259  0.0857  0.3196
 6180SOL    HW130176   4.374   3.151   1.231  1.4834  0.0522 -0.4692
 6180SOL    HW230177   4.247   3.061   1.226 -0.0722  1.1590 -1.4222
 6181SOL     OW30178   4.699   0.108  12.402 -0.1323  0.7522 -0.2654
 6181SOL    HW130179   4.660   0.071  12.323  0.1518 -0.0674 -0.0217
 6181SOL    HW230180   4.643   0.184  12.419 -1.3760 -0.0092 -1.0043
 6182SOL     OW30181   0.795   0.828   5.856 -0.3371 -0.8828  0.0562
 6182SOL    HW130182   0.766   0.905   5.904  0.6830  1.1914 -2.6442
 6182SOL    HW230183   0.728   0.826   5.787  1.6735 -0.1247 -1.9357
 6183SOL     OW30184   0.174   2.431   5.079 -0.1413 -0.5162  0.1915
 6183SOL    HW130185   0.196   2.517   5.045  2.5831 -0.6330  1.6805
 6183SOL    HW230186   0.249   2.418   5.136  0.1461 -1.0983 -0.3280
 6184SOL     OW30187   2.899   2.051   6.273 -0.1355  0.3630 -0.3456
 6184SOL    HW130188   2.836   2.056   6.201  0.1417  1.9074 -0.4766
 6184SOL    HW230189   2.937   2.138   6.285 -0.7139  0.5381  0.2586
 6185SOL     OW30190   3.503   3.976   9.777 -0.0423 -0.3792 -0.3180
 6185SOL    HW130191   3.505   4.063   9.816 -0.1823 -0.6158  0.2145
 6185SOL    HW230192   3.430   3.924   9.811 -0.8660 -0.3453 -1.9928
 6186SOL     OW30193   4.613   3.118  10.104  0.6371 -0.1906  0.0660
 6186SOL    HW130194   4.629   3.178  10.177  2.2152  0.0818 -0.5239
 6186SOL    HW230195   4.559   3.048  10.142 -1.5530  1.1115 -0.6585
 6187SOL     OW30196   3.129   2.423   3.239  0.4274 -0.0825 -0.6077
 6187SOL    HW130197   3.115   2.473   3.320  1.0876  0.8950 -1.0984
 6187SOL    HW230198   3.057   2.363   3.256 -1.4280  1.9479 -1.3338
 6188SOL     OW30199   1.057   3.047   2.817  0.0999 -0.3218  0.3593
 6188SOL    HW130200   1.062   3.026   2.723 -1.1528 -1.5544  0.5764
 6188SOL    HW230201   1.113   3.124   2.809 -1.2587  0.8716  2.5725
 6189SOL     OW30202   3.307   0.998   1.825 -0.1727  0.2991  0.1250
 6189SOL    HW130203   3.352   0.959   1.899  1.8853  1.2583 -0.6269
 6189SOL    HW230204   3.265   1.075   1.863  1.3824  1.0863  0.2475
 6190SOL     OW30205   1.863   0.246   4.146 -0.0405 -0.0771  0.0441
 6190SOL    HW130206   1.796   0.202   4.093 -1.1111  1.9345 -0.3091
 6190SOL    HW230207   1.808   0.276   4.218 -1.7225  0.6259 -1.5227
 6191SOL     OW30208   3.312   2.169  17.035 -0.0416 -0.3813  0.4474
 6191SOL    HW130209   3.258   2.247  17.030  2.5897  1.3768 -0.3438
 6191SOL    HW230210   3.389   2.199  17.084 -0.6540  1.4735  0.2485
 6192SOL     OW30211   3.870   2.186  14.439 -0.2390 -0.2993  0.4488
 6192SOL    HW130212   3.793   2.144  14.402  0.2754  0.5428 -1.5835
 6192SOL    HW230213   3.888   2.124  14.510  1.8729  0.6580  0.7731
 6193SOL     OW30214   0.986   4.686   3.533  0.4495 -1.0413 -0.5948
 6193SOL    HW130215   0.940   4.646   3.460  1.0876 -1.6949 -0.6428
 6193SOL    HW230216   1.070   4.646   3.508  0.6255 -0.7191 -0.5197
 6194SOL     OW30217   3.419   2.388   8.798  0.0012 -0.6999 -0.3426
 6194SOL    HW130218   3.393   2.316   8.856  0.5952 -0.1764  0.5875
 6194SOL    HW230219   3.510   2.408   8.822 -0.7548  0.5349  1.5022
 6195SOL     OW30220   0.246   2.140  17.707  0.3204 -0.0165  0.3783
 6195SOL    HW130221   0.262   2.218  17.655 -0.4643 -0.0337  0.1189
 6195SOL    HW230222   0.262   2.163   0.057 -1.1914  2.6693 -0.0691
 6196SOL     OW30223   1.955   2.782   5.227 -0.2400  0.1094  0.0705
 6196SOL    HW130224   1.927   2.871   5.247  2.0721  0.9447 -0.3169
 6196SOL    HW230225   1.969   2.740   5.311 -0.3311  0.9488  0.5036
 6197SOL     OW30226   4.047   0.920   5.029 -0.0182 -0.2674 -0.4189
 6197SOL    HW130227   4.014   0.857   5.094  0.2421 -0.3635 -0.3782
 6197SOL    HW230228   3.976   0.913   4.966 -1.5466 -1.6261  1.4505
 6198SOL     OW30229   0.634   2.872  14.517  0.5301 -0.3692 -0.0014
 6198SOL    HW130230   0.729   2.874  14.500  0.7382 -1.9284  0.9903
 6198SOL    HW230231   0.634   2.888  14.611  0.5997  2.2848 -0.4633
 6199SOL     OW30232   4.248   2.685   6.610 -0.2282  0.2516 -0.2433
 6199SOL    HW130233   4.249   2.726   6.523  1.6749 -0.2420 -0.4583
 6199SOL    HW230234   4.258   2.761   6.668 -2.4601 -0.9667  1.7099
 6200SOL     OW30235   1.046   1.520   0.353 -0.0680  0.1488  0.0179
 6200SOL    HW130236   0.955   1.507   0.328  0.0032 -0.5131  0.0814
 6200SOL    HW230237   1.056   1.606   0.393 -2.7722 -0.4784  2.0091
 6201SOL     OW30238   2.553   3.092  10.845 -0.2651 -0.3883  0.1290
 6201SOL    HW130239   2.523   3.132  10.764  0.3065 -0.3162 -0.0527
 6201SOL    HW230240   2.544   3.176  10.890  1.1482 -1.7838  3.0209
 6202SOL     OW30241   0.476   0.391   2.726  0.7222  0.3455 -0.3978
 6202SOL    HW130242   0.556   0.397   2.674  0.1399 -0.6367 -1.4227
 6202SOL    HW230243   0.515   0.430   2.804 -0.4668 -1.6802  1.2245
 6203SOL     OW30244   2.382   4.207   6.199 -0.1191 -0.5541  0.0749
 6203SOL    HW130245   2.426   4.292   6.205  1.6449 -1.3651 -1.4619
 6203SOL    HW230246   2.381   4.201   6.104 -2.7803  1.2935 -0.0311
 6204SOL     OW30247   2.780   2.626   3.114  0.2129  0.3452  0.2554
 6204SOL    HW130248   2.744   2.545   3.151  0.7002 -0.4342 -0.9606
 6204SOL    HW230249   2.702   2.681   3.112 -0.9859 -1.3173  0.9105
 6205SOL     OW30250   3.246   0.500   9.210  0.2244  0.0264  0.1806
 6205SOL    HW130251   3.182   0.510   9.280  1.4798  1.0442  1.1817
 6205SOL    HW230252   3.272   0.590   9.188  0.7481 -0.1913 -0.1045
 6206SOL     OW30253   3.403   0.592   5.567  0.4868 -0.2700  0.5454
 6206SOL    HW130254   3.355   0.557   5.642 -0.6043  2.9307  1.3636
 6206SOL    HW230255   3.488   0.609   5.608  0.8928  0.4289 -0.5887
 6207SOL     OW30256   2.457   4.665   8.019  0.8777 -0.7767 -0.2895
 6207SOL    HW130257   2.443   4.591   7.959 -1.9025  0.6238 -1.3530
 6207SOL    HW230258   2.552   4.662   8.023  0.9391  2.2135  0.4528
 6208SOL     OW30259   2.033   2.325   3.274 -0.0438  0.0961  0.6475
 6208SOL    HW130260   2.111   2.276   3.301 -0.2773  1.2845  3.5718
 6208SOL    HW230261   1.976   2.258   3.237 -0.5115  1.5494 -1.2735
 6209SOL     OW30262   0.265   4.226   2.199  0.1374  0.3670  0.1017
 6209SOL    HW130263   0.318   4.264   2.270  1.2123 -1.5346  0.3311
 6209SOL    HW230264   0.308   4.260   2.121  1.2993 -0.5505  0.3359
 6210SOL     OW30265   2.208   4.619   3.351 -0.0072  0.1815  0.0536
 6210SOL    HW130266   2.141   4.682   3.323  0.6287  0.8942  0.1545
 6210SOL    HW230267   2.284   4.672   3.327  0.1870 -0.3229 -0.4377
 6211SOL     OW30268   2.562   3.704   8.973 -0.2104  0.1561 -0.3045
 6211SOL    HW130269   2.481   3.754   8.972 -0.4653 -0.2657 -0.4689
 6211SOL    HW230270   2.633   3.761   9.005  0.2503  0.5958 -2.1023
 6212SOL     OW30271   3.545   4.468   6.819  0.2101  0.2063 -0.5094
 6212SOL    HW130272   3.615   4.533   6.812  0.6811 -0.2665 -0.1363
 6212SOL    HW230273   3.603   4.404   6.861 -0.7872 -0.3639  0.0149
 6213SOL     OW30274   3.215   2.156   8.314  0.6167  0.1311  0.7934
 6213SOL    HW130275   3.127   2.184   8.289  0.8238 -1.3754 -1.6432
 6213SOL    HW230276   3.210   2.194   8.402 -0.5455 -0.3051  0.9232
 6214SOL     OW30277   0.444   0.315   6.176  0.6388  0.0980  0.3847
 6214SOL    HW130278   0.404   0.235   6.208 -1.1651  1.1440  0.7388
 6214SOL    HW230279   0.388   0.380   6.219 -0.6883  1.1359 -2.9544
 6215SOL     OW30280   2.228   4.700  14.943 -0.0227  0.3101  0.2760
 6215SOL    HW130281   2.323   4.698  14.935 -0.1502 -1.2339 -0.7999
 6215SOL    HW230282   2.207   4.617  14.900  1.1163 -0.0610  0.4528
 6216SOL     OW30283   1.277   1.052  16.219  0.0540  0.0368  0.5614
 6216SOL    HW130284   1.273   1.064  16.314  4.5414  0.2610  0.7127
 6216SOL    HW230285   1.262   1.133  16.170  1.7575  0.3771  0.6105
 6217SOL     OW30286   3.280   0.319   2.947 -0.1477 -0.2243 -0.3012
 6217SOL    HW130287   3.201   0.271   2.921 -1.1542  1.1742  0.2121
 6217SOL    HW230288   3.250   0.360   3.028 -1.6915  4.0690 -3.0236
 6218SOL     OW30289   0.789   1.548   2.082 -0.6566 -0.2682 -0.2047
 6218SOL    HW130290   0.711   1.540   2.027 -0.4020  0.5012 -0.6927
 6218SOL    HW230291   0.840   1.469   2.069 -2.9652 -1.8453  0.3536
 6219SOL     OW30292   0.477   2.412   2.298 -0.0199  0.2319 -0.0213
 6219SOL    HW130293   0.466   2.497   2.342  1.0287  0.7307 -0.7253
 6219SOL    HW230294   0.465   2.435   2.206 -0.5808 -1.4069 -0.3478
 6220SOL     OW30295   2.443   1.327  11.488  0.2188  0.2531  0.4738
 6220SOL    HW130296   2.401   1.255  11.535 -0.3595 -0.0789 -0.5594
 6220SOL    HW230297   2.407   1.400  11.539  0.6063  0.0314  1.0636
 6221SOL     OW30298   4.355   4.511   9.251  0.3038  0.7066 -0.1676
 6221SOL    HW130299   4.437   4.556   9.227  0.4762  0.5763  0.1860
 6221SOL    HW230300   4.355   4.538   9.342 -0.8570  0.0979  0.0091
 6222SOL     OW30301   3.364   1.855   2.765  0.0463 -0.0723  0.6092
 6222SOL    HW130302   3.369   1.835   2.858  0.3555 -0.2418  0.5593
 6222SOL    HW230303   3.303   1.928   2.759  0.8377  0.4123 -1.7365
 6223SOL     OW30304   0.740   1.155  15.570  0.4261  0.8865 -0.0217
 6223SOL    HW130305   0.686   1.080  15.548  0.7848  1.1612 -1.7912
 6223SOL    HW230306   0.765   1.177  15.481  1.0409 -0.5688 -0.2006
 6224SOL     OW30307   4.353   4.083   3.075 -0.0468 -0.6974  0.4425
 6224SOL    HW130308   4.264   4.050   3.066 -0.8802  1.0737  2.1455
 6224SOL    HW230309   4.333   4.176   3.084 -1.2260 -0.8065 -1.1257
 6225SOL     OW30310   2.865   2.565   7.235  0.0489 -0.2221  0.2836
 6225SOL    HW130311   2.839   2.603   7.319  1.7740  0.2639  0.6152
 6225SOL    HW230312   2.793   2.524   7.188  0.2548 -1.7272  1.2701
 6226SOL     OW30313   2.237   1.021   1.677  1.0576 -0.4818 -0.5609
 6226SOL    HW130314   2.326   1.057   1.680  0.5395  0.8584 -1.0582
 6226SOL    HW230315   2.247   0.939   1.725 -4.0844 -0.9340 -0.3004
 6227SOL     OW30316   4.402   2.745  10.015 -0.1486 -0.1245 -0.1209
 6227SOL    HW130317   4.335   2.700  10.067  1.1696 -1.0743  0.7754
 6227SOL    HW230318   4.397   2.835  10.048  1.3632  0.1728 -0.6976
 6228SOL     OW30319   4.008   0.978   1.101  0.2276 -0.2645  0.4355
 6228SOL    HW130320   3.944   0.996   1.032 -0.6141  1.0770  1.5736
 6228SOL    HW230321   4.043   0.899   1.061  0.4574  0.4489 -0.7559
 6229SOL     OW30322   3.994   2.590   6.590  0.5219  0.8329  0.4060
 6229SOL    HW130323   4.007   2.539   6.510  1.5006  0.2161  0.9549
 6229SOL    HW230324   4.079   2.634   6.599 -0.0965  1.5511  2.8058
 6230SOL     OW30325   2.245   1.016   9.855  0.3959 -0.9738 -0.4674
 6230SOL    HW130326   2.336   1.046   9.857  0.0493  0.1668 -1.5093
 6230SOL    HW230327   2.196   1.097   9.843 -0.5076 -1.4196  0.2740
 6231SOL     OW30328   2.877   1.342   2.038 -0.0062 -0.5849  0.2432
 6231SOL    HW130329   2.963   1.375   2.062 -0.9410  1.3922  0.8712
 6231SOL    HW230330   2.897   1.249   2.045  0.9936 -0.3899 -0.0848
 6232SOL     OW30331   1.067   3.156  12.453  0.0956  0.0122 -0.3546
 6232SOL    HW130332   1.098   3.239  12.417 -1.7050  1.0317  0.4391
 6232SOL    HW230333   0.973   3.175  12.452  0.0268 -0.2788  1.4229
 6233SOL     OW30334   1.868   3.775   6.827  0.4594 -0.3606  0.2409
 6233SOL    HW130335   1.786   3.807   6.866  0.0364  0.6582 -1.4789
 6233SOL    HW230336   1.890   3.701   6.883  1.5799 -0.2058  0.0029
 6234SOL     OW30337   3.785   0.678  16.436  0.0949 -0.1183 -0.3106
 6234SOL    HW130338   3.730   0.601  16.448 -2.3178  1.6603  0.0978
 6234SOL    HW230339   3.772   0.686  16.341 -1.5219  0.0700 -0.0723
 6235SOL     OW30340   3.393   4.611   9.294 -0.4890  0.3062  0.1078
 6235SOL    HW130341   3.382   4.522   9.262  0.5394  0.0097  0.5694
 6235SOL    HW230342   3.481   4.628   9.259 -0.9588  1.9589 -0.2571
 6236SOL     OW30343   2.900   3.376   4.517 -0.3974  0.0010 -0.1120
 6236SOL    HW130344   2.856   3.322   4.583  0.1696  1.5538  1.5376
 6236SOL    HW230345   2.839   3.444   4.489  0.1511  0.8097  0.6797
 6237SOL     OW30346   1.734   4.120   2.369 -0.1866 -0.1865 -0.5460
 6237SOL    HW130347   1.773   4.057   2.430 -0.9238 -0.9458 -0.8515
 6237SOL    HW230348   1.797   4.119   2.297 -1.3570 -0.4431 -1.5679
 6238SOL     OW30349   1.613   0.423  15.159 -0.2542  0.1469  0.2548
 6238SOL    HW130350   1.542   0.449  15.218  1.3311 -0.1348  2.3198
 6238SOL    HW230351   1.689   0.467  15.199 -0.4054  0.7386 -0.1100
 6239SOL     OW30352   0.004   3.849   4.047 -0.4233 -0.3489  0.0855
 6239SOL    HW130353   0.075   3.798   4.086 -0.6611 -1.4796 -0.9686
 6239SOL    HW230354   4.732   3.923   4.107  3.5021 -0.3744  0.6519
 6240SOL     OW30355   3.803   2.974   8.614  0.4579 -0.0356  0.4760
 6240SOL    HW130356   3.758   3.004   8.535  0.6405 -1.3389 -0.1160
 6240SOL    HW230357   3.753   2.892   8.619  0.8661 -0.2977  0.1952
 6241SOL     OW30358   3.229   1.196   8.364 -0.3662 -0.0484  0.3160
 6241SOL    HW130359   3.186   1.280   8.354  0.4234  0.2452 -0.5771
 6241SOL    HW230360   3.227   1.179   8.458 -2.9863  1.9646  0.6334
 6242SOL     OW30361   1.716   2.169  14.043 -1.0276 -0.0871 -0.0917
 6242SOL    HW130362   1.744   2.260  14.053 -0.3300 -0.5031  1.7612
 6242SOL    HW230363   1.786   2.113  14.078 -1.9023  0.0559  1.8692
 6243SOL     OW30364   2.962   2.028  13.146 -0.1143 -0.0292 -0.4458
 6243SOL    HW130365   3.003   1.944  13.126  0.0766 -0.4651  1.7621
 6243SOL    HW230366   3.002   2.091  13.087  2.7096 -0.0835  1.3762
 6244SOL     OW30367   0.523   2.987   9.423  0.4489 -0.1103 -0.4689
 6244SOL    HW130368   0.505   3.074   9.386 -0.3675 -0.2104 -0.3195
 6244SOL    HW230369   0.447   2.939   9.390  0.7812 -0.5010 -0.6610
 6245SOL     OW30370   4.364   1.046   6.219 -0.0491  0.3312  0.0148
 6245SOL    HW130371   4.361   1.110   6.148  1.9785 -0.7153 -1.0186
 6245SOL    HW230372   4.376   1.104   6.294 -0.2158 -0.6922  0.8229
 6246SOL     OW30373   3.270   2.356   2.484 -0.3774 -0.2306  0.2395
 6246SOL    HW130374   3.211   2.281   2.479 -1.5034  0.6203  0.7130
 6246SOL    HW230375   3.225   2.414   2.547 -0.5165 -0.3903  0.2865
 6247SOL     OW30376   0.908   0.307  10.479 -0.0593  0.7407  0.0153
 6247SOL    HW130377   0.949   0.254  10.411 -0.1891  1.4168 -0.5908
 6247SOL    HW230378   0.817   0.311  10.450  0.0048 -0.9113 -0.3836
 6248SOL     OW30379   0.813   3.200  16.306 -0.4472 -0.6396  0.3804
 6248SOL    HW130380   0.738   3.191  16.365  0.3641  0.3239  1.5704
 6248SOL    HW230381   0.811   3.294  16.291  0.2142 -0.8213 -0.7937
 6249SOL     OW30382   2.059   0.066   2.574 -0.5071 -0.4996  0.1413
 6249SOL    HW130383   2.047   0.030   2.487 -0.0366  0.3918 -0.2922
 6249SOL    HW230384   2.050   0.161   2.564 -2.4085 -0.5512  1.3024
 6250SOL     OW30385   0.092   1.111   8.913 -0.1804  0.0965 -0.3021
 6250SOL    HW130386   0.164   1.055   8.942  0.9388  2.1766  0.9780
 6250SOL    HW230387   0.016   1.053   8.912 -0.6856  0.6577  3.6633
 6251SOL     OW30388   0.532   0.760   7.668  1.1367 -0.6684 -0.0917
 6251SOL    HW130389   0.534   0.784   7.576 -0.8996 -0.6338 -0.1268
 6251SOL    HW230390   0.597   0.822   7.703  0.1533  1.1397 -1.4330
 6252SOL     OW30391   3.300   2.772   6.317  0.4302  0.1167  0.2278
 6252SOL    HW130392   3.322   2.859   6.349  0.8068 -0.8625  2.6748
 6252SOL    HW230393   3.366   2.745   6.253 -1.0067 -4.2493  0.5345
 6253SOL     OW30394   2.471   4.529   6.053  0.5687 -0.2613 -0.6359
 6253SOL    HW130395   2.404   4.580   6.098  0.0236 -3.0812  1.8071
 6253SOL    HW230396   2.511   4.482   6.127  1.4579  0.5842 -0.5774
 6254SOL     OW30397   2.868   2.052   4.656  0.0663 -0.2711 -1.1764
 6254SOL    HW130398   2.822   2.003   4.724  0.1742 -1.1898 -1.7618
 6254SOL    HW230399   2.951   2.006   4.668  0.0166 -0.4041 -1.3428
 6255SOL     OW30400   2.179   1.207   7.603 -0.0636  0.1425 -0.4080
 6255SOL    HW130401   2.158   1.293   7.566 -1.7717  0.5100  1.4212
 6255SOL    HW230402   2.275   1.205   7.611  0.0541  0.2550 -1.7933
 6256SOL     OW30403   1.898   0.398   6.112  0.2282  0.1171  0.0492
 6256SOL    HW130404   1.957   0.458   6.158  0.5513 -0.1445 -0.0221
 6256SOL    HW230405   1.939   0.312   6.123 -1.1065 -0.7877 -1.8344
 6257SOL     OW30406   1.640   3.897   6.869 -0.1502  0.3695 -0.5023
 6257SOL    HW130407   1.644   3.984   6.830  0.4568  1.2111  1.4210
 6257SOL    HW230408   1.547   3.875   6.859 -0.4524  2.4571 -2.2871
 6258SOL     OW30409   4.385   3.776  12.286 -0.1743  0.0989 -0.2861
 6258SOL    HW130410   4.296   3.741  12.288  0.9076 -2.6676 -0.4933
 6258SOL    HW230411   4.432   3.714  12.231  0.4082  1.5847 -1.4677
 6259SOL     OW30412   1.102   1.536  14.808 -0.2282 -0.1701 -0.8549
 6259SOL    HW130413   1.020   1.564  14.848  0.6082 -0.8504  1.3538
 6259SOL    HW230414   1.160   1.590  14.861 -0.7690  0.8188 -1.2852
 6260SOL     OW30415   3.987   0.274  16.248  0.4561 -0.1455  0.3155
 6260SOL    HW130416   3.906   0.291  16.199  0.9813  0.7197 -0.2561
 6260SOL    HW230417   3.955   0.218  16.319 -1.5856 -0.4201 -0.8148
 6261SOL     OW30418   1.902   2.009   7.862  0.1828  0.1174 -0.6963
 6261SOL    HW130419   1.907   2.087   7.919 -1.1783 -0.3849  0.1129
 6261SOL    HW230420   1.812   2.016   7.829  0.0273  0.8795 -0.1313
 6262SOL     OW30421   0.994   4.520   1.973  0.3466 -0.0233 -0.6965
 6262SOL    HW130422   1.058   4.575   2.020 -0.3951  0.4541 -0.2418
 6262SOL    HW230423   0.976   4.581   1.901  0.2064  0.0032 -0.6390
 6263SOL     OW30424   4.650   3.841   6.222  0.4128  0.1317 -0.0416
 6263SOL    HW130425   4.652   3.862   6.315 -0.3418 -0.7999  0.1799
 6263SOL    HW230426   4.654   3.928   6.181  2.4309 -0.5589 -1.3445
 6264SOL     OW30427   0.931   2.471  13.988  0.1328  0.3995 -0.5431
 6264SOL    HW130428   0.955   2.424  13.908 -2.6085  0.1870 -1.2606
 6264SOL    HW230429   0.843   2.438  14.007  0.0077  2.1428  1.8828
 6265SOL     OW30430   2.583   1.062   0.706  0.3811  0.0035 -0.5143
 6265SOL    HW130431   2.627   1.120   0.644  2.0923 -0.2244  0.4860
 6265SOL    HW230432   2.653   1.010   0.746  0.4384  0.6979  0.2909
 6266SOL     OW30433   1.118   0.710  13.468 -0.0872 -0.4334 -0.1501
 6266SOL    HW130434   1.168   0.663  13.535  0.6059  0.3192 -0.1309
 6266SOL    HW230435   1.081   0.628  13.437  0.4450 -0.5726 -0.4267
 6267SOL     OW30436   4.137   0.424  14.540  0.0102  0.3542 -0.1783
 6267SOL    HW130437   4.166   0.456  14.625  0.5037 -1.1125  0.2029
 6267SOL    HW230438   4.190   0.347  14.519  0.2008  0.5420 -0.3722
 6268SOL     OW30439   0.959   1.709   4.468 -0.1265 -0.2795  0.3909
 6268SOL    HW130440   0.964   1.618   4.439  0.1117 -0.1750  0.1086
 6268SOL    HW230441   0.866   1.715   4.488 -0.0193  0.6004  0.6346
 6269SOL     OW30442   2.299   0.738  12.532 -0.2373  0.4665  0.0958
 6269SOL    HW130443   2.315   0.783  12.448 -0.5074  0.3360 -0.0245
 6269SOL    HW230444   2.373   0.771  12.583 -0.2843  1.7487 -0.6389
 6270SOL     OW30445   2.625   2.927   1.148  0.3291  0.4183  0.3120
 6270SOL    HW130446   2.615   2.941   1.242  0.7446  0.2136  0.3854
 6270SOL    HW230447   2.559   2.990   1.118  0.7482  2.0810  2.9351
 6271SOL     OW30448   0.490   0.684   8.277  0.6710  0.1868  0.1049
 6271SOL    HW130449   0.488   0.754   8.342  0.8850  1.9920 -1.8250
 6271SOL    HW230450   0.505   0.729   8.194 -1.6924  1.6401  0.4783
 6272SOL     OW30451   3.563   0.570   9.801 -0.2312 -0.1799 -0.0981
 6272SOL    HW130452   3.571   0.665   9.798  2.2261 -0.3321  1.4508
 6272SOL    HW230453   3.644   0.546   9.755  0.4387  0.8185  0.5763
 6273SOL     OW30454   2.601   3.152   5.266 -0.1350 -0.1531 -0.1164
 6273SOL    HW130455   2.657   3.105   5.327  0.1954 -0.5793 -0.7481
 6273SOL    HW230456   2.553   3.083   5.221 -2.3237  0.8035  0.7640
 6274SOL     OW30457   3.725   2.923  12.010  0.3781  0.1334 -0.4898
 6274SOL    HW130458   3.696   2.943  12.099  1.8508  2.8799 -0.6378
 6274SOL    HW230459   3.743   3.013  11.982 -0.7534  0.0546 -1.5044
 6275SOL     OW30460   2.429   0.473  11.907  0.1855 -0.2632 -0.5290
 6275SOL    HW130461   2.342   0.440  11.931 -0.4435  0.7267 -1.4991
 6275SOL    HW230462   2.475   0.392  11.931  1.1913 -0.2433 -2.4527
 6276SOL     OW30463   2.304   1.644  12.406  0.5174 -0.1113  0.0383
 6276SOL    HW130464   2.270   1.598  12.482 -0.1201  0.3736  0.0517
 6276SOL    HW230465   2.307   1.733  12.441  1.0992  0.3033 -1.0437
 6277SOL     OW30466   0.387   0.396   5.628  0.2277 -0.2202 -0.6930
 6277SOL    HW130467   0.390   0.349   5.711  1.2370 -1.4755 -1.4481
 6277SOL    HW230468   0.413   0.333   5.561  1.1048  1.1219 -1.6178
 6278SOL     OW30469   1.379   3.897   3.853  0.3121 -0.4170  0.7244
 6278SOL    HW130470   1.460   3.862   3.816 -0.1125  1.5730 -2.1601
 6278SOL    HW230471   1.346   3.960   3.788 -1.9572 -1.6993  0.6310
 6279SOL     OW30472   0.862   1.613   1.711  0.5287 -0.3614 -0.2179
 6279SOL    HW130473   0.769   1.596   1.725  0.3567  0.4679 -0.3445
 6279SOL    HW230474   0.875   1.707   1.720  0.3254 -0.4262  0.6886
 6280SOL     OW30475   4.457   3.602   2.857 -0.5361  0.0531 -0.3451
 6280SOL    HW130476   4.540   3.647   2.839  0.0092  0.2121  2.5039
 6280SOL    HW230477   4.399   3.676   2.879 -0.3895  0.4775 -1.3937
 6281SOL     OW30478   3.165   2.336   8.117  0.5056  0.4607 -0.0202
 6281SOL    HW130479   3.146   2.257   8.065  0.3810  0.4075  0.1078
 6281SOL    HW230480   3.259   2.324   8.130  0.7829  0.4007 -1.9392
 6282SOL     OW30481   3.946   2.722  12.339  0.0171  0.3202  0.1652
 6282SOL    HW130482   3.876   2.660  12.318 -0.8527  1.1084  0.7151
 6282SOL    HW230483   4.012   2.717  12.270 -0.0204 -1.7296  0.2856
 6283SOL     OW30484   2.422   0.099  13.458 -0.5657  0.1328  0.3042
 6283SOL    HW130485   2.362   0.129  13.527 -0.5525  0.9824 -0.0665
 6283SOL    HW230486   2.357   0.073  13.393 -0.0225 -1.1881  0.2766
 6284SOL     OW30487   0.714   0.337   4.207 -0.2753 -0.2372  0.2293
 6284SOL    HW130488   0.750   0.277   4.273  0.7342  0.8026  0.6318
 6284SOL    HW230489   0.630   0.292   4.204 -0.6869  0.6297 -1.3273
 6285SOL     OW30490   1.627   3.785   3.731 -0.1095  0.1088 -0.0763
 6285SOL    HW130491   1.718   3.771   3.755  0.1499 -1.8520 -2.1163
 6285SOL    HW230492   1.618   3.713   3.668  0.1657 -2.6223  2.9949
 6286SOL     OW30493   4.467   3.296   8.255 -0.2829  0.4549 -0.1917
 6286SOL    HW130494   4.475   3.245   8.174  1.3469 -1.3489  1.1021
 6286SOL    HW230495   4.436   3.230   8.318  0.2930  0.6533  0.2964
 6287SOL     OW30496   3.904   1.744  13.382  0.1769  0.2630 -0.4413
 6287SOL    HW130497   3.876   1.671  13.437 -2.0055  1.0380 -0.5227
 6287SOL    HW230498   3.816   1.779  13.370  0.4708  0.9988 -0.4392
 6288SOL     OW30499   1.752   1.038   6.165  0.0636 -0.0798  0.1330
 6288SOL    HW130500   1.670   1.048   6.116  2.0501 -1.0029 -3.3733
 6288SOL    HW230501   1.718   1.031   6.254 -0.3639  3.5930  0.2405
 6289SOL     OW30502   0.411   2.888   6.038 -0.6063  0.8482 -0.0137
 6289SOL    HW130503   0.405   2.865   6.131 -2.0279 -0.7239 -0.4905
 6289SOL    HW230504   0.341   2.834   6.000 -0.5061  1.4518 -1.0369
 6290SOL     OW30505   3.210   4.279   7.185 -0.1279  0.3861 -0.5175
 6290SOL    HW130506   3.236   4.371   7.190  0.7636  0.1346 -0.5937
 6290SOL    HW230507   3.153   4.280   7.108 -0.8056 -0.1409 -0.0162
 6291SOL     OW30508   1.120   3.212   9.945 -0.0883 -0.3813 -0.5817
 6291SOL    HW130509   1.062   3.193   9.871 -0.2882 -1.9937 -0.0063
 6291SOL    HW230510   1.116   3.308   9.942 -2.2875 -0.4239  1.0766
 6292SOL     OW30511   2.185   3.117   5.180  0.2599  0.2080  0.6290
 6292SOL    HW130512   2.196   3.206   5.147 -1.4503 -0.3044 -1.3325
 6292SOL    HW230513   2.204   3.066   5.101 -0.7661  0.0130  0.5011
 6293SOL     OW30514   1.392   2.634  17.243 -0.3618 -0.0257 -0.4665
 6293SOL    HW130515   1.384   2.550  17.198 -2.3275 -0.7872  1.2810
 6293SOL    HW230516   1.366   2.597  17.328 -1.3896  0.0868 -0.7268
 6294SOL     OW30517   2.972   3.331   4.066 -0.4432  0.0944 -0.2419
 6294SOL    HW130518   3.048   3.294   4.020 -1.0163 -0.8506 -0.4357
 6294SOL    HW230519   2.998   3.421   4.086 -2.0860  0.5080 -0.0254
 6295SOL     OW30520   1.912   2.199   8.046  0.0163 -0.0948  0.0012
 6295SOL    HW130521   1.835   2.251   8.073 -0.5779 -1.2146  0.4951
 6295SOL    HW230522   1.929   2.159   8.132 -0.5185 -1.6740 -0.6331
 6296SOL     OW30523   3.577   2.829   7.772 -0.0290  0.5648 -0.3006
 6296SOL    HW130524   3.660   2.852   7.730 -0.4060 -1.0484 -1.9594
 6296SOL    HW230525   3.556   2.910   7.818 -0.5400  1.7541 -2.6284
 6297SOL     OW30526   1.689   3.242   1.871  0.2658  0.1570 -0.4299
 6297SOL    HW130527   1.628   3.247   1.945  1.0152 -1.3553  0.2842
 6297SOL    HW230528   1.645   3.289   1.800  3.1550  0.1147 -2.2346
 6298SOL     OW30529   3.733   4.134   2.083 -0.0598 -0.0810  0.2214
 6298SOL    HW130530   3.772   4.158   1.999 -1.8305 -0.1619 -0.6100
 6298SOL    HW230531   3.678   4.062   2.055 -0.0035 -0.2548  0.5560
 6299SOL     OW30532   3.577   4.497   9.503  0.6262 -0.3496 -0.4843
 6299SOL    HW130533   3.541   4.537   9.424 -1.2298 -0.5298  0.2728
 6299SOL    HW230534   3.652   4.550   9.529  0.2614  0.5782 -1.3457
 6300SOL     OW30535   0.775   3.358  14.884 -0.1806  0.2478 -0.2801
 6300SOL    HW130536   0.835   3.353  14.809 -0.9462 -0.9110 -0.8115
 6300SOL    HW230537   0.742   3.269  14.891  0.9122 -0.0050  1.6522
 6301SOL     OW30538   1.305   1.019   4.965 -0.0279 -0.1879  0.2945
 6301SOL    HW130539   1.384   0.992   5.011  0.3349 -2.0172 -1.4286
 6301SOL    HW230540   1.310   0.977   4.879  1.9144  0.1439  0.2452
 6302SOL     OW30541   0.293   0.686  11.665 -0.0834  0.6431  0.0730
 6302SOL    HW130542   0.357   0.617  11.686 -1.2569 -0.1765  0.9562
 6302SOL    HW230543   0.340   0.761  11.700 -0.6215  0.8632  0.3266
 6303SOL     OW30544   0.684   1.115  11.990 -0.5031 -0.0630  0.5000
 6303SOL    HW130545   0.628   1.099  11.914 -0.5215  2.2115  0.0423
 6303SOL    HW230546   0.678   1.036  12.044  1.1306  0.2259  1.1146
 6304SOL     OW30547   1.743   0.318   1.841 -0.1261 -0.3360  0.4815
 6304SOL    HW130548   1.804   0.257   1.801 -0.2538 -0.6521  0.7696
 6304SOL    HW230549   1.736   0.378   1.766 -0.2850 -0.6787  0.2249
 6305SOL     OW30550   3.616   2.336   0.570  0.2181  0.3775  0.3715
 6305SOL    HW130551   3.549   2.269   0.585 -0.7984  1.1234 -0.7835
 6305SOL    HW230552   3.615   2.377   0.656 -0.3283 -0.2964  0.6911
 6306SOL     OW30553   0.467   4.708   4.846  0.1174  0.4124  0.1871
 6306SOL    HW130554   0.492   4.617   4.864 -0.6335 -0.4541 -2.9797
 6306SOL    HW230555   0.512   4.717   4.761 -0.5643 -1.0641 -0.3359
 6307SOL     OW30556   2.210   0.910   6.392  0.2277  0.1931 -0.2625
 6307SOL    HW130557   2.172   0.996   6.410  0.4797  0.8456 -2.8114
 6307SOL    HW230558   2.135   0.857   6.419  2.0040 -2.5402 -0.7704
 6308SOL     OW30559   4.234   0.082   3.820 -0.5375 -0.2466  0.4998
 6308SOL    HW130560   4.289   0.103   3.744  0.1669 -1.9683  0.5394
 6308SOL    HW230561   4.288   0.024   3.872  1.9426 -0.2118 -2.0278
 6309SOL     OW30562   0.818   0.798   7.074 -0.1546 -0.1111  0.0523
 6309SOL    HW130563   0.862   0.836   7.149 -1.5850  0.1642  0.7353
 6309SOL    HW230564   0.745   0.858   7.064  1.0826  1.5824  1.3140
 6310SOL     OW30565   1.812   2.333  17.027  0.2013  0.6687  0.5725
 6310SOL    HW130566   1.872   2.264  16.996 -0.8384 -0.2757  0.6810
 6310SOL    HW230567   1.876   2.404  17.029 -0.3527  1.2060 -0.8676
 6311SOL     OW30568   3.513   2.282  17.235  0.4976 -0.0258  0.0245
 6311SOL    HW130569   3.589   2.238  17.194 -0.8854 -1.6175 -0.8443
 6311SOL    HW230570   3.548   2.288  17.324  0.3205 -0.2397  0.1076
 6312SOL     OW30571   3.324   1.377   1.044 -0.2074  0.7243 -0.2146
 6312SOL    HW130572   3.329   1.472   1.059  3.0186  0.5702 -0.2153
 6312SOL    HW230573   3.254   1.347   1.101  0.0419  2.3527  0.9538
 6313SOL     OW30574   4.172   0.359   9.330 -0.2190 -0.1829 -0.1625
 6313SOL    HW130575   4.261   0.395   9.331 -0.7155  1.0599 -1.0478
 6313SOL    HW230576   4.165   0.349   9.235 -1.3487  1.3544 -0.2317
 6314SOL     OW30577   3.042   3.041   4.726  0.1139  0.2689 -0.3056
 6314SOL    HW130578   3.068   3.009   4.640  0.8068  1.0172 -0.3708
 6314SOL    HW230579   3.116   3.009   4.778  0.9029 -1.4795 -2.4901
 6315SOL     OW30580   4.552   2.556   5.572 -0.2777  0.5310  0.3585
 6315SOL    HW130581   4.461   2.537   5.591 -0.1392  0.4137  0.9183
 6315SOL    HW230582   4.532   2.575   5.481 -4.0515  0.3553  1.1666
 6316SOL     OW30583   2.086   1.077  15.918  0.1370 -0.9473 -0.3823
 6316SOL    HW130584   2.011   1.128  15.888 -1.2157 -1.3643  2.2840
 6316SOL    HW230585   2.085   1.002  15.859  0.8277 -1.4699  0.2779
 6317SOL     OW30586   1.298   4.388   1.831  0.1965  0.1997 -0.5310
 6317SOL    HW130587   1.211   4.387   1.870  0.9526 -2.2960  1.1146
 6317SOL    HW230588   1.291   4.436   1.748 -0.0291 -0.3895 -0.8502
 6318SOL     OW30589   3.305   2.294   4.529 -0.0038 -0.4323  0.1891
 6318SOL    HW130590   3.282   2.228   4.594 -1.7691 -0.4944 -0.5105
 6318SOL    HW230591   3.393   2.316   4.561 -0.1322  2.9884 -1.9164
 6319SOL     OW30592   4.498   1.164   5.416 -0.1695  0.4785  0.5087
 6319SOL    HW130593   4.575   1.220   5.420 -0.0921  0.4625 -0.7856
 6319SOL    HW230594   4.542   1.078   5.415 -1.4570 -0.1692 -0.2996
 6320SOL     OW30595   1.407   1.697   3.956  0.4044 -0.1284 -0.0444
 6320SOL    HW130596   1.317   1.670   3.942  1.3477 -1.8616 -2.8146
 6320SOL    HW230597   1.407   1.751   4.036  0.2804  1.7975 -1.3303
 6321SOL     OW30598   4.163   2.124   9.173 -0.3172 -0.8674  0.5441
 6321SOL    HW130599   4.176   2.176   9.252 -0.1921  0.1850 -0.1711
 6321SOL    HW230600   4.226   2.053   9.187  2.1589  0.7828 -2.0685
 6322SOL     OW30601   2.829   2.798  15.910  0.6789 -0.1766 -0.1691
 6322SOL    HW130602   2.753   2.768  15.862 -0.1098 -0.9192  1.5316
 6322SOL    HW230603   2.856   2.869  15.852  0.9042  0.0042  0.1567
 6323SOL     OW30604   0.536   2.113   4.393 -0.1516  0.3649  0.0068
 6323SOL    HW130605   0.614   2.072   4.431 -1.2849 -1.9693 -0.1707
 6323SOL    HW230606   0.490   2.100   4.476 -0.1925  0.8616  0.0608
 6324SOL     OW30607   1.569   1.201  16.265  0.1531 -0.3452 -0.0480
 6324SOL    HW130608   1.527   1.212  16.179  1.9721  1.8565 -0.6301
 6324SOL    HW230609   1.577   1.106  16.252 -0.4316 -0.3960 -0.0541
 6325SOL     OW30610   2.036   1.646   8.227  0.2536  0.0636 -0.1102
 6325SOL    HW130611   2.055   1.735   8.195 -0.5739 -0.2760 -1.5328
 6325SOL    HW230612   2.050   1.662   8.320  0.5571  1.0084 -0.3149
 6326SOL     OW30613   4.501   3.231   2.254 -0.6751  0.2894 -0.3082
 6326SOL    HW130614   4.537   3.252   2.167  1.6000 -1.9022  0.1104
 6326SOL    HW230615   4.520   3.312   2.301  1.3171 -0.7243  0.6203
 6327SOL     OW30616   4.577   4.659   5.346  0.3344 -0.3214  0.1401
 6327SOL    HW130617   4.530   4.686   5.425  1.0527  1.0429  0.1095
 6327SOL    HW230618   4.633   0.001   5.340 -1.4151  0.9417  0.1090
 6328SOL     OW30619   3.194   1.710   5.641  0.1126  0.0735 -0.3885
 6328SOL    HW130620   3.141   1.633   5.619 -1.3645  1.6967 -2.5708
 6328SOL    HW230621   3.278   1.671   5.665  0.9750  1.3810 -1.2951
 6329SOL     OW30622   2.812   2.711   3.491 -0.3595 -0.1431  0.2040
 6329SOL    HW130623   2.779   2.798   3.468  1.0122  0.3519  0.1102
 6329SOL    HW230624   2.800   2.724   3.585  0.0101 -0.4618  0.2979
 6330SOL     OW30625   0.014   4.156   2.364  0.1006 -0.3876 -0.1519
 6330SOL    HW130626   4.689   4.180   2.293  1.1363 -0.4413 -1.0581
 6330SOL    HW230627   0.097   4.161   2.316 -0.0329  0.0661 -0.3359
 6331SOL     OW30628   1.942   2.864   7.703  0.6428  0.0731 -0.2937
 6331SOL    HW130629   2.008   2.889   7.638  0.7365  0.6019  0.0102
 6331SOL    HW230630   1.980   2.777   7.718  0.1641  0.3009  2.0878
 6332SOL     OW30631   3.299   4.394   5.050 -0.3193  0.8285  0.3554
 6332SOL    HW130632   3.219   4.428   5.089  0.0927  2.6095 -0.3490
 6332SOL    HW230633   3.353   4.384   5.128 -1.2287 -1.6142  0.6701
 6333SOL     OW30634   0.222   1.363   0.918  0.9151  0.1208  0.5193
 6333SOL    HW130635   0.219   1.451   0.879  1.0990 -0.7691 -1.4929
 6333SOL    HW230636   0.167   1.318   0.854  0.8177  1.2067 -0.1708
 6334SOL     OW30637   2.964   1.629  10.568  0.0245 -1.0578 -0.5470
 6334SOL    HW130638   2.881   1.633  10.616  1.0500 -2.2747  1.3471
 6334SOL    HW230639   2.948   1.575  10.491  1.6841 -1.9276 -0.2745
 6335SOL     OW30640   1.935   4.322   2.140  0.0638 -0.3327  0.0775
 6335SOL    HW130641   1.931   4.379   2.064 -3.1539  0.9350  1.2004
 6335SOL    HW230642   1.990   4.370   2.202  0.5090 -0.4346 -0.2425
 6336SOL     OW30643   4.136   2.428   5.039  0.2410 -0.3889  0.2920
 6336SOL    HW130644   4.127   2.336   5.064  0.3119 -0.7822 -1.1102
 6336SOL    HW230645   4.221   2.439   5.080  0.4903 -0.1069 -0.2912
 6337SOL     OW30646   3.715   1.997   3.151 -0.5579  0.2915  0.2087
 6337SOL    HW130647   3.809   2.017   3.148 -0.2940 -1.2462 -2.0603
 6337SOL    HW230648   3.669   2.068   3.196 -2.9321 -1.3154  0.3228
 6338SOL     OW30649   4.534   3.082  15.393 -0.1706 -0.1894 -0.3493
 6338SOL    HW130650   4.520   3.176  15.407  0.3452 -0.2232  0.3660
 6338SOL    HW230651   4.620   3.072  15.353  1.1956 -0.6705  2.7440
 6339SOL     OW30652   4.273   3.013  12.128 -0.3401 -0.0068  0.5772
 6339SOL    HW130653   4.185   3.009  12.090 -0.1525  2.0851 -0.0755
 6339SOL    HW230654   4.322   2.977  12.054  0.0871  0.4872  0.6176
 6340SOL     OW30655   3.081   0.311  14.945  0.0508 -0.4449  0.5772
 6340SOL    HW130656   3.065   0.324  14.851  1.5317  2.5153  0.7482
 6340SOL    HW230657   3.173   0.336  14.948 -0.2519  0.9320 -1.8452
 6341SOL     OW30658   2.685   4.221  11.285 -0.2310 -0.5440  0.1630
 6341SOL    HW130659   2.754   4.196  11.223 -0.9071 -1.3853 -0.2642
 6341SOL    HW230660   2.611   4.162  11.269  0.9849 -1.7508 -1.0574
 6342SOL     OW30661   4.534   4.166   7.166 -0.1954  0.5545  0.0187
 6342SOL    HW130662   4.560   4.206   7.083 -0.2975  0.4372 -0.0697
 6342SOL    HW230663   4.616   4.124   7.190 -1.1055 -0.8712  0.6778
 6343SOL     OW30664   2.391   3.818   9.446  0.0662 -0.1134 -0.2215
 6343SOL    HW130665   2.331   3.760   9.400 -1.5872  0.1812  1.5363
 6343SOL    HW230666   2.427   3.759   9.512 -1.8179 -2.1117 -0.9923
 6344SOL     OW30667   3.115   1.368   9.967 -0.3001  0.5004  0.6672
 6344SOL    HW130668   3.153   1.323   9.891  0.0036 -0.6893  1.5237
 6344SOL    HW230669   3.110   1.458   9.936 -0.0921  0.0079 -0.8341
 6345SOL     OW30670   3.540   1.585   8.920  0.2291  0.3278  0.5793
 6345SOL    HW130671   3.568   1.649   8.986  0.1869 -2.1491  3.0046
 6345SOL    HW230672   3.560   1.628   8.837 -3.0906  0.2210 -0.2744
 6346SOL     OW30673   2.295   3.831   8.967  0.4324 -1.1399 -0.5330
 6346SOL    HW130674   2.255   3.910   8.930  0.7463 -0.4280  0.6723
 6346SOL    HW230675   2.308   3.856   9.058 -0.0915  1.2436 -1.0983
 6347SOL     OW30676   0.749   1.804  17.566 -0.6528 -0.0199  0.2059
 6347SOL    HW130677   0.844   1.800  17.552 -0.7701 -1.1367 -0.2732
 6347SOL    HW230678   0.737   1.892  17.528  1.2910  0.3329  0.4316
 6348SOL     OW30679   2.041   0.861   4.176 -0.2738 -0.0356  0.5066
 6348SOL    HW130680   2.069   0.856   4.268 -2.4548  2.0185  1.2837
 6348SOL    HW230681   2.117   0.903   4.136 -0.3718  0.4535  0.8284
 6349SOL     OW30682   0.175   4.062  11.437  0.3860  0.0699  0.3984
 6349SOL    HW130683   0.187   3.990  11.375 -0.1201 -1.1750  1.7192
 6349SOL    HW230684   0.248   4.118  11.413  1.0070 -0.7835  0.2684
 6350SOL     OW30685   0.021   0.808  15.751  0.1576 -0.1389  0.2664
 6350SOL    HW130686   0.006   0.856  15.833  0.4328 -1.1601  0.9092
 6350SOL    HW230687   4.670   0.788  15.717  0.7937  0.4098 -1.6700
 6351SOL     OW30688   2.225   2.332  13.689  0.4105 -0.1847 -0.1618
 6351SOL    HW130689   2.176   2.357  13.768  0.4532  1.5443 -0.6883
 6351SOL    HW230690   2.295   2.395  13.702  1.2386 -1.1311  0.0069
 6352SOL     OW30691   0.093   3.233   6.928 -0.3520 -0.3459  0.4327
 6352SOL    HW130692   0.160   3.165   6.939  0.3712 -0.0061 -2.0250
 6352SOL    HW230693   0.146   3.313   6.928 -0.8130 -0.0472  0.2297
 6353SOL     OW30694   4.268   4.500   5.401 -0.1671 -0.1188  0.2555
 6353SOL    HW130695   4.295   4.512   5.310 -0.6250  0.1311  0.1495
 6353SOL    HW230696   4.261   4.591   5.430  0.5804  0.1986 -0.5676
 6354SOL     OW30697   2.235   0.420  14.782  0.1635  0.3760 -0.3443
 6354SOL    HW130698   2.178   0.347  14.760  1.5623  0.0558 -2.9987
 6354SOL    HW230699   2.302   0.366  14.824  1.1909  0.9136 -1.2786
 6355SOL     OW30700   4.328   3.454   1.437 -0.0361  0.8785  0.1635
 6355SOL    HW130701   4.375   3.388   1.386  0.0293 -0.4401  1.9179
 6355SOL    HW230702   4.240   3.418   1.432  0.1338  0.4084  0.4975
 6356SOL     OW30703   1.025   4.140   4.381  0.3502  0.2669  0.1258
 6356SOL    HW130704   1.029   4.065   4.440 -2.8707  1.1712  1.4650
 6356SOL    HW230705   1.112   4.171   4.406  0.0234  1.2021  0.1234
 6357SOL     OW30706   0.570   1.627  11.675  0.1974 -0.6362  0.4956
 6357SOL    HW130707   0.513   1.564  11.720 -0.7276  1.2381  1.9069
 6357SOL    HW230708   0.597   1.582  11.595  2.4461 -0.9203  1.4228
 6358SOL     OW30709   1.638   1.744  15.985 -0.5280  0.3492 -0.0950
 6358SOL    HW130710   1.587   1.820  15.958  1.0153  0.9854 -1.2456
 6358SOL    HW230711   1.703   1.791  16.037 -1.6699  1.6653  0.1681
 6359SOL     OW30712   2.857   1.070  10.263 -0.1956  0.4149  0.1654
 6359SOL    HW130713   2.938   1.111  10.233 -1.0725  1.0163 -1.4065
 6359SOL    HW230714   2.816   1.143  10.308 -1.9956  0.7863 -2.0447
 6360SOL     OW30715   1.850   2.674  14.822 -0.4318 -0.1084  0.5527
 6360SOL    HW130716   1.770   2.694  14.773 -0.5279 -2.9285 -0.3929
 6360SOL    HW230717   1.820   2.586  14.845 -0.7243 -0.3156 -0.6251
 6361SOL     OW30718   0.789   1.148   6.522 -0.1719  0.5049 -0.3104
 6361SOL    HW130719   0.695   1.134   6.531 -0.0690  0.4151  0.6356
 6361SOL    HW230720   0.805   1.235   6.559  1.2040 -0.3029  0.9884
 6362SOL     OW30721   3.072   3.672   2.692  0.6431  0.2346 -0.1271
 6362SOL    HW130722   3.034   3.613   2.626 -1.1212 -0.2161  1.3184
 6362SOL    HW230723   3.055   3.636   2.779  1.0478 -0.0560 -0.1638
 6363SOL     OW30724   3.691   4.212   4.941  0.5966 -0.2460 -0.5863
 6363SOL    HW130725   3.721   4.122   4.927  1.4354 -0.1866  0.8270
 6363SOL    HW230726   3.764   4.248   4.989  0.0796  1.2090 -0.9087
 6364SOL     OW30727   4.426   1.912   2.878 -0.0235  0.0036  0.1972
 6364SOL    HW130728   4.418   1.984   2.816 -0.2058  1.7248  2.2067
 6364SOL    HW230729   4.515   1.883   2.860  0.4304  1.8671 -0.5930
 6365SOL     OW30730   2.560   4.614  16.819 -0.1897 -0.2109 -0.3701
 6365SOL    HW130731   2.585   4.681  16.883  1.6046 -1.4291  0.2079
 6365SOL    HW230732   2.627   4.546  16.827  0.0604  0.0357 -0.3783
 6366SOL     OW30733   3.264   0.963   4.360 -0.0735 -0.6976  0.4290
 6366SOL    HW130734   3.308   1.029   4.413 -0.0494  0.8030 -1.4507
 6366SOL    HW230735   3.324   0.889   4.365 -1.2287 -1.7619 -1.6440
 6367SOL     OW30736   4.228   1.502   1.589 -0.2930 -0.0171 -0.0875
 6367SOL    HW130737   4.291   1.431   1.572  0.9542  0.8023  1.1605
 6367SOL    HW230738   4.260   1.571   1.531 -1.4555  0.0654 -0.6282
 6368SOL     OW30739   0.337   4.109   1.333 -0.5585 -0.2036 -0.0271
 6368SOL    HW130740   0.259   4.109   1.277 -1.7522 -0.0760  1.6565
 6368SOL    HW230741   0.362   4.016   1.328  3.0860  0.8144 -0.5630
 6369SOL     OW30742   0.338   1.293  12.154 -0.1424  0.1320  0.2154
 6369SOL    HW130743   0.312   1.355  12.222 -0.4207  0.1699  0.0738
 6369SOL    HW230744   0.263   1.300  12.096  0.6586  0.4413 -0.7749
 6370SOL     OW30745   2.849   1.681   6.447  0.0965 -0.6242  0.0834
 6370SOL    HW130746   2.804   1.677   6.362  0.0219 -0.4796  0.1154
 6370SOL    HW230747   2.784   1.734   6.493 -0.6348 -0.1020 -1.5463
 6371SOL     OW30748   3.191   3.504  16.849 -0.8044 -0.4396  0.1405
 6371SOL    HW130749   3.167   3.448  16.923  1.5041 -1.7493 -0.0845
 6371SOL    HW230750   3.248   3.443  16.802 -1.3086 -2.2429  1.8646
 6372SOL     OW30751   1.792   1.389   7.922  0.1114  0.4850 -0.5311
 6372SOL    HW130752   1.868   1.425   7.968  0.9237 -0.5628 -1.0483
 6372SOL    HW230753   1.837   1.329   7.863  1.4132  1.1959 -0.2536
 6373SOL     OW30754   1.093   2.960  11.208 -0.5700 -0.3583  0.2830
 6373SOL    HW130755   1.175   3.009  11.198  0.4567 -1.7770  1.6964
 6373SOL    HW230756   1.114   2.866  11.207 -0.2886 -0.2744 -0.9809
 6374SOL     OW30757   4.175   4.030   9.557  0.5192  0.1325  0.4208
 6374SOL    HW130758   4.180   4.000   9.466  1.1298  1.6511 -0.0485
 6374SOL    HW230759   4.082   4.013   9.568  0.2013  1.4182 -0.3020
 6375SOL     OW30760   0.772   2.887   8.319 -0.4254  0.2796  0.1917
 6375SOL    HW130761   0.740   2.891   8.229 -0.9119  0.0329  0.3531
 6375SOL    HW230762   0.867   2.896   8.314 -0.3327 -0.6314  0.1358
 6376SOL     OW30763   0.536   0.659   7.217  0.9138 -0.3281 -0.4261
 6376SOL    HW130764   0.626   0.630   7.200  0.6430 -1.4614  0.0697
 6376SOL    HW230765   0.533   0.671   7.312  0.8776  2.3266 -0.7542
 6377SOL     OW30766   1.892   2.396   4.962 -0.6463 -0.6453  0.1159
 6377SOL    HW130767   1.830   2.410   4.891 -1.2493 -0.1735  0.7429
 6377SOL    HW230768   1.952   2.334   4.919 -1.4179  0.7524 -3.0098
 6378SOL     OW30769   2.251   0.890   2.737  0.1548  0.3025 -0.0010
 6378SOL    HW130770   2.238   0.983   2.719  2.2001  0.3442 -1.2691
 6378SOL    HW230771   2.175   0.871   2.791 -1.1639  1.6169 -1.3696
 6379SOL     OW30772   4.270   0.495   3.631  0.3648 -0.4164 -0.1295
 6379SOL    HW130773   4.196   0.434   3.642  0.2854 -0.0326  1.4197
 6379SOL    HW230774   4.339   0.434   3.657 -0.7846 -0.2012  3.4423
 6380SOL     OW30775   0.598   3.724   7.366 -0.0007  0.4818 -0.5296
 6380SOL    HW130776   0.591   3.655   7.431  0.4242 -0.4795 -1.5090
 6380SOL    HW230777   0.660   3.691   7.301 -0.5071 -0.6662 -0.4263
 6381SOL     OW30778   2.287   3.970   4.931  0.2817  0.4920 -0.1331
 6381SOL    HW130779   2.322   3.908   4.995 -2.1670 -0.2477  0.5028
 6381SOL    HW230780   2.317   4.055   4.963 -0.2494 -0.2766  2.3772
 6382SOL     OW30781   4.688   0.352   5.433  0.3524  0.2063 -0.4766
 6382SOL    HW130782   4.599   0.316   5.423  0.8669 -1.5791  1.3761
 6382SOL    HW230783   4.701   0.334   5.526  2.4544  1.5389 -0.5284
 6383SOL     OW30784   1.077   2.887   1.754 -0.4591 -0.0482 -0.0692
 6383SOL    HW130785   1.086   2.850   1.666 -0.6814 -3.3462  1.2880
 6383SOL    HW230786   1.004   2.834   1.787  1.1968 -1.0291  2.0791
 6384SOL     OW30787   4.545   2.921  11.061  0.0649 -0.1536  0.3368
 6384SOL    HW130788   4.623   2.974  11.043 -1.0760  1.7746  1.0381
 6384SOL    HW230789   4.542   2.917  11.156 -0.2441  1.1293  0.3840
 6385SOL     OW30790   3.777   3.684   6.816 -0.0643 -0.3511  0.2952
 6385SOL    HW130791   3.859   3.667   6.768 -0.3917  0.5454 -0.5949
 6385SOL    HW230792   3.736   3.746   6.755  0.7970  0.7512  0.8271
 6386SOL     OW30793   0.282   0.499   2.302 -0.0165  0.3808 -0.1936
 6386SOL    HW130794   0.266   0.574   2.245 -1.0782  0.2888 -0.0222
 6386SOL    HW230795   0.339   0.553   2.356  1.1832 -2.5269  1.4592
 6387SOL     OW30796   0.494   1.909  15.829 -1.0256  0.3182  0.4685
 6387SOL    HW130797   0.400   1.895  15.836 -0.9716 -0.5347 -0.4961
 6387SOL    HW230798   0.518   1.957  15.908  0.4661  0.3410  0.0117
 6388SOL     OW30799   3.017   3.468   7.214 -0.2269  0.0985 -0.1901
 6388SOL    HW130800   3.020   3.431   7.303  1.7930  0.8168  0.0385
 6388SOL    HW230801   3.051   3.394   7.164 -1.3453 -0.7003  0.2244
 6389SOL     OW30802   3.657   4.528   5.227  0.1101 -0.1981  0.5086
 6389SOL    HW130803   3.626   4.530   5.136  0.6175  1.6348  0.3962
 6389SOL    HW230804   3.572   4.536   5.270 -0.2281  2.4879 -0.7097
 6390SOL     OW30805   0.250   0.665   8.097 -0.0915  0.3776 -0.5371
 6390SOL    HW130806   0.244   0.570   8.086  3.7908  0.0553  0.0109
 6390SOL    HW230807   0.204   0.704   8.023 -0.1612  1.0902 -0.1208
 6391SOL     OW30808   3.712   2.085   6.158 -0.5008  0.6129 -0.5738
 6391SOL    HW130809   3.689   2.174   6.133 -0.2210  0.7248 -0.4354
 6391SOL    HW230810   3.704   2.082   6.253 -0.9288 -0.8272 -0.6527
 6392SOL     OW30811   3.157   2.410   0.410  0.0504 -0.3234  0.7500
 6392SOL    HW130812   3.159   2.500   0.378 -0.9502 -0.3782  0.5421
 6392SOL    HW230813   3.068   2.417   0.446  0.0460 -1.4756  0.9359
 6393SOL     OW30814   4.684   2.102   1.087  0.0818  0.4208 -0.2714
 6393SOL    HW130815   4.658   2.192   1.068 -0.2906  0.9178  2.4985
 6393SOL    HW230816   4.612   2.061   1.040  1.1228 -1.9755  0.2084
 6394SOL     OW30817   0.257   4.663   3.937  0.0160  0.4631 -0.2700
 6394SOL    HW130818   0.272   4.582   3.888  3.1758  0.1438  1.2232
 6394SOL    HW230819   0.255   4.722   3.862 -1.0498  1.3207  0.4331
 6395SOL     OW30820   1.081   0.652  10.696  0.0308 -0.4609  0.4386
 6395SOL    HW130821   1.014   0.701  10.743  1.8927  0.1394  2.4593
 6395SOL    HW230822   1.033   0.619  10.620  2.1592 -2.0621 -0.1969
 6396SOL     OW30823   2.553   2.788  16.822  0.3726  0.2983  0.0054
 6396SOL    HW130824   2.555   2.852  16.751 -0.9637 -1.4604 -1.6345
 6396SOL    HW230825   2.631   2.733  16.819  0.3928  0.4055 -1.5648
 6397SOL     OW30826   2.103   0.380   3.337 -0.1069  0.9516 -0.1681
 6397SOL    HW130827   2.061   0.441   3.398 -1.5024  0.7506 -0.9250
 6397SOL    HW230828   2.060   0.401   3.254 -1.3533 -0.6779  0.0628
 6398SOL     OW30829   1.990   0.681   6.968  0.0519 -0.2911  0.2525
 6398SOL    HW130830   2.081   0.658   6.987 -0.2733 -1.3689  0.4957
 6398SOL    HW230831   1.961   0.600   6.926  0.5501  0.2880 -1.2302
 6399SOL     OW30832   1.361   2.472  15.483 -0.0717 -0.2843 -0.2114
 6399SOL    HW130833   1.365   2.399  15.421  1.4020  1.6387 -2.3816
 6399SOL    HW230834   1.346   2.548  15.426 -1.9088 -1.4745 -1.3147
 6400SOL     OW30835   3.630   3.903  16.300  0.2659 -0.3177 -0.2717
 6400SOL    HW130836   3.701   3.940  16.247 -0.4807 -3.6905 -3.6734
 6400SOL    HW230837   3.558   3.890  16.239  0.7175  0.4354 -0.9668
 6401SOL     OW30838   4.512   0.749   9.525 -0.0715 -0.2173 -0.2481
 6401SOL    HW130839   4.418   0.768   9.531 -0.8063 -3.5904 -1.2026
 6401SOL    HW230840   4.544   0.774   9.439 -1.2104  1.1717 -0.2690
 6402SOL     OW30841   4.397   4.616   5.977  0.1500  0.5830 -0.6593
 6402SOL    HW130842   4.368   4.680   6.042 -2.1326 -0.4696 -0.6101
 6402SOL    HW230843   4.343   4.540   6.002  1.0223  0.3315  0.4488
 6403SOL     OW30844   2.696   3.685   6.263  0.4272 -0.0185 -0.0236
 6403SOL    HW130845   2.620   3.740   6.282 -0.9774 -0.9949 -2.8665
 6403SOL    HW230846   2.646   3.613   6.225  0.2781  0.2089 -0.2592
 6404SOL     OW30847   4.014   0.664   2.769 -0.5574 -0.3552  0.2785
 6404SOL    HW130848   4.001   0.581   2.723 -0.2188  0.3706 -1.1489
 6404SOL    HW230849   4.054   0.715   2.698  0.2609 -3.3388 -1.4254
 6405SOL     OW30850   1.857   4.712   3.985 -0.0894  0.8324 -0.3599
 6405SOL    HW130851   1.942   4.668   3.994  0.1516  0.5834 -4.1202
 6405SOL    HW230852   1.810   4.675   4.060 -1.0472  0.2871 -1.2267
 6406SOL     OW30853   1.244   3.039   5.991  0.0308  0.1920 -0.1480
 6406SOL    HW130854   1.295   3.041   6.072 -1.3229  2.6683  0.6411
 6406SOL    HW230855   1.169   3.093   6.014 -0.2619  0.3349 -1.4604
 6407SOL     OW30856   4.538   0.954   4.221 -0.0064  0.0563  0.1719
 6407SOL    HW130857   4.499   1.034   4.256  3.0543  0.8483  1.8113
 6407SOL    HW230858   4.632   0.967   4.230 -0.4156  1.4668  2.4164
 6408SOL     OW30859   4.444   1.929   7.363 -0.3075  0.1211 -0.3223
 6408SOL    HW130860   4.416   1.894   7.448  1.7200 -0.8341 -0.0656
 6408SOL    HW230861   4.434   1.855   7.303  0.5466 -0.7303  0.5847
 6409SOL     OW30862   1.784   4.190  15.418 -0.3685  0.2278  0.7562
 6409SOL    HW130863   1.803   4.176  15.325 -0.0829 -1.3889  1.0584
 6409SOL    HW230864   1.709   4.133  15.434 -2.2497  2.6950  0.7246
 6410SOL     OW30865   0.733   4.244  14.477  0.4907 -0.1047  0.4220
 6410SOL    HW130866   0.814   4.228  14.525 -0.7860 -1.2588  2.1739
 6410SOL    HW230867   0.768   4.239  14.388 -0.3003  0.5373  0.0735
 6411SOL     OW30868   2.925   3.656   6.762 -0.0103 -0.2273 -0.1665
 6411SOL    HW130869   2.906   3.694   6.677 -1.2999 -5.1397 -2.0720
 6411SOL    HW230870   3.003   3.706   6.785 -1.5002  2.3994 -0.8516
 6412SOL     OW30871   3.809   4.659  10.010  0.1687 -0.3907 -0.1610
 6412SOL    HW130872   3.750   4.584  10.007 -1.1221  0.7181 -2.8137
 6412SOL    HW230873   3.755   4.712   9.951 -0.1748 -1.7376 -1.0585
 6413SOL     OW30874   4.042   4.284   9.485  0.1484 -0.0967  0.2275
 6413SOL    HW130875   3.997   4.347   9.429  2.7165  2.0239  0.5833
 6413SOL    HW230876   3.968   4.279   9.546 -1.3486 -1.8740 -1.6960
 6414SOL     OW30877   1.787   4.634   2.709  0.8244 -0.3336 -0.3781
 6414SOL    HW130878   1.780   4.669   2.620  0.3892  0.7398  0.0654
 6414SOL    HW230879   1.707   4.676   2.741  0.5423 -0.6225 -0.7186
 6415SOL     OW30880   1.565   2.697  14.304 -0.2616 -0.0111 -0.1691
 6415SOL    HW130881   1.526   2.779  14.335  2.2338  0.8289  0.7975
 6415SOL    HW230882   1.559   2.693  14.209  0.5659 -3.3099 -0.0584
 6416SOL     OW30883   1.973   2.387  16.281 -0.1211 -0.5646 -0.2830
 6416SOL    HW130884   2.034   2.421  16.347  0.1245 -1.4564 -0.0452
 6416SOL    HW230885   1.992   2.439  16.203  1.4043 -0.8485 -0.1171
 6417SOL     OW30886   3.624   3.150   5.414 -0.7653 -0.5699 -0.7673
 6417SOL    HW130887   3.661   3.076   5.366 -1.1849 -0.7033 -0.8854
 6417SOL    HW230888   3.548   3.113   5.460  1.2646 -1.6214  1.7192
 6418SOL     OW30889   4.074   4.628   4.415 -0.3094  0.2268 -0.3534
 6418SOL    HW130890   3.982   4.655   4.412  0.2705  2.4693  2.3119
 6418SOL    HW230891   4.057   4.542   4.454  0.7937  0.9521  1.7497
 6419SOL     OW30892   3.997   1.681   6.681 -1.0935  0.1420 -0.4261
 6419SOL    HW130893   4.027   1.770   6.698 -1.0508 -0.1295  0.9114
 6419SOL    HW230894   3.956   1.689   6.595  0.8035 -1.1132 -1.4284
 6420SOL     OW30895   3.377   4.407   8.711  0.4629 -0.0334  0.3409
 6420SOL    HW130896   3.451   4.355   8.743 -1.8701 -1.6788  3.0567
 6420SOL    HW230897   3.335   4.430   8.794  1.2137  2.9435 -0.0921
 6421SOL     OW30898   4.515   0.417  14.838 -0.3672  0.5160  0.0896
 6421SOL    HW130899   4.563   0.454  14.912 -0.4966 -3.2024  2.0344
 6421SOL    HW230900   4.587   0.373  14.791 -1.4643 -1.3194  0.1259
 6422SOL     OW30901   3.772   3.891   6.127  0.2344 -0.3522  0.4258
 6422SOL    HW130902   3.731   3.961   6.076 -1.5530 -0.6208  1.4974
 6422SOL    HW230903   3.745   3.818   6.071 -2.6040  1.0120 -0.0015
 6423SOL     OW30904   4.643   4.314   3.088  0.1485  0.0432  0.3143
 6423SOL    HW130905   4.688   4.252   3.145  0.8636 -0.6363 -1.0034
 6423SOL    HW230906   4.628   4.259   3.011  0.1181 -0.3317  0.5868
 6424SOL     OW30907   4.696   1.490   0.363  0.5559 -0.4915 -0.2732
 6424SOL    HW130908   4.682   1.570   0.414  0.3879 -0.3352 -0.5630
 6424SOL    HW230909   4.722   1.525   0.278  1.6776 -1.1093 -0.1921
 6425SOL     OW30910   3.590   1.778  16.891  0.7696 -0.4677  0.7498
 6425SOL    HW130911   3.525   1.846  16.873  2.7980  1.5137  0.9289
 6425SOL    HW230912   3.538   1.698  16.892 -0.4669  0.3575  2.5357
 6426SOL     OW30913   3.245   1.107   2.973  0.2041 -0.0980  0.2678
 6426SOL    HW130914   3.264   1.027   2.926  0.8592 -0.4476  1.1268
 6426SOL    HW230915   3.330   1.129   3.010 -0.6614  1.7465  1.1878
 6427SOL     OW30916   3.345   3.089  16.849  0.2334 -0.4946  0.2734
 6427SOL    HW130917   3.334   3.069  16.941 -0.1874  0.5534  0.4557
 6427SOL    HW230918   3.326   3.009  16.801  0.5161 -0.2100 -0.3266
 6428SOL     OW30919   1.184   3.592   1.804 -0.1594 -0.6296 -0.1406
 6428SOL    HW130920   1.207   3.669   1.752  0.2672 -1.2830 -0.9150
 6428SOL    HW230921   1.096   3.617   1.834 -0.0625  0.9940 -1.1763
 6429SOL     OW30922   1.700   4.246   5.584  0.3690  0.3035 -0.4229
 6429SOL    HW130923   1.690   4.262   5.678 -1.9068 -1.1155 -0.4384
 6429SOL    HW230924   1.643   4.173   5.560  1.4090 -0.8446  0.5730
 6430SOL     OW30925   0.641   2.810   7.320 -0.8023 -0.5751 -0.5235
 6430SOL    HW130926   0.602   2.755   7.253 -2.5832 -0.7100  0.6134
 6430SOL    HW230927   0.561   2.840   7.364  0.8961  1.1740  1.4048
 6431SOL     OW30928   4.641   1.825   4.483  0.1477 -0.6723  0.2174
 6431SOL    HW130929   4.640   1.840   4.578 -2.4264 -2.8940  0.5209
 6431SOL    HW230930   4.550   1.849   4.465 -0.0747 -1.2513  0.5716
 6432SOL     OW30931   3.257   3.784   1.404 -0.5872  0.1051  0.2029
 6432SOL    HW130932   3.296   3.726   1.338 -1.7257 -0.4135 -0.0172
 6432SOL    HW230933   3.184   3.735   1.442 -1.6910  1.2783 -0.4104
 6433SOL     OW30934   1.981   4.601   2.886 -0.1115 -0.1263 -0.2840
 6433SOL    HW130935   1.927   4.601   2.807 -1.2682 -1.9407  0.4929
 6433SOL    HW230936   1.952   4.685   2.921  1.4498  0.4309 -0.3176
 6434SOL     OW30937   3.491   2.870   3.990  0.6185  0.0976  0.4363
 6434SOL    HW130938   3.515   2.781   3.966  2.7663  0.3243  1.7510
 6434SOL    HW230939   3.568   2.914   3.954  0.6718 -1.3238 -1.2163
 6435SOL     OW30940   4.554   1.692   5.721 -0.1834 -0.1367 -0.1203
 6435SOL    HW130941   4.583   1.737   5.800 -2.0442 -1.2261  1.1817
 6435SOL    HW230942   4.574   1.764   5.661  0.3610  0.7382  1.1184
 6436SOL     OW30943   1.334   2.033   7.345 -0.1188 -0.4469 -0.3539
 6436SOL    HW130944   1.287   2.116   7.339  0.5640  0.1289  2.1456
 6436SOL    HW230945   1.314   1.990   7.262  1.4654  1.0281 -1.5148
 6437SOL     OW30946   3.114   1.594   8.902  0.4279  0.0880 -0.4878
 6437SOL    HW130947   3.095   1.613   8.994  0.6649 -1.3489 -0.1321
 6437SOL    HW230948   3.094   1.500   8.904  0.6081  0.0619  0.1418
 6438SOL     OW30949   1.571   1.902   8.859  0.6436 -0.1684 -0.1282
 6438SOL    HW130950   1.604   1.963   8.925  0.2079 -0.0925  0.0180
 6438SOL    HW230951   1.593   1.821   8.905 -1.9060 -1.9879 -2.0650
 6439SOL     OW30952   0.064   1.388  10.124 -0.0087  0.0053  0.0573
 6439SOL    HW130953   0.040   1.478  10.104  4.0071  1.0159 -0.1545
 6439SOL    HW230954   4.711   1.360  10.147  0.9097 -2.2045  0.9341
 6440SOL     OW30955   1.763   1.729   6.459  0.3694  0.1356  0.2597
 6440SOL    HW130956   1.716   1.770   6.531 -0.5893  2.0369 -1.4190
 6440SOL    HW230957   1.846   1.701   6.497 -0.4065  0.7874  2.4402
 6441SOL     OW30958   3.917   2.963   2.888 -0.3216  0.2806  0.7072
 6441SOL    HW130959   3.858   3.016   2.942 -1.3163 -1.0305  0.9037
 6441SOL    HW230960   3.863   2.963   2.809  0.4250 -2.7610  0.2012
 6442SOL     OW30961   3.745   1.188  14.743  0.0347  0.2866 -0.0189
 6442SOL    HW130962   3.767   1.201  14.836  1.4370 -0.6815 -0.2187
 6442SOL    HW230963   3.836   1.183  14.712 -0.2965  0.9814 -1.0939
 6443SOL     OW30964   2.204   0.785   0.231 -0.6960 -0.4146 -0.2367
 6443SOL    HW130965   2.141   0.713   0.239 -0.8005 -0.1252  1.5057
 6443SOL    HW230966   2.188   0.822   0.145 -1.3684  0.9728  0.4991
 6444SOL     OW30967   2.723   0.202   7.202  0.2587  0.2825  0.1686
 6444SOL    HW130968   2.677   0.133   7.249  2.6465 -2.0806 -0.9977
 6444SOL    HW230969   2.692   0.281   7.247 -0.6718 -0.3659  0.6560
 6445SOL     OW30970   2.563   0.452  12.492  0.0129 -0.1341  0.1511
 6445SOL    HW130971   2.563   0.364  12.454 -1.4348 -0.9389  1.9830
 6445SOL    HW230972   2.472   0.441  12.521 -0.1889  0.8231 -0.1129
 6446SOL     OW30973   0.962   3.012   4.009  0.5897  0.3947 -0.0761
 6446SOL    HW130974   0.886   3.021   4.067 -0.1623 -0.9994 -0.8575
 6446SOL    HW230975   0.975   3.100   3.974 -4.5884  0.9826 -0.5940
 6447SOL     OW30976   3.929   1.241   2.089 -0.2021  0.0602  0.0164
 6447SOL    HW130977   3.926   1.146   2.101 -0.9623 -0.0773 -1.2952
 6447SOL    HW230978   3.932   1.246   1.994 -2.7796 -1.7803 -0.1766
 6448SOL     OW30979   1.322   2.690   3.338  0.0137 -0.2191 -0.6730
 6448SOL    HW130980   1.280   2.639   3.269 -1.4258  0.0736 -0.0203
 6448SOL    HW230981   1.259   2.762   3.333 -0.8575 -1.0254 -1.3018
 6449SOL     OW30982   3.700   0.956   5.239  0.1487 -0.2968 -0.1846
 6449SOL    HW130983   3.633   0.932   5.302 -1.0839 -0.5355 -1.6018
 6449SOL    HW230984   3.744   1.026   5.289  0.3339 -0.7117  0.2342
 6450SOL     OW30985   1.331   4.263   2.163  1.0430  0.0982  0.4638
 6450SOL    HW130986   1.347   4.172   2.139 -0.5801 -0.2781  0.8327
 6450SOL    HW230987   1.260   4.258   2.227  1.2016 -1.1801  0.5453
 6451SOL     OW30988   0.837   1.533   9.276  1.0714  0.1876  0.2376
 6451SOL    HW130989   0.850   1.450   9.228 -2.1729 -1.2664  1.8777
 6451SOL    HW230990   0.771   1.570   9.217  0.5228  0.3831  0.9784
 6452SOL     OW30991   1.562   3.955   2.632  0.2673  0.3901 -0.2558
 6452SOL    HW130992   1.551   3.958   2.727  1.5608  2.4396 -0.1622
 6452SOL    HW230993   1.469   3.958   2.609 -0.3306  1.8251  2.4040
 6453SOL     OW30994   2.263   2.749   7.801 -0.3694 -0.4365 -0.2159
 6453SOL    HW130995   2.355   2.723   7.800  0.3982  2.2115  1.3999
 6453SOL    HW230996   2.218   2.669   7.777  0.3581 -0.7787 -0.4398
 6454SOL     OW30997   2.181   0.425   8.683 -0.6912  0.3817 -0.4961
 6454SOL    HW130998   2.128   0.504   8.676 -0.4034  0.8322  2.2008
 6454SOL    HW230999   2.108   0.365   8.702 -1.0636  0.3309 -2.0917
 6455SOL     OW31000   4.099   3.064   0.941 -0.0386  0.0054  0.2763
 6455SOL    HW131001   4.110   3.032   1.031 -1.1700 -2.1616 -0.3523
 6455SOL    HW231002   4.024   3.123   0.948 -1.8710 -2.5263  2.2748
 6456SOL     OW31003   3.989   4.355   4.416 -0.3951 -0.2087  0.0884
 6456SOL    HW131004   3.986   4.303   4.496 -0.6037 -0.0984  0.1507
 6456SOL    HW231005   3.897   4.350   4.393 -0.5585 -2.8534  1.3636
 6457SOL     OW31006   1.152   2.383   2.581  0.0123  0.5593 -0.5144
 6457SOL    HW131007   1.134   2.313   2.643  1.8481  0.3021 -0.2597
 6457SOL    HW231008   1.069   2.388   2.534  0.0678  2.0834 -0.4463
 6458SOL     OW31009   3.803   2.668   6.065 -0.7646 -0.2881  0.4346
 6458SOL    HW131010   3.737   2.668   5.995  0.5875  0.6055 -0.8422
 6458SOL    HW231011   3.869   2.725   6.025  1.4110 -3.4999 -0.5709
 6459SOL     OW31012   0.128   1.184  14.140 -0.4763  0.4848 -0.9443
 6459SOL    HW131013   0.124   1.143  14.226 -0.8605  1.7984 -0.3437
 6459SOL    HW231014   0.208   1.234  14.158 -0.2763 -0.1037 -0.1850
 6460SOL     OW31015   1.865   4.624   7.414 -0.0057 -0.1616 -0.6271
 6460SOL    HW131016   1.912   4.603   7.495  1.2278  1.3639 -0.9481
 6460SOL    HW231017   1.780   4.601   7.450  0.5016  0.3184  0.8731
 6461SOL     OW31018   4.237   2.282   2.593 -0.1647 -0.7447  0.0039
 6461SOL    HW131019   4.188   2.323   2.665  0.6851 -1.4180  0.9590
 6461SOL    HW231020   4.272   2.359   2.548 -1.1344 -0.0175  0.4956
 6462SOL     OW31021   3.358   0.556   0.458 -0.2577 -0.3523  0.4973
 6462SOL    HW131022   3.339   0.497   0.385  2.4045 -0.3853 -0.1543
 6462SOL    HW231023   3.449   0.562   0.429 -0.8662 -0.6572 -1.4083
 6463SOL     OW31024   0.550   4.163   8.159 -0.0231  0.1170 -0.2128
 6463SOL    HW131025   0.623   4.123   8.113  0.5654 -0.5953  1.3316
 6463SOL    HW231026   0.591   4.201   8.237  2.3520 -0.5326 -1.1732
 6464SOL     OW31027   4.402   2.407   3.988 -0.0880  0.1273  0.0866
 6464SOL    HW131028   4.427   2.464   3.916  1.3138 -1.8241 -0.9411
 6464SOL    HW231029   4.469   2.340   3.996 -0.8416 -0.7189 -0.7440
 6465SOL     OW31030   4.560   3.539   8.032 -0.8076  0.0092 -0.2929
 6465SOL    HW131031   4.487   3.537   8.094 -1.3981  1.3059 -0.9393
 6465SOL    HW231032   4.520   3.474   7.974  1.6198 -0.8772 -0.9847
 6466SOL     OW31033   0.980   0.725   4.807  0.0748 -0.1381 -0.4081
 6466SOL    HW131034   0.897   0.768   4.828 -0.1168 -1.5114  1.6322
 6466SOL    HW231035   1.011   0.764   4.725  1.2765  0.2449  0.2296
 6467SOL     OW31036   3.211   1.030   7.730  0.4271  0.1433  0.1267
 6467SOL    HW131037   3.243   0.999   7.646 -3.1246 -1.8453 -0.5057
 6467SOL    HW231038   3.158   0.955   7.758  2.3496 -0.3500  2.5102
 6468SOL     OW31039   3.290   0.663   1.848 -0.0675  0.4458 -0.0825
 6468SOL    HW131040   3.324   0.745   1.885  1.4275  1.0090 -2.6833
 6468SOL    HW231041   3.340   0.652   1.766 -1.9445  1.4090 -1.3606
 6469SOL     OW31042   2.962   3.050  12.999 -0.3795  0.3384 -0.2994
 6469SOL    HW131043   2.965   3.107  12.922 -1.6115 -0.7418 -1.1556
 6469SOL    HW231044   2.870   3.030  13.018 -0.0881  0.9168  1.6907
 6470SOL     OW31045   1.012   2.994   8.484  0.2971  0.1619 -0.1870
 6470SOL    HW131046   1.025   2.938   8.408  1.7114  0.7008 -0.3371
 6470SOL    HW231047   0.951   3.064   8.461 -0.6040  0.3123  2.5861
 6471SOL     OW31048   3.941   0.359  16.860 -0.0517  0.7577 -0.3499
 6471SOL    HW131049   3.864   0.407  16.891  0.9992  2.4710 -0.3684
 6471SOL    HW231050   3.919   0.354  16.767 -0.6688 -0.5263 -0.1188
 6472SOL     OW31051   4.118   3.805   2.178 -0.1454  0.4229  0.5149
 6472SOL    HW131052   4.106   3.711   2.168  1.7123  0.1257  0.9988
 6472SOL    HW231053   4.036   3.832   2.218 -0.7627  0.1600 -0.5850
 6473SOL     OW31054   2.016   3.286  11.784  0.6551  0.1442  0.0277
 6473SOL    HW131055   2.000   3.233  11.861  1.8712 -0.1328  0.0765
 6473SOL    HW231056   1.927   3.287  11.748 -0.0997 -0.7596  1.9085
 6474SOL     OW31057   2.159   1.047  12.383 -0.4120  0.1645 -0.6772
 6474SOL    HW131058   2.201   0.967  12.350 -1.0587 -0.0219 -1.0560
 6474SOL    HW231059   2.119   1.085  12.305 -1.7597 -0.7667 -0.4438
 6475SOL     OW31060   2.401   0.783   4.116  0.7514  0.0258  0.3014
 6475SOL    HW131061   2.423   0.800   4.207  2.9148  0.7547 -0.3730
 6475SOL    HW231062   2.344   0.858   4.097 -2.4378 -2.7609 -1.3227
 6476SOL     OW31063   2.950   4.072  13.854  0.0448 -0.2731  0.2690
 6476SOL    HW131064   2.987   4.154  13.823 -0.7674 -1.1087 -2.8589
 6476SOL    HW231065   2.933   4.017  13.777  1.0201 -1.0257  0.5807
 6477SOL     OW31066   4.312   3.648   9.193  0.0082 -0.1635 -0.9311
 6477SOL    HW131067   4.292   3.570   9.141  1.9775 -0.8186 -0.6920
 6477SOL    HW231068   4.313   3.721   9.132  0.1936  1.7328  1.3487
 6478SOL     OW31069   1.769   3.051   2.687 -0.2699  0.1818 -0.0857
 6478SOL    HW131070   1.769   3.066   2.782 -3.8890  1.9303 -0.3274
 6478SOL    HW231071   1.717   2.971   2.688  0.9924 -0.6202 -0.4341
 6479SOL     OW31072   4.219   3.024   7.697 -0.7779  0.4951 -0.1904
 6479SOL    HW131073   4.183   2.936   7.694  0.4329  0.0252 -0.9190
 6479SOL    HW231074   4.217   3.044   7.604  1.6801  2.0538  0.0857
 6480SOL     OW31075   4.687   4.433   4.537  0.1598  0.3828  0.0545
 6480SOL    HW131076   0.011   4.442   4.463 -1.1689 -2.5390 -1.3610
 6480SOL    HW231077   4.598   4.441   4.504  0.4546 -1.1538 -1.0924
 6481SOL     OW31078   3.413   1.685   9.908  0.1873  0.0197 -0.4807
 6481SOL    HW131079   3.337   1.660   9.855 -0.5726 -0.2618  0.7674
 6481SOL    HW231080   3.434   1.767   9.862 -1.7748  1.2173  0.7710
 6482SOL     OW31081   0.119   3.650   4.224 -0.0135  0.1214 -0.0742
 6482SOL    HW131082   0.075   3.601   4.155  1.5988 -0.5024 -0.6731
 6482SOL    HW231083   0.086   3.615   4.306  0.6676  1.0218  0.5955
 6483SOL     OW31084   4.508   2.021   8.372 -0.4538 -0.4714 -0.0097
 6483SOL    HW131085   4.510   1.944   8.429  1.7005 -1.2639 -1.1626
 6483SOL    HW231086   4.600   2.045   8.364 -0.2678 -1.3431 -0.5627
 6484SOL     OW31087   4.431   2.152   4.233  0.3620 -0.6270  0.1505
 6484SOL    HW131088   4.357   2.096   4.257 -0.0881 -0.1268 -0.0715
 6484SOL    HW231089   4.505   2.093   4.244  0.2789 -0.4507  1.6060
 6485SOL     OW31090   3.752   3.143   9.949 -0.3654  0.2149  0.5206
 6485SOL    HW131091   3.697   3.218   9.927  0.3499  0.3175 -0.9205
 6485SOL    HW231092   3.765   3.151  10.043 -1.6707  1.4979  0.5922
 6486SOL     OW31093   1.535   2.009  11.227  0.2202 -0.3317  0.1546
 6486SOL    HW131094   1.569   1.927  11.191  2.9480 -0.0545  2.1438
 6486SOL    HW231095   1.497   1.975  11.308  0.6114 -0.8382  0.1247
 6487SOL     OW31096   1.701   2.473   3.729 -0.9076 -0.2953 -0.1897
 6487SOL    HW131097   1.678   2.565   3.716 -1.0862 -0.1768  0.9645
 6487SOL    HW231098   1.747   2.460   3.646 -0.2533  2.5189 -0.2539
 6488SOL     OW31099   1.082   1.612   1.252  0.2005  0.0451 -0.4067
 6488SOL    HW131100   1.005   1.555   1.243 -1.4829  1.9680  1.9751
 6488SOL    HW231101   1.152   1.559   1.214  2.6807  2.1851  1.1907
 6489SOL     OW31102   0.107   1.833   6.573  0.3950 -0.5616 -0.1354
 6489SOL    HW131103   0.088   1.862   6.484 -0.7422  0.8100  0.5571
 6489SOL    HW231104   0.056   1.753   6.564  2.0983 -1.7082  0.3591
 6490SOL     OW31105   1.765   3.832   6.061 -0.1654  0.4016  0.4261
 6490SOL    HW131106   1.744   3.904   6.120 -0.3249  0.8953 -0.2317
 6490SOL    HW231107   1.773   3.762   6.126 -0.7267  0.6508  0.7670
 6491SOL     OW31108   0.625   4.271   5.814  0.0415 -0.4725 -0.1056
 6491SOL    HW131109   0.540   4.262   5.771 -0.6476  0.1411  1.1414
 6491SOL    HW231110   0.610   4.339   5.880  0.7129  1.4222 -1.8907
 6492SOL     OW31111   0.090   2.737   0.628  0.2360 -0.0181 -0.0955
 6492SOL    HW131112   0.063   2.827   0.646  1.7284  0.6700 -1.3044
 6492SOL    HW231113   0.015   2.695   0.584  1.4504 -2.8019  0.5555
 6493SOL     OW31114   2.718   0.287   3.184  0.4955  0.4778 -0.4178
 6493SOL    HW131115   2.640   0.264   3.133  1.3718 -1.1459 -1.0520
 6493SOL    HW231116   2.676   0.288   3.270 -0.6738 -2.0208 -0.9532
 6494SOL     OW31117   2.960   0.723  13.077  0.1382 -0.3405 -0.2873
 6494SOL    HW131118   2.908   0.741  12.998  1.5989 -0.8591 -1.3617
 6494SOL    HW231119   3.025   0.671  13.030  2.4922  1.6356  0.8171
 6495SOL     OW31120   2.462   2.048   9.209 -0.0507 -1.0653  0.3391
 6495SOL    HW131121   2.404   2.019   9.139  0.5742  3.0158 -1.8825
 6495SOL    HW231122   2.545   2.062   9.163 -0.7944  2.1822 -0.0530
 6496SOL     OW31123   3.566   3.443   3.991 -0.4658  0.0141 -0.7383
 6496SOL    HW131124   3.486   3.407   4.030  0.2217  1.2222  1.7689
 6496SOL    HW231125   3.575   3.535   4.017  0.9343 -0.3978  0.2517
 6497SOL     OW31126   0.921   2.419   5.677 -0.0703  0.0029 -0.5426
 6497SOL    HW131127   0.907   2.349   5.741 -2.2378 -1.3999 -2.5287
 6497SOL    HW231128   0.978   2.375   5.614 -0.6114 -1.8038  0.2245
 6498SOL     OW31129   2.293   4.025  14.625 -0.2136  0.0633 -0.5522
 6498SOL    HW131130   2.241   3.951  14.595  0.0362  0.7373 -2.6377
 6498SOL    HW231131   2.355   3.984  14.686 -0.4041  1.9366  0.8921
 6499SOL     OW31132   0.427   0.796   6.248  0.3402 -0.1324 -0.2041
 6499SOL    HW131133   0.376   0.716   6.244 -0.6004  0.4823 -0.5718
 6499SOL    HW231134   0.515   0.758   6.249 -0.1163 -1.1709 -0.1530
 6500SOL     OW31135   0.166   3.487   6.276  0.0434  0.4823 -0.0102
 6500SOL    HW131136   0.249   3.454   6.309 -0.1037 -0.3744 -0.4993
 6500SOL    HW231137   0.158   3.573   6.317  0.2090  0.9559 -0.9912
 6501SOL     OW31138   0.660   2.214   8.142 -0.4324  0.0397  0.0216
 6501SOL    HW131139   0.600   2.215   8.068 -0.1189 -1.6467 -0.2540
 6501SOL    HW231140   0.601   2.194   8.215 -0.6161 -0.0662 -0.1559
 6502SOL     OW31141   1.404   1.071   2.394  0.3507 -0.4733 -0.3374
 6502SOL    HW131142   1.338   1.134   2.424 -0.0771 -1.5737  1.0215
 6502SOL    HW231143   1.477   1.120   2.431 -0.6562  1.0435 -0.3439
 6503SOL     OW31144   4.524   0.078   6.620 -0.4880 -0.4369 -0.2065
 6503SOL    HW131145   4.455   0.018   6.650  0.2482 -1.0017  0.3790
 6503SOL    HW231146   4.547   0.106   6.709  0.6824 -1.0502 -0.3150
 6504SOL     OW31147   1.410   0.432  15.682 -0.0557  0.3424 -0.1997
 6504SOL    HW131148   1.346   0.448  15.612  1.1505  1.2234 -1.1003
 6504SOL    HW231149   1.476   0.388  15.629  1.0188  1.3139  0.3435
 6505SOL     OW31150   1.561   2.805   5.948  1.2089 -0.0878 -0.0964
 6505SOL    HW131151   1.630   2.741   5.966  0.1968 -1.4187 -0.9617
 6505SOL    HW231152   1.479   2.760   5.969  0.7065  1.0388  0.3326
 6506SOL     OW31153   1.540   0.807   9.997 -0.2562 -0.4499  0.1328
 6506SOL    HW131154   1.536   0.896   9.962 -1.9611 -1.1881 -1.5697
 6506SOL    HW231155   1.473   0.810  10.065 -1.6908 -0.0922 -1.2994
 6507SOL     OW31156   0.650   0.967   8.308  0.3679  0.8776  0.2682
 6507SOL    HW131157   0.578   0.940   8.364  0.5419  0.4460  0.2817
 6507SOL    HW231158   0.731   0.929   8.344  1.1876  1.9852 -0.4020
 6508SOL     OW31159   1.726   3.872   4.657 -0.1865 -0.5937  0.0338
 6508SOL    HW131160   1.642   3.907   4.630  0.3117  1.1262  0.7236
 6508SOL    HW231161   1.700   3.879   4.749  0.1890 -0.1777  0.1067
 6509SOL     OW31162   0.010   4.013   4.270  0.7185  0.3539  0.1122
 6509SOL    HW131163   0.084   4.072   4.280  0.3929  0.5479  1.3028
 6509SOL    HW231164   4.723   4.019   4.363 -1.0640 -0.3793 -0.2717
 6510SOL     OW31165   0.499   4.066   7.693 -0.0474 -0.2990 -0.1815
 6510SOL    HW131166   0.425   4.031   7.742 -1.2177  1.6297 -0.6037
 6510SOL    HW231167   0.570   4.055   7.757  0.6379  0.2023 -0.8463
 6511SOL     OW31168   1.297   3.011   3.326 -0.0479 -0.4696  0.4445
 6511SOL    HW131169   1.225   2.967   3.280  0.4995  0.7563 -1.5774
 6511SOL    HW231170   1.374   2.964   3.293  0.7280 -0.7801  2.7397
 6512SOL     OW31171   0.397   3.385   6.410  0.7865  0.5119 -0.1933
 6512SOL    HW131172   0.400   3.298   6.450  0.6530  0.5958  0.0009
 6512SOL    HW231173   0.479   3.419   6.444  0.0496 -0.3560  2.4880
 6513SOL     OW31174   1.993   4.655   5.270  0.3035 -0.7040 -0.1575
 6513SOL    HW131175   1.957   4.623   5.187  1.0185 -0.1898 -0.6630
 6513SOL    HW231176   1.912   4.665   5.319 -0.6738 -0.7260 -1.7613
 6514SOL     OW31177   3.622   0.468   4.361  0.0626 -0.1884 -0.4702
 6514SOL    HW131178   3.613   0.539   4.298  2.4997  0.0776 -0.5078
 6514SOL    HW231179   3.562   0.400   4.328  0.8638 -1.3188  0.4154
 6515SOL     OW31180   2.926   2.470  13.628  0.0328  0.3931  0.0423
 6515SOL    HW131181   2.999   2.424  13.670 -0.1214  0.4588  0.3828
 6515SOL    HW231182   2.974   2.547  13.597 -1.1526  1.1313  0.0444
 6516SOL     OW31183   0.542   1.739   8.883  0.1777 -0.1752  0.9284
 6516SOL    HW131184   0.635   1.716   8.887 -0.2083 -1.4840  2.1380
 6516SOL    HW231185   0.517   1.675   8.816  0.0694 -0.5186  1.2974
 6517SOL     OW31186   2.104   3.575   7.190  0.1450  0.7150  0.2026
 6517SOL    HW131187   2.032   3.631   7.163 -0.0351  0.6591  0.5706
 6517SOL    HW231188   2.094   3.527   7.107 -2.1233 -0.3722  1.1255
 6518SOL     OW31189   2.596   3.439   6.229  0.5112 -0.0638 -0.0501
 6518SOL    HW131190   2.540   3.459   6.304  2.4872 -0.9591  1.6550
 6518SOL    HW231191   2.562   3.355   6.195  0.0833  0.1924 -0.2611
 6519SOL     OW31192   0.060   4.684  15.735  0.1889  0.4422  0.4678
 6519SOL    HW131193   0.140   4.632  15.725  0.5034  0.5441  2.4587
 6519SOL    HW231194   0.058   4.724  15.647  1.5433  0.5729  0.4904
 6520SOL     OW31195   3.372   0.267   9.120 -0.2762 -0.0796 -0.5588
 6520SOL    HW131196   3.308   0.329   9.155  1.2859  0.3080  1.6587
 6520SOL    HW231197   3.318   0.188   9.121 -1.5280  0.8138  5.0210
 6521SOL     OW31198   1.636   1.063   3.163  0.0830 -0.3573  0.0641
 6521SOL    HW131199   1.628   1.014   3.244 -1.7172  1.1284  0.7950
 6521SOL    HW231200   1.623   1.156   3.183  0.9276 -0.0125 -0.9807
 6522SOL     OW31201   1.458   2.129   2.564  1.0824 -0.2031 -0.0171
 6522SOL    HW131202   1.461   2.081   2.481  0.7851  1.2337 -0.8625
 6522SOL    HW231203   1.478   2.063   2.631 -1.1883 -2.1196 -1.2213
 6523SOL     OW31204   1.989   1.425   8.093  0.1487  0.1067  0.3770
 6523SOL    HW131205   2.016   1.513   8.120  1.0925 -0.0662  0.0139
 6523SOL    HW231206   1.966   1.385   8.177 -0.2064  0.5093  0.4722
 6524SOL     OW31207   1.604   0.801   6.848 -0.4797 -0.3235 -0.2084
 6524SOL    HW131208   1.524   0.785   6.797 -0.5405 -0.9292  0.0807
 6524SOL    HW231209   1.575   0.747   6.921  1.3727 -1.7241 -0.5124
 6525SOL     OW31210   4.692   3.925  15.178  0.1258  0.4544 -0.0767
 6525SOL    HW131211   0.027   3.899  15.237 -0.2816  0.6020  0.4734
 6525SOL    HW231212   4.661   3.838  15.153  2.0922 -0.2863  0.0750
 6526SOL     OW31213   3.730   0.841   0.531 -0.3516 -0.5193 -0.3446
 6526SOL    HW131214   3.725   0.830   0.626  1.2293 -0.0355 -0.2064
 6526SOL    HW231215   3.802   0.784   0.505 -0.5657 -1.1570  0.4670
 6527SOL     OW31216   3.892   2.380   9.201  0.6667  0.2291  0.3369
 6527SOL    HW131217   3.885   2.387   9.106  1.0955 -4.3988 -0.0220
 6527SOL    HW231218   3.987   2.375   9.216  0.5382  1.3789  1.5732
 6528SOL     OW31219   3.003   2.009  12.374 -0.4999  0.3208  0.0447
 6528SOL    HW131220   2.972   2.053  12.454 -2.4593 -1.2010  0.1169
 6528SOL    HW231221   3.080   2.064  12.356 -0.3741  0.5739  1.3164
 6529SOL     OW31222   1.223   0.525  13.689  0.0878  0.2974 -0.0493
 6529SOL    HW131223   1.298   0.508  13.746  0.2277  0.8601 -0.0612
 6529SOL    HW231224   1.162   0.537  13.761  1.4292  2.0670  0.8214
 6530SOL     OW31225   3.705   2.532   3.425  0.0838  0.0535  0.2176
 6530SOL    HW131226   3.710   2.535   3.521  1.6021  0.9793  0.1104
 6530SOL    HW231227   3.783   2.580   3.395 -0.0293  0.6473  0.8773
 6531SOL     OW31228   3.939   2.056  15.514  0.3782 -0.0855  0.0547
 6531SOL    HW131229   4.013   2.094  15.467  0.8764  0.1385  1.0081
 6531SOL    HW231230   3.975   1.989  15.574 -0.8897  1.9736  3.1183
 6532SOL     OW31231   1.815   3.586   9.140  0.5373 -0.1734 -0.0326
 6532SOL    HW131232   1.748   3.560   9.203  0.0932  0.8461 -0.0749
 6532SOL    HW231233   1.808   3.513   9.079 -1.8230  0.1795 -0.1915
 6533SOL     OW31234   3.634   0.595   5.721  0.3915 -0.2876 -0.5557
 6533SOL    HW131235   3.667   0.508   5.744  0.7275 -0.7012 -2.5811
 6533SOL    HW231236   3.594   0.623   5.802 -2.0319  0.4490 -2.0047
 6534SOL     OW31237   2.612   2.386  13.097 -0.4877 -0.1743  0.0511
 6534SOL    HW131238   2.674   2.450  13.063 -0.0658 -1.5815 -1.7950
 6534SOL    HW231239   2.672   2.339  13.155 -1.1179 -0.3484  0.5624
 6535SOL     OW31240   1.613   2.917   6.932  0.0394  0.4590 -0.0789
 6535SOL    HW131241   1.570   2.835   6.906  0.4921 -0.1939  1.2013
 6535SOL    HW231242   1.700   2.891   6.963  0.2271  0.5333 -0.5478
 6536SOL     OW31243   4.177   2.679  16.977 -0.1710 -0.2156 -0.0284
 6536SOL    HW131244   4.267   2.650  16.993 -0.3946 -2.9206 -3.6521
 6536SOL    HW231245   4.181   2.774  16.983 -2.3892  0.0736 -3.5500
 6537SOL     OW31246   2.885   1.447   2.749  0.2282 -0.1621  0.2326
 6537SOL    HW131247   2.873   1.542   2.757 -0.8056 -0.3637  1.1408
 6537SOL    HW231248   2.890   1.415   2.839  1.7734  1.2869  0.6659
 6538SOL     OW31249   4.138   0.660  13.593 -0.5207  0.6562 -0.2072
 6538SOL    HW131250   4.204   0.591  13.590 -0.9931  0.2114 -0.4359
 6538SOL    HW231251   4.067   0.613  13.549  0.1226 -0.1797 -0.3498
 6539SOL     OW31252   1.761   3.916   8.804  0.2498 -0.2857 -0.5151
 6539SOL    HW131253   1.798   3.990   8.853 -0.6053 -1.0003  1.1993
 6539SOL    HW231254   1.733   3.958   8.722 -0.5884 -0.2504 -0.2179
 6540SOL     OW31255   2.574   3.656   4.895  0.0932 -0.0068  0.0990
 6540SOL    HW131256   2.584   3.745   4.860 -1.4223 -0.8848 -2.5556
 6540SOL    HW231257   2.656   3.644   4.943 -0.2164 -0.4047  0.5226
 6541SOL     OW31258   1.353   3.984   9.500 -0.3048 -0.0309  0.4576
 6541SOL    HW131259   1.268   3.941   9.503  0.0884 -0.7454  1.1811
 6541SOL    HW231260   1.370   3.985   9.594  2.8863 -2.7877 -0.0945
 6542SOL     OW31261   2.491   1.098   1.618  0.4932  0.6224 -0.2377
 6542SOL    HW131262   2.528   1.174   1.663  0.3675  1.2224 -1.1478
 6542SOL    HW231263   2.488   1.129   1.528  0.7467 -1.9286 -1.1272
 6543SOL     OW31264   1.266   3.821   0.894  0.1392 -0.0735 -0.1064
 6543SOL    HW131265   1.308   3.745   0.854  1.0153 -0.0978  0.8245
 6543SOL    HW231266   1.302   3.817   0.983 -0.7734 -1.3909  0.2074
 6544SOL     OW31267   2.694   3.772   4.078  1.1566 -0.3077 -0.5152
 6544SOL    HW131268   2.608   3.812   4.088 -0.6171 -3.9983 -1.0826
 6544SOL    HW231269   2.694   3.730   3.992 -1.0697  1.8523 -1.5518
 6545SOL     OW31270   2.728   1.974   6.788 -0.1333  0.1621  0.3738
 6545SOL    HW131271   2.809   1.932   6.817 -0.8090 -1.4359 -0.0700
 6545SOL    HW231272   2.745   2.064   6.759 -0.4330 -0.3810 -1.4829
 6546SOL     OW31273   0.048   0.183   7.220  0.1908  0.2240  0.1936
 6546SOL    HW131274   0.133   0.139   7.229 -0.6347 -1.8448 -2.3201
 6546SOL    HW231275   0.040   0.238   7.298  0.0849 -1.2844  1.2343
 6547SOL     OW31276   2.185   0.521   7.271  0.3263  0.5281 -0.2674
 6547SOL    HW131277   2.230   0.569   7.340  1.1672 -0.6416  0.0013
 6547SOL    HW231278   2.184   0.588   7.203  0.2716  1.3388  0.5363
 6548SOL     OW31279   3.230   2.301   8.530  0.1899 -0.8352 -0.4337
 6548SOL    HW131280   3.246   2.250   8.609 -0.0674  1.8645  1.3483
 6548SOL    HW231281   3.228   2.392   8.559 -0.2169 -0.6956 -0.8969
 6549SOL     OW31282   4.675   3.034   6.844 -0.3340  0.2091  0.1957
 6549SOL    HW131283   0.001   2.964   6.822  1.0055  1.3352  0.3044
 6549SOL    HW231284   4.733   3.110   6.834  1.6281 -1.5161 -1.6776
 6550SOL     OW31285   4.414   3.021   7.870 -0.0894  0.2697 -0.6896
 6550SOL    HW131286   4.345   3.028   7.804 -0.2249  0.0486 -0.5716
 6550SOL    HW231287   4.385   2.949   7.926 -0.2392  0.1464 -0.9238
 6551SOL     OW31288   1.506   2.113  10.230 -0.0530 -0.0676  0.3259
 6551SOL    HW131289   1.458   2.054  10.289 -1.6622 -1.8466 -2.7676
 6551SOL    HW231290   1.434   2.137  10.171  0.6075  0.8708 -0.0866
 6552SOL     OW31291   1.322   1.386  11.367 -0.1250 -0.0391  0.6182
 6552SOL    HW131292   1.350   1.307  11.321 -2.0860  0.2640 -1.0900
 6552SOL    HW231293   1.333   1.353  11.457 -4.5982 -1.9963  0.4683
 6553SOL     OW31294   1.771   0.023  12.680  0.4384  0.3323  0.0040
 6553SOL    HW131295   1.863   0.034  12.657  1.5183 -3.4625  2.3765
 6553SOL    HW231296   1.748   0.112  12.707 -0.6161 -0.5216  1.9743
 6554SOL     OW31297   1.054   2.169   3.869  0.2872 -0.4630  0.3260
 6554SOL    HW131298   0.998   2.107   3.917  1.3196 -1.9847 -0.4267
 6554SOL    HW231299   1.029   2.252   3.911 -2.0051 -0.9615 -0.0598
 6555SOL     OW31300   1.983   0.331   7.710 -0.1170 -0.6951  0.5857
 6555SOL    HW131301   1.985   0.271   7.636 -1.5996  0.9231 -0.7795
 6555SOL    HW231302   2.035   0.286   7.776 -0.5445 -2.1158 -0.0372
 6556SOL     OW31303   0.773   3.808   5.632 -0.3319 -0.2513  0.0993
 6556SOL    HW131304   0.733   3.875   5.687 -0.4796  0.3462 -0.7549
 6556SOL    HW231305   0.862   3.839   5.650  0.2273 -0.5862 -2.1282
 6557SOL     OW31306   4.517   3.913   9.946 -0.1830  0.1694 -0.0865
 6557SOL    HW131307   4.575   3.984   9.917 -1.0275  0.4345 -1.1265
 6557SOL    HW231308   4.463   3.888   9.871 -3.3744  0.1657  2.2192
 6558SOL     OW31309   0.626   1.826  12.809  0.0294  0.0120 -0.2526
 6558SOL    HW131310   0.600   1.866  12.726  0.6812 -0.6523 -0.7736
 6558SOL    HW231311   0.617   1.735  12.782  1.0665  0.0247 -0.6732
 6559SOL     OW31312   1.506   2.804  13.536 -0.4030  0.1390 -0.0817
 6559SOL    HW131313   1.583   2.770  13.582  1.8000  1.7719 -2.4981
 6559SOL    HW231314   1.453   2.731  13.506 -2.4499  1.6040 -0.0414
 6560SOL     OW31315   4.008   0.691  17.201 -0.2888  0.2163  0.2954
 6560SOL    HW131316   4.007   0.629  17.128  0.3030  1.2551 -0.6020
 6560SOL    HW231317   3.981   0.630  17.270 -0.7087  1.1501  0.9491
 6561SOL     OW31318   3.739   1.130   2.401  0.3477 -0.3491  0.2153
 6561SOL    HW131319   3.752   1.068   2.473 -0.8083 -2.3837 -1.3429
 6561SOL    HW231320   3.822   1.121   2.354 -0.8427 -1.9769 -1.5572
 6562SOL     OW31321   2.097   1.428   7.479 -0.1073  0.4221 -0.0385
 6562SOL    HW131322   2.167   1.492   7.471  0.4290  0.0096  1.3960
 6562SOL    HW231323   2.029   1.490   7.504 -0.7407 -0.9436  1.6767
 6563SOL     OW31324   3.601   1.812   9.084  0.4249 -0.0543 -0.1068
 6563SOL    HW131325   3.607   1.853   9.170 -2.6219  0.5460 -0.1746
 6563SOL    HW231326   3.634   1.868   9.014 -2.1408  0.1483 -1.1641
 6564SOL     OW31327   0.662   3.370  16.054 -0.0248  0.6669 -0.0137
 6564SOL    HW131328   0.677   3.407  16.141  3.2609  2.1708 -1.2528
 6564SOL    HW231329   0.606   3.443  16.028  0.3641  0.2096 -2.1074
 6565SOL     OW31330   2.915   0.961   9.746 -0.0626 -0.1374 -0.6961
 6565SOL    HW131331   2.949   0.874   9.766  0.4998  0.0569 -0.8158
 6565SOL    HW231332   2.993   1.001   9.784 -0.8069  2.1013 -1.5124
 6566SOL     OW31333   2.270   3.640   8.771  0.0752 -0.0153 -0.0099
 6566SOL    HW131334   2.178   3.612   8.775  0.2501 -0.3986  1.4201
 6566SOL    HW231335   2.271   3.698   8.848 -0.6130  0.9300 -0.7111
 6567SOL     OW31336   4.480   0.365   6.712  0.0598 -0.1587 -0.6671
 6567SOL    HW131337   4.514   0.275   6.711  1.4005  0.3774 -1.9113
 6567SOL    HW231338   4.516   0.398   6.795  2.3431 -0.8932 -1.3754
 6568SOL     OW31339   2.542   2.223  14.939  0.8705  0.6343  0.3149
 6568SOL    HW131340   2.549   2.128  14.953 -0.2614  0.8113  2.0942
 6568SOL    HW231341   2.602   2.229  14.865  1.0923  2.1499  0.6122
 6569SOL     OW31342   1.535   1.016   5.976 -0.0544  0.0961  0.5110
 6569SOL    HW131343   1.448   1.038   5.943  0.0353  1.7174  1.3800
 6569SOL    HW231344   1.540   0.922   5.960 -1.6537 -0.1892  1.7162
 6570SOL     OW31345   3.103   2.993  12.441  0.5407  0.4654  0.4335
 6570SOL    HW131346   3.136   2.964  12.526  1.3169 -2.5838 -0.8984
 6570SOL    HW231347   3.036   3.058  12.464 -0.9901 -1.5883  1.7184
 6571SOL     OW31348   2.973   3.454  11.169  0.1372  0.3509 -0.2352
 6571SOL    HW131349   2.949   3.415  11.085 -0.3415  0.7132 -0.2677
 6571SOL    HW231350   2.917   3.528  11.188 -0.8434  0.2603 -2.7347
 6572SOL     OW31351   2.830   0.314   2.668 -0.0325  0.3411  0.0593
 6572SOL    HW131352   2.826   0.270   2.753 -1.6467  0.5235  0.0714
 6572SOL    HW231353   2.750   0.275   2.633 -0.4824  2.3847 -1.2172
 6573SOL     OW31354   1.104   3.567  16.499  0.0065  0.0874 -0.0603
 6573SOL    HW131355   1.145   3.651  16.481 -2.0526  1.4199  1.6331
 6573SOL    HW231356   1.029   3.583  16.556  0.3654  2.9859 -0.4147
 6574SOL     OW31357   2.625   2.512   9.282 -0.0617  0.4760 -0.6415
 6574SOL    HW131358   2.562   2.446   9.251  3.4553 -2.3879 -1.6801
 6574SOL    HW231359   2.583   2.596   9.267 -0.9467  0.4352  1.5543
 6575SOL     OW31360   0.409   0.545  14.218 -0.0622  0.0974  0.3767
 6575SOL    HW131361   0.383   0.573  14.306  1.3018 -3.2502  1.8377
 6575SOL    HW231362   0.347   0.590  14.160 -0.6000 -3.2404 -1.6025
 6576SOL     OW31363   2.132   2.001   9.229 -0.7469 -0.1062  0.3412
 6576SOL    HW131364   2.154   1.919   9.185 -2.0294 -0.3253  0.1263
 6576SOL    HW231365   2.175   1.992   9.314  0.3741  0.8980 -0.1064
 6577SOL     OW31366   4.313   3.753   8.913  0.4121 -0.1532 -0.0729
 6577SOL    HW131367   4.393   3.704   8.889  0.2227  0.2460 -1.5346
 6577SOL    HW231368   4.344   3.841   8.892  0.5653  0.3645  2.3236
 6578SOL     OW31369   3.714   3.303  12.977  0.0641 -0.4803 -0.1460
 6578SOL    HW131370   3.673   3.375  13.024 -0.6131 -2.0539  1.7038
 6578SOL    HW231371   3.758   3.245  13.039  2.4380  2.0488  0.4966
 6579SOL     OW31372   3.280   2.797  10.122  0.1105 -0.4173 -0.2680
 6579SOL    HW131373   3.213   2.834  10.064  1.1789  1.2896 -0.4089
 6579SOL    HW231374   3.247   2.804  10.212  1.0605 -0.7124  0.1017
 6580SOL     OW31375   0.517   4.157   6.235 -0.1663  0.3958 -0.4699
 6580SOL    HW131376   0.597   4.106   6.246 -1.3164 -1.3220  0.0807
 6580SOL    HW231377   0.463   4.126   6.308 -0.4851  0.7662 -0.5468
 6581SOL     OW31378   2.562   3.978   7.174  0.1369  0.3163 -0.2579
 6581SOL    HW131379   2.657   3.981   7.158  0.2944 -0.6290  0.4814
 6581SOL    HW231380   2.546   3.884   7.166 -0.3022  0.4795 -1.2435
 6582SOL     OW31381   2.674   2.889   4.326  0.2365  0.2049 -0.0222
 6582SOL    HW131382   2.681   2.881   4.230 -0.6260  2.0258 -0.2382
 6582SOL    HW231383   2.620   2.814   4.350 -1.5837  1.6206  0.3692
 6583SOL     OW31384   3.656   1.799   3.492  0.0768  0.4416 -0.3206
 6583SOL    HW131385   3.673   1.893   3.481 -2.9435  1.2837  2.3114
 6583SOL    HW231386   3.723   1.788   3.559 -1.4645 -1.5447  0.8873
 6584SOL     OW31387   4.278   2.838   5.895  0.2726 -0.0092  0.3067
 6584SOL    HW131388   4.298   2.747   5.915 -1.9155 -1.1786 -2.8169
 6584SOL    HW231389   4.368   2.869   5.887  0.4615 -0.7102 -0.3323
 6585SOL     OW31390   1.241   0.466   4.359 -0.1508 -0.3306  0.3671
 6585SOL    HW131391   1.211   0.553   4.385  1.9956  0.4846  0.1422
 6585SOL    HW231392   1.244   0.469   4.263 -0.5589  0.4255  0.3838
 6586SOL     OW31393   1.513   3.168   3.916  0.1230  0.0061  0.5243
 6586SOL    HW131394   1.425   3.205   3.919  0.1734  0.5253 -3.3673
 6586SOL    HW231395   1.554   3.213   3.990  2.8171 -0.6039 -0.6042
 6587SOL     OW31396   1.119   0.570   8.414  0.7154  0.9271 -0.1902
 6587SOL    HW131397   1.128   0.637   8.482 -1.4848  1.3895 -0.3671
 6587SOL    HW231398   1.024   0.569   8.403  0.7994  0.6942 -0.8994
 6588SOL     OW31399   3.871   0.325   9.175  0.1774  0.1342  0.5095
 6588SOL    HW131400   3.961   0.320   9.144 -0.2446  0.1473 -0.7337
 6588SOL    HW231401   3.833   0.256   9.121  2.7109 -0.1110 -0.9309
 6589SOL     OW31402   2.678   4.428   2.898  0.5114 -0.1713 -0.6477
 6589SOL    HW131403   2.655   4.446   2.807 -0.7546  0.1122 -0.2714
 6589SOL    HW231404   2.601   4.471   2.936  0.6643  0.7293 -1.3544
 6590SOL     OW31405   4.447   4.505  14.383 -0.0887  0.0570 -0.3175
 6590SOL    HW131406   4.514   4.508  14.315 -2.4312 -0.7743 -2.6623
 6590SOL    HW231407   4.419   4.413  14.382 -0.6807  0.2429 -0.7736
 6591SOL     OW31408   1.131   2.855   3.224  0.3908  0.4019  0.2370
 6591SOL    HW131409   1.097   2.822   3.141  0.3841  0.8799  0.0493
 6591SOL    HW231410   1.046   2.881   3.261 -0.7039 -2.4389 -0.3226
 6592SOL     OW31411   1.561   2.581   1.150 -0.1504  0.6197  0.0181
 6592SOL    HW131412   1.476   2.576   1.107 -0.2380  2.4967 -0.0486
 6592SOL    HW231413   1.580   2.493   1.182  0.6557  1.8748  3.0161
 6593SOL     OW31414   1.129   4.600   6.120 -0.1388 -0.4356  0.1843
 6593SOL    HW131415   1.065   4.671   6.116 -1.5739 -1.6874  0.7096
 6593SOL    HW231416   1.107   4.559   6.036  0.7579  0.1633 -0.3379
 6594SOL     OW31417   1.966   4.271   5.595  0.4516 -0.4779  0.3078
 6594SOL    HW131418   1.967   4.176   5.610  0.8518 -0.4503  0.4618
 6594SOL    HW231419   1.873   4.286   5.577  0.3012 -0.7361  0.8614
 6595SOL     OW31420   4.457   3.285   1.268 -0.2466 -0.0519 -0.0312
 6595SOL    HW131421   4.491   3.372   1.251 -0.5835  0.4139  1.6846
 6595SOL    HW231422   4.518   3.246   1.331 -0.8517  2.6178  2.2050
 6596SOL     OW31423   1.501   3.035  12.099  0.5779 -0.0490  0.2511
 6596SOL    HW131424   1.565   2.992  12.155  0.8538 -1.0557 -0.8519
 6596SOL    HW231425   1.426   3.056  12.156 -0.4780 -1.0131 -0.8042
 6597SOL     OW31426   2.593   1.302   9.301 -0.4086 -0.2333  0.1225
 6597SOL    HW131427   2.634   1.221   9.269 -1.5197 -0.6801 -0.1998
 6597SOL    HW231428   2.528   1.315   9.232 -0.8772  0.2591  0.6647
 6598SOL     OW31429   0.646   3.627   2.456 -0.9688 -0.3602 -0.0770
 6598SOL    HW131430   0.625   3.591   2.542 -1.3008  0.3032  0.1140
 6598SOL    HW231431   0.569   3.679   2.436 -2.4888 -1.3978  3.1421
 6599SOL     OW31432   1.131   0.100   5.476  0.1659 -0.2481 -0.2087
 6599SOL    HW131433   1.186   0.089   5.553  1.1917  0.4019 -0.8543
 6599SOL    HW231434   1.186   0.159   5.424  1.9556  0.2978  2.3181
 6600SOL     OW31435   2.244   0.784   1.822  0.2254  0.1294  0.0414
 6600SOL    HW131436   2.252   0.818   1.911  2.2842 -1.0523  0.3239
 6600SOL    HW231437   2.336   0.771   1.799  1.0188  1.1252  2.6170
 6601SOL     OW31438   3.554   3.414  11.557 -0.5628  0.3594  0.6198
 6601SOL    HW131439   3.544   3.341  11.496 -2.1600  0.2035  1.0601
 6601SOL    HW231440   3.498   3.373  11.622 -0.4213  1.9666  1.7528
 6602SOL     OW31441   2.044   4.083   2.302 -0.0829  0.2836  0.3362
 6602SOL    HW131442   2.063   4.036   2.383  0.3157 -0.2552 -0.0722
 6602SOL    HW231443   2.068   4.172   2.330 -0.1795  0.3228  0.2965
 6603SOL     OW31444   0.655   3.229   9.784 -0.0906  0.4461 -0.0707
 6603SOL    HW131445   0.603   3.190   9.854  1.7906  0.2495  1.2263
 6603SOL    HW231446   0.597   3.274   9.723  0.0022 -0.2613 -0.6856
 6604SOL     OW31447   2.059   4.297   6.737  0.3322 -0.4199 -0.2052
 6604SOL    HW131448   2.041   4.203   6.725 -0.1774 -0.4346  0.7201
 6604SOL    HW231449   2.087   4.299   6.828  0.2534  0.8231 -0.2071
 6605SOL     OW31450   2.803   4.167   1.666  0.6230 -0.4780  0.1842
 6605SOL    HW131451   2.800   4.257   1.633  0.6148 -0.9686 -1.1508
 6605SOL    HW231452   2.890   4.162   1.706  0.0877  1.2219  1.5870
 6606SOL     OW31453   1.244   4.699   1.850  0.0131 -0.5080  0.2831
 6606SOL    HW131454   1.221   4.693   1.943  2.5020  0.2440  0.9493
 6606SOL    HW231455   1.335   4.671   1.855  0.4905  0.6563 -1.6256
 6607SOL     OW31456   0.753   3.742  10.136 -0.6683  0.4271 -0.0822
 6607SOL    HW131457   0.724   3.830  10.162  0.4163  0.6191  0.4734
 6607SOL    HW231458   0.765   3.707  10.224 -1.0429 -1.3581 -0.7566
 6608SOL     OW31459   3.002   3.325   3.263  0.4096 -0.5522  0.4029
 6608SOL    HW131460   3.046   3.406   3.289 -2.0569  1.3426 -1.3602
 6608SOL    HW231461   3.012   3.310   3.169  3.6229 -0.0788  0.6957
 6609SOL     OW31462   1.045   1.086  15.420 -0.2956  0.3544  0.0931
 6609SOL    HW131463   1.010   1.172  15.445  0.1977  0.7182 -0.4542
 6609SOL    HW231464   1.129   1.111  15.383  1.5533 -2.3795  2.4174
 6610SOL     OW31465   3.601   4.053   1.230 -0.4449 -0.2110 -0.7470
 6610SOL    HW131466   3.677   4.078   1.283 -0.5056  1.0021 -1.2459
 6610SOL    HW231467   3.557   3.991   1.288  1.6329  0.6135  1.7202
 6611SOL     OW31468   0.378   0.639   5.733  0.3126 -0.3501  0.3385
 6611SOL    HW131469   0.397   0.553   5.697  0.6238  0.8427 -2.3214
 6611SOL    HW231470   0.364   0.606   5.822  0.2095 -1.8755 -0.2481
 6612SOL     OW31471   2.304   1.504   3.885 -0.4729  0.1388 -0.1957
 6612SOL    HW131472   2.355   1.455   3.821  0.7651  0.7771  0.3004
 6612SOL    HW231473   2.369   1.567   3.915 -0.7211  0.5904 -0.6022
 6613SOL     OW31474   1.920   3.044   3.229 -0.5155  0.3506  0.1084
 6613SOL    HW131475   1.970   3.124   3.248  1.5495 -0.3763 -2.2740
 6613SOL    HW231476   1.975   2.977   3.269 -1.0275 -0.5768 -0.7458
 6614SOL     OW31477   4.637   4.136   9.862  0.7673 -0.3545 -0.1559
 6614SOL    HW131478   4.566   4.200   9.862  1.1999  0.1253  1.1159
 6614SOL    HW231479   4.703   4.170   9.922 -0.2923 -0.5165  1.1244
 6615SOL     OW31480   2.192   1.628  15.505 -0.5372 -0.0372  0.2769
 6615SOL    HW131481   2.274   1.594  15.469 -1.1597  0.3400 -1.5277
 6615SOL    HW231482   2.199   1.587  15.591 -1.9362  1.5365  1.1382
 6616SOL     OW31483   0.425   4.276   9.436  0.7457  0.5098  0.1831
 6616SOL    HW131484   0.352   4.330   9.407  0.8695 -0.3834 -1.7509
 6616SOL    HW231485   0.500   4.323   9.401  0.2753  0.2610 -1.1415
 6617SOL     OW31486   4.039   4.234   2.081 -0.3554  0.2774 -0.3091
 6617SOL    HW131487   4.001   4.164   2.135  0.6013 -0.6776 -0.8637
 6617SOL    HW231488   3.997   4.210   1.998  0.2756 -0.7588 -0.3256
 6618SOL     OW31489   0.408   2.525   8.785 -0.5147 -0.1512 -0.0844
 6618SOL    HW131490   0.350   2.511   8.860 -1.0211 -1.0049 -0.6317
 6618SOL    HW231491   0.350   2.563   8.718 -0.0083 -1.8800 -1.4768
 6619SOL     OW31492   0.470   1.475   8.173 -0.8008  0.1650 -0.0153
 6619SOL    HW131493   0.448   1.396   8.125 -0.1812 -1.5560  2.5419
 6619SOL    HW231494   0.560   1.498   8.150 -0.6914 -1.0278 -0.7724
 6620SOL     OW31495   1.112   1.225   6.160  0.1882 -0.0686  0.0540
 6620SOL    HW131496   1.047   1.170   6.116  1.0455 -1.4871  0.5640
 6620SOL    HW231497   1.188   1.227   6.101  0.2194 -1.7542  0.0486
 6621SOL     OW31498   4.193   1.610   2.684 -0.0815 -0.2137  0.3641
 6621SOL    HW131499   4.134   1.538   2.661 -0.5901  0.3435 -0.0728
 6621SOL    HW231500   4.130   1.682   2.689 -0.9821 -1.0132  0.4489
 6622SOL     OW31501   0.393   0.452   5.262  0.0937 -0.3415  0.2376
 6622SOL    HW131502   0.299   0.452   5.281  0.2049  1.0159  0.7956
 6622SOL    HW231503   0.401   0.365   5.300 -2.7737  0.7192  3.2986
 6623SOL     OW31504   0.283   0.829  13.446 -0.2187  0.2473  0.4704
 6623SOL    HW131505   0.235   0.791  13.519 -1.0028 -0.9561 -0.6789
 6623SOL    HW231506   0.310   0.917  13.472 -0.8159  0.9523 -1.2968
 6624SOL     OW31507   1.329   1.483   7.727  0.3866  0.6320 -0.2272
 6624SOL    HW131508   1.397   1.460   7.790 -0.2938  0.6397  0.5189
 6624SOL    HW231509   1.250   1.483   7.782  0.9561 -1.2563  0.5764
 6625SOL     OW31510   0.722   3.594   6.255 -0.1719 -0.1923 -0.4836
 6625SOL    HW131511   0.724   3.525   6.189 -1.0707  0.4792 -1.2135
 6625SOL    HW231512   0.651   3.643   6.213  2.1993  3.1836 -0.4995
 6626SOL     OW31513   0.382   1.581   7.631 -0.5084 -0.1002 -0.1668
 6626SOL    HW131514   0.469   1.613   7.656 -0.4430  1.0041 -1.7592
 6626SOL    HW231515   0.343   1.552   7.713 -0.5988  1.5972  0.3944
 6627SOL     OW31516   1.792   0.719   0.354 -0.7327 -0.3994 -0.3774
 6627SOL    HW131517   1.702   0.724   0.323 -0.8181 -1.2072 -0.2551
 6627SOL    HW231518   1.768   0.692   0.443 -0.6938 -0.6975 -0.4571
 6628SOL     OW31519   3.724   3.742   6.516 -0.6206  0.0038 -0.4392
 6628SOL    HW131520   3.808   3.697   6.515 -0.9101 -0.5673  0.7379
 6628SOL    HW231521   3.731   3.822   6.464  0.8907  0.7403  0.9151
 6629SOL     OW31522   0.546   1.185  17.686  0.1235 -0.8026 -0.1051
 6629SOL    HW131523   0.598   1.177   0.025  1.9609 -0.7756 -1.2933
 6629SOL    HW231524   0.597   1.131  17.625  1.7703 -0.6081  1.1220
 6630SOL     OW31525   0.822   3.131   7.141 -0.1978 -0.2580  0.3068
 6630SOL    HW131526   0.755   3.189   7.106  0.9202 -0.1116 -1.6017
 6630SOL    HW231527   0.780   3.111   7.225  1.3549 -1.0228  0.9175
 6631SOL     OW31528   3.674   0.690   6.564  0.2067 -0.2215 -0.0982
 6631SOL    HW131529   3.640   0.693   6.474  0.5082  0.9756 -0.1688
 6631SOL    HW231530   3.702   0.598   6.563 -0.0274 -0.2714 -1.8789
 6632SOL     OW31531   4.643   0.950  14.342  0.1012  0.3149  0.5563
 6632SOL    HW131532   4.553   0.930  14.365  0.5570 -0.3338  1.8312
 6632SOL    HW231533   4.663   1.042  14.363 -1.4218  0.5428  1.0161
 6633SOL     OW31534   3.299   2.702  12.457  0.0936 -0.1707 -0.1946
 6633SOL    HW131535   3.266   2.755  12.530  0.2198  0.1512 -0.3723
 6633SOL    HW231536   3.284   2.619  12.502  1.4194  1.6330  3.6104
 6634SOL     OW31537   2.366   0.003   4.816 -0.1102 -0.6249 -0.1685
 6634SOL    HW131538   2.333   4.671   4.757 -1.8418  0.1159 -0.0643
 6634SOL    HW231539   2.327   0.085   4.787 -1.6211 -0.3202  2.7312
 6635SOL     OW31540   4.092   2.944  17.694  0.1213  0.1360  0.4113
 6635SOL    HW131541   4.061   3.019   0.004  1.5989 -0.2096  1.8057
 6635SOL    HW231542   4.130   2.898   0.028 -0.1648  1.4762  1.3743
 6636SOL     OW31543   1.248   0.402  10.696 -0.3937 -0.3728  0.0295
 6636SOL    HW131544   1.227   0.493  10.675 -1.9877 -1.2349 -2.1353
 6636SOL    HW231545   1.157   0.370  10.695 -1.1410  1.8464 -2.8326
 6637SOL     OW31546   0.301   3.050   7.533  0.2529 -0.3442 -0.0132
 6637SOL    HW131547   0.250   3.090   7.462 -1.5105 -1.4893  0.6016
 6637SOL    HW231548   0.240   3.078   7.601  0.8315  0.6198  0.1113
 6638SOL     OW31549   0.778   4.555   6.033 -0.1623  0.0327  0.3422
 6638SOL    HW131550   0.811   4.528   5.947 -0.0022 -1.5928  0.9213
 6638SOL    HW231551   0.682   4.554   6.027 -0.1718 -1.4355  0.6783
 6639SOL     OW31552   1.620   2.842  12.261  0.5595 -0.1025 -0.0195
 6639SOL    HW131553   1.559   2.862  12.332 -3.3270  0.8028 -3.6362
 6639SOL    HW231554   1.584   2.762  12.222  0.7107  0.8804 -2.1424
 6640SOL     OW31555   3.236   2.854   3.571  0.2426  0.1255 -0.1776
 6640SOL    HW131556   3.250   2.913   3.497 -1.7324  2.6712  1.4601
 6640SOL    HW231557   3.315   2.801   3.563  2.4524  2.9825  2.8229
 6641SOL     OW31558   3.238   4.403   8.936 -0.1175  0.1029  0.0871
 6641SOL    HW131559   3.278   4.362   9.013  2.0619 -0.0418 -1.1210
 6641SOL    HW231560   3.179   4.467   8.974 -0.9693 -0.5536 -0.1164
 6642SOL     OW31561   3.489   2.441   7.916 -0.6738 -0.1309 -0.1006
 6642SOL    HW131562   3.429   2.513   7.900  1.3390  1.7020  0.6392
 6642SOL    HW231563   3.442   2.376   7.968  0.5332  0.3709  1.6122
 6643SOL     OW31564   0.908   1.089   0.397  0.0770 -0.1058  0.3630
 6643SOL    HW131565   0.826   1.120   0.360  0.5193 -0.1277 -0.6571
 6643SOL    HW231566   0.954   1.112   0.316 -0.5171  1.1655  0.4025
 6644SOL     OW31567   0.149   0.200  12.228 -0.2953  0.3900  0.1224
 6644SOL    HW131568   0.085   0.175  12.295 -1.4252 -0.5581 -1.3195
 6644SOL    HW231569   0.143   0.295  12.241  0.6424  0.5375 -0.5461
 6645SOL     OW31570   4.154   1.163   9.888 -0.3050  0.2537  0.1193
 6645SOL    HW131571   4.198   1.160   9.974 -0.3385 -0.0137  0.1290
 6645SOL    HW231572   4.214   1.216   9.836  0.0830  1.0375  1.3706
 6646SOL     OW31573   3.261   4.364  10.621 -0.3282  0.3539  0.4166
 6646SOL    HW131574   3.182   4.393  10.665  0.1414  1.4772  0.5033
 6646SOL    HW231575   3.222   4.372  10.534  0.1068  0.3100  0.2190
 6647SOL     OW31576   0.976   0.171   0.145 -0.5090 -0.4639 -0.1060
 6647SOL    HW131577   0.905   0.154   0.084  0.1703 -0.9343 -0.7581
 6647SOL    HW231578   1.059   0.139   0.109  0.1684 -1.6668  2.4745
 6648SOL     OW31579   2.625   1.463   5.551  0.4956 -0.5490 -0.3915
 6648SOL    HW131580   2.717   1.437   5.555  1.0132  1.2192 -0.9622
 6648SOL    HW231581   2.588   1.379   5.522  1.3681 -1.0465 -0.0941
 6649SOL     OW31582   2.326   4.122  11.452 -0.8202 -0.6555  0.7266
 6649SOL    HW131583   2.413   4.101  11.485 -0.2104  2.8902  1.3809
 6649SOL    HW231584   2.304   4.040  11.409  1.1243  0.1647 -1.8601
 6650SOL     OW31585   3.145   1.147   2.573  0.3215  0.1873 -0.4464
 6650SOL    HW131586   3.122   1.074   2.631  1.0430 -1.5923 -2.4433
 6650SOL    HW231587   3.233   1.165   2.607 -0.3871  1.2972  0.8272
 6651SOL     OW31588   2.289   2.742   2.805  0.1547 -0.2734  0.5568
 6651SOL    HW131589   2.300   2.747   2.900  2.4399 -0.4396  0.3143
 6651SOL    HW231590   2.201   2.779   2.799  0.8952  1.8036  2.4079
 6652SOL     OW31591   3.757   2.726   3.060 -0.0464 -0.2372  0.2302
 6652SOL    HW131592   3.775   2.797   2.999  0.6485 -0.0149  0.6995
 6652SOL    HW231593   3.700   2.675   3.002  1.4555 -1.9973  0.2754
 6653SOL     OW31594   0.558   2.767   5.161 -0.0396  0.2571 -0.5835
 6653SOL    HW131595   0.646   2.740   5.133 -0.2391 -2.3886  1.3501
 6653SOL    HW231596   0.583   2.849   5.204 -1.2224  0.8911 -1.1280
 6654SOL     OW31597   3.081   0.130   5.464 -0.9848  0.3947  0.3856
 6654SOL    HW131598   3.019   0.077   5.413 -1.1232  1.6209 -0.7203
 6654SOL    HW231599   3.038   0.116   5.549 -1.3382 -0.4772  0.0579
 6655SOL     OW31600   2.563   1.430   3.801 -1.1207 -0.1483  0.1945
 6655SOL    HW131601   2.650   1.435   3.840 -1.1044 -0.3785  0.1824
 6655SOL    HW231602   2.550   1.340   3.774  0.8186  0.0454 -1.3692
 6656SOL     OW31603   4.083   1.440   2.222  0.3158  0.0271  0.0017
 6656SOL    HW131604   4.109   1.503   2.156 -1.2735  0.8541  0.1628
 6656SOL    HW231605   4.014   1.386   2.182 -1.1731  2.0262 -0.1173
 6657SOL     OW31606   2.948   4.554   7.061 -0.3463 -0.5096 -0.0576
 6657SOL    HW131607   2.855   4.532   7.052 -0.4783 -0.3138  0.8584
 6657SOL    HW231608   2.983   4.567   6.973  3.7904 -1.6972  1.4084
 6658SOL     OW31609   2.203   0.169   6.791  0.1431  0.4829  0.2101
 6658SOL    HW131610   2.129   0.190   6.734  0.8098 -1.2801 -1.3312
 6658SOL    HW231611   2.151   0.139   6.865 -0.4496 -0.4661 -0.5844
 6659SOL     OW31612   1.230   2.325  16.368  0.0004 -0.2563  0.4476
 6659SOL    HW131613   1.296   2.381  16.327 -1.1719 -0.1427 -1.2952
 6659SOL    HW231614   1.161   2.390  16.384  2.9342  2.8298  0.4436
 6660SOL     OW31615   0.170   4.585   3.410 -0.3587  0.2321 -0.7140
 6660SOL    HW131616   0.232   4.513   3.420 -1.0491 -0.4123 -1.1522
 6660SOL    HW231617   0.105   4.559   3.475 -0.4319  1.7684 -0.1693
 6661SOL     OW31618   4.487   0.216  15.050  0.0103 -0.1369 -0.7490
 6661SOL    HW131619   4.491   0.285  14.983  2.4719 -0.3804 -0.8384
 6661SOL    HW231620   4.524   0.141  15.004  2.8977  1.6457 -1.3491
 6662SOL     OW31621   4.626   4.367  13.569  0.2599  0.3094  0.1466
 6662SOL    HW131622   4.670   4.295  13.525  1.4118 -0.6178  2.7693
 6662SOL    HW231623   4.626   4.445  13.514 -1.4299  0.9102  0.9915
 6663SOL     OW31624   1.306   0.066  10.763  0.0150 -0.3004  0.3989
 6663SOL    HW131625   1.226   0.045  10.714  0.2863 -1.0615  0.2939
 6663SOL    HW231626   1.313   0.161  10.754 -1.4776 -0.0720  1.5465
 6664SOL     OW31627   2.074   2.253   2.686  0.2790  0.4307  0.2390
 6664SOL    HW131628   2.122   2.319   2.737 -1.1682  1.9100 -0.3413
 6664SOL    HW231629   1.999   2.226   2.738  0.1210 -0.6280 -0.5394
 6665SOL     OW31630   2.912   0.862  15.854 -0.3707  0.2406  0.2450
 6665SOL    HW131631   2.892   0.774  15.822 -0.3562 -0.0154  0.9454
 6665SOL    HW231632   3.003   0.877  15.826 -0.4651  0.1640 -0.1039
 6666SOL     OW31633   3.541   4.223  15.855  0.8935  0.7436 -0.4527
 6666SOL    HW131634   3.532   4.264  15.941  0.6043  0.8987 -0.5587
 6666SOL    HW231635   3.562   4.296  15.796 -0.7150  0.5310 -1.2763
 6667SOL     OW31636   0.931   1.451   1.066  0.1690 -0.5564 -0.0759
 6667SOL    HW131637   1.021   1.422   1.082 -0.9508 -2.5789  2.5195
 6667SOL    HW231638   0.905   1.370   1.024  2.0552 -1.0801 -0.2196
 6668SOL     OW31639   1.672   3.829   9.070 -0.3950 -0.0252  0.7671
 6668SOL    HW131640   1.706   3.873   8.993 -0.2721  1.2073  1.5260
 6668SOL    HW231641   1.720   3.745   9.073 -0.6378 -0.2302 -1.5053
 6669SOL     OW31642   0.381   1.684   4.007  0.5946  0.0215 -0.1678
 6669SOL    HW131643   0.387   1.593   3.980 -1.7956 -0.3677  0.6220
 6669SOL    HW231644   0.474   1.705   4.012  0.6886 -0.3594 -0.3667
 6670SOL     OW31645   1.830   4.342   4.479  0.6010  0.0662 -0.2306
 6670SOL    HW131646   1.834   4.256   4.439 -0.0571  0.1186 -0.4015
 6670SOL    HW231647   1.824   4.321   4.572 -0.4916  0.5416 -0.1835
 6671SOL     OW31648   0.896   0.489  15.979  0.2096  0.7066  0.4755
 6671SOL    HW131649   0.896   0.539  15.897  1.4770  0.4977  0.3358
 6671SOL    HW231650   0.989   0.494  16.003 -0.0392 -2.8938  2.1598
 6672SOL     OW31651   1.025   3.867   0.712 -0.2563 -0.4310 -0.1161
 6672SOL    HW131652   1.110   3.891   0.749 -1.1572 -0.6133  2.0608
 6672SOL    HW231653   0.992   3.788   0.754 -0.1255  0.2640  1.2683
 6673SOL     OW31654   0.002   0.129  11.463 -0.2661 -0.1709 -0.1712
 6673SOL    HW131655   0.039   0.142  11.376 -0.6338 -2.4000 -0.6559
 6673SOL    HW231656   0.005   0.034  11.460 -2.4132 -0.2724  1.2607
 6674SOL     OW31657   2.773   2.999  12.714  0.1401  0.3395  0.3016
 6674SOL    HW131658   2.826   3.077  12.732 -0.6032  0.5939  1.3395
 6674SOL    HW231659   2.684   3.016  12.744 -0.0734 -0.5521  0.1616
 6675SOL     OW31660   2.619   2.922   2.352  0.0561 -0.0191  0.0417
 6675SOL    HW131661   2.557   2.963   2.412  0.3402  0.1454  0.2288
 6675SOL    HW231662   2.568   2.885   2.281 -0.5931 -0.0500  0.5266
 6676SOL     OW31663   2.192   2.385   8.460 -0.1594 -1.0054 -0.3744
 6676SOL    HW131664   2.217   2.340   8.379  0.4449 -0.8440 -0.2777
 6676SOL    HW231665   2.203   2.478   8.439 -1.9072 -0.6574  0.2807
 6677SOL     OW31666   1.247   0.987  11.506  0.3388  0.1682 -0.3258
 6677SOL    HW131667   1.189   0.911  11.501 -1.1314  1.3022 -0.6122
 6677SOL    HW231668   1.320   0.963  11.450  0.8350  1.4990 -0.2516
 6678SOL     OW31669   0.584   0.587   5.392 -0.3629 -0.2377  0.2932
 6678SOL    HW131670   0.516   0.550   5.336 -0.1534  1.1110 -0.8719
 6678SOL    HW231671   0.618   0.516   5.446 -2.2528 -1.7237 -0.4812
 6679SOL     OW31672   1.208   4.390  13.502  0.0285 -0.0604  0.7339
 6679SOL    HW131673   1.265   4.424  13.433  3.1309 -0.7554  2.8965
 6679SOL    HW231674   1.283   4.389  13.562  0.1311  0.6461  0.6139
 6680SOL     OW31675   0.755   0.856   1.116  0.1895 -1.4139  0.3142
 6680SOL    HW131676   0.806   0.785   1.078  0.0591 -1.1976 -0.2579
 6680SOL    HW231677   0.686   0.864   1.051  0.9356  2.2083 -0.0281
 6681SOL     OW31678   4.455   0.143   8.256 -0.7818  0.1265  0.0633
 6681SOL    HW131679   4.369   0.171   8.285 -1.2087  0.6209 -1.7134
 6681SOL    HW231680   4.477   0.064   8.306  0.7319  0.0601 -0.7077
 6682SOL     OW31681   0.100   3.025   5.700 -0.1679  0.2702  0.1286
 6682SOL    HW131682   0.095   2.963   5.628  2.9985 -1.0763  1.0500
 6682SOL    HW231683   0.072   2.975   5.777  0.5198 -1.2188 -0.5757
 6683SOL     OW31684   4.478   0.954   2.680  0.7723 -0.1275  0.0086
 6683SOL    HW131685   4.432   1.038   2.677 -2.3597 -1.8971 -2.4019
 6683SOL    HW231686   4.437   0.913   2.756 -1.3075  0.9367 -0.5214
 6684SOL     OW31687   1.065   2.842   4.305  0.6090  0.0166  0.3981
 6684SOL    HW131688   1.091   2.878   4.220 -0.3756  0.5455  0.3202
 6684SOL    HW231689   1.033   2.753   4.292 -0.1939  0.1732  1.3888
 6685SOL     OW31690   1.399   4.524   7.719  0.0584  0.1905  0.1858
 6685SOL    HW131691   1.324   4.577   7.691 -0.3814 -0.6108 -0.1419
 6685SOL    HW231692   1.403   4.548   7.811  0.4396 -1.1461  0.5244
 6686SOL     OW31693   1.840   3.576   7.442  0.3740 -0.5516  0.0867
 6686SOL    HW131694   1.858   3.569   7.348  0.2000  0.8439 -0.0496
 6686SOL    HW231695   1.894   3.651   7.467  0.7100 -1.0298  0.8086
 6687SOL     OW31696   2.746   3.979   9.355  0.0259  0.3382  0.1593
 6687SOL    HW131697   2.828   4.026   9.367  0.6469 -0.0341 -2.6371
 6687SOL    HW231698   2.725   3.951   9.445 -1.2483 -1.4745 -0.6979
 6688SOL     OW31699   3.745   2.287  16.472  0.1901  0.7763 -0.4224
 6688SOL    HW131700   3.672   2.348  16.470  0.6895  1.3573 -0.9823
 6688SOL    HW231701   3.796   2.309  16.394  1.3711 -0.1299  0.1002
 6689SOL     OW31702   3.552   4.347  16.100  0.0396  0.1826  0.0134
 6689SOL    HW131703   3.566   4.349  16.194 -0.2425 -1.3233  0.0885
 6689SOL    HW231704   3.508   4.431  16.086  1.0265  0.7691  0.4153
 6690SOL     OW31705   2.931   0.333  10.346 -0.6376 -0.7072  0.4001
 6690SOL    HW131706   2.887   0.333  10.431  2.6261 -1.7806  2.0398
 6690SOL    HW231707   2.934   0.426  10.324 -0.5294 -0.9573 -0.6268
 6691SOL     OW31708   0.433   3.265   9.593 -0.3515  0.2515  0.1237
 6691SOL    HW131709   0.350   3.226   9.566 -0.8875 -0.4401  2.7149
 6691SOL    HW231710   0.395   3.352   9.608 -1.9000 -0.5779  1.0854
 6692SOL     OW31711   0.945   2.150   6.853  0.1925  0.4124 -0.2119
 6692SOL    HW131712   0.883   2.210   6.811  1.0964  1.0153 -0.6859
 6692SOL    HW231713   0.888   2.078   6.883 -0.4941  0.2344 -1.9630
 6693SOL     OW31714   0.962   1.159   8.422  0.0796 -0.3466 -0.2893
 6693SOL    HW131715   0.976   1.096   8.351 -1.9991 -1.3163  0.1705
 6693SOL    HW231716   1.052   1.192   8.426 -0.9572  2.6683 -1.5154
 6694SOL     OW31717   2.890   3.863   4.247  0.1437  0.5117 -0.3099
 6694SOL    HW131718   2.959   3.890   4.187 -2.0021  0.6133 -2.7512
 6694SOL    HW231719   2.811   3.848   4.196  0.2087  0.1840 -0.3178
 6695SOL     OW31720   3.407   2.128   6.378  0.2987 -0.1778  0.0982
 6695SOL    HW131721   3.418   2.130   6.473  2.1247 -1.8159 -0.0846
 6695SOL    HW231722   3.479   2.183   6.346  0.4033 -0.2716  0.1712
 6696SOL     OW31723   1.635   0.604   4.679  0.0410 -0.1363  0.0219
 6696SOL    HW131724   1.694   0.666   4.721 -0.7418  0.4375  0.2594
 6696SOL    HW231725   1.570   0.598   4.748  0.3016 -0.0123  0.2742
 6697SOL     OW31726   3.671   3.111   8.397  0.2638 -0.0330  0.2357
 6697SOL    HW131727   3.604   3.050   8.368 -0.9175 -0.1312  3.2478
 6697SOL    HW231728   3.620   3.191   8.412 -1.7848 -0.7105 -3.1451
 6698SOL     OW31729   1.582   2.179   5.677  0.6990  0.9915 -0.3308
 6698SOL    HW131730   1.523   2.168   5.603 -0.7163 -1.9447  1.2297
 6698SOL    HW231731   1.611   2.089   5.696 -0.2675  0.9041  0.6731
 6699SOL     OW31732   0.421   0.889   8.449 -0.0020 -0.4466 -0.6152
 6699SOL    HW131733   0.359   0.918   8.383  0.1252  2.0107  0.3429
 6699SOL    HW231734   0.363   0.893   8.525  1.5645 -0.3027  0.5731
 6700SOL     OW31735   0.001   4.641   8.168 -0.0124  0.2315 -0.0259
 6700SOL    HW131736   4.650   4.600   8.165 -0.2937  0.8392 -0.1914
 6700SOL    HW231737   0.025   4.627   8.077  0.7675  0.4279  0.1529
 6701SOL     OW31738   4.711   1.615  14.376 -0.1550 -0.3393 -0.1759
 6701SOL    HW131739   4.678   1.635  14.289 -0.2588 -0.8200 -0.2464
 6701SOL    HW231740   4.725   1.703  14.412  3.2124 -2.3667  3.5729
 6702SOL     OW31741   4.305   0.172  14.452 -0.5758 -0.0450  0.1481
 6702SOL    HW131742   4.254   0.123  14.387 -2.6840  0.9312  1.0593
 6702SOL    HW231743   4.345   0.108  14.511 -1.9341 -0.9189  0.1352
 6703SOL     OW31744   4.017   0.918  17.048  0.4318 -0.2218  0.7466
 6703SOL    HW131745   4.096   0.971  17.051 -1.0115  1.8815  1.8380
 6703SOL    HW231746   4.021   0.861  17.125  1.2764  1.6615  2.1025
 6704SOL     OW31747   3.647   3.985   5.321  0.5410  0.0126 -0.1666
 6704SOL    HW131748   3.593   4.060   5.347  2.2451  0.5302  1.8395
 6704SOL    HW231749   3.735   4.013   5.346  1.7191 -2.3489 -1.6506
 6705SOL     OW31750   3.543   2.164   9.987 -0.0339  0.0062  0.1202
 6705SOL    HW131751   3.567   2.114  10.066  0.0232 -0.2155 -0.0379
 6705SOL    HW231752   3.561   2.254  10.016 -1.8516  0.5542 -0.4699
 6706SOL     OW31753   3.403   1.187   4.440 -0.4226  0.2309 -0.3419
 6706SOL    HW131754   3.326   1.243   4.445 -1.2794 -0.7002 -2.9598
 6706SOL    HW231755   3.413   1.184   4.344 -2.4688  2.2126 -0.6110
 6707SOL     OW31756   4.411   1.094   9.199  0.3546 -0.2355 -0.5956
 6707SOL    HW131757   4.380   1.091   9.289  0.7680 -0.9033 -0.4723
 6707SOL    HW231758   4.475   1.166   9.200  0.3823 -0.2548 -0.8618
 6708SOL     OW31759   3.879   2.323   9.980 -0.2202 -0.8494  0.1218
 6708SOL    HW131760   3.891   2.266  10.057 -0.6858  0.5337  1.2266
 6708SOL    HW231761   3.804   2.377  10.007  1.2276  1.2268 -0.0179
 6709SOL     OW31762   0.672   3.103   1.821  0.1348 -0.4763  0.0104
 6709SOL    HW131763   0.766   3.109   1.801 -0.5075  1.8731 -2.4425
 6709SOL    HW231764   0.652   3.186   1.864  0.0508 -0.9751  0.9214
 6710SOL     OW31765   2.211   0.275  17.320 -0.6256  0.1869 -0.2593
 6710SOL    HW131766   2.138   0.246  17.265 -1.5960  2.9546 -0.4153
 6710SOL    HW231767   2.176   0.297  17.406  1.7524  0.8431  0.5375
 6711SOL     OW31768   4.396   0.561   3.358  0.0614 -0.0692 -0.1247
 6711SOL    HW131769   4.376   0.639   3.409 -1.9776 -2.0514  2.1443
 6711SOL    HW231770   4.471   0.525   3.405 -1.8803 -1.0481  2.2217
 6712SOL     OW31771   0.868   0.374  11.379  0.0351  0.6414  0.7461
 6712SOL    HW131772   0.797   0.363  11.316  1.6740 -2.8423 -0.4662
 6712SOL    HW231773   0.907   0.287  11.368  1.4354  1.4448 -0.6340
 6713SOL     OW31774   0.124   1.319   9.105  0.4731  0.1376 -0.5753
 6713SOL    HW131775   0.127   1.238   9.054  3.4637 -1.7282  2.5730
 6713SOL    HW231776   0.169   1.289   9.184  0.3460  1.3918 -0.0145
 6714SOL     OW31777   3.364   3.613   1.208  0.1248  0.3139 -0.3903
 6714SOL    HW131778   3.456   3.586   1.205  0.8058  2.5192 -0.0332
 6714SOL    HW231779   3.356   3.667   1.129  1.3522  2.6650  1.0663
 6715SOL     OW31780   4.156   4.540   4.170 -0.1265 -0.3112 -1.0463
 6715SOL    HW131781   4.151   4.570   4.261 -0.3391  1.3686 -1.5957
 6715SOL    HW231782   4.183   4.449   4.182  1.3686  0.5043  1.8162
 6716SOL     OW31783   4.529   3.493   7.670  0.1293  0.2334  0.6622
 6716SOL    HW131784   4.516   3.587   7.685 -0.1592  0.3905 -0.6104
 6716SOL    HW231785   4.509   3.468   7.760 -3.7513  1.4537  0.1138
 6717SOL     OW31786   3.604   3.050   4.619  0.7374  0.1649  0.7297
 6717SOL    HW131787   3.663   3.005   4.559 -1.1238  0.1522 -1.1164
 6717SOL    HW231788   3.526   3.015   4.576  3.3261 -2.7457 -1.5941
 6718SOL     OW31789   0.334   1.940   2.268  0.4993 -0.4358 -0.1071
 6718SOL    HW131790   0.393   1.995   2.318  0.8783 -0.5635 -0.4123
 6718SOL    HW231791   0.272   2.002   2.230  0.6407 -0.8867 -1.0824
 6719SOL     OW31792   0.002   0.069  16.361  0.0328  0.2157 -0.4231
 6719SOL    HW131793   0.046   0.115  16.289 -0.6084 -1.2709 -1.7864
 6719SOL    HW231794   4.683   0.141  16.392 -0.5942  0.3562 -1.8416
 6720SOL     OW31795   3.314   0.138   2.242 -0.0154  0.0472  0.3310
 6720SOL    HW131796   3.263   0.215   2.216 -0.1815 -0.6970 -1.5607
 6720SOL    HW231797   3.389   0.183   2.282 -0.2488 -0.4474  1.3222
 6721SOL     OW31798   0.275   4.209   5.474  0.8551 -0.5769 -0.0834
 6721SOL    HW131799   0.216   4.142   5.509  1.0853 -0.1699  1.0859
 6721SOL    HW231800   0.301   4.241   5.560 -0.9273 -0.6252  0.4785
 6722SOL     OW31801   2.155   1.819   5.268 -0.1253  0.8663 -0.0700
 6722SOL    HW131802   2.177   1.833   5.176  1.7217 -0.1857  0.2319
 6722SOL    HW231803   2.065   1.787   5.258 -0.2631  1.4055 -0.6015
 6723SOL     OW31804   2.013   0.375  10.471  0.7876 -0.0773  0.5014
 6723SOL    HW131805   2.103   0.408  10.479  0.0389  1.9306  0.4683
 6723SOL    HW231806   2.030   0.315  10.399 -0.0893 -0.1458  0.3566
 6724SOL     OW31807   4.639   0.929   8.889  0.0081 -0.4102  0.2920
 6724SOL    HW131808   4.673   0.875   8.817  1.1288 -1.1051  1.3512
 6724SOL    HW231809   4.680   0.889   8.965  0.3376 -1.1873 -0.2884
 6725SOL     OW31810   1.399   0.163  17.610  0.0264  0.6843 -0.3780
 6725SOL    HW131811   1.433   0.099  17.673 -0.1260  0.3650 -0.6199
 6725SOL    HW231812   1.447   0.241  17.638 -0.5518  1.8746 -2.6891
 6726SOL     OW31813   2.962   0.301   6.891 -0.1889 -0.1704 -0.5386
 6726SOL    HW131814   2.868   0.288   6.878 -0.3366  0.4311 -0.0359
 6726SOL    HW231815   2.998   0.230   6.837  0.2401 -0.2467 -0.1506
 6727SOL     OW31816   0.549   2.332   5.424 -0.0387 -0.5046  0.4149
 6727SOL    HW131817   0.614   2.279   5.378 -0.2979 -1.6929  1.4089
 6727SOL    HW231818   0.561   2.297   5.513 -0.5974 -1.1565  0.2377
 6728SOL     OW31819   0.935   1.722   6.576 -0.4009  0.3332 -0.1019
 6728SOL    HW131820   0.865   1.680   6.626 -2.1656 -0.0340 -2.8820
 6728SOL    HW231821   0.987   1.654   6.533 -0.3645  0.5335 -0.3750
 6729SOL     OW31822   1.498   4.018   4.681  0.0064 -0.7350  0.2723
 6729SOL    HW131823   1.452   4.042   4.762  0.4662 -3.4942  1.3282
 6729SOL    HW231824   1.491   4.096   4.625 -0.6971 -1.7626 -1.0663
 6730SOL     OW31825   4.402   1.889   5.381  0.9058  0.2047 -0.6068
 6730SOL    HW131826   4.444   1.905   5.466 -1.0136 -0.3336  0.4334
 6730SOL    HW231827   4.318   1.846   5.397  1.3725  0.2326  1.8585
 6731SOL     OW31828   1.947   0.710   3.110 -0.1736  0.2715  0.3143
 6731SOL    HW131829   1.926   0.799   3.080  0.9020  0.9181  1.4942
 6731SOL    HW231830   2.040   0.722   3.130 -0.0284  0.9779 -0.7711
 6732SOL     OW31831   0.168   4.478   5.690 -0.1996 -0.1951  0.6488
 6732SOL    HW131832   0.128   4.556   5.727 -0.6047 -0.0134 -0.1566
 6732SOL    HW231833   0.130   4.474   5.602  1.0339 -0.9873  0.1527
 6733SOL     OW31834   3.508   2.899   8.305 -0.2191 -0.0017 -0.0818
 6733SOL    HW131835   3.552   2.860   8.229  1.4397  3.7156 -1.0401
 6733SOL    HW231836   3.416   2.889   8.279 -0.4902  3.2383 -0.4049
 6734SOL     OW31837   1.623   2.000  11.518 -0.3472  0.0291  0.4378
 6734SOL    HW131838   1.659   1.980  11.605  0.1088 -0.2735  0.1752
 6734SOL    HW231839   1.532   2.017  11.544 -0.3057 -0.2782  0.7799
 6735SOL     OW31840   2.337   0.189   5.884  0.3525  0.1690  0.1767
 6735SOL    HW131841   2.302   0.188   5.973 -0.5260 -2.7652 -0.2140
 6735SOL    HW231842   2.252   0.180   5.841  1.2709  2.8568 -2.1544
 6736SOL     OW31843   1.710   0.786   9.244 -0.3876  0.3421  0.0575
 6736SOL    HW131844   1.638   0.790   9.307 -0.9888 -1.0355 -0.5372
 6736SOL    HW231845   1.732   0.879   9.250  0.2972  0.1330  0.7378
 6737SOL     OW31846   4.262   4.683   8.078 -0.2087 -0.2665 -0.3498
 6737SOL    HW131847   4.218   4.702   7.995 -2.6673 -0.5981  0.9049
 6737SOL    HW231848   4.219   0.007   8.139 -1.2969  0.3792 -1.7587
 6738SOL     OW31849   0.124   4.385   9.059 -0.4773 -0.4300 -0.2735
 6738SOL    HW131850   0.192   4.399   9.124  0.3310 -2.7575 -0.5943
 6738SOL    HW231851   0.069   4.317   9.098 -0.5189  0.1185  0.6276
 6739SOL     OW31852   3.411   3.053  13.624 -0.7865 -0.2006  0.3865
 6739SOL    HW131853   3.329   3.069  13.579 -1.3554  2.1505  2.2766
 6739SOL    HW231854   3.445   3.142  13.638 -1.6687  0.0006  1.2500
 6740SOL     OW31855   1.991   1.336  12.452 -0.8463 -0.3919 -0.1180
 6740SOL    HW131856   2.017   1.402  12.387  1.4383 -1.1997 -0.0256
 6740SOL    HW231857   2.063   1.273  12.443  0.3001  0.7654  1.0710
 6741SOL     OW31858   2.327   1.469   2.508  0.1626  0.7346  0.1709
 6741SOL    HW131859   2.384   1.458   2.584 -2.0822  0.4998  1.8303
 6741SOL    HW231860   2.247   1.466   2.560  0.9984  1.5595  1.4903
 6742SOL     OW31861   1.628   3.778   5.581  0.0965 -0.3627 -0.6645
 6742SOL    HW131862   1.720   3.751   5.584  0.4073  0.6007 -1.7447
 6742SOL    HW231863   1.593   3.701   5.536  2.8954 -1.8432 -0.3614
 6743SOL     OW31864   3.509   4.114   9.471 -0.2744 -0.5314  0.4745
 6743SOL    HW131865   3.567   4.127   9.546 -0.7184  2.4487  0.3333
 6743SOL    HW231866   3.551   4.043   9.423  0.9526  0.7053 -0.2981
 6744SOL     OW31867   3.952   1.677   4.044  0.3874  0.8285 -1.0814
 6744SOL    HW131868   3.869   1.719   4.019 -0.1775 -1.8824 -3.6784
 6744SOL    HW231869   4.014   1.750   4.051  0.9067  0.0575  1.9877
 6745SOL     OW31870   0.179   2.346   8.062  0.2937 -0.1624 -0.2031
 6745SOL    HW131871   0.169   2.424   8.007  0.4141 -0.1971 -0.2758
 6745SOL    HW231872   0.091   2.309   8.054  0.6451 -0.9405 -0.4704
 6746SOL     OW31873   2.188   0.256   3.907  0.2457 -0.2827 -0.9247
 6746SOL    HW131874   2.183   0.166   3.876 -1.8048 -0.7205  0.6976
 6746SOL    HW231875   2.266   0.284   3.859  0.9929  0.0624  0.5150
 6747SOL     OW31876   2.601   0.042  16.619 -0.0405  1.0109  0.3939
 6747SOL    HW131877   2.570   4.734  16.699 -0.6688 -0.4875 -0.6610
 6747SOL    HW231878   2.549   0.122  16.625  1.0416  1.6606  1.0814
 6748SOL     OW31879   2.821   2.749  17.341 -0.5430  1.0701  0.0253
 6748SOL    HW131880   2.830   2.677  17.404 -1.8491  2.3267  1.6661
 6748SOL    HW231881   2.858   2.823  17.390 -1.2072 -0.1986  2.4349
 6749SOL     OW31882   2.051   2.112  16.621 -0.0466 -0.1430 -0.5373
 6749SOL    HW131883   2.128   2.146  16.574  0.5447  1.9815  1.9618
 6749SOL    HW231884   2.034   2.031  16.573 -1.1789 -1.6570  2.4473
 6750SOL     OW31885   0.370   4.366   2.820 -0.1022  0.6922 -0.0861
 6750SOL    HW131886   0.289   4.352   2.771  0.1977  0.6808 -0.5708
 6750SOL    HW231887   0.376   4.274   2.845 -1.7156  0.1148 -1.8686
 6751SOL     OW31888   4.364   4.622   1.692 -0.3705 -0.4878  0.5374
 6751SOL    HW131889   4.416   4.672   1.755  1.4280 -0.6156 -0.8611
 6751SOL    HW231890   4.286   4.605   1.744 -0.2940 -0.3236  0.7067
 6752SOL     OW31891   4.040   1.957  10.127  0.0493  0.2635 -0.3103
 6752SOL    HW131892   4.088   1.969  10.209  1.1548 -1.3240 -0.7300
 6752SOL    HW231893   4.116   1.963  10.068  1.4474 -1.0466  1.3439
 6753SOL     OW31894   1.776   1.030   1.637 -0.2149 -0.0378  0.4848
 6753SOL    HW131895   1.802   1.120   1.656  1.7896 -0.5394  0.1849
 6753SOL    HW231896   1.856   0.983   1.662 -0.2273  0.9277  2.3211
 6754SOL     OW31897   1.589   0.831   3.916  0.4805  0.5061  0.3926
 6754SOL    HW131898   1.622   0.800   3.832  0.0068  0.2525  0.3022
 6754SOL    HW231899   1.667   0.877   3.949  0.7836 -1.4543  2.4340
 6755SOL     OW31900   0.894   3.791  12.673 -0.3442 -0.0546 -0.1803
 6755SOL    HW131901   0.982   3.829  12.676 -1.3574  2.3081 -0.5949
 6755SOL    HW231902   0.911   3.702  12.640  1.7034  0.6714 -1.0532
 6756SOL     OW31903   2.743   4.158   2.877  0.0165  0.2295 -0.5364
 6756SOL    HW131904   2.716   4.245   2.905  0.2175  0.7919 -2.1213
 6756SOL    HW231905   2.837   4.177   2.876 -0.2017  1.3208  0.0024
 6757SOL     OW31906   1.684   0.888   0.799 -0.0705  0.1464 -0.2021
 6757SOL    HW131907   1.630   0.942   0.856 -2.3921 -1.6901 -0.6753
 6757SOL    HW231908   1.625   0.813   0.796  1.6037 -1.1894  0.4244
 6758SOL     OW31909   1.902   0.134   9.528  0.4911  0.1203  0.1255
 6758SOL    HW131910   1.953   0.072   9.580  0.9303  0.6084  0.2780
 6758SOL    HW231911   1.829   0.139   9.590 -0.0166 -0.2525 -0.4549
 6759SOL     OW31912   0.841   1.593   3.039  0.3558  0.1193 -0.3893
 6759SOL    HW131913   0.763   1.635   3.075 -0.3962 -3.1863  1.8214
 6759SOL    HW231914   0.821   1.506   3.073 -0.6098  0.2904 -0.5250
 6760SOL     OW31915   1.901   0.755   4.490  0.4502  0.0822  0.3447
 6760SOL    HW131916   1.822   0.806   4.471  0.6688  0.3173  0.0758
 6760SOL    HW231917   1.973   0.812   4.464  0.1011  0.1874 -0.3996
 6761SOL     OW31918   0.713   0.322   2.619  0.2716  0.2064  0.3577
 6761SOL    HW131919   0.753   0.279   2.543 -1.0216 -1.2326  0.4838
 6761SOL    HW231920   0.756   0.268   2.685 -0.4608 -0.1422  0.5525
 6762SOL     OW31921   1.165   3.277   3.169  0.2898  0.3179 -0.2452
 6762SOL    HW131922   1.183   3.277   3.075 -0.0499 -0.7739 -0.3060
 6762SOL    HW231923   1.070   3.264   3.174  0.2872  0.0567 -0.9752
 6763SOL     OW31924   4.716   2.733   7.379 -0.3471  0.2770  0.2201
 6763SOL    HW131925   0.051   2.727   7.314 -2.1884 -2.4053 -1.5059
 6763SOL    HW231926   4.676   2.648   7.363  2.9325 -1.4244  0.8810
 6764SOL     OW31927   3.282   0.387   0.288  0.1172 -0.1216 -0.2578
 6764SOL    HW131928   3.331   0.318   0.243  1.7905  0.0548  1.2992
 6764SOL    HW231929   3.242   0.435   0.216 -0.5036  1.4451  1.1406
 6765SOL     OW31930   3.456   1.928   9.820  0.1311 -1.1087  0.4736
 6765SOL    HW131931   3.532   1.928   9.879  0.4314 -0.1475  0.0901
 6765SOL    HW231932   3.391   1.980   9.866 -0.1312  1.3232 -2.6800
 6766SOL     OW31933   0.985   0.852  11.147  0.3057 -0.2073  0.0766
 6766SOL    HW131934   0.997   0.777  11.204 -3.3018  0.0275  1.1120
 6766SOL    HW231935   0.996   0.931  11.201  0.2673 -0.4941  0.4980
 6767SOL     OW31936   1.880   3.030   4.482  0.0709  0.3827  0.0540
 6767SOL    HW131937   1.812   3.085   4.523  0.2991  1.0761 -0.4918
 6767SOL    HW231938   1.956   3.089   4.479  0.6403 -0.4147 -1.0356
 6768SOL     OW31939   3.725   0.307   2.137 -0.2760  0.1045  0.0466
 6768SOL    HW131940   3.756   0.240   2.075 -1.8979  1.0823 -1.8162
 6768SOL    HW231941   3.795   0.372   2.130 -0.9708  0.7347 -1.0655
 6769SOL     OW31942   0.320   4.421   6.806 -0.2645 -0.0757  0.1269
 6769SOL    HW131943   0.382   4.482   6.765 -0.9271 -0.5101 -1.5277
 6769SOL    HW231944   0.303   4.454   6.895 -0.5560  2.2513 -0.7875
 6770SOL     OW31945   3.761   1.205  12.281  0.4825  0.2725  0.0288
 6770SOL    HW131946   3.751   1.111  12.264  0.9592  0.2270 -0.0071
 6770SOL    HW231947   3.692   1.232  12.221  1.4644  0.4376 -1.0320
 6771SOL     OW31948   1.988   1.199   8.276 -0.4043 -0.2838 -0.2433
 6771SOL    HW131949   2.057   1.184   8.211 -1.7258 -1.5455 -1.3657
 6771SOL    HW231950   2.027   1.158   8.353 -1.0014 -0.1733  0.1153
 6772SOL     OW31951   2.539   0.306   3.394 -0.4058 -0.1485  0.6588
 6772SOL    HW131952   2.478   0.255   3.448 -3.3912  0.8331 -1.8466
 6772SOL    HW231953   2.497   0.392   3.388 -2.1631 -1.1546 -1.1997
 6773SOL     OW31954   2.015   2.213   4.781  0.2352 -0.3613 -0.3218
 6773SOL    HW131955   2.057   2.130   4.757  0.0100 -0.6790  0.4054
 6773SOL    HW231956   1.925   2.185   4.764  0.1243 -1.2551  1.7857
 6774SOL     OW31957   4.694   2.940   6.428  0.0248  0.5038 -0.5032
 6774SOL    HW131958   4.658   2.919   6.342 -0.6235  2.5000 -0.7278
 6774SOL    HW231959   0.053   2.946   6.414  0.4237  0.2712  2.0927
 6775SOL     OW31960   3.270   0.490  13.505 -0.0139  0.3789 -0.0457
 6775SOL    HW131961   3.291   0.403  13.540 -1.8687 -0.4843 -1.1042
 6775SOL    HW231962   3.180   0.495  13.537 -0.1303  0.0909 -0.3258
 6776SOL     OW31963   0.875   0.157   8.886  0.0668  0.3498  0.3625
 6776SOL    HW131964   0.929   0.079   8.877  2.8341  2.3632 -0.3903
 6776SOL    HW231965   0.798   0.102   8.870 -1.3701  3.0982 -2.0987
 6777SOL     OW31966   4.264   4.442   8.546  0.0885 -0.3476 -0.0044
 6777SOL    HW131967   4.243   4.427   8.638  0.7924 -0.9668  0.0511
 6777SOL    HW231968   4.336   4.380   8.535  0.8022  0.4361  0.3027
 6778SOL     OW31969   2.201   4.062   6.536 -0.4862  0.1986  0.6344
 6778SOL    HW131970   2.229   4.148   6.506 -0.7893  0.0754 -0.0042
 6778SOL    HW231971   2.277   4.005   6.527  1.2211  2.6763 -0.5964
 6779SOL     OW31972   4.659   0.105  13.736  0.7496 -0.0987 -0.2418
 6779SOL    HW131973   4.711   0.159  13.677 -0.8536  0.0884 -1.4883
 6779SOL    HW231974   4.702   0.021  13.719  0.4058  0.1287 -2.2786
 6780SOL     OW31975   2.123   1.467   2.047 -0.6576 -0.2443 -0.4607
 6780SOL    HW131976   2.041   1.417   2.048 -0.3536 -0.7647 -2.4056
 6780SOL    HW231977   2.171   1.410   1.987  0.1721  0.1105 -0.1400
 6781SOL     OW31978   4.635   0.442  10.469  0.1416  0.0300  0.7407
 6781SOL    HW131979   4.641   0.347  10.458 -1.4695  0.0106  0.0944
 6781SOL    HW231980   4.663   0.472  10.382 -3.9314  0.1550 -0.5115
 6782SOL     OW31981   1.127   0.439   5.664 -0.6523  0.2461 -0.1886
 6782SOL    HW131982   1.056   0.501   5.681 -0.5390  0.3157  0.0364
 6782SOL    HW231983   1.145   0.477   5.578 -0.8989  1.1599  0.1557
 6783SOL     OW31984   3.220   3.601   1.927  0.0363 -0.5542  0.6402
 6783SOL    HW131985   3.197   3.661   1.856  1.2172 -3.2406 -2.0072
 6783SOL    HW231986   3.140   3.549   1.922 -0.0881 -0.3796  0.8231
 6784SOL     OW31987   4.355   3.616   4.699  0.1790  0.2786  0.2217
 6784SOL    HW131988   4.272   3.654   4.669 -0.5011  0.9084  2.9636
 6784SOL    HW231989   4.365   3.661   4.782 -1.3114 -2.7607  2.0659
 6785SOL     OW31990   3.131   2.663   0.345 -0.1130 -0.5198  0.6428
 6785SOL    HW131991   3.167   2.746   0.375 -1.9753 -0.1372  1.7961
 6785SOL    HW231992   3.132   2.669   0.249 -0.5472 -0.8265  0.6217
 6786SOL     OW31993   0.786   0.720   1.738 -0.4060 -0.5099  0.5067
 6786SOL    HW131994   0.768   0.797   1.685  0.5000 -1.4924 -1.2425
 6786SOL    HW231995   0.880   0.714   1.723 -1.1498 -2.1301 -3.5483
 6787SOL     OW31996   2.602   3.319   8.132  0.3643  0.4448 -0.2568
 6787SOL    HW131997   2.581   3.391   8.073 -1.5079  0.5782  0.5686
 6787SOL    HW231998   2.592   3.350   8.222 -3.0892 -1.2745 -0.0526
 6788SOL     OW31999   3.909   3.424  12.743  0.4377  0.4329 -0.1316
 6788SOL    HW132000   3.852   3.453  12.814 -1.8117 -1.9132 -0.9989
 6788SOL    HW232001   3.896   3.493  12.679 -0.1412  0.9949  0.5953
 6789SOL     OW32002   4.352   2.107   5.205  0.0189  0.2974  1.1472
 6789SOL    HW132003   4.431   2.118   5.153 -0.2058 -0.5766  0.6324
 6789SOL    HW232004   4.376   2.031   5.259  2.1276 -0.8322 -1.4244
 6790SOL     OW32005   4.673   1.169   2.267 -0.4753 -0.5790  0.0140
 6790SOL    HW132006   4.605   1.208   2.212  0.2815  0.0953 -0.4522
 6790SOL    HW232007   4.621   1.103   2.312 -0.8649 -0.7897 -0.7291
 6791SOL     OW32008   0.582   1.329   5.856 -0.8757 -0.0144  0.2152
 6791SOL    HW132009   0.631   1.286   5.926 -1.9133 -1.7236 -0.1351
 6791SOL    HW232010   0.550   1.253   5.808  0.0305 -1.2090  1.5109
 6792SOL     OW32011   4.572   2.837   2.366 -0.1283  0.2053  0.2514
 6792SOL    HW132012   4.623   2.772   2.415 -0.8895  0.8097  1.8305
 6792SOL    HW232013   4.573   2.909   2.428 -2.2241  1.2566 -0.9131
 6793SOL     OW32014   2.514   4.216   4.772 -0.0915 -0.5003 -0.2474
 6793SOL    HW132015   2.505   4.181   4.861 -2.4177  1.1794  0.1847
 6793SOL    HW232016   2.596   4.265   4.782 -0.3645  0.2038 -1.4921
 6794SOL     OW32017   1.847   1.345   2.526 -0.1849  0.3550  0.6094
 6794SOL    HW132018   1.879   1.393   2.450 -0.3086  0.6736  0.7560
 6794SOL    HW232019   1.929   1.341   2.575  0.2524 -1.7961 -0.3144
 6795SOL     OW32020   2.706   3.411   5.213  0.5256 -0.2708 -0.5540
 6795SOL    HW132021   2.660   3.404   5.130 -0.5837 -1.6532  0.1645
 6795SOL    HW232022   2.706   3.319   5.241 -0.0128 -1.1976 -3.5847
 6796SOL     OW32023   1.458   0.331   4.014  0.0947 -0.0911  0.1901
 6796SOL    HW132024   1.385   0.391   4.031  1.5265  1.4898  0.7739
 6796SOL    HW232025   1.421   0.248   4.043  0.1190  0.3406  1.4297
 6797SOL     OW32026   0.856   2.831   6.096 -0.4206 -0.0744 -0.4179
 6797SOL    HW132027   0.782   2.884   6.068  0.4167  0.3857 -1.7593
 6797SOL    HW232028   0.869   2.767   6.025 -1.3297 -0.6975 -0.0249
 6798SOL     OW32029   1.428   4.454  10.934  0.4611 -0.5597  0.5425
 6798SOL    HW132030   1.486   4.425  11.004  0.5415 -1.3038  0.1669
 6798SOL    HW232031   1.390   4.530  10.978 -0.3662 -0.9254  0.4647
 6799SOL     OW32032   0.178   3.974   7.582 -0.1270  0.3383  0.6177
 6799SOL    HW132033   0.261   3.927   7.580 -0.9745 -1.1416  0.7255
 6799SOL    HW232034   0.165   3.976   7.677  0.7545  1.7277  0.7107
 6800SOL     OW32035   3.324   1.211   7.342  0.0447  0.9663  0.4281
 6800SOL    HW132036   3.354   1.137   7.289 -2.4390  0.8914 -0.8916
 6800SOL    HW232037   3.241   1.229   7.297  0.2058  2.4480  0.7247
 6801SOL     OW32038   2.051   0.968   5.393 -0.3481 -0.2270  0.1937
 6801SOL    HW132039   1.970   1.018   5.405  0.9707  2.1489 -0.7048
 6801SOL    HW232040   2.111   1.012   5.453  1.2152 -3.6455  1.0950
 6802SOL     OW32041   1.936   2.392  17.661 -0.0964 -0.2566 -0.0509
 6802SOL    HW132042   1.867   2.342  17.618  0.3029  1.7284 -2.9769
 6802SOL    HW232043   1.882   2.458  17.704 -2.0049 -1.5096 -0.5415
 6803SOL     OW32044   3.027   1.442   3.559 -0.0072 -0.0056 -0.0711
 6803SOL    HW132045   3.081   1.465   3.483 -1.7393 -1.1776 -1.6619
 6803SOL    HW232046   3.089   1.383   3.600 -0.0129 -1.1103 -1.6587
 6804SOL     OW32047   0.602   2.084  13.952 -0.0963 -0.0898 -0.0531
 6804SOL    HW132048   0.597   2.103  13.858 -0.0329 -0.9033 -0.2255
 6804SOL    HW232049   0.627   2.170  13.986  1.4001 -0.7665  0.5440
 6805SOL     OW32050   2.378   2.418   5.642  0.1653  0.2239  0.4423
 6805SOL    HW132051   2.473   2.404   5.642 -0.2702 -2.6877 -0.7237
 6805SOL    HW232052   2.350   2.340   5.689 -1.7205  1.3668  1.2494
 6806SOL     OW32053   2.492   2.624   2.372  0.0775 -0.1093  0.5602
 6806SOL    HW132054   2.509   2.634   2.465  0.4905  0.0147  0.4711
 6806SOL    HW232055   2.578   2.586   2.353  0.3196  1.1199 -0.8344
 6807SOL     OW32056   0.365   2.248   6.408 -0.2603  0.1889  0.1877
 6807SOL    HW132057   0.298   2.201   6.457 -0.7161  0.6501  0.0027
 6807SOL    HW232058   0.398   2.183   6.346  2.8393 -0.3039  2.3223
 6808SOL     OW32059   3.209   3.813  12.829 -0.1968  0.4356 -0.2822
 6808SOL    HW132060   3.129   3.761  12.825  0.1037  0.0717 -1.4874
 6808SOL    HW232061   3.271   3.743  12.809  1.3969  1.6698  0.3525
 6809SOL     OW32062   0.290   3.937   1.772 -0.2389 -0.3130 -0.5567
 6809SOL    HW132063   0.357   3.963   1.835 -2.3703 -0.2500  1.7142
 6809SOL    HW232064   0.351   3.910   1.704  0.1335 -1.0696  0.0736
 6810SOL     OW32065   2.163   4.612   5.458  0.3627 -0.0193 -0.6914
 6810SOL    HW132066   2.107   4.644   5.528 -0.2041  1.7952 -1.9681
 6810SOL    HW232067   2.115   4.646   5.383 -0.6037 -3.5420 -1.6363
 6811SOL     OW32068   1.879   3.354   2.900 -0.0801 -0.0829 -0.0628
 6811SOL    HW132069   1.795   3.363   2.854  1.1323  2.5109 -1.7731
 6811SOL    HW232070   1.881   3.436   2.950  0.5883  0.2810 -0.6778
 6812SOL     OW32071   4.524   0.163   6.364  0.0981  0.0797  0.1308
 6812SOL    HW132072   4.512   0.106   6.440 -1.6197  3.1406  2.1268
 6812SOL    HW232073   4.615   0.154   6.336  0.3121  4.4435 -0.5370
 6813SOL     OW32074   4.598   1.880   1.638 -0.2125 -0.2157 -0.1749
 6813SOL    HW132075   4.649   1.917   1.710 -0.1031 -1.2989  0.3157
 6813SOL    HW232076   4.575   1.789   1.660  1.0622 -0.1023  1.5901
 6814SOL     OW32077   3.247   1.704   5.228  0.3252  0.0312 -0.0519
 6814SOL    HW132078   3.287   1.633   5.178  2.0939  0.3120  0.9774
 6814SOL    HW232079   3.173   1.653   5.260 -0.3593 -0.0886 -1.8390
 6815SOL     OW32080   1.682   0.457   5.348  0.0949 -0.1252 -0.1249
 6815SOL    HW132081   1.602   0.430   5.393 -0.9126  1.6001 -0.8897
 6815SOL    HW232082   1.746   0.397   5.386 -2.0159 -1.7029  0.9010
 6816SOL     OW32083   3.369   3.501   2.890 -0.6342 -0.6093  0.5794
 6816SOL    HW132084   3.415   3.514   2.807 -0.4007 -1.6846  0.5435
 6816SOL    HW232085   3.357   3.592   2.914  0.7249  0.3181 -2.1870
 6817SOL     OW32086   1.419   2.108   3.625 -0.1458  0.1654 -0.5445
 6817SOL    HW132087   1.446   2.027   3.670 -0.5097  0.4989  0.2765
 6817SOL    HW232088   1.325   2.113   3.643  0.5759  1.2377  3.0385
 6818SOL     OW32089   2.972   0.026   7.979  0.5744 -0.3140 -0.2824
 6818SOL    HW132090   2.953   0.092   8.046  0.2706  1.7539 -2.4163
 6818SOL    HW232091   2.939   0.064   7.898 -0.3669  3.6039  1.9463
 6819SOL     OW32092   3.084   4.265   9.296  0.3427 -0.1601 -0.1451
 6819SOL    HW132093   3.179   4.268   9.300  0.3550 -1.9944  1.0547
 6819SOL    HW232094   3.055   4.356   9.300  0.9197 -0.0621  1.9651
 6820SOL     OW32095   2.621   4.010   3.082  0.2556 -0.0570  0.0589
 6820SOL    HW132096   2.668   4.062   3.017  0.4311 -0.0483  0.1935
 6820SOL    HW232097   2.670   3.930   3.062 -0.9342 -0.8742  0.3859
 6821SOL     OW32098   1.142   1.628   8.220 -0.1223  0.2700  0.0420
 6821SOL    HW132099   1.059   1.673   8.203  0.3945  1.1910 -0.0398
 6821SOL    HW232100   1.128   1.576   8.299  2.9774 -1.3453 -0.5027
 6822SOL     OW32101   1.029   1.986  12.038  0.5263  0.2945  0.1267
 6822SOL    HW132102   1.040   1.892  12.053 -2.3238  0.0822  0.8291
 6822SOL    HW232103   1.104   2.019  12.088  1.4209 -2.1175  0.3656
 6823SOL     OW32104   2.545   3.121   3.243 -0.4967  0.3190  0.0473
 6823SOL    HW132105   2.458   3.155   3.221 -0.6057 -1.6694 -2.7805
 6823SOL    HW232106   2.568   3.196   3.297 -0.9349  0.0760  0.5705
 6824SOL     OW32107   2.523   4.012  17.500  0.3921 -0.3376  0.7233
 6824SOL    HW132108   2.513   3.981  17.590 -1.2183  0.1775  0.7189
 6824SOL    HW232109   2.550   4.099  17.527 -0.5132  0.4301 -0.8426
 6825SOL     OW32110   1.046   1.854   7.959  0.8238  0.1486  0.0672
 6825SOL    HW132111   1.016   1.854   8.050  2.0040  3.0969  0.4669
 6825SOL    HW232112   1.135   1.822   7.971  0.4338 -1.2633 -0.7188
 6826SOL     OW32113   1.921   0.798   6.167 -0.4519 -0.3030 -0.1709
 6826SOL    HW132114   1.965   0.758   6.092 -0.4874  0.3864 -0.5535
 6826SOL    HW232115   1.891   0.880   6.129 -2.1830  0.1083  2.0937
 6827SOL     OW32116   1.209   3.900   2.116 -0.2945  0.3420  0.1161
 6827SOL    HW132117   1.165   3.962   2.173  0.2629  2.0027 -1.2588
 6827SOL    HW232118   1.177   3.814   2.145  2.5468 -0.6806  0.2530
 6828SOL     OW32119   1.831   4.679   1.253 -0.9378 -0.1558  0.3881
 6828SOL    HW132120   1.797   4.680   1.342  0.7777  0.4080  1.0320
 6828SOL    HW232121   1.923   4.664   1.272 -1.0051 -0.6823  0.3197
 6829SOL     OW32122   3.396   4.064   4.460 -0.1350  0.2521  0.5442
 6829SOL    HW132123   3.374   4.026   4.546 -1.0523 -0.3076  0.0562
 6829SOL    HW232124   3.338   4.013   4.405  0.1177  0.2392  0.2910
 6830SOL     OW32125   2.808   3.750   0.593  0.3308 -0.2558  0.2217
 6830SOL    HW132126   2.761   3.833   0.591 -2.1240 -1.6804 -0.4523
 6830SOL    HW232127   2.798   3.710   0.506  1.4438 -1.8123  0.8057
 6831SOL     OW32128   0.409   2.704   4.842 -0.1483  0.0222  0.2045
 6831SOL    HW132129   0.492   2.716   4.795 -0.3300 -0.6269 -0.2941
 6831SOL    HW232130   0.409   2.784   4.894 -1.3200 -0.5859  1.1532
 6832SOL     OW32131   1.540   0.067   5.107  0.1681 -0.0833 -0.4928
 6832SOL    HW132132   1.552   0.160   5.088  0.3004  0.0312  0.1529
 6832SOL    HW232133   1.513   0.062   5.198  0.6490  0.7802 -0.3042
 6833SOL     OW32134   1.407   4.646   2.993  0.3385 -0.1219 -0.0426
 6833SOL    HW132135   1.413   4.552   3.007  2.6607 -0.0224 -0.3427
 6833SOL    HW232136   1.402   4.661   2.899 -2.1804 -1.8234 -0.1751
 6834SOL     OW32137   1.430   1.039   2.130  0.0554  0.5420 -0.5129
 6834SOL    HW132138   1.442   1.034   2.225  0.2037  0.0396 -0.5541
 6834SOL    HW232139   1.474   0.959   2.101 -0.1788  0.9004 -1.8781
 6835SOL     OW32140   3.435   1.511  10.182 -0.1044 -0.0175  0.1905
 6835SOL    HW132141   3.436   1.420  10.153  2.3598 -0.3856  1.3865
 6835SOL    HW232142   3.481   1.558  10.113  1.3869 -0.1552  1.0788
 6836SOL     OW32143   2.685   0.331  15.087 -0.3112 -0.0438  0.2209
 6836SOL    HW132144   2.751   0.261  15.085  0.1025  0.3642 -0.5837
 6836SOL    HW232145   2.738   0.411  15.088  0.6058 -0.6341 -0.6025
 6837SOL     OW32146   0.188   2.173   3.867  0.3767 -0.3874  0.1573
 6837SOL    HW132147   0.262   2.215   3.825 -1.6026 -0.4857 -3.4133
 6837SOL    HW232148   0.219   2.082   3.863  1.6397 -0.0656  2.8895
 6838SOL     OW32149   3.996   0.160   8.657  0.4826 -0.0788  0.5641
 6838SOL    HW132150   4.031   0.226   8.598  0.9860 -1.0528 -0.2347
 6838SOL    HW232151   3.908   0.149   8.620  0.3082 -0.3088  1.0444
 6839SOL     OW32152   2.149   0.959   3.530  0.1983  0.0234  0.1127
 6839SOL    HW132153   2.183   1.038   3.489  2.0093 -0.3125  1.0007
 6839SOL    HW232154   2.057   0.970   3.506  0.0269  0.6049  1.0518
 6840SOL     OW32155   0.537   1.922  16.773 -0.3467 -0.1225  0.1495
 6840SOL    HW132156   0.619   1.874  16.775  0.6809  1.6354  0.2021
 6840SOL    HW232157   0.478   1.868  16.721 -0.3760  0.1672 -0.1171
 6841SOL     OW32158   3.214   1.207   5.378  0.3637  0.0355  0.3616
 6841SOL    HW132159   3.175   1.231   5.462  1.8422  0.1017  1.0244
 6841SOL    HW232160   3.161   1.130   5.356  0.0994 -0.4919  2.8438
 6842SOL     OW32161   2.921   1.365  11.331  0.2749  0.5311  0.5565
 6842SOL    HW132162   3.005   1.388  11.293  0.4317 -1.3028 -0.2133
 6842SOL    HW232163   2.948   1.328  11.415  0.8397 -1.1365 -0.3469
 6843SOL     OW32164   3.212   2.917  14.831  0.1294 -0.0925  0.1863
 6843SOL    HW132165   3.240   2.979  14.764  0.0927  0.7081  0.9167
 6843SOL    HW232166   3.160   2.858  14.776 -1.0950  0.2921  0.9236
 6844SOL     OW32167   4.213   3.832   9.367  0.5802 -0.1833  0.5200
 6844SOL    HW132168   4.128   3.795   9.344  1.7718 -1.3436 -1.9876
 6844SOL    HW232169   4.259   3.752   9.341  3.3582  1.4383  0.3873
 6845SOL     OW32170   4.161   0.502   0.752 -0.2471 -0.1146 -0.2923
 6845SOL    HW132171   4.114   0.473   0.830  1.5206 -0.0632  0.7744
 6845SOL    HW232172   4.252   0.490   0.778 -0.3609 -0.3025  0.0195
 6846SOL     OW32173   0.890   4.323   6.945  0.1249 -0.3774 -0.3717
 6846SOL    HW132174   0.907   4.233   6.971  0.1752 -0.6916 -1.4878
 6846SOL    HW232175   0.880   4.312   6.850  0.6832 -0.1566 -0.4580
 6847SOL     OW32176   0.950   3.705   1.555 -0.3894  0.3562  0.1488
 6847SOL    HW132177   0.928   3.685   1.646  2.0182 -1.1471  0.4171
 6847SOL    HW232178   1.044   3.718   1.564 -0.3592 -0.5795  1.1571
 6848SOL     OW32179   0.179   4.444   9.353  0.1577 -0.0202  0.2679
 6848SOL    HW132180   0.110   4.391   9.391 -1.4689  1.6008 -0.4156
 6848SOL    HW232181   0.135   4.519   9.313  1.8951  1.5216  1.2117
 6849SOL     OW32182   1.116   2.591   5.386  0.0435  0.3417 -0.1289
 6849SOL    HW132183   1.174   2.635   5.448 -1.3327  0.1590  1.2610
 6849SOL    HW232184   1.031   2.615   5.423  0.8341 -0.4734  2.2101
 6850SOL     OW32185   3.122   0.698   7.333  0.3272  0.3935  0.3543
 6850SOL    HW132186   3.155   0.774   7.285 -1.2569  0.3676 -0.7591
 6850SOL    HW232187   3.032   0.698   7.301  0.6120 -1.7519 -0.4319
 6851SOL     OW32188   0.824   0.843  12.049 -0.1861  0.7858  0.4292
 6851SOL    HW132189   0.745   0.807  12.009  0.7449 -3.0036  1.9183
 6851SOL    HW232190   0.813   0.815  12.140  0.2942  1.9183  0.8282
 6852SOL     OW32191   4.351   2.553   9.277  0.6829 -0.0199 -0.2672
 6852SOL    HW132192   4.432   2.502   9.271  0.7724  0.1854 -0.7704
 6852SOL    HW232193   4.378   2.641   9.250  2.0103 -0.4458 -0.3718
 6853SOL     OW32194   3.129   2.542  14.197  0.3003  0.7011 -0.1645
 6853SOL    HW132195   3.095   2.631  14.202 -1.0753  0.3147 -2.3029
 6853SOL    HW232196   3.074   2.506  14.127 -1.7785  1.4651  1.1225
 6854SOL     OW32197   1.757   0.405   2.309  0.5051 -0.5406 -0.5191
 6854SOL    HW132198   1.837   0.382   2.261 -0.6603 -1.6122 -1.9520
 6854SOL    HW232199   1.699   0.332   2.286  0.4910 -0.3312 -1.1576
 6855SOL     OW32200   0.577   1.222   8.447  0.0623 -0.5468 -0.1179
 6855SOL    HW132201   0.572   1.197   8.355 -0.9966 -0.2935 -0.1243
 6855SOL    HW232202   0.497   1.274   8.456  0.5354  0.1492  0.0865
 6856SOL     OW32203   1.600   1.301   9.331  0.3499 -0.0905  0.3256
 6856SOL    HW132204   1.519   1.334   9.368  0.4488  0.0727  0.3969
 6856SOL    HW232205   1.661   1.364   9.370  0.6251  0.8731 -1.6230
 6857SOL     OW32206   3.772   0.773  14.542  0.1869 -0.0144 -0.1336
 6857SOL    HW132207   3.803   0.696  14.591  0.7125  0.7794  0.7833
 6857SOL    HW232208   3.831   0.769  14.467  1.3369  0.3753  0.7591
 6858SOL     OW32209   0.996   0.576   2.803 -0.1330  0.7230 -0.0977
 6858SOL    HW132210   1.018   0.488   2.771  0.5287  1.0116 -0.4148
 6858SOL    HW232211   1.021   0.631   2.730 -0.7070 -0.6552 -1.3269
 6859SOL     OW32212   3.121   2.525   7.150 -0.3695 -0.2243 -0.8682
 6859SOL    HW132213   3.134   2.467   7.224  0.6262  0.5810 -0.4196
 6859SOL    HW232214   3.029   2.541   7.171  0.3678  0.3270  1.8714
 6860SOL     OW32215   4.002   2.971   6.287  0.1064  0.4152  0.2478
 6860SOL    HW132216   3.939   2.983   6.216  0.7064  1.1795 -0.1577
 6860SOL    HW232217   4.008   3.064   6.311  1.2263 -0.2367  2.4763
 6861SOL     OW32218   2.858   1.717   9.781  0.1004  0.0206 -0.1628
 6861SOL    HW132219   2.901   1.766   9.711  0.2005 -0.7183 -0.6236
 6861SOL    HW232220   2.811   1.646   9.736 -0.6579  0.3919  0.0502
 6862SOL     OW32221   3.765   0.924   4.909 -0.2854  0.2319 -0.6786
 6862SOL    HW132222   3.724   0.960   4.987  1.0233 -0.8412  0.5145
 6862SOL    HW232223   3.712   0.846   4.892 -1.1031  0.6938 -0.2806
 6863SOL     OW32224   1.601   1.812  15.608  0.1716 -0.1171  0.3327
 6863SOL    HW132225   1.553   1.811  15.525 -0.6657  0.4476  0.8037
 6863SOL    HW232226   1.521   1.825  15.660  0.8032  1.8186  0.7927
 6864SOL     OW32227   3.980   2.463   6.138  0.5284 -0.4420  0.4158
 6864SOL    HW132228   3.952   2.545   6.098 -1.1160 -0.3149  1.8333
 6864SOL    HW232229   3.941   2.457   6.225 -0.1569 -0.9465  0.0813
 6865SOL     OW32230   3.620   0.743   1.922  0.1815 -0.1760 -0.0129
 6865SOL    HW132231   3.536   0.775   1.956  0.2976  0.9817 -0.8279
 6865SOL    HW232232   3.667   0.705   1.997  0.1731  1.2827  0.7369
 6866SOL     OW32233   2.350   1.307   4.250 -0.2180 -0.2890 -0.4586
 6866SOL    HW132234   2.360   1.401   4.235  0.4377 -0.2233  0.4172
 6866SOL    HW232235   2.260   1.281   4.230 -0.7948  1.3212  0.0607
 6867SOL     OW32236   3.308   2.362   7.486  0.5404  0.0937  0.1470
 6867SOL    HW132237   3.267   2.443   7.517  0.8855  0.3982 -0.1901
 6867SOL    HW232238   3.291   2.294   7.551 -1.1248  1.2562  0.9411
 6868SOL     OW32239   0.273   0.571   6.249 -0.1252  0.0767 -0.4470
 6868SOL    HW132240   0.251   0.491   6.297 -3.6415  0.9941 -0.5672
 6868SOL    HW232241   0.221   0.639   6.292  0.2240  1.7085 -2.6422
 6869SOL     OW32242   2.759   0.287   9.348  0.2815  0.4776  0.8388
 6869SOL    HW132243   2.706   0.216   9.384 -1.8779  0.5131 -2.3384
 6869SOL    HW232244   2.765   0.353   9.417 -0.6848  0.2824  1.1074
 6870SOL     OW32245   2.880   1.348   3.268 -0.4836  0.0264  0.0281
 6870SOL    HW132246   2.815   1.279   3.270 -0.7026  0.1738 -1.9145
 6870SOL    HW232247   2.957   1.303   3.303 -1.5077 -0.9057  1.0415
 6871SOL     OW32248   2.442   1.634   1.781 -0.4321  0.5632  0.0145
 6871SOL    HW132249   2.460   1.701   1.715  1.2708  1.0061  0.9342
 6871SOL    HW232250   2.444   1.692   1.857  0.6961 -2.3429  2.1882
 6872SOL     OW32251   1.641   0.886   2.008 -0.3999 -0.4387  0.1492
 6872SOL    HW132252   1.625   0.954   1.942  1.3176 -1.6973 -1.5728
 6872SOL    HW232253   1.737   0.882   2.008 -0.3419  0.9364 -0.8627
 6873SOL     OW32254   3.218   0.066   9.217  0.3379 -0.1626 -0.2258
 6873SOL    HW132255   3.292   0.006   9.202  0.6747 -0.0507  0.9582
 6873SOL    HW232256   3.216   0.057   9.313 -0.8912 -0.4900 -0.2866
 6874SOL     OW32257   4.098   1.678   8.771  0.9000  0.0588  0.8299
 6874SOL    HW132258   4.144   1.616   8.827  0.5947 -1.0009 -0.1012
 6874SOL    HW232259   4.154   1.664   8.694  0.0179 -1.7950  0.5254
 6875SOL     OW32260   1.839   1.609   5.637  0.3832  0.1993 -0.5147
 6875SOL    HW132261   1.859   1.696   5.605  0.8979 -0.0203 -0.7771
 6875SOL    HW232262   1.838   1.620   5.732 -0.9819 -0.9274 -0.3966
 6876SOL     OW32263   1.606   0.484  12.853  0.2282  0.1030  0.0888
 6876SOL    HW132264   1.605   0.564  12.801  2.4276  0.1749  0.1570
 6876SOL    HW232265   1.520   0.487  12.894  0.5138 -2.2915  0.8831
 6877SOL     OW32266   0.805   2.408  16.362  0.1328  0.3155 -0.4233
 6877SOL    HW132267   0.838   2.476  16.302 -0.5903  0.6414 -0.4480
 6877SOL    HW232268   0.883   2.381  16.411 -0.3622 -0.3532 -0.0159
 6878SOL     OW32269   4.061   0.253   4.490 -0.0212  0.5100 -0.1079
 6878SOL    HW132270   3.969   0.279   4.486 -0.5075 -1.1035  0.5159
 6878SOL    HW232271   4.059   0.157   4.499 -1.6534  0.5160 -0.4362
 6879SOL     OW32272   3.550   3.668  10.002  0.0126  0.1493 -0.0841
 6879SOL    HW132273   3.486   3.729   9.966  1.4417  1.1666 -0.9412
 6879SOL    HW232274   3.615   3.712  10.056 -1.0548  0.9557  0.5322
 6880SOL     OW32275   2.235   4.013   7.978  0.4832  0.0594  0.0698
 6880SOL    HW132276   2.259   3.939   7.923 -1.1714 -0.9278  0.6934
 6880SOL    HW232277   2.310   4.072   7.965  0.1304 -0.0103 -2.2879
 6881SOL     OW32278   1.393   4.136  14.118 -0.6304 -0.5069 -0.1309
 6881SOL    HW132279   1.345   4.204  14.164 -1.0273  1.3191 -3.1969
 6881SOL    HW232280   1.425   4.181  14.039  0.2198  1.9815  1.6430
 6882SOL     OW32281   4.018   3.570   3.740  0.0296  0.0613  0.0241
 6882SOL    HW132282   3.941   3.610   3.700  1.3083  3.6646  1.1521
 6882SOL    HW232283   4.084   3.633   3.711 -1.5906  1.5482 -0.4544
 6883SOL     OW32284   4.077   0.747   2.050  0.1742 -0.3630 -0.4406
 6883SOL    HW132285   4.119   0.702   2.123  3.7464 -0.4127 -2.5429
 6883SOL    HW232286   4.069   0.671   1.992 -0.6722 -2.0491  1.8941
 6884SOL     OW32287   0.025   2.134  10.529 -0.0632  0.1960  0.4329
 6884SOL    HW132288   0.052   2.082  10.605  2.8328  0.6622 -0.2496
 6884SOL    HW232289   0.048   2.219  10.566  0.7453 -1.3660  3.4761
 6885SOL     OW32290   2.568   2.397   4.938  0.3841 -0.4965 -0.2889
 6885SOL    HW132291   2.473   2.382   4.938  0.1650  0.8628  0.9406
 6885SOL    HW232292   2.573   2.425   4.847 -0.7120  0.1453 -0.1546
 6886SOL     OW32293   0.005   3.633  10.589 -0.9740  0.4751  0.3918
 6886SOL    HW132294   0.019   3.589  10.505  4.4955  0.1326  1.4689
 6886SOL    HW232295   4.651   3.664  10.585 -0.4073  1.8859 -1.0488
 6887SOL     OW32296   2.220   4.645   0.678  0.2042  0.4836  0.0096
 6887SOL    HW132297   2.298   4.691   0.645 -0.6853  0.1398 -2.5246
 6887SOL    HW232298   2.159   4.685   0.616 -1.2300 -0.8191  0.5701
 6888SOL     OW32299   2.133   3.782  17.514 -0.1356 -0.7038  0.0384
 6888SOL    HW132300   2.129   3.701  17.566  1.5204 -1.9185 -1.7340
 6888SOL    HW232301   2.211   3.767  17.460 -0.5789  1.5949 -1.1961
 6889SOL     OW32302   2.561   1.935   4.011 -0.5496 -0.7098 -0.3287
 6889SOL    HW132303   2.561   2.030   4.002  0.7464 -0.7624 -1.0161
 6889SOL    HW232304   2.561   1.923   4.106 -1.4961  3.1920  0.1356
 6890SOL     OW32305   4.628   4.215   6.898  0.2282 -0.3471 -0.3901
 6890SOL    HW132306   4.627   4.123   6.872  0.8206 -0.4703  0.0175
 6890SOL    HW232307   4.550   4.261   6.865  1.0444  0.6621 -0.9126
 6891SOL     OW32308   0.319   1.416   2.001  0.0660  0.1464 -0.4090
 6891SOL    HW132309   0.284   1.464   2.076  0.4603 -0.9948  0.5053
 6891SOL    HW232310   0.279   1.465   1.929 -0.7592  0.4353  0.2540
 6892SOL     OW32311   3.584   0.068   6.684 -0.1248 -0.0945 -0.0383
 6892SOL    HW132312   3.524   0.010   6.637  1.2380 -0.5408 -1.2064
 6892SOL    HW232313   3.581   0.144   6.626  0.4172 -1.1512 -1.4206
 6893SOL     OW32314   1.784   1.575   3.132 -0.2912  0.1403  0.5026
 6893SOL    HW132315   1.829   1.633   3.071 -0.3907  0.3729  0.6493
 6893SOL    HW232316   1.702   1.626   3.130 -0.7299 -0.6533 -1.1741
 6894SOL     OW32317   3.483   2.079   8.319  0.0478  0.8823 -0.1431
 6894SOL    HW132318   3.392   2.109   8.323 -0.0298  0.8903 -1.9164
 6894SOL    HW232319   3.475   1.991   8.355  1.9449  0.0947 -1.6687
 6895SOL     OW32320   3.057   1.248   7.221  0.2505  0.5099 -0.6664
 6895SOL    HW132321   3.019   1.321   7.171  0.1711 -0.9697 -2.7698
 6895SOL    HW232322   2.994   1.179   7.204  0.0721  0.5400 -0.0962
 6896SOL     OW32323   0.484   1.480  13.015  0.4824  0.2145  0.1761
 6896SOL    HW132324   0.410   1.421  12.998 -0.5047  1.2358  0.9277
 6896SOL    HW232325   0.547   1.414  13.045  1.2791  0.7131 -0.4309
 6897SOL     OW32326   0.428   2.220   8.929 -0.5434  0.3758  0.6381
 6897SOL    HW132327   0.439   2.146   8.869  0.3548 -0.1598  1.4826
 6897SOL    HW232328   0.496   2.218   8.996 -0.8421  1.0190  0.9634
 6898SOL     OW32329   0.333   2.922   8.772 -0.5909  0.6298  0.2345
 6898SOL    HW132330   0.383   2.970   8.838  2.4469  0.8445 -2.2392
 6898SOL    HW232331   0.392   2.908   8.698 -1.0239  0.8783 -0.1611
 6899SOL     OW32332   3.258   4.129   8.767 -0.1107 -0.2944  0.0336
 6899SOL    HW132333   3.321   4.103   8.700  2.1230  1.6074  1.4209
 6899SOL    HW232334   3.210   4.194   8.716  1.0669 -0.9952 -1.9689
 6900SOL     OW32335   1.737   3.580   4.720  0.1692  0.5209 -0.4881
 6900SOL    HW132336   1.818   3.630   4.710  1.1006 -0.9999 -0.5769
 6900SOL    HW232337   1.722   3.601   4.812 -1.9424 -1.3944 -0.4065
 6901SOL     OW32338   0.822   3.801   3.552  0.5516  0.4605 -0.8118
 6901SOL    HW132339   0.819   3.843   3.638  0.5896 -2.8139  0.8109
 6901SOL    HW232340   0.909   3.763   3.560  0.6898  1.4136  2.1473
 6902SOL     OW32341   4.146   0.426  16.624  0.1546  0.1200  0.5570
 6902SOL    HW132342   4.159   0.520  16.610 -1.1949  0.5021  1.8011
 6902SOL    HW232343   4.051   0.418  16.618 -0.0183  0.4240  2.8737
 6903SOL     OW32344   0.235   3.505   5.944 -0.5657 -0.0928 -0.5786
 6903SOL    HW132345   0.149   3.520   5.905  2.2801  4.1817 -5.1208
 6903SOL    HW232346   0.216   3.423   5.989 -0.5628 -0.5361 -1.3863
 6904SOL     OW32347   2.634   0.275   9.097 -0.0690 -0.0419 -0.0887
 6904SOL    HW132348   2.659   0.306   9.184  0.1954 -1.1591  0.2439
 6904SOL    HW232349   2.542   0.283   9.123 -0.1073 -1.4533  0.2137
 6905SOL     OW32350   2.364   3.047   2.438 -0.0800 -0.6486 -0.0600
 6905SOL    HW132351   2.403   3.131   2.462  3.3836 -1.5286 -2.5293
 6905SOL    HW232352   2.276   3.077   2.461 -0.7696 -2.1955 -0.6339
 6906SOL     OW32353   0.402   3.819   7.580  0.1184 -0.0864  0.0764
 6906SOL    HW132354   0.475   3.819   7.518  1.1499  0.8059  1.2923
 6906SOL    HW232355   0.448   3.800   7.661  0.4043 -0.8822 -0.2775
 6907SOL     OW32356   0.138   3.423  11.246 -0.2499 -0.0544 -0.2326
 6907SOL    HW132357   0.196   3.383  11.181  0.4328 -1.5371  1.3015
 6907SOL    HW232358   0.064   3.362  11.245  1.3500 -2.0257  0.2471
 6908SOL     OW32359   1.694   4.342   1.797  0.6200  0.0214  0.4008
 6908SOL    HW132360   1.603   4.346   1.825  0.3996  0.9523 -0.4710
 6908SOL    HW232361   1.696   4.299   1.711 -0.9581  1.4429 -0.3316
 6909SOL     OW32362   4.486   0.280   2.187 -0.1921 -0.2265  0.3188
 6909SOL    HW132363   4.555   0.299   2.251 -0.6204  0.2658  0.6368
 6909SOL    HW232364   4.515   0.196   2.150 -0.7311 -0.2463 -0.0490
 6910SOL     OW32365   2.854   4.371   7.850 -0.0709 -0.3069  0.3770
 6910SOL    HW132366   2.849   4.315   7.928 -0.1129  1.0892  1.3866
 6910SOL    HW232367   2.928   4.321   7.813  2.3355  0.8475  3.6204
 6911SOL     OW32368   2.908   0.173  15.106  0.2610 -0.0046  0.1182
 6911SOL    HW132369   2.890   0.111  15.035 -2.5403 -1.7281  2.3617
 6911SOL    HW232370   2.980   0.221  15.063 -0.6761  1.7959  0.5465
 6912SOL     OW32371   3.577   3.559   9.647 -0.3252  0.2114 -0.0176
 6912SOL    HW132372   3.562   3.465   9.654 -2.2062  0.6117  1.2363
 6912SOL    HW232373   3.493   3.597   9.624 -0.1484  0.0712 -0.9272
 6913SOL     OW32374   1.725   2.560  12.511  0.5133  0.0522 -0.0305
 6913SOL    HW132375   1.781   2.492  12.474 -1.5581  0.0622 -3.1554
 6913SOL    HW232376   1.650   2.547  12.453 -0.6277 -1.5264  1.7493
 6914SOL     OW32377   0.210   3.203  10.182  0.2300 -0.2539 -0.1817
 6914SOL    HW132378   0.139   3.257  10.217  0.8460  0.7689 -0.5006
 6914SOL    HW232379   0.222   3.244  10.096  1.0380  0.3310  0.2074
 6915SOL     OW32380   2.604   0.197   4.740 -0.1003 -0.2853 -1.1532
 6915SOL    HW132381   2.587   0.105   4.759  1.9866  0.0531  2.2350
 6915SOL    HW232382   2.697   0.188   4.761 -0.4199  0.2350  0.4920
 6916SOL     OW32383   3.792   0.093   3.262 -0.4075  0.2131 -0.0768
 6916SOL    HW132384   3.847   0.150   3.316  0.5191  0.6530 -1.4890
 6916SOL    HW232385   3.719   0.086   3.324 -0.0764  0.9954  0.4136
 6917SOL     OW32386   3.079   0.957  16.079  1.0657 -0.0170  0.3965
 6917SOL    HW132387   3.167   0.934  16.110  0.5412 -0.8283  1.2962
 6917SOL    HW232388   3.079   1.052  16.068 -2.6918 -0.2003 -1.1637
 6918SOL     OW32389   4.717   0.253   8.423 -0.2007  0.3075  0.4329
 6918SOL    HW132390   4.630   0.218   8.404 -0.8241  2.1644 -0.1216
 6918SOL    HW232391   0.031   0.171   8.414 -1.5932 -0.5258  0.4966
 6919SOL     OW32392   3.101   3.787  14.903  0.2456  0.3154  0.2259
 6919SOL    HW132393   3.085   3.694  14.920  0.6100  0.2053 -0.0305
 6919SOL    HW232394   3.175   3.789  14.842 -1.0694  0.6260 -1.3562
 6920SOL     OW32395   0.617   0.345   1.468  0.1267  0.0787 -0.1817
 6920SOL    HW132396   0.650   0.430   1.438 -1.2481  0.5939 -0.2566
 6920SOL    HW232397   0.619   0.348   1.563 -0.7326  0.7747 -0.1819
 6921SOL     OW32398   3.770   1.899  11.634 -0.3501  0.3863 -0.0711
 6921SOL    HW132399   3.858   1.892  11.597 -0.4061 -0.9123  0.0471
 6921SOL    HW232400   3.788   1.968  11.698  1.5942  0.2881 -0.5012
 6922SOL     OW32401   2.713   1.150   1.022 -0.1303 -0.1289  0.9841
 6922SOL    HW132402   2.787   1.170   1.079  0.2491 -0.5231  0.6359
 6922SOL    HW232403   2.749   1.091   0.955  1.8352  1.1923  0.8849
 6923SOL     OW32404   4.422   2.505   5.061  0.3580 -0.0082 -0.4940
 6923SOL    HW132405   4.387   2.583   5.018  1.2958  1.0226  0.5939
 6923SOL    HW232406   4.502   2.484   5.012  0.9939  0.5002  0.3261
 6924SOL     OW32407   2.434   1.848   7.873 -0.2765 -0.2444 -0.6267
 6924SOL    HW132408   2.524   1.871   7.897  0.0258 -0.6153 -1.4066
 6924SOL    HW232409   2.379   1.908   7.924 -2.4921 -2.5997 -0.2595
 6925SOL     OW32410   0.120   3.182   8.100 -0.2584  0.7641 -0.1605
 6925SOL    HW132411   0.132   3.120   8.172  2.2704  2.2633  0.6873
 6925SOL    HW232412   0.028   3.165   8.077 -0.2799  2.9021 -1.6111
 6926SOL     OW32413   3.671   3.201   4.168  0.1362  0.0440  0.6172
 6926SOL    HW132414   3.733   3.172   4.100  0.3865  0.7228  0.5639
 6926SOL    HW232415   3.652   3.288   4.133 -0.1437 -0.6375 -0.9662
 6927SOL     OW32416   3.146   1.587   7.425 -0.0450  0.6251 -0.4726
 6927SOL    HW132417   3.241   1.600   7.422 -0.0464  0.2858 -1.9128
 6927SOL    HW232418   3.132   1.574   7.519  0.7702 -1.8359 -0.6884
 6928SOL     OW32419   0.091   0.344   5.902  0.0025 -0.0393 -0.2178
 6928SOL    HW132420   0.122   0.428   5.936  0.2038 -0.3188  0.2941
 6928SOL    HW232421   0.034   0.323   5.976 -0.2302  0.8404 -0.1454
 6929SOL     OW32422   4.463   1.209   6.410  0.1609 -0.1808  0.0494
 6929SOL    HW132423   4.436   1.184   6.499  0.9577 -1.4525 -0.0676
 6929SOL    HW232424   4.546   1.249   6.436 -0.0778  1.7997 -2.2735
 6930SOL     OW32425   0.406   0.839  17.120 -0.3689  0.3863  0.1312
 6930SOL    HW132426   0.329   0.878  17.079  0.3044  1.6526  0.0739
 6930SOL    HW232427   0.467   0.900  17.079 -1.3031  0.8392 -0.5867
 6931SOL     OW32428   4.561   1.467   7.988  0.4554  0.2201  0.3868
 6931SOL    HW132429   4.617   1.545   7.991 -0.7430  1.1420 -1.8045
 6931SOL    HW232430   4.516   1.469   8.073  0.3777 -2.4504  0.3864
 6932SOL     OW32431   2.568   0.404   0.426 -0.7017  0.1408  0.2704
 6932SOL    HW132432   2.575   0.351   0.506  0.4635 -1.4169 -0.8596
 6932SOL    HW232433   2.663   0.403   0.415 -1.0504  4.1087 -2.7337
 6933SOL     OW32434   0.473   3.808   7.143 -0.4869 -0.4999 -0.1908
 6933SOL    HW132435   0.397   3.750   7.145 -0.1663 -0.8699  1.4330
 6933SOL    HW232436   0.514   3.786   7.227  1.3880 -2.3495 -1.5996
 6934SOL     OW32437   4.083   4.078   2.879  0.3270 -0.4260  0.1685
 6934SOL    HW132438   4.089   3.996   2.831 -0.6762 -0.6803  0.4712
 6934SOL    HW232439   4.062   4.145   2.814  1.3460  1.3849  1.7004
 6935SOL     OW32440   3.066   4.468   6.790 -0.4914  0.0101  0.7853
 6935SOL    HW132441   3.113   4.415   6.726 -1.2335  1.1791 -0.7390
 6935SOL    HW232442   3.130   4.539   6.785 -1.3810  0.5911 -2.2419
 6936SOL     OW32443   2.625   3.478   7.411 -0.6596 -0.8528  0.8847
 6936SOL    HW132444   2.535   3.509   7.401  0.4209  1.9804 -0.2740
 6936SOL    HW232445   2.644   3.460   7.319  0.1119  2.1729  0.4383
 6937SOL     OW32446   2.288   2.891  14.481 -0.1095  0.2301  0.7436
 6937SOL    HW132447   2.252   2.963  14.533 -0.3298 -1.5017  2.9889
 6937SOL    HW232448   2.376   2.929  14.481 -0.3082  0.6436 -1.3887
 6938SOL     OW32449   2.926   3.960   2.195 -0.0390 -0.5892  0.5730
 6938SOL    HW132450   2.830   3.958   2.191 -0.1248 -2.5332  3.2360
 6938SOL    HW232451   2.943   4.034   2.136 -1.2517 -0.2168  0.6941
 6939SOL     OW32452   2.092   1.128   2.660 -0.0030  0.3964  0.1262
 6939SOL    HW132453   2.007   1.115   2.620 -0.0513 -2.0488  1.0649
 6939SOL    HW232454   2.080   1.211   2.707 -1.7110  0.0073  0.3695
 6940SOL     OW32455   2.643   2.248   3.309 -0.0114 -0.4441  0.0623
 6940SOL    HW132456   2.631   2.343   3.318  0.9585 -0.1669 -1.6880
 6940SOL    HW232457   2.644   2.222   3.401 -1.4916 -0.2297  0.1418
 6941SOL     OW32458   2.397   1.574   8.312  0.3801 -0.4001 -0.3485
 6941SOL    HW132459   2.475   1.616   8.349  0.6005 -0.5592 -0.6284
 6941SOL    HW232460   2.324   1.609   8.362  0.4948 -0.8088  0.0997
 6942SOL     OW32461   2.727   1.830   3.370 -0.5581  0.2690  0.3753
 6942SOL    HW132462   2.770   1.870   3.446 -0.6003  3.1314 -1.1084
 6942SOL    HW232463   2.733   1.740   3.401 -1.8134  0.1868  0.3496
 6943SOL     OW32464   4.273   2.889   1.883  0.4238  0.1687 -0.2819
 6943SOL    HW132465   4.333   2.963   1.895  0.1481  0.1257  1.3666
 6943SOL    HW232466   4.325   2.824   1.835  0.1134 -0.0912 -0.2619
 6944SOL     OW32467   3.688   2.879   3.398 -0.4379  0.2409 -0.1456
 6944SOL    HW132468   3.765   2.880   3.455  1.3047 -0.9292 -2.4831
 6944SOL    HW232469   3.634   2.950   3.433  2.1636  3.4201 -2.5617
 6945SOL     OW32470   0.271   0.013   3.233 -0.0707  0.7600  0.0074
 6945SOL    HW132471   0.310   0.086   3.281 -1.0947  0.3926  1.4018
 6945SOL    HW232472   0.230   4.696   3.302 -2.9435  2.3564 -0.4742
 6946SOL     OW32473   1.399   1.804   6.440 -0.0072 -0.1116  0.3475
 6946SOL    HW132474   1.380   1.877   6.382  1.1211 -0.6710 -0.7161
 6946SOL    HW232475   1.472   1.850   6.481  0.1245 -0.7756  0.8635
 6947SOL     OW32476   3.503   0.830   9.775 -0.5050  0.3207  0.4683
 6947SOL    HW132477   3.502   0.889   9.699  0.0435 -0.2322  0.0388
 6947SOL    HW232478   3.480   0.896   9.841  0.9325  1.1866  0.1109
 6948SOL     OW32479   1.468   3.639   4.638  0.4704 -0.0509 -0.6915
 6948SOL    HW132480   1.559   3.650   4.666 -0.0740  0.4605  0.9086
 6948SOL    HW232481   1.470   3.596   4.553 -0.9503 -0.9992 -0.2643
 6949SOL     OW32482   2.661   4.401  10.126 -0.0247 -0.2639  0.0422
 6949SOL    HW132483   2.571   4.425  10.105 -0.1598 -1.6349 -0.9790
 6949SOL    HW232484   2.678   4.495  10.118 -0.2092 -0.1717  0.6829
 6950SOL     OW32485   4.004   0.766  15.787  1.0409  0.3651 -0.2904
 6950SOL    HW132486   4.080   0.715  15.760 -0.7398 -2.7344  0.4846
 6950SOL    HW232487   3.933   0.701  15.793  0.9075  0.4973 -0.4370
 6951SOL     OW32488   2.184   2.796   6.694  0.1260  0.1969  0.1924
 6951SOL    HW132489   2.136   2.718   6.667 -0.0780  0.3872  0.0091
 6951SOL    HW232490   2.265   2.792   6.644 -0.6944 -1.5322 -1.0014
 6952SOL     OW32491   0.421   1.654   8.373  0.1166  0.0711  0.5997
 6952SOL    HW132492   0.481   1.601   8.320  0.1791  0.4750  0.2644
 6952SOL    HW232493   0.454   1.739   8.344  1.3302 -0.6170 -0.0550
 6953SOL     OW32494   2.322   0.554   7.742 -0.2664 -0.4798 -0.5041
 6953SOL    HW132495   2.227   0.563   7.743 -0.2012  0.0571  0.9859
 6953SOL    HW232496   2.332   0.564   7.647 -1.4732  3.4220 -0.2203
 6954SOL     OW32497   4.648   2.281   3.930  0.3382  0.0162 -0.6369
 6954SOL    HW132498   0.001   2.247   3.916 -0.1391 -0.7065 -1.9382
 6954SOL    HW232499   4.661   2.364   3.976  1.2102  0.4601 -1.6975
 6955SOL     OW32500   1.715   0.322   9.165 -0.1351 -0.3312 -0.2868
 6955SOL    HW132501   1.725   0.306   9.071  2.3103 -1.6146  0.2134
 6955SOL    HW232502   1.714   0.232   9.195  0.3349 -0.4053 -0.5034
 6956SOL     OW32503   0.428   3.000  15.330  0.3038 -0.1830 -0.1195
 6956SOL    HW132504   0.370   2.929  15.358  1.1181 -1.2412 -1.0916
 6956SOL    HW232505   0.456   3.030  15.416  1.3172 -0.8002 -0.2248
 6957SOL     OW32506   3.632   4.670   5.550 -0.0711 -0.2003 -0.0373
 6957SOL    HW132507   3.713   4.660   5.501  0.3055  1.5361  0.2277
 6957SOL    HW232508   3.632   0.029   5.561  0.3847 -0.0768 -1.2076
 6958SOL     OW32509   3.982   4.680   4.832 -0.0654 -0.5860 -0.2555
 6958SOL    HW132510   3.971   0.039   4.822  3.8823 -0.1757 -0.8042
 6958SOL    HW232511   4.050   4.670   4.766  1.0233 -0.6199  0.8561
 6959SOL     OW32512   1.395   3.247   6.534 -0.2168 -0.0813 -0.2129
 6959SOL    HW132513   1.356   3.210   6.613  0.3248  0.5686  0.3617
 6959SOL    HW232514   1.477   3.198   6.532  1.3880  2.5484  0.5403
 6960SOL     OW32515   1.047   2.226  17.026 -0.3679 -0.1760 -0.1973
 6960SOL    HW132516   0.995   2.280  17.086 -2.4652 -0.9413 -1.3184
 6960SOL    HW232517   0.982   2.156  17.036  1.8774 -2.1339  0.7853
 6961SOL     OW32518   1.436   3.197   5.892 -0.1575  0.1491  0.7002
 6961SOL    HW132519   1.359   3.152   5.927  0.2552 -1.4774 -0.4910
 6961SOL    HW232520   1.484   3.123   5.855 -0.3788  1.0769 -1.4920
 6962SOL     OW32521   2.098   0.779   2.452 -0.2595  0.2832  0.5261
 6962SOL    HW132522   2.069   0.870   2.461 -0.5723  0.0347  2.1224
 6962SOL    HW232523   2.029   0.730   2.497 -0.3532 -0.1863 -0.1415
 6963SOL     OW32524   3.231   1.222   7.978  0.3010  0.0878  0.3846
 6963SOL    HW132525   3.313   1.219   8.028  1.2312 -1.5953 -1.2526
 6963SOL    HW232526   3.167   1.196   8.045  0.4180  3.4706  1.8416
 6964SOL     OW32527   4.090   1.892   5.961  0.1647  0.3523 -0.0236
 6964SOL    HW132528   4.062   1.966   5.907  0.1361 -0.7362 -1.5235
 6964SOL    HW232529   4.184   1.896   5.944  0.3438  0.7325  1.0494
 6965SOL     OW32530   0.093   2.001  16.117 -0.7744 -0.1525 -0.0105
 6965SOL    HW132531   0.034   2.036  16.050  2.5485  2.0021 -1.8413
 6965SOL    HW232532   0.093   2.083  16.165  0.0535  1.0126 -1.9852
 6966SOL     OW32533   0.481   0.959   2.452 -0.4169  0.0930  0.1024
 6966SOL    HW132534   0.554   0.981   2.394  2.4310  0.4091  3.7768
 6966SOL    HW232535   0.517   0.971   2.540 -0.5705  2.0768 -0.1066
 6967SOL     OW32536   3.305   0.568   4.508  0.1288  0.3393 -0.2091
 6967SOL    HW132537   3.275   0.584   4.419 -0.3994  0.0283 -0.0904
 6967SOL    HW232538   3.231   0.516   4.540 -0.9727  1.4583 -0.9742
 6968SOL     OW32539   2.511   3.521   7.970  0.3325  0.4620 -0.5227
 6968SOL    HW132540   2.423   3.493   7.945  0.8311 -2.3054  0.7945
 6968SOL    HW232541   2.521   3.607   7.931  2.9946 -0.6816 -2.3776
 6969SOL     OW32542   2.411   4.281   6.612  0.0332 -0.5698 -0.3228
 6969SOL    HW132543   2.428   4.223   6.686  0.0826  0.3313  0.3648
 6969SOL    HW232544   2.424   4.216   6.542 -0.6745  0.2551 -1.2230
 6970SOL     OW32545   1.018   3.789  15.470  0.1935 -0.6359  0.6427
 6970SOL    HW132546   1.019   3.873  15.514  0.1389 -0.4483  0.2846
 6970SOL    HW232547   1.100   3.780  15.422 -1.4179  1.0650 -2.4030
 6971SOL     OW32548   0.408   4.633   5.786 -0.8040  0.0094 -0.4206
 6971SOL    HW132549   0.324   4.588   5.788 -0.5317 -0.5040 -0.5095
 6971SOL    HW232550   0.396   4.682   5.705 -0.1059 -0.9232 -1.0869
 6972SOL     OW32551   3.242   0.794   3.703  0.5658 -0.0089 -0.4086
 6972SOL    HW132552   3.189   0.715   3.717 -0.0786  0.1305 -2.1199
 6972SOL    HW232553   3.319   0.769   3.754  1.1473 -1.6424 -2.0651
 6973SOL     OW32554   0.986   3.740  10.913  0.2757  0.4010  0.0157
 6973SOL    HW132555   0.920   3.681  10.950 -2.6020  2.0697 -2.4677
 6973SOL    HW232556   0.932   3.819  10.915  0.3094  0.4475 -1.1919
 6974SOL     OW32557   2.658   0.688   1.564  0.5849  0.0052  0.1549
 6974SOL    HW132558   2.611   0.758   1.610  0.7977  0.3625 -0.1671
 6974SOL    HW232559   2.599   0.667   1.491 -0.2001 -1.0723  1.1035
 6975SOL     OW32560   4.535   3.963   5.080  0.1067 -0.4536  0.1619
 6975SOL    HW132561   4.509   3.996   5.166 -1.3239  1.7107 -1.1074
 6975SOL    HW232562   4.626   3.938   5.097  0.4616  0.6831 -0.0923
 6976SOL     OW32563   1.983   0.401  11.822 -0.1779 -0.3550  1.2604
 6976SOL    HW132564   1.931   0.322  11.805  1.3540 -1.0950  0.0636
 6976SOL    HW232565   2.065   0.360  11.846  0.8384  1.5512  1.0242
 6977SOL     OW32566   4.417   2.743   2.161 -0.1149 -0.0055  0.6152
 6977SOL    HW132567   4.483   2.728   2.094 -1.3050 -1.6440 -0.1934
 6977SOL    HW232568   4.473   2.780   2.229  1.1546  1.8595 -1.4375
 6978SOL     OW32569   1.294   3.762  17.332 -0.0372 -0.1056 -0.1806
 6978SOL    HW132570   1.307   3.855  17.311 -0.1474 -0.1957 -0.6504
 6978SOL    HW232571   1.294   3.735  17.240  0.7703  2.1694 -0.8679
 6979SOL     OW32572   1.085   3.909  16.199  0.4120 -0.1989  0.4475
 6979SOL    HW132573   1.089   3.836  16.137 -1.3338 -2.5521  3.0952
 6979SOL    HW232574   1.048   3.978  16.144  2.1863  0.9076  0.6594
 6980SOL     OW32575   2.298   1.970  13.675 -0.2651 -0.7657 -0.3390
 6980SOL    HW132576   2.229   2.006  13.620 -0.3462  0.5933  0.6430
 6980SOL    HW232577   2.274   1.979  13.768  0.1505  3.1342 -0.6021
 6981SOL     OW32578   1.017   1.472   8.434  0.2306 -0.2509  0.2897
 6981SOL    HW132579   1.075   1.407   8.476  1.1995 -0.4139 -1.3065
 6981SOL    HW232580   1.041   1.552   8.482 -1.3888  0.5266 -0.1980
 6982SOL     OW32581   1.866   3.163  17.512 -0.9060  0.2169  0.3292
 6982SOL    HW132582   1.848   3.191  17.601  1.7880  1.5556  0.4724
 6982SOL    HW232583   1.819   3.081  17.495 -1.9124  0.9649 -0.5056
 6983SOL     OW32584   3.492   0.997  16.380  0.1833  0.3942  0.0687
 6983SOL    HW132585   3.580   0.993  16.417  0.0807 -0.8739  0.1863
 6983SOL    HW232586   3.444   1.022  16.460  1.1953 -0.7954  1.0539
 6984SOL     OW32587   3.105   3.697   7.076 -1.0518 -0.4421 -0.4527
 6984SOL    HW132588   3.035   3.633   7.068  0.2422 -1.7590 -1.1682
 6984SOL    HW232589   3.179   3.641   7.099 -0.0815  0.8896 -0.3211
 6985SOL     OW32590   1.998   2.729   6.975  0.0108 -0.7141 -0.1037
 6985SOL    HW132591   1.937   2.719   6.903 -0.7600  0.8031  0.3415
 6985SOL    HW232592   2.047   2.648   6.988  0.4702 -0.5191 -0.6595
 6986SOL     OW32593   3.954   0.481  17.351 -0.4899 -0.7190 -0.2505
 6986SOL    HW132594   3.953   0.472  17.446  1.5349  1.4974 -0.0190
 6986SOL    HW232595   4.033   0.433  17.325  0.5607 -0.0069  1.6200
 6987SOL     OW32596   0.298   3.610   7.103  0.2126  0.0776 -0.1554
 6987SOL    HW132597   0.320   3.532   7.152  1.0236  2.3710  3.1223
 6987SOL    HW232598   0.281   3.574   7.016 -2.1922  0.1211  0.2776
 6988SOL     OW32599   1.244   0.750  17.291  0.3805 -0.4510  0.7003
 6988SOL    HW132600   1.208   0.777  17.206  0.5665 -0.1091  0.7285
 6988SOL    HW232601   1.231   0.655  17.290  1.1019 -0.5494  0.7723
 6989SOL     OW32602   3.762   2.431   6.957 -0.0388 -1.1247 -0.3656
 6989SOL    HW132603   3.699   2.391   7.017  0.4441  0.2298  1.0227
 6989SOL    HW232604   3.716   2.406   6.876  2.6418 -0.8705 -1.9786
 6990SOL     OW32605   3.733   2.477  16.048 -0.2895  0.5723 -0.4205
 6990SOL    HW132606   3.716   2.383  16.047  0.3315  0.4633 -0.7980
 6990SOL    HW232607   3.768   2.497  15.961  0.0899  2.1147  0.0950
 6991SOL     OW32608   2.368   3.388   2.105 -0.1185  0.4453 -0.5716
 6991SOL    HW132609   2.383   3.477   2.073 -2.1318  0.0643 -2.5509
 6991SOL    HW232610   2.287   3.411   2.149  0.3572  0.8419  0.0945
 6992SOL     OW32611   0.974   3.119  11.754  0.3946 -0.0162  0.6454
 6992SOL    HW132612   0.947   3.211  11.745  0.1734 -0.2275 -0.8789
 6992SOL    HW232613   0.976   3.092  11.662 -0.8651 -1.6833  1.1150
 6993SOL     OW32614   2.282   1.302   1.912 -0.0283 -0.1336  0.8482
 6993SOL    HW132615   2.365   1.349   1.912  1.0829 -2.0861  0.2366
 6993SOL    HW232616   2.310   1.215   1.941  0.6095 -0.4147 -0.6500
 6994SOL     OW32617   3.225   1.940   3.973 -0.2446  0.5643  0.5267
 6994SOL    HW132618   3.299   1.997   3.950 -0.6510  0.9155  0.0821
 6994SOL    HW232619   3.274   1.894   4.041  2.7501  1.5565 -0.9506
 6995SOL     OW32620   2.016   1.901   2.530 -0.0690 -0.0192  0.3746
 6995SOL    HW132621   1.967   1.917   2.611 -0.1030 -1.6915  0.6895
 6995SOL    HW232622   2.096   1.863   2.566  0.1269  0.3389  0.3123
 6996SOL     OW32623   2.609   2.507   5.344  0.2377  0.2229  0.4280
 6996SOL    HW132624   2.638   2.545   5.427 -0.7328  2.3051 -0.1887
 6996SOL    HW232625   2.686   2.511   5.287  0.7363 -0.7099  1.0482
 6997SOL     OW32626   1.123   2.054  12.373  0.4459 -0.4902  0.2653
 6997SOL    HW132627   1.177   2.080  12.299 -0.0372  1.3881  0.5607
 6997SOL    HW232628   1.080   2.136  12.397  1.2458  0.2108 -0.7215
 6998SOL     OW32629   1.458   1.231   8.545 -0.3427  0.2210 -0.7969
 6998SOL    HW132630   1.523   1.228   8.475  0.8395 -1.8257  0.3660
 6998SOL    HW232631   1.503   1.255   8.627 -0.4147 -0.5237 -0.5424
 6999SOL     OW32632   0.007   1.427   6.210  0.1933  0.3185 -0.4439
 6999SOL    HW132633   0.015   1.356   6.274 -0.1119  2.1840  1.6440
 6999SOL    HW232634   4.699   1.385   6.135  0.6809  1.5848 -1.4256
 7000SOL     OW32635   2.514   0.857  17.622 -0.0824 -0.2087  0.7108
 7000SOL    HW132636   2.533   0.895  17.708 -1.5029  1.8887  0.1122
 7000SOL    HW232637   2.556   0.922  17.564 -0.5132 -1.4703 -1.0221
 7001SOL     OW32638   1.456   3.214   7.070 -0.3933  0.1788  0.3074
 7001SOL    HW132639   1.530   3.267   7.041 -1.7729  1.0576 -1.5666
 7001SOL    HW232640   1.387   3.259   7.022  1.2756  1.4977 -0.8416
 7002SOL     OW32641   3.405   3.832   8.724 -0.3036  0.4820  0.1712
 7002SOL    HW132642   3.436   3.921   8.705  0.0390  0.1186 -0.9483
 7002SOL    HW232643   3.482   3.785   8.755 -0.1901  1.1158  0.8489
 7003SOL     OW32644   3.368   1.072  14.455  0.3313 -0.1717 -0.2994
 7003SOL    HW132645   3.442   1.023  14.491  0.3489  1.5363  1.9815
 7003SOL    HW232646   3.364   1.146  14.516 -0.3109  0.2843 -0.8941
 7004SOL     OW32647   0.195   2.605  14.740  0.4385  0.0113  0.3313
 7004SOL    HW132648   0.258   2.534  14.743  0.7962  0.4267  2.6319
 7004SOL    HW232649   0.202   2.623  14.646  0.9555 -0.6391  0.2476
 7005SOL     OW32650   1.480   2.232   5.980 -1.0025 -0.7473 -0.7155
 7005SOL    HW132651   1.386   2.245   5.992 -0.0568  3.7058  1.8474
 7005SOL    HW232652   1.494   2.239   5.886 -0.7934 -0.0448 -0.6333
 7006SOL     OW32653   3.859   1.577   7.170 -0.6936  0.2377 -0.0481
 7006SOL    HW132654   3.835   1.661   7.209  2.6960  1.8833 -1.5360
 7006SOL    HW232655   3.839   1.590   7.077  1.0660  2.3637 -0.1216
 7007SOL     OW32656   4.389   2.031   1.761  0.4060  0.0248 -0.0358
 7007SOL    HW132657   4.461   2.017   1.699 -0.3091 -2.0259 -0.3681
 7007SOL    HW232658   4.438   2.067   1.835 -1.1809 -0.5842  1.3079
 7008SOL     OW32659   0.008   3.573   2.285 -0.0056  0.1907 -0.3453
 7008SOL    HW132660   0.022   3.521   2.206  0.8122  1.7617 -1.2517
 7008SOL    HW232661   4.654   3.600   2.267 -1.1783 -3.4425  0.0942
 7009SOL     OW32662   0.974   1.477   1.462 -0.1745 -0.5329 -1.0143
 7009SOL    HW132663   1.059   1.520   1.449 -0.1323 -0.3759 -0.1966
 7009SOL    HW232664   0.941   1.519   1.541  0.2609 -0.4181 -0.8933
 7010SOL     OW32665   0.925   3.619   7.937 -0.1184 -0.5095 -0.1364
 7010SOL    HW132666   0.864   3.545   7.931 -0.5560 -0.3272  1.8412
 7010SOL    HW232667   1.010   3.577   7.936 -0.5256 -1.3524  0.2369
 7011SOL     OW32668   3.675   0.508   0.490  0.1986  0.0611 -0.1317
 7011SOL    HW132669   3.732   0.561   0.434 -0.8897  1.3932  0.0117
 7011SOL    HW232670   3.640   0.562   0.561  2.7362 -1.1175  2.0252
 7012SOL     OW32671   0.986   1.593   9.975 -1.0449  0.0396 -0.0938
 7012SOL    HW132672   1.015   1.505   9.998  1.7355  0.7670 -0.8974
 7012SOL    HW232673   0.890   1.584   9.971 -1.1883  1.1104  0.8242
 7013SOL     OW32674   2.877   0.587  17.103 -0.5101 -0.0408 -0.1501
 7013SOL    HW132675   2.913   0.556  17.186  2.1502  1.0360 -0.8650
 7013SOL    HW232676   2.951   0.647  17.090  0.9621 -1.4645  1.7057
 7014SOL     OW32677   1.001   2.608   9.101  0.6675  0.6274 -0.6198
 7014SOL    HW132678   0.908   2.605   9.120  1.2801 -0.8240  2.1360
 7014SOL    HW232679   0.996   2.638   9.010  1.4202  0.0550 -0.8547
 7015SOL     OW32680   1.754   2.414   2.495  0.3163  0.0961  0.0862
 7015SOL    HW132681   1.683   2.406   2.559  0.0208  1.5831 -0.0460
 7015SOL    HW232682   1.772   2.321   2.484  1.6969  0.5682 -1.6281
 7016SOL     OW32683   0.607   0.320   7.975 -0.1620 -0.5898  0.2472
 7016SOL    HW132684   0.577   0.382   7.908 -1.0386 -1.8205 -0.4847
 7016SOL    HW232685   0.544   0.252   7.955  0.5387 -0.2097 -3.2771
 7017SOL     OW32686   0.900   1.983   4.019  0.3098  0.3443  0.0277
 7017SOL    HW132687   0.828   1.946   4.070  1.3338 -1.2303  0.3308
 7017SOL    HW232688   0.974   1.940   4.060  1.6885  0.7947 -1.9943
 7018SOL     OW32689   2.646   0.740   3.486  0.4616  0.5863 -0.4754
 7018SOL    HW132690   2.571   0.745   3.428  0.9603 -0.0971 -1.1718
 7018SOL    HW232691   2.718   0.784   3.440  0.4948  0.9583 -0.0726
 7019SOL     OW32692   0.439   0.903   0.189 -0.7489  0.2196 -0.1839
 7019SOL    HW132693   0.534   0.895   0.177 -0.8327 -1.9476  0.4239
 7019SOL    HW232694   0.417   0.965   0.120 -2.7345 -0.2661  0.0039
 7020SOL     OW32695   2.562   1.546  12.474  0.1600  0.6269 -0.0829
 7020SOL    HW132696   2.616   1.624  12.461 -0.5942  1.1022 -0.3520
 7020SOL    HW232697   2.476   1.580  12.449 -0.7980 -2.3566 -0.8242
 7021SOL     OW32698   4.372   0.561   7.521  0.0948  0.3567 -0.6890
 7021SOL    HW132699   4.324   0.482   7.495  1.4847 -1.2920  1.7184
 7021SOL    HW232700   4.456   0.520   7.541 -1.7312 -2.2351  1.6384
 7022SOL     OW32701   0.014   0.722  12.831  0.4392  0.6494  0.0875
 7022SOL    HW132702   0.101   0.726  12.870  0.1539 -2.9473  1.0218
 7022SOL    HW232703   4.700   0.739  12.911  1.9313 -0.5588  1.2636
 7023SOL     OW32704   3.123   4.542   7.833  0.0313  0.6438  0.1269
 7023SOL    HW132705   3.067   4.513   7.906 -1.8316  1.7589 -0.8456
 7023SOL    HW232706   3.102   4.634   7.816 -2.1918 -0.2666 -2.1271
 7024SOL     OW32707   2.473   1.615  17.067  0.4190 -0.1637  0.1059
 7024SOL    HW132708   2.526   1.606  17.146 -1.2072 -1.4404  1.0377
 7024SOL    HW232709   2.426   1.697  17.077 -0.3766 -0.5222 -0.7364
 7025SOL     OW32710   3.613   0.351   7.555  0.5324 -0.3906  0.1989
 7025SOL    HW132711   3.693   0.332   7.507 -0.3970 -1.4647 -0.9367
 7025SOL    HW232712   3.592   0.443   7.540  0.3166 -0.1698  1.8566
 7026SOL     OW32713   1.630   3.404   3.740  0.2742  0.2368 -0.3953
 7026SOL    HW132714   1.670   3.388   3.825  1.6430  0.9861 -0.8928
 7026SOL    HW232715   1.639   3.319   3.698 -3.9864 -0.0596 -0.7019
 7027SOL     OW32716   2.793   3.909   1.739  0.0932 -0.4029 -0.8355
 7027SOL    HW132717   2.800   3.997   1.703  0.6011  0.7339  2.1087
 7027SOL    HW232718   2.871   3.858   1.717  1.7410  1.2613  1.1686
 7028SOL     OW32719   0.499   3.932   1.947  0.2039  0.3867  0.5569
 7028SOL    HW132720   0.591   3.958   1.957 -0.6436  3.1072  1.3708
 7028SOL    HW232721   0.512   3.839   1.932  0.9192  0.8211 -1.6368
 7029SOL     OW32722   2.315   1.137   8.898  0.5328 -0.2229  0.1543
 7029SOL    HW132723   2.243   1.095   8.851  0.1896 -2.4869  2.6941
 7029SOL    HW232724   2.363   1.180   8.828 -0.8277 -1.2367 -1.4084
 7030SOL     OW32725   2.278   1.844   4.047  0.5344  0.4360 -0.0781
 7030SOL    HW132726   2.355   1.825   3.993  0.4494  1.6456 -0.6328
 7030SOL    HW232727   2.216   1.780   4.013 -0.6550  1.5691 -0.0237
 7031SOL     OW32728   3.903   2.192   7.234  0.8903  0.1575 -0.2370
 7031SOL    HW132729   3.823   2.186   7.182 -0.9680 -0.0163  2.6287
 7031SOL    HW232730   3.887   2.264   7.295 -0.5490  1.0557 -1.6893
 7032SOL     OW32731   1.148   0.505  12.251  0.2717  0.0296 -0.4829
 7032SOL    HW132732   1.110   0.569  12.312 -1.5471  0.1105 -1.6879
 7032SOL    HW232733   1.068   0.453  12.248 -1.3857  2.5923 -1.4349
 7033SOL     OW32734   3.555   3.693   8.247  0.0848 -0.4199  0.3585
 7033SOL    HW132735   3.479   3.664   8.197  2.0126 -1.7136 -1.8726
 7033SOL    HW232736   3.578   3.778   8.208  1.1752 -0.2873  1.2637
 7034SOL     OW32737   2.938   0.396   4.684  1.0629  0.4837 -0.0529
 7034SOL    HW132738   2.935   0.410   4.589  4.8232 -1.8510 -0.4939
 7034SOL    HW232739   2.930   0.301   4.680  1.0721  0.4742  0.1577
 7035SOL     OW32740   0.218   0.793  11.431  0.5062  0.1223  0.1862
 7035SOL    HW132741   0.161   0.850  11.482 -0.7116  0.1333 -1.1977
 7035SOL    HW232742   0.262   0.746  11.502  2.2185  0.4705 -0.6299
 7036SOL     OW32743   1.417   4.144   1.808 -0.4511  0.6645  0.0328
 7036SOL    HW132744   1.373   4.228   1.818 -1.5782  0.0772  0.0185
 7036SOL    HW232745   1.335   4.094   1.803 -1.2725  2.0865 -0.7567
 7037SOL     OW32746   0.174   4.651   7.454 -0.1489 -0.4471  0.3321
 7037SOL    HW132747   0.208   4.564   7.472  1.9397  0.5166  1.0996
 7037SOL    HW232748   0.205   4.672   7.366 -0.5168  0.0062  0.3086
 7038SOL     OW32749   3.774   2.089   6.756 -0.1284  0.2484  0.0292
 7038SOL    HW132750   3.822   2.033   6.817 -0.2293  0.7402  0.5529
 7038SOL    HW232751   3.824   2.170   6.763 -0.8417  0.6778  0.1324
 7039SOL     OW32752   0.468   1.813   8.064 -0.3718  0.8917 -0.4800
 7039SOL    HW132753   0.559   1.787   8.048 -0.4287  1.0709 -1.0892
 7039SOL    HW232754   0.416   1.739   8.094 -0.9193  0.6657 -1.9702
 7040SOL     OW32755   3.748   1.444   4.399  0.2750  0.5011 -0.2426
 7040SOL    HW132756   3.659   1.429   4.367 -0.1574  0.4369  0.9736
 7040SOL    HW232757   3.759   1.349   4.411 -0.0842  0.5804  0.7529
 7041SOL     OW32758   4.364   4.248   9.351  0.7665  0.7652 -0.3147
 7041SOL    HW132759   4.303   4.273   9.419  0.4553  0.8027 -0.6087
 7041SOL    HW232760   4.400   4.328   9.314  0.2131  1.4106  0.5509
 7042SOL     OW32761   0.918   0.782  13.639 -0.5253  0.6867  0.0923
 7042SOL    HW132762   1.008   0.774  13.605 -1.0035  1.2989 -1.3196
 7042SOL    HW232763   0.867   0.793  13.559 -2.6365 -0.7855  1.2595
 7043SOL     OW32764   0.489   1.142  10.466  0.7685 -0.3813  0.1567
 7043SOL    HW132765   0.572   1.109  10.500  0.6414 -0.1549  0.6911
 7043SOL    HW232766   0.425   1.093  10.518 -1.4677  2.0887 -0.2383
 7044SOL     OW32767   4.621   3.856   7.902 -0.2537  0.4617  0.3390
 7044SOL    HW132768   4.606   3.940   7.857 -0.0157 -0.3119 -1.2054
 7044SOL    HW232769   4.584   3.794   7.838 -2.7840  2.0685  0.2389
 7045SOL     OW32770   2.570   2.014   8.294  0.2107 -0.5146 -0.1746
 7045SOL    HW132771   2.602   1.926   8.313 -0.6852 -0.4150  1.7565
 7045SOL    HW232772   2.648   2.068   8.306  0.4571 -1.3352  1.9049
 7046SOL     OW32773   1.264   4.536  17.424  0.1320 -0.2767 -0.0064
 7046SOL    HW132774   1.341   4.561  17.372  0.1419  0.8625  0.5661
 7046SOL    HW232775   1.295   4.539  17.515  1.5707 -1.3488 -0.4504
 7047SOL     OW32776   0.154   3.146   9.498  0.4085  0.0582 -0.0259
 7047SOL    HW132777   0.154   3.190   9.584 -3.6070  0.0328 -0.0212
 7047SOL    HW232778   0.085   3.190   9.450 -1.2303 -1.1667  1.1951
 7048SOL     OW32779   3.613   3.383   9.904  0.0347 -0.0889 -0.2879
 7048SOL    HW132780   3.616   3.479   9.899  0.7766 -0.1044 -0.2173
 7048SOL    HW232781   3.521   3.373   9.927  0.3500 -1.6934  0.3125
 7049SOL     OW32782   3.048   4.063   6.784 -0.7483 -0.5681  0.0788
 7049SOL    HW132783   3.023   4.111   6.863 -1.1588 -0.4878 -0.0972
 7049SOL    HW232784   3.062   3.978   6.825  3.0665  0.8205  1.7454
 7050SOL     OW32785   1.737   0.544   3.649 -0.3661  0.3005 -0.4879
 7050SOL    HW132786   1.814   0.490   3.667  0.6359  1.6181 -0.7563
 7050SOL    HW232787   1.689   0.509   3.724 -1.9343  0.2663 -1.5164
 7051SOL     OW32788   3.114   1.832   3.359 -0.5467 -0.0970  0.3705
 7051SOL    HW132789   3.141   1.893   3.428 -0.5383  0.9115 -0.5269
 7051SOL    HW232790   3.097   1.894   3.289 -1.6314 -0.6124  0.1858
 7052SOL     OW32791   2.193   2.625   3.081  0.5170 -0.5563  0.0478
 7052SOL    HW132792   2.116   2.568   3.079 -0.9359  1.4334 -0.2211
 7052SOL    HW232793   2.249   2.550   3.061  0.7085 -0.1080 -1.0842
 7053SOL     OW32794   3.406   4.519   7.452  0.1099  0.5828 -0.1896
 7053SOL    HW132795   3.334   4.456   7.444  1.4745 -0.3400 -4.7724
 7053SOL    HW232796   3.399   4.540   7.545  2.1607  1.3708 -0.2195
 7054SOL     OW32797   1.501   1.189   6.916 -0.0628  0.2504 -0.2923
 7054SOL    HW132798   1.442   1.115   6.903  1.7469 -1.2263 -0.1707
 7054SOL    HW232799   1.533   1.158   7.001 -1.8685 -2.3155 -0.5631
 7055SOL     OW32800   3.866   4.415   2.925 -0.1089  0.0079 -0.1323
 7055SOL    HW132801   3.927   4.348   2.956 -0.3311  0.3612  1.0759
 7055SOL    HW232802   3.918   4.490   2.954  0.9695 -0.8982  0.2992
 7056SOL     OW32803   2.944   1.070   8.822  0.3379 -0.4542  0.1729
 7056SOL    HW132804   2.861   1.026   8.841  0.1164  0.6175  1.7381
 7056SOL    HW232805   2.976   0.998   8.767 -1.6553 -2.2601  1.3534
 7057SOL     OW32806   3.045   3.974   2.717 -0.4401  0.1566  0.4004
 7057SOL    HW132807   2.964   3.967   2.667  0.7331 -0.5775 -1.3952
 7057SOL    HW232808   3.008   4.019   2.793 -0.9268  1.4724 -0.6098
 7058SOL     OW32809   3.282   0.761   6.039  0.2620 -0.3712  0.4560
 7058SOL    HW132810   3.326   0.847   6.043  1.5430 -1.0589  1.2076
 7058SOL    HW232811   3.215   0.773   5.972 -0.0685  5.3500  1.7957
 7059SOL     OW32812   4.495   4.334   3.697  0.1141 -0.2541  0.2582
 7059SOL    HW132813   4.453   4.342   3.783 -0.5528 -1.5846  0.0429
 7059SOL    HW232814   4.434   4.378   3.639  2.1403  2.5408  0.2481
 7060SOL     OW32815   2.093   3.161   9.662 -0.2357 -0.7403 -0.1842
 7060SOL    HW132816   2.155   3.180   9.732  1.0389 -0.4480 -1.4039
 7060SOL    HW232817   2.144   3.185   9.585  2.2586 -1.9891  1.0967
 7061SOL     OW32818   0.209   1.848  15.764 -0.2182  0.5645 -0.4606
 7061SOL    HW132819   0.132   1.844  15.821 -0.5666  0.9282 -0.8957
 7061SOL    HW232820   0.182   1.925  15.713 -1.1486 -0.0960 -0.9784
 7062SOL     OW32821   1.378   4.456   0.727  0.1022 -0.4352 -0.3270
 7062SOL    HW132822   1.347   4.401   0.655 -1.3798  1.1382 -0.8751
 7062SOL    HW232823   1.443   4.503   0.675  1.9550 -0.2286  2.1658
 7063SOL     OW32824   0.340   1.482  12.409  0.0713  0.1873  0.3150
 7063SOL    HW132825   0.423   1.529  12.399 -0.2923  0.7856  0.0814
 7063SOL    HW232826   0.367   1.411  12.467 -0.2379  1.4240  1.9810
 7064SOL     OW32827   2.315   0.258   7.508 -0.3982  0.1354 -0.0665
 7064SOL    HW132828   2.240   0.316   7.520 -1.0224 -1.1778  2.3810
 7064SOL    HW232829   2.286   0.173   7.542 -2.7026  0.9283 -0.0081
 7065SOL     OW32830   1.259   3.089  12.237  0.1100 -0.3181 -0.4729
 7065SOL    HW132831   1.234   3.118  12.325  2.7570 -0.0910  0.2024
 7065SOL    HW232832   1.207   3.136  12.173 -1.3113 -0.5951  0.4760
 7066SOL     OW32833   2.027   1.667   8.742  0.5439  0.0122  0.2859
 7066SOL    HW132834   1.991   1.655   8.830 -0.9758  1.1917 -0.1803
 7066SOL    HW232835   1.947   1.665   8.690 -0.3020  0.1582  1.5794
 7067SOL     OW32836   2.207   4.096   8.912 -0.1491  0.2234 -0.1572
 7067SOL    HW132837   2.165   4.128   8.992 -0.7434 -0.8763 -0.0386
 7067SOL    HW232838   2.175   4.150   8.840 -1.2376 -1.9735 -1.3084
 7068SOL     OW32839   3.739   2.884   9.034 -0.5362 -0.0646 -0.5012
 7068SOL    HW132840   3.762   2.800   8.994 -0.8103  0.4594 -1.7565
 7068SOL    HW232841   3.800   2.944   8.991 -1.7595  0.5048 -1.4532
 7069SOL     OW32842   1.371   4.301   7.456 -0.4127  0.1729 -0.1182
 7069SOL    HW132843   1.433   4.244   7.412  0.4562  0.4573  0.7473
 7069SOL    HW232844   1.300   4.239   7.477 -1.0162  0.4039 -1.4897
 7070SOL     OW32845   1.726   0.712  11.833 -0.3124  0.0374  0.2331
 7070SOL    HW132846   1.671   0.783  11.800  0.1789 -0.2137 -1.0949
 7070SOL    HW232847   1.674   0.688  11.910 -0.5170 -0.9162 -0.1990
 7071SOL     OW32848   4.484   4.383   9.838  0.2705  0.7443 -0.0092
 7071SOL    HW132849   4.403   4.357   9.793  1.0195  0.1769 -1.0430
 7071SOL    HW232850   4.455   4.457   9.890 -0.1046  1.8261 -1.7623
 7072SOL     OW32851   1.838   0.217   5.384 -0.0073  0.0641 -0.8803
 7072SOL    HW132852   1.880   0.254   5.306  0.2992 -1.1592 -1.2963
 7072SOL    HW232853   1.833   0.126   5.353 -0.8390 -0.4117  0.6689
 7073SOL     OW32854   3.269   3.349   4.084  0.8034 -0.2789 -0.5583
 7073SOL    HW132855   3.284   3.271   4.030 -1.5493 -1.1903  0.0830
 7073SOL    HW232856   3.272   3.311   4.172  0.4036  1.3123  0.1318
 7074SOL     OW32857   4.441   1.708   2.558  0.1385  0.7158  0.2676
 7074SOL    HW132858   4.510   1.727   2.621 -0.8612 -1.6138  2.0331
 7074SOL    HW232859   4.364   1.684   2.609 -1.1057  0.2974 -1.7921
 7075SOL     OW32860   3.159   4.344   1.094 -0.0577  0.2354 -0.0808
 7075SOL    HW132861   3.178   4.342   1.001 -0.6678  0.9595 -0.2215
 7075SOL    HW232862   3.224   4.284   1.132 -0.9175 -0.8267 -0.3028
 7076SOL     OW32863   2.701   3.524   5.474  0.2001 -0.6291 -0.7733
 7076SOL    HW132864   2.758   3.457   5.512 -0.8220 -0.3469  1.2557
 7076SOL    HW232865   2.667   3.485   5.394 -1.2523  0.4573 -0.6923
 7077SOL     OW32866   4.228   2.132   8.064  0.5983 -0.3419  0.3720
 7077SOL    HW132867   4.185   2.133   7.978  1.0152 -1.5234  0.1590
 7077SOL    HW232868   4.168   2.067   8.100  0.2332  0.2954  0.9280
 7078SOL     OW32869   2.751   0.412  11.769  0.6097 -0.2099 -0.2143
 7078SOL    HW132870   2.844   0.417  11.792  0.1687  2.1738  1.0574
 7078SOL    HW232871   2.711   0.363  11.841 -1.3340  0.7652 -0.6384
 7079SOL     OW32872   0.988   0.177   3.687 -0.1432 -0.4978  0.5828
 7079SOL    HW132873   0.955   0.122   3.758  0.9562  0.3763  1.7853
 7079SOL    HW232874   0.980   0.114   3.615  0.8328 -2.1969  1.9370
 7080SOL     OW32875   3.294   0.020   6.365  0.6305  0.3214  0.2708
 7080SOL    HW132876   3.202   0.002   6.343  0.4335  0.9026  0.6169
 7080SOL    HW232877   3.305   0.097   6.310 -2.8580  1.7204  1.5414
 7081SOL     OW32878   0.366   1.492   7.343 -0.5106  0.3567  0.1489
 7081SOL    HW132879   0.399   1.501   7.433 -0.9448  1.0971  0.2366
 7081SOL    HW232880   0.338   1.401   7.351  1.2475 -0.0548  1.7951
 7082SOL     OW32881   1.493   2.373  11.897 -0.3832  0.1022  0.3063
 7082SOL    HW132882   1.557   2.319  11.850 -0.8406 -0.2920  0.1372
 7082SOL    HW232883   1.459   2.421  11.822 -3.0283 -0.2773  1.2734
 7083SOL     OW32884   1.974   0.555   1.585 -0.1113 -0.0754 -0.5741
 7083SOL    HW132885   1.930   0.470   1.596  0.1893 -0.1250  0.2347
 7083SOL    HW232886   2.059   0.531   1.549 -0.1057  0.9166 -1.2194
 7084SOL     OW32887   3.432   2.130  12.879 -0.2163  0.2339 -0.3695
 7084SOL    HW132888   3.492   2.194  12.916  1.6096  0.1386 -3.1557
 7084SOL    HW232889   3.407   2.078  12.955  2.3548  0.4421  0.6153
 7085SOL     OW32890   2.669   0.285   5.568 -0.0875 -0.3943 -0.1134
 7085SOL    HW132891   2.699   0.323   5.650 -1.0105 -1.6206  0.7786
 7085SOL    HW232892   2.574   0.288   5.576 -0.0264 -1.3075  0.8925
 7086SOL     OW32893   4.445   0.408   4.717 -0.2727 -0.6826  0.1452
 7086SOL    HW132894   4.441   0.424   4.811 -1.4347  0.0231 -0.0188
 7086SOL    HW232895   4.437   0.313   4.719  4.0517 -1.0364 -0.3830
 7087SOL     OW32896   0.269   1.136   3.694 -0.2354  0.2378  0.4188
 7087SOL    HW132897   0.205   1.190   3.741 -1.0720  0.8817 -1.4592
 7087SOL    HW232898   0.210   1.084   3.639 -1.2384 -0.0938  1.8249
 7088SOL     OW32899   4.679   2.330   7.504 -0.4704  1.2481  0.4220
 7088SOL    HW132900   4.661   2.403   7.445  0.5629  1.5194  0.4434
 7088SOL    HW232901   4.611   2.270   7.475  1.1277 -0.4567  0.1967
 7089SOL     OW32902   1.499   1.216  11.802  0.4173  0.0994  0.0082
 7089SOL    HW132903   1.582   1.175  11.826  1.7584  1.9903 -1.4839
 7089SOL    HW232904   1.438   1.176  11.864 -1.3068 -0.8683 -2.2778
 7090SOL     OW32905   4.177   3.930  11.744 -0.4095 -0.0448 -0.3601
 7090SOL    HW132906   4.237   3.962  11.677 -1.0742  1.3605 -0.2896
 7090SOL    HW232907   4.194   3.998  11.810 -0.2129  0.3996 -0.8679
 7091SOL     OW32908   3.252   0.741   8.358 -0.1014  0.3243 -0.4250
 7091SOL    HW132909   3.166   0.706   8.379  0.1489 -1.1034 -1.7699
 7091SOL    HW232910   3.315   0.669   8.354 -1.5597 -0.9960  0.8296
 7092SOL     OW32911   2.761   2.588   2.597 -0.3844 -0.2421  0.2035
 7092SOL    HW132912   2.673   2.601   2.632  0.6426 -0.9259  3.0720
 7092SOL    HW232913   2.814   2.574   2.676  0.2906  2.2060  0.1708
 7093SOL     OW32914   0.415   4.301  15.686 -0.3052  0.1013 -0.0066
 7093SOL    HW132915   0.508   4.317  15.700 -0.5590  0.2047  1.4826
 7093SOL    HW232916   0.382   4.286  15.774 -0.9856 -0.9466 -0.4323
 7094SOL     OW32917   1.296   2.550   4.001 -0.3730  0.4802 -0.3480
 7094SOL    HW132918   1.204   2.575   3.987 -0.7289 -0.1649  0.8098
 7094SOL    HW232919   1.336   2.633   4.024  1.1722  0.0925 -1.6890
 7095SOL     OW32920   2.002   2.403  16.680  0.3367  0.1633 -0.1701
 7095SOL    HW132921   2.042   2.437  16.599 -0.5470  1.6442  0.0195
 7095SOL    HW232922   1.947   2.336  16.641 -1.0936  1.0554  0.3136
 7096SOL     OW32923   1.265   0.805  14.109 -0.3196  0.1307 -0.4517
 7096SOL    HW132924   1.198   0.869  14.136 -0.3575 -0.2441  0.3177
 7096SOL    HW232925   1.265   0.819  14.014 -0.6164 -0.1361 -0.4931
 7097SOL     OW32926   3.855   2.368   7.428 -0.3452  0.5460 -0.3976
 7097SOL    HW132927   3.774   2.416   7.447 -0.4561  0.1372  0.1828
 7097SOL    HW232928   3.914   2.412   7.489  0.5224 -0.3144 -0.6199
 7098SOL     OW32929   3.299   4.356   3.537 -0.4893 -0.6841  0.6526
 7098SOL    HW132930   3.229   4.407   3.576  0.3326 -0.6660  2.1012
 7098SOL    HW232931   3.352   4.332   3.613 -0.6973 -0.3708  0.8980
 7099SOL     OW32932   2.699   3.169   0.897 -0.1482  0.1760 -0.1166
 7099SOL    HW132933   2.660   3.160   0.810  1.5202 -0.3986 -0.7911
 7099SOL    HW232934   2.619   3.169   0.950  0.6989 -1.0691  1.1506
 7100SOL     OW32935   0.914   2.788   6.946 -0.1712  0.0624  0.1758
 7100SOL    HW132936   0.967   2.861   6.913 -1.3116  2.2630  3.2381
 7100SOL    HW232937   0.834   2.797   6.895  1.0148  0.6094 -1.5769
 7101SOL     OW32938   1.468   3.276   2.724  0.2236 -0.1748 -0.1203
 7101SOL    HW132939   1.528   3.340   2.763 -1.2854 -0.1412  2.2031
 7101SOL    HW232940   1.396   3.331   2.693  1.5268  1.0977 -0.9146
 7102SOL     OW32941   3.144   3.488   5.363  0.5127  0.2355  0.4590
 7102SOL    HW132942   3.225   3.443   5.337 -0.3770 -0.8497 -0.4557
 7102SOL    HW232943   3.094   3.498   5.282  1.3854 -0.0643 -0.1259
 7103SOL     OW32944   1.075   2.599   8.554 -0.0766  0.2661 -0.2420
 7103SOL    HW132945   1.160   2.569   8.585 -1.8804 -3.3900  1.0692
 7103SOL    HW232946   1.096   2.605   8.460 -0.6635  1.5253 -0.2920
 7104SOL     OW32947   0.786   0.073   1.817 -0.1133  0.0849  0.0176
 7104SOL    HW132948   0.865   0.031   1.783  1.6630  3.9183 -0.5915
 7104SOL    HW232949   0.773   0.024   1.898  0.9049 -0.1247  0.0488
 7105SOL     OW32950   1.330   3.004   1.879 -0.5693  0.3344 -0.7471
 7105SOL    HW132951   1.271   2.943   1.835  0.4608 -0.8826 -0.4366
 7105SOL    HW232952   1.382   3.028   1.802  0.4375 -1.4956 -0.6335
 7106SOL     OW32953   0.608   0.078   1.312 -0.2092 -0.1633  0.2428
 7106SOL    HW132954   0.585   0.142   1.380 -1.6285 -0.5192  0.0844
 7106SOL    HW232955   0.585   0.131   1.237 -0.1136 -0.6965 -0.1633
 7107SOL     OW32956   1.043   1.396  15.438 -0.0499  0.0635  0.2671
 7107SOL    HW132957   1.019   1.433  15.353  0.3498 -2.5856 -1.0083
 7107SOL    HW232958   0.954   1.397  15.474  0.8488 -1.2949  2.5444
 7108SOL     OW32959   4.287   2.528   8.133 -0.5915 -0.3285 -0.0057
 7108SOL    HW132960   4.356   2.462   8.132 -0.9116 -0.6117 -2.7872
 7108SOL    HW232961   4.244   2.520   8.048  0.3353  2.0925 -0.7179
 7109SOL     OW32962   4.134   3.554  11.668  0.2585 -0.3700  0.0885
 7109SOL    HW132963   4.169   3.500  11.739 -1.8076 -0.9497  0.6569
 7109SOL    HW232964   4.074   3.606  11.721  0.2714  0.5682 -0.8257
 7110SOL     OW32965   3.185   0.821   1.507 -0.1812 -0.1631  0.4998
 7110SOL    HW132966   3.124   0.783   1.444  0.1794  0.1816 -0.0512
 7110SOL    HW232967   3.117   0.854   1.566 -1.1899  0.1915 -0.8723
 7111SOL     OW32968   3.952   1.715   2.314  0.5554 -0.8308 -0.0760
 7111SOL    HW132969   3.920   1.790   2.265 -1.6636 -2.1176 -0.6317
 7111SOL    HW232970   3.912   1.642   2.266 -1.9266 -0.7720  1.8634
 7112SOL     OW32971   1.088   3.065   7.027 -0.4319  0.0025  0.1362
 7112SOL    HW132972   1.149   3.106   7.089  0.9302 -1.6239 -0.1026
 7112SOL    HW232973   1.006   3.071   7.075  0.6967  0.3312  2.0515
 7113SOL     OW32974   2.462   3.673   4.421  0.6715  0.0549  0.2741
 7113SOL    HW132975   2.438   3.763   4.400  0.4805 -0.1149 -0.2402
 7113SOL    HW232976   2.543   3.676   4.472  0.6150  1.2831  0.2881
 7114SOL     OW32977   0.637   4.320   2.287 -0.4633  0.1255 -0.1778
 7114SOL    HW132978   0.640   4.228   2.261  0.4079  0.3735 -0.9641
 7114SOL    HW232979   0.697   4.337   2.360  1.1686  0.1789 -1.5169
 7115SOL     OW32980   1.270   0.927  12.600 -0.5525 -0.4426 -0.2701
 7115SOL    HW132981   1.199   0.907  12.661 -2.3089 -0.9091 -2.4687
 7115SOL    HW232982   1.236   0.877  12.526 -3.2810  1.3012 -0.1935
 7116SOL     OW32983   2.463   2.339   2.878  0.4171  1.1011 -0.2025
 7116SOL    HW132984   2.486   2.254   2.839 -1.9016 -0.2493  1.3635
 7116SOL    HW232985   2.397   2.366   2.814 -0.8075 -1.8425 -0.1924
 7117SOL     OW32986   3.050   0.295   2.497  0.2732 -0.7228  0.0775
 7117SOL    HW132987   3.075   0.385   2.516 -0.5336 -0.0654 -1.9671
 7117SOL    HW232988   2.973   0.301   2.553  0.8849  1.2996  0.7127
 7118SOL     OW32989   0.096   0.771   5.383 -0.8423 -0.1631  0.0088
 7118SOL    HW132990   0.161   0.799   5.447 -1.0909  0.7482 -0.1311
 7118SOL    HW232991   0.150   0.748   5.307  1.0387  0.3994  1.1882
 7119SOL     OW32992   3.042   1.370   8.290 -0.1782 -0.7089 -0.3197
 7119SOL    HW132993   3.031   1.395   8.199 -2.7491  0.0985  0.2153
 7119SOL    HW232994   2.962   1.407   8.327  0.1001  0.7864 -1.2374
 7120SOL     OW32995   3.320   2.337   3.535 -0.3738 -0.2347 -0.5434
 7120SOL    HW132996   3.387   2.318   3.470 -0.8392 -0.1283 -1.0599
 7120SOL    HW232997   3.376   2.342   3.612 -1.6389 -0.2224  0.3722
 7121SOL     OW32998   3.833   0.879   5.602 -0.4325  1.1765  0.3993
 7121SOL    HW132999   3.888   0.908   5.675  1.7414 -1.3071 -0.2357
 7121SOL    HW233000   3.757   0.843   5.648  2.4238 -1.7821  2.7970
 7122SOL     OW33001   0.117   1.417  16.791 -0.2963 -0.1853  0.2059
 7122SOL    HW133002   0.134   1.471  16.714  0.5849 -0.7841 -0.0239
 7122SOL    HW233003   0.097   1.481  16.858  0.3728  0.7362 -0.4795
 7123SOL     OW33004   1.819   3.474  17.538  0.0530 -0.6087 -0.3569
 7123SOL    HW133005   1.906   3.441  17.518  0.7650  1.4829 -0.7078
 7123SOL    HW233006   1.803   3.403  17.600 -0.8237 -0.9332 -0.9445
 7124SOL     OW33007   4.605   4.175   4.039 -0.0300  0.2958  0.2947
 7124SOL    HW133008   4.542   4.216   4.098  1.6799  0.6904  1.8082
 7124SOL    HW233009   4.685   4.179   4.091 -0.1830 -0.7349  0.6035
 7125SOL     OW33010   2.445   1.893   3.589 -0.0692 -0.0442  0.1572
 7125SOL    HW133011   2.463   1.805   3.621 -0.2381  0.5816  1.9954
 7125SOL    HW233012   2.367   1.920   3.638 -0.6041 -2.8926  0.8692
 7126SOL     OW33013   1.172   4.193   7.948  0.2063  0.0284 -0.9337
 7126SOL    HW133014   1.131   4.170   8.032 -1.0812  1.7049 -1.1271
 7126SOL    HW233015   1.257   4.149   7.958 -0.1631 -0.1904  1.3713
 7127SOL     OW33016   0.808   0.552   3.415  0.4322 -0.0318  0.1996
 7127SOL    HW133017   0.763   0.469   3.433 -0.8031  0.2727 -1.4996
 7127SOL    HW233018   0.787   0.616   3.482 -0.6162 -0.3685  0.1895
 7128SOL     OW33019   3.398   1.761   9.545  0.1499  0.2852  0.0584
 7128SOL    HW133020   3.444   1.681   9.571 -2.4734 -1.6019 -1.2483
 7128SOL    HW233021   3.459   1.835   9.552  1.7856 -1.1573  0.9795
 7129SOL     OW33022   1.533   2.421  15.688  0.1154 -0.1728 -0.5247
 7129SOL    HW133023   1.469   2.432  15.618  0.7926  0.8868 -0.9773
 7129SOL    HW233024   1.526   2.503  15.738  1.0561 -0.9459  0.8953
 7130SOL     OW33025   2.147   1.896   8.831 -0.3151  0.2326  0.7163
 7130SOL    HW133026   2.127   1.817   8.781  0.6709 -1.9410  3.7305
 7130SOL    HW233027   2.155   1.868   8.923 -1.3693  1.7682  1.2741
 7131SOL     OW33028   1.540   1.417   3.812  0.3000 -0.1815  0.3861
 7131SOL    HW133029   1.591   1.475   3.868  0.0287 -0.1377  0.5930
 7131SOL    HW233030   1.538   1.470   3.733  1.1612 -0.8281 -0.0598
 7132SOL     OW33031   4.631   1.362   5.980  0.6133 -0.4306  0.0239
 7132SOL    HW133032   4.554   1.414   5.959 -0.4397 -1.8135  0.4559
 7132SOL    HW233033   4.636   1.313   5.897  2.5340  1.1825 -0.8336
 7133SOL     OW33034   1.525   3.040   7.753 -0.6483  0.0047 -0.6803
 7133SOL    HW133035   1.616   3.047   7.725 -0.4327  1.2117  0.3206
 7133SOL    HW233036   1.544   3.030   7.846  0.6737 -1.8113 -1.1363
 7134SOL     OW33037   0.426   2.065   9.708  0.7291  0.3106  0.4917
 7134SOL    HW133038   0.487   2.105   9.646  0.7733 -0.8418 -0.2050
 7134SOL    HW233039   0.444   1.972   9.693 -0.1466  0.0972  0.7917
 7135SOL     OW33040   1.692   2.513   4.779 -0.5265  0.3664  0.1560
 7135SOL    HW133041   1.615   2.569   4.785  0.5010  1.7738  0.3616
 7135SOL    HW233042   1.756   2.583   4.767 -1.3643  0.8318 -1.7381
 7136SOL     OW33043   3.450   3.848  16.113  0.3240 -0.2061  0.0561
 7136SOL    HW133044   3.500   3.894  16.046 -2.0706  2.8575  0.3719
 7136SOL    HW233045   3.363   3.889  16.112 -0.1971 -1.2942  0.8051
 7137SOL     OW33046   3.761   3.758   9.430 -0.0180 -0.2700  0.4973
 7137SOL    HW133047   3.722   3.671   9.438  1.7597 -1.1506 -0.6925
 7137SOL    HW233048   3.774   3.777   9.523  0.3333  1.1412  0.1607
 7138SOL     OW33049   2.066   0.755   0.710  0.3949 -0.0311  0.0989
 7138SOL    HW133050   2.062   0.704   0.630  0.0325  0.3566 -0.1301
 7138SOL    HW233051   2.010   0.830   0.691 -0.8306 -0.8780  0.4332
 7139SOL     OW33052   4.247   1.033   5.457 -0.5025 -0.1742  0.4282
 7139SOL    HW133053   4.325   1.074   5.419 -0.9558 -0.9598 -1.3809
 7139SOL    HW233054   4.271   0.940   5.451  2.0820  0.3676  2.4020
 7140SOL     OW33055   4.177   0.183  16.739 -0.3233  0.0821 -0.0317
 7140SOL    HW133056   4.176   0.248  16.669 -1.6444 -0.5019 -0.5638
 7140SOL    HW233057   4.081   0.180  16.751 -0.2486 -1.2768  0.2229
 7141SOL     OW33058   3.324   0.016   8.454 -0.4501  0.1077  1.4934
 7141SOL    HW133059   3.391   4.691   8.423  0.5374  0.5699  2.7058
 7141SOL    HW233060   3.370   0.100   8.444  1.9681 -1.2357  1.3363
 7142SOL     OW33061   0.460   3.467   4.614 -0.3674 -0.5780 -0.4200
 7142SOL    HW133062   0.401   3.472   4.538  0.5063  0.1937 -1.0532
 7142SOL    HW233063   0.434   3.385   4.656 -0.3012 -0.2995  0.1611
 7143SOL     OW33064   2.822   0.971   6.684 -0.1079 -0.3782 -0.3535
 7143SOL    HW133065   2.835   1.013   6.769  0.8380 -0.5852 -0.4048
 7143SOL    HW233066   2.863   0.888   6.708  2.2479  0.1343 -2.5707
 7144SOL     OW33067   4.320   2.433  15.516 -0.1673 -0.1436 -0.0329
 7144SOL    HW133068   4.368   2.459  15.438  0.9822  1.2333  1.1391
 7144SOL    HW233069   4.237   2.480  15.525 -0.1125 -0.1728  0.7014
 7145SOL     OW33070   3.042   3.435  14.695 -0.0617 -0.0672 -0.0329
 7145SOL    HW133071   3.073   3.377  14.765  0.3356  2.3604  1.8113
 7145SOL    HW233072   2.964   3.471  14.736  0.7926  1.6627  0.0841
 7146SOL     OW33073   1.958   2.691   4.340 -0.4536 -0.5742 -0.1935
 7146SOL    HW133074   1.927   2.620   4.396  1.9851 -1.7762 -0.3889
 7146SOL    HW233075   1.881   2.726   4.295 -0.1408  1.2843  0.7424
 7147SOL     OW33076   2.676   3.525  13.465  0.0782  0.6699  0.5129
 7147SOL    HW133077   2.712   3.436  13.475 -1.8735 -0.0208  1.3643
 7147SOL    HW233078   2.621   3.521  13.387  2.2041  0.8800 -0.9782
 7148SOL     OW33079   4.089   0.642   7.805 -0.0092  0.0338 -0.1940
 7148SOL    HW133080   4.131   0.651   7.891  2.4209 -0.5522 -1.3211
 7148SOL    HW233081   4.158   0.678   7.750  2.1291  1.0269  3.1672
 7149SOL     OW33082   0.748   0.347   3.800 -0.4424  0.1949 -0.3102
 7149SOL    HW133083   0.787   0.312   3.720  0.4079  1.2271 -0.3362
 7149SOL    HW233084   0.653   0.349   3.784 -0.1664 -0.5039 -2.0468
 7150SOL     OW33085   3.684   3.999   4.345  1.2679 -0.1183  0.6422
 7150SOL    HW133086   3.690   3.906   4.326  1.6037  0.2677 -1.1587
 7150SOL    HW233087   3.617   4.000   4.414  0.8020 -0.9404  0.1979
 7151SOL     OW33088   3.238   3.655   8.255  0.1460  0.3849  0.1420
 7151SOL    HW133089   3.196   3.645   8.170  2.3601 -0.0576 -0.9153
 7151SOL    HW233090   3.220   3.572   8.300 -0.7947  0.6595  0.2652
 7152SOL     OW33091   2.224   0.715   7.092  0.3562 -0.0121 -0.0162
 7152SOL    HW133092   2.287   0.778   7.128  0.8932 -1.3162  1.3282
 7152SOL    HW233093   2.304   0.676   7.055  1.4287  1.4207  0.7547
 7153SOL     OW33094   3.080   0.938   5.068  0.4422 -0.3611  0.0091
 7153SOL    HW133095   3.013   1.006   5.063 -1.1921 -1.8429  2.0884
 7153SOL    HW233096   3.135   0.962   4.993  1.0586 -0.6268  0.3746
 7154SOL     OW33097   3.265   1.081   6.274  0.2136 -0.5551 -0.0100
 7154SOL    HW133098   3.283   1.090   6.367  3.4983 -2.9245 -0.4112
 7154SOL    HW233099   3.349   1.091   6.231 -0.2734  1.0864 -0.5763
 7155SOL     OW33100   2.276   0.266   1.179  0.0035  0.3734  0.5199
 7155SOL    HW133101   2.322   0.182   1.170  0.8200  0.7127  1.4945
 7155SOL    HW233102   2.235   0.274   1.093  0.4808 -0.5803  0.1972
 7156SOL     OW33103   1.818   3.447   5.624  0.4199  0.0743 -0.1010
 7156SOL    HW133104   1.751   3.386   5.594 -0.3290  0.7464  0.2314
 7156SOL    HW233105   1.777   3.495   5.696 -1.8292 -3.2860  0.8609
 7157SOL     OW33106   3.789   1.948   4.309 -0.5596  0.2411 -0.4726
 7157SOL    HW133107   3.718   2.001   4.346 -2.3842 -1.8772 -0.9848
 7157SOL    HW233108   3.738   1.875   4.273 -0.6651  0.3185 -0.4811
 7158SOL     OW33109   3.135   3.301   8.126  0.2909  0.0691  0.0087
 7158SOL    HW133110   3.050   3.278   8.089 -0.1885  2.0932 -0.1626
 7158SOL    HW233111   3.155   3.220   8.172 -0.6096  0.6326  1.4101
 7159SOL     OW33112   2.773   2.171   9.434  0.1321 -0.7118 -0.0443
 7159SOL    HW133113   2.828   2.117   9.378 -0.6186 -0.2186 -1.2534
 7159SOL    HW233114   2.844   2.229   9.461 -0.8436  1.7818 -2.8925
 7160SOL     OW33115   3.820   1.078   6.721 -0.1943 -0.1905 -0.6348
 7160SOL    HW133116   3.745   1.104   6.668  1.2339  2.2625 -1.4542
 7160SOL    HW233117   3.770   1.082   6.803  1.0745 -0.9718  0.1901
 7161SOL     OW33118   0.253   0.962   8.251 -0.0643  0.2640  0.0449
 7161SOL    HW133119   0.237   1.045   8.208  1.9454  0.1846 -0.8612
 7161SOL    HW233120   0.208   0.906   8.188 -0.6369  0.5139  0.2317
 7162SOL     OW33121   1.690   4.651   4.212  0.0079  0.2805 -0.3369
 7162SOL    HW133122   1.595   4.647   4.216 -0.0543  0.5407 -1.4304
 7162SOL    HW233123   1.722   4.706   4.283 -0.2407 -0.1498  0.1051
 7163SOL     OW33124   3.785   2.085   6.457 -0.2998 -0.0307  0.2380
 7163SOL    HW133125   3.879   2.097   6.447 -0.3150  0.5395  0.7555
 7163SOL    HW233126   3.775   2.103   6.551  1.4877  1.7948  0.0652
 7164SOL     OW33127   0.711   0.521  17.394  0.5778 -0.0679  0.3135
 7164SOL    HW133128   0.759   0.457  17.341 -0.9657  2.7344 -4.4875
 7164SOL    HW233129   0.652   0.546  17.322 -0.0022 -1.1058  0.4185
 7165SOL     OW33130   4.439   2.700   1.806  0.2733  0.2894  0.3344
 7165SOL    HW133131   4.485   2.666   1.883  0.0748  1.5930  1.0201
 7165SOL    HW233132   4.502   2.688   1.735 -0.6060  0.2720 -0.4469
 7166SOL     OW33133   3.878   4.570   7.799  0.0137  0.0229 -1.0885
 7166SOL    HW133134   3.936   4.512   7.847 -0.7185 -1.6025 -2.1566
 7166SOL    HW233135   3.795   4.523   7.797  0.5337 -1.0213  2.4833
 7167SOL     OW33136   1.370   4.683   3.263 -0.1476 -0.3266 -0.2271
 7167SOL    HW133137   1.403   4.673   3.174  0.7061 -1.2178  0.1922
 7167SOL    HW233138   1.336   0.037   3.267  0.1947 -0.2161  0.2500
 7168SOL     OW33139   1.631   1.918   5.641 -0.5720 -0.7124 -0.2881
 7168SOL    HW133140   1.635   1.867   5.722 -1.4422 -0.1389  0.1037
 7168SOL    HW233141   1.712   1.968   5.648 -0.9058 -0.4645  1.6586
 7169SOL     OW33142   2.633   2.959  17.163 -0.3292 -0.2786 -0.1733
 7169SOL    HW133143   2.717   2.931  17.126  1.1649  0.6695  2.5501
 7169SOL    HW233144   2.666   3.018  17.230  0.1119 -1.2106  0.4343
 7170SOL     OW33145   2.014   1.269   3.104 -0.0544 -0.1562  0.5862
 7170SOL    HW133146   1.983   1.333   3.167  1.6212 -0.4340  1.6954
 7170SOL    HW233147   1.933   1.241   3.062  0.0983 -0.4470  0.4840
 7171SOL     OW33148   0.577   1.349   5.008  0.1904  0.3240 -0.8244
 7171SOL    HW133149   0.663   1.328   5.043  0.0953  0.9487 -0.2155
 7171SOL    HW233150   0.597   1.432   4.964  1.3078  1.2045  1.3770
 7172SOL     OW33151   2.373   1.913  10.198 -0.4271 -0.3728 -0.1767
 7172SOL    HW133152   2.444   1.941  10.140 -0.5348 -0.4095 -0.3271
 7172SOL    HW233153   2.393   1.822  10.220  0.3849  0.4488  2.4446
 7173SOL     OW33154   4.630   3.504   1.235  0.5127 -0.2585 -0.3331
 7173SOL    HW133155   4.700   3.487   1.173  1.1826  0.9673  0.0860
 7173SOL    HW233156   4.682   3.514   1.315 -1.7265  0.8852  1.0014
 7174SOL     OW33157   1.485   2.302  15.311 -0.0049  0.2400  0.2073
 7174SOL    HW133158   1.450   2.218  15.341 -0.6655  0.5773  0.3651
 7174SOL    HW233159   1.571   2.307  15.354 -0.3068  0.0420  0.8236
 7175SOL     OW33160   2.439   4.474  17.586  0.2882  0.0821 -0.0924
 7175SOL    HW133161   2.413   4.444  17.499  1.5191 -1.2633  0.0048
 7175SOL    HW233162   2.463   4.387  17.616  1.9187  0.0569 -1.4541
 7176SOL     OW33163   2.046   1.195  16.160 -0.1392 -0.4776 -0.2399
 7176SOL    HW133164   1.984   1.140  16.208  0.8640  0.9562  2.6493
 7176SOL    HW233165   2.056   1.147  16.077 -1.9362 -2.0881  0.4780
 7177SOL     OW33166   3.451   0.089   7.620  0.0815 -0.0132 -0.4769
 7177SOL    HW133167   3.471   0.174   7.661  0.9080  1.1572 -3.2817
 7177SOL    HW233168   3.538   0.062   7.590  0.9723 -0.5615  2.6184
 7178SOL     OW33169   3.507   0.161   4.529 -0.0293  0.1177  0.0503
 7178SOL    HW133170   3.460   0.084   4.497  0.1141  1.2024 -2.8001
 7178SOL    HW233171   3.433   0.221   4.530  0.6110  0.9266 -1.5391
 7179SOL     OW33172   3.333   1.898  16.830  0.4668 -0.2648 -0.4884
 7179SOL    HW133173   3.252   1.945  16.846  0.4306 -0.5193  0.0724
 7179SOL    HW233174   3.298   1.809  16.830  0.0800 -0.1133 -0.7395
 7180SOL     OW33175   0.290   0.541   5.991 -0.4247  0.3034 -0.0224
 7180SOL    HW133176   0.230   0.616   5.990 -1.1582 -0.3026 -0.7440
 7180SOL    HW233177   0.299   0.533   6.086 -1.5782 -0.1376  0.0453
 7181SOL     OW33178   0.331   3.409   5.596 -0.3001  0.0113  0.3174
 7181SOL    HW133179   0.330   3.478   5.662  1.9473  1.1439 -0.8171
 7181SOL    HW233180   0.330   3.457   5.514 -0.7469 -1.8829 -0.7879
 7182SOL     OW33181   2.504   1.990   0.204 -0.1500  0.3546 -0.1147
 7182SOL    HW133182   2.458   2.064   0.164 -0.0597  1.9803  2.7897
 7182SOL    HW233183   2.457   1.985   0.287 -1.3359  1.4640 -0.7143
 7183SOL     OW33184   4.407   0.131   5.109 -0.0138 -0.4939 -0.4580
 7183SOL    HW133185   4.435   0.180   5.187  2.4419 -0.8683 -1.0878
 7183SOL    HW233186   4.425   0.194   5.040 -1.2958  0.7899  0.3744
 7184SOL     OW33187   1.780   0.116   4.426  0.1944 -0.4433  0.4747
 7184SOL    HW133188   1.761   0.034   4.472 -2.8193 -0.6020 -0.9957
 7184SOL    HW233189   1.766   0.177   4.498  0.6147 -0.2709  0.4102
 7185SOL     OW33190   1.476   0.526   1.717 -0.1598  0.4813  0.0795
 7185SOL    HW133191   1.446   0.436   1.729 -2.4666  1.0409 -1.4910
 7185SOL    HW233192   1.561   0.508   1.675  1.6894  3.6822  2.5052
 7186SOL     OW33193   3.359   3.984  12.973 -0.0048 -0.6562 -0.0615
 7186SOL    HW133194   3.289   3.928  12.939 -1.1047 -0.4476  1.8665
 7186SOL    HW233195   3.343   4.070  12.935  0.0937  0.2896  2.0751
 7187SOL     OW33196   1.880   0.719   3.354  0.3666 -0.0409  0.2443
 7187SOL    HW133197   1.887   0.813   3.367 -0.3943  0.2078 -1.1730
 7187SOL    HW233198   1.890   0.713   3.259 -1.2801  2.5636 -0.0808
 7188SOL     OW33199   2.192   3.969  11.909 -0.2861  0.0966 -0.5665
 7188SOL    HW133200   2.163   3.901  11.971  2.2923  0.0790  0.6105
 7188SOL    HW233201   2.112   4.019  11.897 -0.7287 -1.2073 -3.0977
 7189SOL     OW33202   3.089   0.901  13.293  0.4321 -0.0297 -0.5126
 7189SOL    HW133203   3.036   0.833  13.252 -1.4575  0.5465  0.9285
 7189SOL    HW233204   3.028   0.917  13.366  1.9579  0.1623  0.7206
 7190SOL     OW33205   1.433   2.225  13.413 -0.2763 -0.4544 -0.3762
 7190SOL    HW133206   1.388   2.309  13.424  0.5716 -0.1540  0.7659
 7190SOL    HW233207   1.372   2.159  13.445 -0.2308 -1.3390 -2.1141
 7191SOL     OW33208   4.544   0.646   6.034 -0.6699 -0.5454  0.2063
 7191SOL    HW133209   4.571   0.704   6.105  0.3786  0.3986 -0.9625
 7191SOL    HW233210   4.563   0.696   5.955 -2.8541 -0.8519 -0.5191
 7192SOL     OW33211   1.142   0.495   2.472  0.4230  0.4163  0.6601
 7192SOL    HW133212   1.143   0.424   2.536 -0.0513 -0.4730 -0.3227
 7192SOL    HW233213   1.211   0.469   2.412 -0.4172 -0.2223 -0.0237
 7193SOL     OW33214   2.287   2.713   9.679 -0.3216  0.5400 -0.1674
 7193SOL    HW133215   2.196   2.690   9.696  0.1040  0.0241  1.4381
 7193SOL    HW233216   2.329   2.641   9.632 -2.8665 -0.9970 -0.0420
 7194SOL     OW33217   1.683   0.644   4.155 -0.4511  0.3484  0.3874
 7194SOL    HW133218   1.685   0.713   4.090  0.0485  0.5312  0.6005
 7194SOL    HW233219   1.749   0.587   4.117 -2.4845 -1.5628 -0.2892
 7195SOL     OW33220   1.139   3.414   6.207 -0.0847  0.1076 -0.2235
 7195SOL    HW133221   1.223   3.407   6.252  1.2763 -3.5279 -3.2782
 7195SOL    HW233222   1.127   3.507   6.224 -0.2906 -0.0394  0.4685
 7196SOL     OW33223   0.863   1.514  11.393 -0.0482  0.1607 -0.4901
 7196SOL    HW133224   0.771   1.539  11.402  0.5441  1.6337  1.4227
 7196SOL    HW233225   0.902   1.550  11.472 -0.7786  1.6730 -0.8188
 7197SOL     OW33226   2.903   0.397  13.574 -0.0882  0.0313  0.2368
 7197SOL    HW133227   2.856   0.318  13.601  0.4274 -0.2699  0.2497
 7197SOL    HW233228   2.951   0.418  13.653 -0.0530  1.5814 -0.1993
 7198SOL     OW33229   1.628   1.082   0.256 -0.0650  0.4688  0.0297
 7198SOL    HW133230   1.635   0.987   0.247  0.4519  0.2751  2.4858
 7198SOL    HW233231   1.688   1.097   0.329  1.8798  0.4583 -1.5655
 7199SOL     OW33232   3.466   3.985   2.708  0.3136  0.1120 -0.5941
 7199SOL    HW133233   3.529   3.925   2.669 -0.0498 -0.6902  0.0364
 7199SOL    HW233234   3.473   4.053   2.642  1.0730 -0.9344 -1.5812
 7200SOL     OW33235   4.539   1.756  17.464 -0.5796 -0.0132 -0.2649
 7200SOL    HW133236   4.605   1.786  17.403 -0.2383 -1.4908 -0.6382
 7200SOL    HW233237   4.508   1.842  17.491 -0.3904  0.1609 -0.6085
 7201SOL     OW33238   1.184   0.529   6.329  0.1186 -0.2332 -0.5361
 7201SOL    HW133239   1.104   0.574   6.300 -0.0123 -0.6801 -0.8759
 7201SOL    HW233240   1.201   0.473   6.253 -0.3384 -0.3143 -0.5821
 7202SOL     OW33241   3.955   3.987   7.544  0.3575  0.5884 -0.2789
 7202SOL    HW133242   3.967   3.893   7.548 -1.1295  0.5181  2.3064
 7202SOL    HW233243   4.012   4.011   7.471  1.7324  2.6543  1.4552
 7203SOL     OW33244   1.998   1.111  12.167 -0.3789 -0.1398  0.0495
 7203SOL    HW133245   1.966   1.124  12.078 -0.3555  0.5337  0.1433
 7203SOL    HW233246   1.935   1.169  12.210 -0.8882 -0.7935  0.1945
 7204SOL     OW33247   0.708   0.131   3.207  0.4170 -0.1727 -0.3599
 7204SOL    HW133248   0.666   0.045   3.212  0.0306 -0.2042 -3.9385
 7204SOL    HW233249   0.639   0.178   3.160 -0.1691 -0.6522  0.0246
 7205SOL     OW33250   1.479   2.730   7.983  0.5706 -0.3230  0.1408
 7205SOL    HW133251   1.522   2.646   8.000  0.5936 -0.4436 -0.4835
 7205SOL    HW233252   1.435   2.706   7.901 -4.4451  1.5393  2.3307
 7206SOL     OW33253   3.507   3.000   5.173  0.5451  0.3587 -0.1946
 7206SOL    HW133254   3.567   3.067   5.142  0.3708 -0.1739 -1.6577
 7206SOL    HW233255   3.528   2.934   5.108  1.1792  0.3215  0.0513
 7207SOL     OW33256   2.630   1.296  12.854 -0.4992 -0.2255  0.3648
 7207SOL    HW133257   2.658   1.376  12.810 -1.3995  0.1458  0.4692
 7207SOL    HW233258   2.678   1.293  12.936  3.1378  0.8264 -1.7465
 7208SOL     OW33259   2.401   2.941   9.075  0.1800 -0.3153  0.4379
 7208SOL    HW133260   2.320   2.890   9.080  0.5108 -0.7663  1.0964
 7208SOL    HW233261   2.373   3.032   9.085  0.9872 -0.0555  0.3348
 7209SOL     OW33262   1.007   4.137  16.039 -0.1414 -0.3682  0.8341
 7209SOL    HW133263   1.031   4.198  15.969 -2.7150  2.3080  2.2884
 7209SOL    HW233264   1.034   4.183  16.119  2.0581 -1.5867  0.8155
 7210SOL     OW33265   3.893   1.078   5.423  0.3404 -0.3307  0.1188
 7210SOL    HW133266   3.943   1.105   5.500 -2.1594  1.6903  0.9885
 7210SOL    HW233267   3.861   0.992   5.450 -0.6704 -0.1932 -0.6500
 7211SOL     OW33268   3.418   4.634  10.094 -0.3327 -0.3119  0.1629
 7211SOL    HW133269   3.508   4.603  10.100 -0.9153 -1.8628  0.9051
 7211SOL    HW233270   3.421   4.696  10.166 -2.5384  0.4980 -0.4474
 7212SOL     OW33271   2.177   3.115   8.189 -0.1711 -0.5599 -0.0717
 7212SOL    HW133272   2.188   3.044   8.125  4.2157  0.9206 -1.0141
 7212SOL    HW233273   2.152   3.183   8.127 -1.1536 -1.1962 -0.3637
 7213SOL     OW33274   3.540   4.274   6.248 -0.2306  0.4491 -0.3613
 7213SOL    HW133275   3.579   4.323   6.175  1.8168 -0.5294  0.0951
 7213SOL    HW233276   3.453   4.315   6.253 -0.7738 -0.5991 -1.1228
 7214SOL     OW33277   2.064   0.173   3.531 -0.3605  0.0502  0.7842
 7214SOL    HW133278   1.977   0.173   3.491 -0.1566  2.7079  0.3161
 7214SOL    HW233279   2.109   0.245   3.486  1.0049 -1.1089  0.3272
 7215SOL     OW33280   3.271   3.709  15.500  0.3536  0.4826 -0.0460
 7215SOL    HW133281   3.184   3.733  15.532  0.2442  0.0237 -0.0044
 7215SOL    HW233282   3.298   3.789  15.454  2.9109 -0.7005 -0.5655
 7216SOL     OW33283   3.295   0.964   8.690  0.4967  0.1543  0.0759
 7216SOL    HW133284   3.212   0.917   8.699  1.3490 -1.4939 -0.7185
 7216SOL    HW233285   3.261   1.047   8.655  0.2468  0.4848  1.0805
 7217SOL     OW33286   0.983   0.505   6.751  0.1477  0.4405  0.4171
 7217SOL    HW133287   0.945   0.462   6.675  0.4291  0.7295  0.1183
 7217SOL    HW233288   0.974   0.598   6.732  0.9570  0.4049 -0.1139
 7218SOL     OW33289   4.394   2.977   5.065 -0.5846 -0.4961  0.4443
 7218SOL    HW133290   4.471   2.980   5.122  1.1065  0.5159 -1.8904
 7218SOL    HW233291   4.368   3.069   5.062 -0.8773 -0.5765  0.5318
 7219SOL     OW33292   0.135   2.256   4.221  0.2476  0.0181 -0.3503
 7219SOL    HW133293   0.143   2.336   4.169 -0.9368 -0.6043 -1.4815
 7219SOL    HW233294   0.049   2.222   4.199  0.8145  0.0918 -2.6260
 7220SOL     OW33295   4.427   4.469   4.444 -0.2500  0.2179 -0.0385
 7220SOL    HW133296   4.350   4.448   4.498 -0.7457  0.1283 -0.7779
 7220SOL    HW233297   4.435   4.565   4.446 -0.5770  0.2199  1.1740
 7221SOL     OW33298   4.225   0.862   6.068  0.0532 -0.0594  0.3374
 7221SOL    HW133299   4.267   0.900   6.146  0.2909  0.0546  0.1535
 7221SOL    HW233300   4.188   0.944   6.036  1.8222 -0.0404 -1.6278
 7222SOL     OW33301   3.854   0.464  12.086  0.9303  0.5390 -0.1018
 7222SOL    HW133302   3.868   0.444  12.179 -0.8592 -0.9707 -0.1635
 7222SOL    HW233303   3.870   0.558  12.087  2.7916  0.2327  0.9710
 7223SOL     OW33304   0.896   3.352   6.399 -0.0568 -0.8651 -0.2656
 7223SOL    HW133305   0.985   3.321   6.380 -0.2045 -3.0341  2.5714
 7223SOL    HW233306   0.893   3.421   6.332  0.4340 -1.2807 -0.7234
 7224SOL     OW33307   3.130   3.303   2.067 -0.2631 -0.0627 -0.8332
 7224SOL    HW133308   3.050   3.267   2.029  0.1409 -0.3494 -1.4195
 7224SOL    HW233309   3.163   3.220   2.102 -2.5830 -1.1514 -1.2489
 7225SOL     OW33310   1.414   3.044   2.837  0.2654  0.3739 -0.6086
 7225SOL    HW133311   1.437   3.127   2.794 -2.6369  0.4838 -1.9750
 7225SOL    HW233312   1.405   2.992   2.757  1.9202  0.2253 -0.6903
 7226SOL     OW33313   2.496   3.085  14.609  0.7573  0.0241  0.1747
 7226SOL    HW133314   2.540   3.008  14.572  2.0040  0.5936  0.4802
 7226SOL    HW233315   2.527   3.076  14.699 -2.5063 -1.7708  1.1080
 7227SOL     OW33316   1.023   1.078   5.913  0.1576  0.5206 -0.0197
 7227SOL    HW133317   0.991   1.118   5.833  1.8682 -1.4644 -1.7031
 7227SOL    HW233318   1.110   1.058   5.879 -0.8921 -2.0786 -1.1419
 7228SOL     OW33319   2.868   2.583  12.051 -0.2205  0.4207 -0.1085
 7228SOL    HW133320   2.818   2.657  12.085 -0.6295  0.7419 -1.4103
 7228SOL    HW233321   2.810   2.541  11.988  0.7478 -0.8853 -0.1203
 7229SOL     OW33322   0.082   3.373   9.739  0.1216 -0.2602  0.2299
 7229SOL    HW133323   0.047   3.452   9.782  1.6253  0.1218  0.7425
 7229SOL    HW233324   0.019   3.303   9.757 -0.4951  0.1659 -0.2422
 7230SOL     OW33325   0.765   1.789  16.813  0.9476 -0.5413  0.0729
 7230SOL    HW133326   0.821   1.762  16.741  0.6424  2.2842 -1.2159
 7230SOL    HW233327   0.828   1.788  16.886  1.7968 -0.6777 -0.6580
 7231SOL     OW33328   4.375   4.646   4.002 -0.4470 -0.1673  0.4730
 7231SOL    HW133329   4.367   4.719   4.064  3.0395  1.7003 -1.2387
 7231SOL    HW233330   4.312   4.583   4.034  0.3161 -1.6620 -0.9755
 7232SOL     OW33331   4.337   2.716   7.769  0.0046 -0.1015  0.0635
 7232SOL    HW133332   4.387   2.649   7.815 -1.0503 -1.2757 -0.5145
 7232SOL    HW233333   4.390   2.743   7.694 -0.3156  0.0334 -0.1168
 7233SOL     OW33334   1.964   1.250   7.773 -0.0251  0.3810  0.2801
 7233SOL    HW133335   2.040   1.253   7.715  0.4826 -0.4352  0.8969
 7233SOL    HW233336   1.930   1.161   7.760  2.2792 -0.4968  0.2832
 7234SOL     OW33337   1.098   1.017  10.930 -0.1001 -0.0768 -0.1701
 7234SOL    HW133338   1.041   0.962  10.983  0.9553 -1.4628 -0.4705
 7234SOL    HW233339   1.179   0.967  10.923 -1.4152 -2.3611  0.9411
 7235SOL     OW33340   3.855   4.012  16.150 -0.0949  0.2130  0.4241
 7235SOL    HW133341   3.850   4.106  16.133  0.7509  0.4176  1.3655
 7235SOL    HW233342   3.947   3.988  16.140 -0.6155 -1.6233  0.0589
 7236SOL     OW33343   1.142   1.204  13.907 -0.2547 -0.6096  0.4784
 7236SOL    HW133344   1.218   1.160  13.944  1.8838  0.7714 -2.3075
 7236SOL    HW233345   1.104   1.238  13.988  0.1011  0.4176  0.2160
 7237SOL     OW33346   1.420   0.370   3.433 -0.3022 -0.2837 -0.0209
 7237SOL    HW133347   1.410   0.372   3.528 -0.8644  0.4129 -0.0897
 7237SOL    HW233348   1.510   0.339   3.424 -0.5064 -1.5812  2.6619
 7238SOL     OW33349   3.314   1.176   5.766  0.1750 -0.0392  0.0810
 7238SOL    HW133350   3.276   1.095   5.732  2.7754 -1.3409  0.2895
 7238SOL    HW233351   3.402   1.165   5.730 -0.4767 -0.3546 -1.4092
 7239SOL     OW33352   0.175   2.160   1.489 -0.2579 -0.8195  0.1991
 7239SOL    HW133353   0.269   2.157   1.507 -0.2456 -0.2574  0.2184
 7239SOL    HW233354   0.151   2.067   1.485  0.6862 -1.0380 -0.2593
 7240SOL     OW33355   0.607   0.690   4.544 -0.2030  0.1566  0.0191
 7240SOL    HW133356   0.677   0.648   4.494 -1.6683 -0.3910 -1.5798
 7240SOL    HW233357   0.648   0.774   4.564  1.0175 -0.4493  0.0533
 7241SOL     OW33358   2.030   1.158   5.124  0.6121 -0.3217  0.0900
 7241SOL    HW133359   1.958   1.164   5.187  2.7154  0.5416  2.3782
 7241SOL    HW233360   2.100   1.218   5.149 -1.5082  1.7081  1.1888
 7242SOL     OW33361   2.324   4.136   3.687 -0.2267  0.0970 -1.0757
 7242SOL    HW133362   2.322   4.203   3.756  1.0498 -0.3791 -0.5907
 7242SOL    HW233363   2.275   4.176   3.614  0.7904 -1.7235 -2.7501
 7243SOL     OW33364   3.668   1.416  15.544 -0.4207 -0.0042  0.0184
 7243SOL    HW133365   3.606   1.351  15.512 -0.0520 -0.1219 -0.4635
 7243SOL    HW233366   3.745   1.371  15.508 -2.5121 -1.9020 -2.0247
 7244SOL     OW33367   4.372   1.633  15.738  0.5299  0.4459  0.6978
 7244SOL    HW133368   4.441   1.699  15.739 -1.0778  2.1175  0.9182
 7244SOL    HW233369   4.304   1.697  15.759  0.3757  0.7657 -0.7350
 7245SOL     OW33370   1.671   3.219   5.568 -0.0471 -0.0832  0.1435
 7245SOL    HW133371   1.644   3.174   5.648  0.8384  1.0561  1.0914
 7245SOL    HW233372   1.709   3.141   5.528  0.6412 -1.0793  2.7529
 7246SOL     OW33373   2.346   0.241   6.394 -0.0854  0.3805  0.0910
 7246SOL    HW133374   2.329   0.335   6.394  0.3177  0.4565  1.4343
 7246SOL    HW233375   2.380   0.232   6.484  1.2258  0.9363 -0.3479
 7247SOL     OW33376   1.014   4.055   8.416 -0.1867 -0.0549 -0.1016
 7247SOL    HW133377   1.030   4.004   8.336 -1.7980 -0.3680 -0.2381
 7247SOL    HW233378   1.071   4.131   8.407 -0.0212 -0.1372  0.2565
 7248SOL     OW33379   2.133   2.122   6.570 -0.4211  0.1088  0.0778
 7248SOL    HW133380   2.092   2.051   6.621 -0.3276  0.0412  0.0583
 7248SOL    HW233381   2.059   2.173   6.536 -0.4536 -0.1611 -0.2477
 7249SOL     OW33382   1.714   2.078   9.034  0.1995  0.3064  0.0342
 7249SOL    HW133383   1.660   2.112   9.106  0.1823  1.1973 -0.3929
 7249SOL    HW233384   1.797   2.110   9.068  0.1300 -1.8844  2.2127
 7250SOL     OW33385   2.327   4.475   1.295  0.1763 -0.0766 -0.2920
 7250SOL    HW133386   2.409   4.491   1.341  0.2018 -0.5909 -0.1631
 7250SOL    HW233387   2.292   4.397   1.337 -1.3527  0.4064 -0.6456
 7251SOL     OW33388   4.409   1.916   1.294  0.8829 -0.4107  0.1610
 7251SOL    HW133389   4.362   1.921   1.211 -0.1724  0.1509  0.7888
 7251SOL    HW233390   4.376   1.990   1.345 -0.9051 -0.5359 -0.8101
 7252SOL     OW33391   2.204   1.869  17.738 -0.2137 -0.4654  0.4934
 7252SOL    HW133392   2.244   1.857   0.083  0.7520  1.9531  0.3760
 7252SOL    HW233393   2.118   1.905   0.021 -0.2789  0.1411 -0.6921
 7253SOL     OW33394   2.026   3.235   2.250 -0.1374 -0.2096  0.7744
 7253SOL    HW133395   1.938   3.211   2.277 -0.4885  2.0776  1.7193
 7253SOL    HW233396   2.072   3.191   2.322 -0.3113 -1.2185  0.2581
 7254SOL     OW33397   4.246   3.654  13.439 -0.1863 -0.4696  0.5162
 7254SOL    HW133398   4.265   3.568  13.476 -2.3117 -0.9420  0.5125
 7254SOL    HW233399   4.158   3.646  13.403 -0.6362  2.4138  0.9803
 7255SOL     OW33400   4.196   2.821   6.388  0.1756 -0.3326  0.2531
 7255SOL    HW133401   4.120   2.855   6.341  0.6510  1.9039  1.0983
 7255SOL    HW233402   4.232   2.898   6.431  1.5647 -1.3981  0.9945
 7256SOL     OW33403   3.070   3.865   5.962  0.3020  0.1324  0.6940
 7256SOL    HW133404   3.114   3.808   5.899  1.1246  0.8013  0.6562
 7256SOL    HW233405   2.981   3.831   5.963  1.0078 -1.8092 -1.4578
 7257SOL     OW33406   0.529   2.054  17.007  0.7332  0.0357 -0.2543
 7257SOL    HW133407   0.533   1.980  16.947  1.0218 -0.0072 -0.1852
 7257SOL    HW233408   0.463   2.100  16.954 -0.8782 -2.5121 -0.4234
 7258SOL     OW33409   2.209   4.460   9.529  0.0075 -0.7420  0.0429
 7258SOL    HW133410   2.290   4.410   9.533  0.7144  0.3010 -1.2452
 7258SOL    HW233411   2.164   4.438   9.610 -0.9670 -0.2751 -0.3659
 7259SOL     OW33412   2.721   1.085   1.443  0.3123 -0.2146 -0.1103
 7259SOL    HW133413   2.644   1.122   1.400 -0.7258 -1.6750  0.4808
 7259SOL    HW233414   2.789   1.146   1.415  0.7265 -0.3099  0.6913
 7260SOL     OW33415   1.623   2.214  13.230 -0.1382 -0.0433 -0.5280
 7260SOL    HW133416   1.688   2.177  13.290 -1.8667 -0.3223  1.1728
 7260SOL    HW233417   1.553   2.199  13.294  1.5340 -1.8116  0.9255
 7261SOL     OW33418   4.438   0.762  10.583 -0.7381  0.5651  0.0942
 7261SOL    HW133419   4.466   0.834  10.639 -1.6836 -0.4081  1.8016
 7261SOL    HW233420   4.471   0.685  10.630 -1.2909  0.5530  0.4623
 7262SOL     OW33421   3.354   1.214  10.265  0.4757 -0.1080 -0.6128
 7262SOL    HW133422   3.350   1.254  10.352 -0.2868 -0.9116 -0.2809
 7262SOL    HW233423   3.440   1.171  10.256  0.9715  0.9081 -0.7326
 7263SOL     OW33424   0.801   3.125  16.061  0.3376  0.1303 -0.1272
 7263SOL    HW133425   0.761   3.209  16.040  0.4116  0.6329  1.7042
 7263SOL    HW233426   0.811   3.139  16.155 -4.3054 -1.3891  0.6343
 7264SOL     OW33427   1.624   1.973  11.789  0.1442 -0.0167 -0.3182
 7264SOL    HW133428   1.652   1.884  11.811  1.5595  0.0100 -1.9592
 7264SOL    HW233429   1.542   1.981  11.838  0.7137  1.1259  0.4698
 7265SOL     OW33430   3.557   4.288  16.364  0.5277  0.7872 -0.6630
 7265SOL    HW133431   3.581   4.200  16.392  1.5208  1.6559  1.2171
 7265SOL    HW233432   3.540   4.327  16.450  1.3667 -0.6114  0.1406
 7266SOL     OW33433   2.253   4.291  14.625  0.2882 -0.0749 -0.1692
 7266SOL    HW133434   2.273   4.197  14.633  0.7435 -0.0347 -0.8293
 7266SOL    HW233435   2.185   4.272  14.561 -0.8895 -1.9638  1.6467
 7267SOL     OW33436   2.208   1.620   2.255  0.0035  0.1829 -0.3412
 7267SOL    HW133437   2.289   1.596   2.299  0.3290  1.1596 -0.4061
 7267SOL    HW233438   2.185   1.549   2.195 -0.5694  1.3813 -1.5354
 7268SOL     OW33439   2.366   4.380   3.272  0.6854  0.7545 -0.3594
 7268SOL    HW133440   2.314   4.455   3.302 -1.3401 -0.3145 -1.1743
 7268SOL    HW233441   2.304   4.313   3.302 -0.1805  2.0501  0.7463
 7269SOL     OW33442   2.984   1.760   9.417  0.0503  0.3890 -0.1418
 7269SOL    HW133443   2.966   1.833   9.475  1.2636 -1.6341  2.7659
 7269SOL    HW233444   3.078   1.776   9.414  0.6318 -2.5813  2.0240
 7270SOL     OW33445   1.020   1.859  15.010  0.0093 -0.2726 -0.1221
 7270SOL    HW133446   1.078   1.933  15.030 -1.1006  0.1504  1.4565
 7270SOL    HW233447   1.089   1.795  14.994 -0.4894 -0.6177 -0.8799
 7271SOL     OW33448   2.239   2.375   6.068  0.3309 -0.1046 -0.0042
 7271SOL    HW133449   2.245   2.315   5.994 -1.7041  1.4038 -1.4064
 7271SOL    HW233450   2.284   2.451   6.031  0.2411 -0.7716 -1.4604
 7272SOL     OW33451   1.444   3.483   4.405 -0.2413 -0.0170 -0.2818
 7272SOL    HW133452   1.483   3.416   4.462 -0.7320 -1.0377 -1.1478
 7272SOL    HW233453   1.514   3.509   4.346 -1.2135 -0.8041 -1.8102
 7273SOL     OW33454   3.866   1.311   5.761 -0.0480 -0.2495 -0.0485
 7273SOL    HW133455   3.818   1.380   5.716  2.5387  1.5334 -0.0735
 7273SOL    HW233456   3.929   1.278   5.696  1.8490  2.3701  0.4588
 7274SOL     OW33457   0.969   0.619  14.303 -0.0332 -0.1019  0.0310
 7274SOL    HW133458   0.911   0.667  14.244  0.6252 -1.3334 -1.6182
 7274SOL    HW233459   0.923   0.633  14.385  1.7249 -1.5680  1.2634
 7275SOL     OW33460   3.515   2.657   1.114  0.2387  0.1714 -0.0494
 7275SOL    HW133461   3.516   2.571   1.072  1.2586 -0.1604  0.6572
 7275SOL    HW233462   3.478   2.707   1.042  0.5661 -2.1969 -1.8697
 7276SOL     OW33463   3.052   2.745  16.867  0.0964 -0.6764  0.6353
 7276SOL    HW133464   3.037   2.776  16.956 -1.2959  1.0453 -0.2190
 7276SOL    HW233465   3.137   2.778  16.837 -0.9042  0.7640 -0.6020
 7277SOL     OW33466   1.493   1.204   0.071 -0.0070 -0.5802  0.1157
 7277SOL    HW133467   1.532   1.185   0.157 -0.6190 -0.9371  0.3209
 7277SOL    HW233468   1.551   1.272   0.037 -1.0426 -0.8472 -2.1458
 7278SOL     OW33469   2.131   1.289   5.934  0.3708  0.1219  0.5793
 7278SOL    HW133470   2.076   1.265   6.009 -0.0308 -0.3865  0.1222
 7278SOL    HW233471   2.140   1.203   5.894  0.6303  0.0636  0.7695
 7279SOL     OW33472   0.822   0.061  11.157  0.1805  0.0400 -0.3165
 7279SOL    HW133473   0.729   0.066  11.176 -0.1012 -1.3889 -1.2758
 7279SOL    HW233474   0.850   4.714  11.197 -1.5269 -0.2066  0.3607
 7280SOL     OW33475   1.660   4.279   5.859  0.3519 -0.2614 -0.1869
 7280SOL    HW133476   1.621   4.362   5.883 -0.7028 -1.9096  3.8057
 7280SOL    HW233477   1.606   4.222   5.913  0.6885  0.4655  0.9117
 7281SOL     OW33478   3.975   1.860   6.234 -0.1813  0.8339 -0.1608
 7281SOL    HW133479   3.933   1.876   6.149 -0.4501 -0.5281 -0.2756
 7281SOL    HW233480   4.065   1.837   6.210  0.0721  0.7785  0.8589
 7282SOL     OW33481   4.481   0.933   4.560  0.1347  0.5350  0.1643
 7282SOL    HW133482   4.548   0.870   4.583 -1.3031 -0.2548  2.1766
 7282SOL    HW233483   4.437   0.948   4.644 -1.6431 -0.8953 -0.5114
 7283SOL     OW33484   3.783   0.483  14.640 -0.3298  0.3097 -0.7364
 7283SOL    HW133485   3.798   0.389  14.645  1.7656  0.7040  0.2748
 7283SOL    HW233486   3.774   0.491  14.545 -3.1394 -3.6745 -0.7962
 7284SOL     OW33487   1.550   1.096   9.028  0.2129 -0.3491 -0.5008
 7284SOL    HW133488   1.550   1.187   9.058  0.9647 -0.4889 -0.0827
 7284SOL    HW233489   1.597   1.054   9.100 -1.0905 -0.9455 -0.0134
 7285SOL     OW33490   1.621   0.604   6.421 -0.1927  0.0919  0.8400
 7285SOL    HW133491   1.659   0.635   6.502 -0.6168  0.4040  0.9191
 7285SOL    HW233492   1.528   0.616   6.440 -0.2709  2.1958 -0.8370
 7286SOL     OW33493   2.783   4.417   6.649  0.2779  0.2200 -0.2097
 7286SOL    HW133494   2.844   4.457   6.711  0.8100 -0.3716 -0.3442
 7286SOL    HW233495   2.818   4.328   6.649  0.5289  0.3279  2.1831
 7287SOL     OW33496   2.936   1.359   6.000  0.1602 -0.0789 -0.6407
 7287SOL    HW133497   2.909   1.284   5.947  1.0258 -0.0849 -1.0788
 7287SOL    HW233498   2.866   1.422   5.989 -0.9397 -0.9246  1.4453
 7288SOL     OW33499   2.910   0.774   0.627  0.0275  0.2046 -0.2866
 7288SOL    HW133500   2.881   0.823   0.550  0.7296 -0.7959 -1.1965
 7288SOL    HW233501   2.987   0.742   0.580 -1.0807  1.6823 -3.1385
 7289SOL     OW33502   2.797   0.279   8.880  0.1474 -0.3428  0.7570
 7289SOL    HW133503   2.761   0.259   8.967  2.0360  1.0273  1.8578
 7289SOL    HW233504   2.884   0.242   8.891  0.7312  0.6239 -0.6449
 7290SOL     OW33505   3.081   4.343   8.704 -0.3375 -0.3005  0.4156
 7290SOL    HW133506   2.992   4.372   8.682  0.1427  1.7143  1.1168
 7290SOL    HW233507   3.108   4.401   8.775 -0.5423 -0.6246  0.7575
 7291SOL     OW33508   3.618   3.716   7.796 -0.0455 -0.3009  0.1025
 7291SOL    HW133509   3.613   3.738   7.703 -1.5264 -0.6190  0.1207
 7291SOL    HW233510   3.666   3.795   7.822 -1.0751  0.1341  0.6494
 7292SOL     OW33511   4.667   2.768   9.879  0.2792  0.2213 -0.2392
 7292SOL    HW133512   4.576   2.789   9.900  0.2076  0.5778 -0.8876
 7292SOL    HW233513   4.694   2.709   9.949 -1.4604  0.4072  0.5832
 7293SOL     OW33514   1.687   3.538   7.116 -0.4785  0.6591 -0.0959
 7293SOL    HW133515   1.651   3.521   7.029 -0.5349 -2.0434  0.4557
 7293SOL    HW233516   1.605   3.553   7.162 -0.9297 -0.3902 -0.5464
 7294SOL     OW33517   3.465   4.670  13.161 -0.1027 -0.4752 -0.2052
 7294SOL    HW133518   3.558   4.657  13.178  0.0857  0.2584 -0.6945
 7294SOL    HW233519   3.438   4.601  13.101  0.0132  0.3563 -1.2032
 7295SOL     OW33520   2.560   2.873   5.406  0.0036  0.5928 -0.4405
 7295SOL    HW133521   2.591   2.912   5.488 -1.0555  0.6085 -0.0402
 7295SOL    HW233522   2.641   2.833   5.373  1.0291  2.8538 -0.6483
 7296SOL     OW33523   2.498   1.614   2.178 -0.4226 -0.5520  0.4872
 7296SOL    HW133524   2.506   1.645   2.268  1.3768 -1.5674  0.6691
 7296SOL    HW233525   2.491   1.691   2.122 -0.0795 -0.3541  0.7154
 7297SOL     OW33526   1.056   4.204   4.861  0.3379 -0.4539  0.4233
 7297SOL    HW133527   1.090   4.116   4.845  0.0968 -0.5877  0.6343
 7297SOL    HW233528   1.000   4.187   4.937  0.1804 -1.5587  0.0521
 7298SOL     OW33529   1.368   4.422  13.096  0.3407 -0.3326 -0.3170
 7298SOL    HW133530   1.426   4.456  13.028  1.7737 -2.1005  0.0207
 7298SOL    HW233531   1.340   4.341  13.054 -1.3695 -0.9479  2.0442
 7299SOL     OW33532   1.509   3.807   1.723 -0.1917  0.5012 -0.2098
 7299SOL    HW133533   1.529   3.761   1.804  1.5243  2.0167  0.2304
 7299SOL    HW233534   1.585   3.865   1.723  1.8135 -2.1169 -0.1166
 7300SOL     OW33535   2.103   3.775  12.358  0.2969 -0.1919 -0.6100
 7300SOL    HW133536   2.050   3.701  12.387 -0.1136  0.7116  0.9614
 7300SOL    HW233537   2.166   3.774  12.430  1.1003  1.3305 -1.2907
 7301SOL     OW33538   4.609   4.134  12.153 -0.2009 -0.0125 -0.4244
 7301SOL    HW133539   4.599   4.227  12.174  1.7303  0.2381 -0.6522
 7301SOL    HW233540   4.697   4.115  12.185 -0.0233  1.4575 -0.0490
 7302SOL     OW33541   0.659   0.816  12.852  0.3505 -0.5625 -0.2825
 7302SOL    HW133542   0.722   0.881  12.821  0.3410  0.5330  2.0229
 7302SOL    HW233543   0.579   0.837  12.804 -0.9616 -1.6712  1.4284
 7303SOL     OW33544   2.811   3.066  10.962  0.1524 -0.3438 -0.3046
 7303SOL    HW133545   2.730   3.086  10.915 -0.2091 -2.7162 -0.7107
 7303SOL    HW233546   2.808   2.970  10.966  0.2298 -0.3122  0.3747
 7304SOL     OW33547   2.777   0.470   0.036 -0.5480  1.0325  0.3859
 7304SOL    HW133548   2.788   0.553   0.083  1.5679  1.4852 -0.9007
 7304SOL    HW233549   2.691   0.485  17.738 -1.2478  0.2165  1.6368
 7305SOL     OW33550   1.938   3.527  14.644  0.0855 -0.5750  0.2439
 7305SOL    HW133551   1.969   3.437  14.640 -1.2922 -0.9789 -1.0295
 7305SOL    HW233552   2.009   3.562  14.698 -1.0177  1.0540  0.6352
 7306SOL     OW33553   1.719   4.420  17.008  0.1200 -0.2475 -0.1579
 7306SOL    HW133554   1.686   4.378  16.929  2.7932  1.6230 -2.2624
 7306SOL    HW233555   1.657   4.389  17.075 -1.3783 -1.0057 -1.9119
 7307SOL     OW33556   3.666   2.877  11.524 -0.3743 -0.0742 -0.5157
 7307SOL    HW133557   3.645   2.945  11.460  1.5555 -0.5709 -1.6871
 7307SOL    HW233558   3.760   2.892  11.531 -0.3962  0.6958 -1.7870
 7308SOL     OW33559   2.486   1.243   7.885 -0.4152  0.0357 -0.0167
 7308SOL    HW133560   2.481   1.331   7.846  1.7346  0.1052 -0.1239
 7308SOL    HW233561   2.418   1.238   7.952  0.5844  0.4503  1.0409
 7309SOL     OW33562   2.221   3.749   1.894  0.2727  0.4755  0.5246
 7309SOL    HW133563   2.256   3.832   1.927  3.7457 -0.9420  0.3646
 7309SOL    HW233564   2.154   3.741   1.963  0.1770  0.4074  0.4242
 7310SOL     OW33565   1.515   2.480   6.201  0.1693 -0.2764 -0.2589
 7310SOL    HW133566   1.422   2.502   6.190  0.3446  1.4265  1.7639
 7310SOL    HW233567   1.555   2.566   6.208 -0.3884 -0.1563  1.5362
 7311SOL     OW33568   2.670   2.788   2.837  0.3937 -0.5373  0.3593
 7311SOL    HW133569   2.623   2.839   2.903 -0.1490 -1.8830  1.0091
 7311SOL    HW233570   2.604   2.749   2.780  0.0027  0.0893  0.3835
 7312SOL     OW33571   2.210   0.173   0.205 -0.1144  0.2537  0.0820
 7312SOL    HW133572   2.125   0.146   0.239 -0.1753 -1.4160 -1.4349
 7312SOL    HW233573   2.231   0.244   0.266 -2.2585 -0.7244  1.9326
 7313SOL     OW33574   4.362   3.571   6.626  0.0244 -0.0849 -0.1923
 7313SOL    HW133575   4.298   3.553   6.556  0.3369 -1.4149 -0.1317
 7313SOL    HW233576   4.349   3.508   6.696  1.7220 -1.3976 -1.0769
 7314SOL     OW33577   3.303   0.448   5.102  0.6105 -0.2530  0.8671
 7314SOL    HW133578   3.230   0.502   5.072  1.6488  1.0238  0.6287
 7314SOL    HW233579   3.293   0.444   5.197  0.7372 -0.4555  0.8715
 7315SOL     OW33580   0.046   2.382   8.963  0.1038  0.6727  0.4138
 7315SOL    HW133581   4.724   2.456   8.944 -0.3088  0.4230  0.6982
 7315SOL    HW233582   4.726   2.336   9.026 -0.6376 -1.6172 -1.9169
 7316SOL     OW33583   3.261   0.919   5.708  0.1526  0.1475 -0.6992
 7316SOL    HW133584   3.289   0.849   5.650 -0.0667 -0.4549 -0.0801
 7316SOL    HW233585   3.186   0.886   5.759 -0.5546  0.2809 -1.6539
 7317SOL     OW33586   3.170   3.394   9.177 -0.1474  0.2995  0.2423
 7317SOL    HW133587   3.110   3.369   9.106  2.3681 -2.1228 -1.0164
 7317SOL    HW233588   3.247   3.340   9.162  0.1631  0.7493  0.2363
 7318SOL     OW33589   0.535   3.594  15.955  0.1960 -0.2240  0.4615
 7318SOL    HW133590   0.579   3.624  15.875  1.3212 -0.2164  1.0752
 7318SOL    HW233591   0.541   3.673  16.008 -1.0353 -0.1970  0.5518
 7319SOL     OW33592   4.439   0.015   4.420 -0.0658 -0.3770 -0.0903
 7319SOL    HW133593   4.407   0.105   4.430 -0.0731 -0.3967  0.0691
 7319SOL    HW233594   4.534   0.025   4.420 -0.2162  1.1007  0.0568
 7320SOL     OW33595   2.845   4.484   8.715  0.2405 -0.0916 -0.2657
 7320SOL    HW133596   2.844   4.575   8.685  1.3469 -0.7136 -2.1706
 7320SOL    HW233597   2.771   4.440   8.673  0.4230  2.0454 -2.8359
 7321SOL     OW33598   4.655   2.737   2.619 -0.2885  0.2220 -0.2666
 7321SOL    HW133599   4.695   2.767   2.701 -1.8782 -1.3636  1.0849
 7321SOL    HW233600   4.563   2.755   2.637 -0.2931 -1.1516  1.0338
 7322SOL     OW33601   0.649   3.370  10.338  0.2049  0.1408  0.7292
 7322SOL    HW133602   0.696   3.362  10.255 -0.4790 -4.2768  0.8020
 7322SOL    HW233603   0.704   3.443  10.367  2.6802 -0.0784 -3.4196
 7323SOL     OW33604   0.430   3.689   6.742 -0.6384  0.2579  0.9509
 7323SOL    HW133605   0.496   3.673   6.675  1.0976  0.3617  2.6433
 7323SOL    HW233606   0.488   3.747   6.791  0.4183 -0.2701  0.3115
 7324SOL     OW33607   2.287   3.421   9.723 -0.2317 -0.2549 -0.0975
 7324SOL    HW133608   2.289   3.335   9.765  0.7393  0.4330  1.2662
 7324SOL    HW233609   2.371   3.412   9.677  0.1458 -0.8696  0.7176
 7325SOL     OW33610   2.736   1.897   2.351 -0.2765  0.0332 -0.9482
 7325SOL    HW133611   2.735   1.862   2.262 -0.5599  2.0868 -1.7452
 7325SOL    HW233612   2.793   1.834   2.394 -1.4394 -0.1336  0.3522
 7326SOL     OW33613   2.119   4.424   5.761 -0.3139  0.3964  0.6031
 7326SOL    HW133614   2.064   4.451   5.834  0.8922 -0.4750  1.8327
 7326SOL    HW233615   2.062   4.372   5.705  0.8343  0.2638 -0.4510
 7327SOL     OW33616   0.800   0.444   0.761 -0.0646 -0.0864 -0.0332
 7327SOL    HW133617   0.779   0.465   0.670 -0.8109  2.2321  0.6902
 7327SOL    HW233618   0.871   0.381   0.745 -0.9656 -1.5102  1.5757
 7328SOL     OW33619   2.915   4.658   8.491  0.0718  0.6578 -0.7301
 7328SOL    HW133620   2.903   4.595   8.419 -0.8943  1.4114 -1.2223
 7328SOL    HW233621   2.982   4.709   8.445  2.8029 -1.6005  0.7090
 7329SOL     OW33622   3.864   0.255  14.831 -0.1217  0.0529  0.1314
 7329SOL    HW133623   3.947   0.229  14.790 -1.0584 -1.6880 -0.6198
 7329SOL    HW233624   3.824   0.181  14.877  0.7263  0.4639  1.5360
 7330SOL     OW33625   2.275   0.830  10.616 -0.7364 -0.2292  0.4291
 7330SOL    HW133626   2.203   0.858  10.559  0.0735 -0.3016 -0.6198
 7330SOL    HW233627   2.232   0.751  10.651 -1.0473 -0.2305  0.0467
 7331SOL     OW33628   2.988   4.055   8.915  0.4086 -0.1766  0.1984
 7331SOL    HW133629   3.071   4.091   8.884  0.5056 -1.7709 -1.3610
 7331SOL    HW233630   2.961   4.137   8.957  0.7692  0.1047 -0.1202
 7332SOL     OW33631   4.610   4.548  13.377  0.6533  0.5945 -0.0611
 7332SOL    HW133632   4.547   4.533  13.306 -2.0348  1.1614  2.1966
 7332SOL    HW233633   4.625   4.642  13.368  0.3050  0.4313 -2.3934
 7333SOL     OW33634   3.576   1.381  16.874  0.0044 -0.2127  0.0464
 7333SOL    HW133635   3.543   1.357  16.961  0.7931 -0.3255  0.3126
 7333SOL    HW233636   3.497   1.390  16.821 -0.1599  2.3252  0.7322
 7334SOL     OW33637   2.261   1.614  16.757 -0.3292 -0.1038  0.2130
 7334SOL    HW133638   2.276   1.709  16.754 -0.9795  0.0575  1.7976
 7334SOL    HW233639   2.348   1.576  16.768 -0.4213 -0.8482 -1.7090
 7335SOL     OW33640   2.617   1.045  17.448  0.1350  0.1453 -0.8046
 7335SOL    HW133641   2.682   1.113  17.430 -0.7306  1.5850  1.4706
 7335SOL    HW233642   2.552   1.039  17.378  0.2976 -1.8213 -0.7918
 7336SOL     OW33643   3.672   1.216   6.541 -0.1350  0.4269 -0.3420
 7336SOL    HW133644   3.587   1.259   6.550  0.3133  1.4161 -0.8772
 7336SOL    HW233645   3.728   1.285   6.507  1.1063 -0.7758 -0.7396
 7337SOL     OW33646   1.314   0.516   7.202 -0.1950  0.3568 -0.8758
 7337SOL    HW133647   1.278   0.503   7.115  0.3230 -0.2712 -0.9997
 7337SOL    HW233648   1.366   0.595   7.187  0.4483  0.5278  2.1287
 7338SOL     OW33649   3.643   0.809   2.912 -0.2947  0.0869 -0.1476
 7338SOL    HW133650   3.731   0.826   2.946  0.9995  0.8850 -3.9361
 7338SOL    HW233651   3.668   0.756   2.836  0.3778  0.5305 -0.2351
 7339SOL     OW33652   0.776   0.162   6.782 -0.1096 -0.0010  0.0218
 7339SOL    HW133653   0.809   0.165   6.872 -0.5537 -0.6908  0.2150
 7339SOL    HW233654   0.805   0.248   6.755  0.2372 -0.5459 -1.3354
 7340SOL     OW33655   4.012   3.301   6.597  0.1631 -0.1895 -0.1953
 7340SOL    HW133656   3.998   3.213   6.632  1.2508 -0.6356 -0.8561
 7340SOL    HW233657   4.064   3.283   6.519 -0.5647  0.4751 -0.8246
 7341SOL     OW33658   1.902   3.039   6.072  0.3415  0.0207  0.4121
 7341SOL    HW133659   1.967   3.048   6.142  1.0193 -1.2032 -0.0734
 7341SOL    HW233660   1.937   3.107   6.016 -0.6423  0.5263  0.4062
 7342SOL     OW33661   4.308   3.396   3.497 -0.6866  0.0523  0.2847
 7342SOL    HW133662   4.241   3.447   3.451 -2.5904 -0.1981  2.8305
 7342SOL    HW233663   4.359   3.459   3.547  1.5727 -0.4524 -1.3755
 7343SOL     OW33664   3.561   3.695   4.053 -0.0332 -0.6141  0.0639
 7343SOL    HW133665   3.577   3.750   3.976 -3.2171  1.1661  0.6862
 7343SOL    HW233666   3.475   3.725   4.083  1.1069 -0.1289  2.8169
 7344SOL     OW33667   2.966   3.633  12.820 -0.1202 -0.1591  0.3186
 7344SOL    HW133668   2.920   3.573  12.878 -2.0327 -1.0293 -2.1089
 7344SOL    HW233669   3.022   3.565  12.782 -1.0655 -0.2862 -0.8331
 7345SOL     OW33670   1.627   3.133   4.691 -0.1497 -0.1586 -0.0642
 7345SOL    HW133671   1.685   3.166   4.759  2.4386  1.9079 -3.2510
 7345SOL    HW233672   1.597   3.054   4.734 -0.0269 -0.0313  0.2558
 7346SOL     OW33673   1.887   3.772   7.162 -0.2507  0.2844  0.2713
 7346SOL    HW133674   1.864   3.855   7.205 -0.4843  0.3836 -0.0521
 7346SOL    HW233675   1.808   3.766   7.108 -0.3474  1.3157  0.3042
 7347SOL     OW33676   0.956   3.591   3.937  0.2339  0.3971 -0.0386
 7347SOL    HW133677   0.919   3.651   4.001 -0.3051 -2.1264  2.0006
 7347SOL    HW233678   1.040   3.633   3.922 -0.0316  1.4804  1.5376
 7348SOL     OW33679   0.160   3.713  17.377 -0.1482 -0.2583  0.6206
 7348SOL    HW133680   0.175   3.765  17.298 -0.3637 -1.3979 -0.1713
 7348SOL    HW233681   0.161   3.780  17.444 -0.4609  1.1578 -0.7887
 7349SOL     OW33682   2.874   1.962   5.248  0.3715  0.2272 -0.1535
 7349SOL    HW133683   2.818   2.002   5.181  0.2310 -0.3761 -0.3992
 7349SOL    HW233684   2.928   2.038   5.271  0.1772  1.0375 -2.3382
 7350SOL     OW33685   2.169   2.070  13.915 -0.6383  0.0966  0.5266
 7350SOL    HW133686   2.118   2.060  13.995 -1.4215  0.2573  0.0420
 7350SOL    HW233687   2.122   2.129  13.856 -2.5647 -0.4706  1.4966
 7351SOL     OW33688   2.295   2.962  13.071 -0.1550  0.5211 -0.2880
 7351SOL    HW133689   2.328   3.043  13.109 -0.0802 -0.2462  1.2928
 7351SOL    HW233690   2.379   2.930  13.040 -1.2824 -0.7765 -2.0302
 7352SOL     OW33691   4.218   3.428   5.973 -0.0991 -0.3824  0.1881
 7352SOL    HW133692   4.230   3.474   5.890 -0.5823 -1.0065 -0.2227
 7352SOL    HW233693   4.136   3.472   5.995  0.6819  0.6087  1.1877
 7353SOL     OW33694   4.317   3.142   3.368  0.2110 -0.0546  0.8734
 7353SOL    HW133695   4.383   3.102   3.424 -2.1041  0.4752  3.9740
 7353SOL    HW233696   4.320   3.234   3.394  0.9031  0.3881 -0.7384
 7354SOL     OW33697   1.525   0.513  15.405 -0.2302 -0.1902 -0.0260
 7354SOL    HW133698   1.543   0.586  15.464  1.7111 -2.0857  1.7207
 7354SOL    HW233699   1.566   0.444  15.456 -3.3698 -3.3986 -1.8623
 7355SOL     OW33700   1.428   3.610   2.513 -0.4258 -0.0610 -0.0741
 7355SOL    HW133701   1.497   3.665   2.476 -1.7347  0.7139 -1.3451
 7355SOL    HW233702   1.388   3.563   2.441  2.7992  0.1889 -2.0348
 7356SOL     OW33703   2.009   2.286  13.392 -0.3711  0.1741  0.1767
 7356SOL    HW133704   2.007   2.306  13.298 -0.5150 -0.0784  0.1239
 7356SOL    HW233705   1.940   2.220  13.397  0.4116 -0.7750 -1.5290
 7357SOL     OW33706   4.520   0.466  16.366 -0.2760 -0.7490 -0.0745
 7357SOL    HW133707   4.505   0.512  16.449  1.1980 -1.8109  0.7698
 7357SOL    HW233708   4.610   0.491  16.344  1.0187 -2.3660  3.4256
 7358SOL     OW33709   4.270   3.213   2.021 -0.1192 -0.6537 -0.1090
 7358SOL    HW133710   4.324   3.167   1.956 -1.9146 -4.2721  0.9614
 7358SOL    HW233711   4.195   3.157   2.039 -0.5931 -0.0166 -0.1222
 7359SOL     OW33712   2.627   0.604  12.110  0.4209 -0.0287  0.6232
 7359SOL    HW133713   2.570   0.555  12.051  1.4255  2.5449 -2.5332
 7359SOL    HW233714   2.639   0.681  12.054  0.1844  0.9167  1.8586
 7360SOL     OW33715   1.894   2.374   8.463  0.4356  0.7276  0.7128
 7360SOL    HW133716   1.907   2.378   8.558  0.3671 -2.2619  0.8287
 7360SOL    HW233717   1.982   2.405   8.442  0.9912 -1.1628  0.2301
 7361SOL     OW33718   1.630   4.343   8.625 -0.0440 -0.6317 -0.0935
 7361SOL    HW133719   1.623   4.437   8.645  0.0396 -0.4128 -1.0725
 7361SOL    HW233720   1.621   4.319   8.717  3.9156 -1.8016 -0.0111
 7362SOL     OW33721   1.959   1.093   1.265 -0.0887  0.7485  0.7585
 7362SOL    HW133722   1.997   1.063   1.182  0.5685 -0.4731  1.4991
 7362SOL    HW233723   2.036   1.070   1.318  2.2040  0.9144 -2.4676
 7363SOL     OW33724   2.031   1.849  16.524  0.0016 -0.3112  0.2802
 7363SOL    HW133725   2.092   1.847  16.451  0.0140  0.1145  0.2786
 7363SOL    HW233726   2.033   1.757  16.553 -0.3870 -0.4668 -0.1850
 7364SOL     OW33727   0.082   2.845   5.487 -0.4627 -0.0149 -0.3444
 7364SOL    HW133728   0.131   2.763   5.500  0.1440  0.8925  3.0108
 7364SOL    HW233729   4.732   2.805   5.476 -0.6223 -0.0650  1.1102
 7365SOL     OW33730   3.545   0.302   3.795  0.5856 -0.6118  0.5911
 7365SOL    HW133731   3.507   0.235   3.851 -0.9998  0.2680  0.5550
 7365SOL    HW233732   3.466   0.341   3.757  1.3554  0.8483  0.4806
 7366SOL     OW33733   1.075   4.613   1.439  0.3432 -0.2288 -0.4307
 7366SOL    HW133734   1.118   4.600   1.355 -2.3851  1.1755 -2.0621
 7366SOL    HW233735   0.984   4.617   1.410  0.4608 -0.7172 -0.8683
 7367SOL     OW33736   1.059   3.041  10.589  0.0553 -0.6714  0.4689
 7367SOL    HW133737   1.061   3.080  10.677 -2.0071 -0.4290  0.3923
 7367SOL    HW233738   0.980   2.987  10.590 -0.2280 -0.2932 -2.3336
 7368SOL     OW33739   1.303   3.992   3.563 -0.1044  0.9360 -0.1336
 7368SOL    HW133740   1.369   4.022   3.501 -1.3978  0.3285 -1.7729
 7368SOL    HW233741   1.302   3.900   3.537  1.3850  1.0262 -0.5289
 7369SOL     OW33742   1.943   2.955   7.265 -0.1087  0.0934  0.1739
 7369SOL    HW133743   1.994   2.977   7.344  0.1462  0.0650  0.0186
 7369SOL    HW233744   1.867   2.918   7.309  0.8657  1.3965  2.9888
 7370SOL     OW33745   3.373   1.846   8.451  0.0610 -0.6367 -0.5080
 7370SOL    HW133746   3.282   1.826   8.473  0.3176 -0.0049  1.1196
 7370SOL    HW233747   3.417   1.841   8.535 -0.6062  1.4962 -0.0170
 7371SOL     OW33748   4.522   1.528   9.064  0.0257  0.5674 -0.2602
 7371SOL    HW133749   4.573   1.594   9.110 -0.8116  1.0974 -0.0817
 7371SOL    HW233750   4.560   1.535   8.977 -1.6156 -1.9763 -1.2056
 7372SOL     OW33751   2.187   3.906   2.991 -0.1774  0.1586  0.1014
 7372SOL    HW133752   2.247   3.970   3.030 -0.4467  0.7904 -0.5145
 7372SOL    HW233753   2.162   3.860   3.071  3.7239  0.8592  1.7792
 7373SOL     OW33754   2.534   3.737  15.062 -0.2666  0.2961 -0.2422
 7373SOL    HW133755   2.623   3.704  15.048  0.2842  1.6909 -0.0720
 7373SOL    HW233756   2.534   3.741  15.158  2.5893 -1.3090 -0.1719
 7374SOL     OW33757   0.483   2.429   8.480  0.1703  0.1048  0.3709
 7374SOL    HW133758   0.439   2.446   8.396 -0.7541 -0.7695  0.6792
 7374SOL    HW233759   0.557   2.488   8.468 -0.8495  1.1112 -1.0529
 7375SOL     OW33760   3.994   2.078  14.663 -0.2019 -0.0414  0.0648
 7375SOL    HW133761   4.086   2.058  14.682 -0.4241 -1.1052  0.0097
 7375SOL    HW233762   3.956   2.059  14.749 -1.4507  1.1144 -0.2315
 7376SOL     OW33763   2.933   3.354   5.458 -0.8088 -0.5114  0.1524
 7376SOL    HW133764   3.001   3.420   5.448  0.5078 -1.8298  0.2692
 7376SOL    HW233765   2.947   3.301   5.379  0.2915 -1.4464  0.9745
 7377SOL     OW33766   4.434   3.784  11.351 -0.2751 -0.1831  0.4064
 7377SOL    HW133767   4.389   3.857  11.307 -1.4225 -0.8645  0.4599
 7377SOL    HW233768   4.526   3.806  11.334 -0.0866 -1.4078 -0.1547
 7378SOL     OW33769   3.978   4.043   9.352 -0.0703 -0.0440 -0.3659
 7378SOL    HW133770   4.019   4.118   9.394 -1.2541  1.2735 -1.5800
 7378SOL    HW233771   3.917   4.021   9.423 -0.6277 -0.2832 -0.9179
 7379SOL     OW33772   0.660   0.319   1.724  0.2485  0.0374 -0.2373
 7379SOL    HW133773   0.696   0.245   1.772  1.0895  1.3883  1.1968
 7379SOL    HW233774   0.695   0.385   1.783 -0.0506  1.6328 -1.8390
 7380SOL     OW33775   3.302   3.103   9.586  0.1187  0.0221 -0.0916
 7380SOL    HW133776   3.293   3.021   9.539  0.3067  1.6425 -2.9429
 7380SOL    HW233777   3.218   3.149   9.577  0.9357  1.2326 -1.6567
 7381SOL     OW33778   1.999   4.163   7.621  0.2942 -0.1148  0.1123
 7381SOL    HW133779   2.003   4.128   7.710 -0.7221 -0.4732  0.0205
 7381SOL    HW233780   2.029   4.086   7.572 -1.9827 -0.8710 -0.1133
 7382SOL     OW33781   3.377   1.496   5.119 -0.0886  0.1057  0.6047
 7382SOL    HW133782   3.389   1.406   5.147 -0.7610 -0.3338 -0.5457
 7382SOL    HW233783   3.461   1.516   5.078 -0.6556  1.1068 -0.0862
 7383SOL     OW33784   2.900   0.604   5.613 -0.3859  0.1732  0.0942
 7383SOL    HW133785   2.885   0.561   5.528 -0.1973  0.2009  0.0475
 7383SOL    HW233786   2.826   0.562   5.657 -0.7042 -0.0137 -0.6122
 7384SOL     OW33787   3.579   2.557   2.102 -0.3513  0.6089 -0.2176
 7384SOL    HW133788   3.493   2.516   2.088  1.3336 -3.0049  0.0589
 7384SOL    HW233789   3.585   2.629   2.039  0.5290  0.0061 -0.8290
 7385SOL     OW33790   0.952   3.592  11.479  0.2506 -0.1815  0.5731
 7385SOL    HW133791   1.007   3.664  11.508  0.6297 -1.2626  2.4960
 7385SOL    HW233792   0.877   3.648  11.458 -0.6006 -1.1742  0.9669
 7386SOL     OW33793   1.454   1.879   5.138 -0.0300 -0.7261  0.4050
 7386SOL    HW133794   1.451   1.801   5.084  1.1079  0.7623 -1.7978
 7386SOL    HW233795   1.519   1.861   5.207  0.1453  1.5552  0.8488
 7387SOL     OW33796   2.160   0.861   7.750  0.0890 -0.0325 -0.4233
 7387SOL    HW133797   2.214   0.857   7.671 -0.1937  0.5614 -0.6489
 7387SOL    HW233798   2.214   0.842   7.827  1.8208 -0.2745 -1.6777
 7388SOL     OW33799   1.799   1.039   4.725  0.1971 -0.8103 -0.2405
 7388SOL    HW133800   1.842   1.096   4.661  2.0111  0.8098  2.4524
 7388SOL    HW233801   1.709   1.065   4.703  0.5810 -0.4223 -1.3457
 7389SOL     OW33802   0.668   2.410   8.828 -0.1022  0.6193 -0.2183
 7389SOL    HW133803   0.590   2.458   8.802 -0.0678  1.9010  1.9942
 7389SOL    HW233804   0.725   2.451   8.764 -1.0257 -0.3992 -1.6767
 7390SOL     OW33805   1.057   2.265   6.564 -0.5214  0.1557  0.1395
 7390SOL    HW133806   1.097   2.272   6.651 -0.9121 -0.6106  0.3903
 7390SOL    HW233807   1.008   2.347   6.563 -2.1736 -0.8379 -0.6922
 7391SOL     OW33808   3.772   0.969   1.918 -0.3738 -0.1569 -0.0393
 7391SOL    HW133809   3.703   1.029   1.947 -2.5853 -2.0293 -1.3675
 7391SOL    HW233810   3.721   0.887   1.919 -1.3266  0.4025 -3.3251
 7392SOL     OW33811   3.634   2.472   0.818 -0.0704 -0.0284 -0.0547
 7392SOL    HW133812   3.701   2.443   0.880  0.9229  1.9200 -0.2207
 7392SOL    HW233813   3.674   2.553   0.786  0.3231 -0.0206  0.4647
 7393SOL     OW33814   3.442   1.527   4.695 -0.2216  0.4731 -0.3919
 7393SOL    HW133815   3.347   1.521   4.704 -0.0952  1.3450  1.3789
 7393SOL    HW233816   3.462   1.433   4.687 -0.8430  0.2195  0.9870
 7394SOL     OW33817   2.912   1.310   4.764  0.0151 -0.3657  0.7044
 7394SOL    HW133818   2.847   1.342   4.826  1.1589  2.6338  0.3458
 7394SOL    HW233819   2.969   1.381   4.791 -0.7795 -0.3646  2.3725
 7395SOL     OW33820   1.414   3.810   1.121  0.4274 -0.1958  0.2583
 7395SOL    HW133821   1.420   3.817   1.216 -0.8329 -2.6079  0.5039
 7395SOL    HW233822   1.496   3.766   1.100  0.3487 -0.4124  0.4068
 7396SOL     OW33823   0.858   4.157   3.124  0.4219  0.1289 -0.4825
 7396SOL    HW133824   0.792   4.178   3.057  0.5701  1.0506 -0.3350
 7396SOL    HW233825   0.810   4.169   3.206  0.7125  2.2731 -0.6224
 7397SOL     OW33826   3.879   0.762   5.146 -0.4146 -0.2819 -0.0636
 7397SOL    HW133827   3.810   0.829   5.143 -0.9462 -0.7620  1.1154
 7397SOL    HW233828   3.832   0.679   5.157 -0.2723 -0.2176  1.0975
 7398SOL     OW33829   3.200   0.545   7.984  0.3925 -0.1007  0.2491
 7398SOL    HW133830   3.199   0.636   7.954  1.5706  0.1684  1.0215
 7398SOL    HW233831   3.260   0.555   8.058  0.4069  0.2477  0.1919
 7399SOL     OW33832   3.095   0.083   1.262  0.0378  0.1658 -0.1709
 7399SOL    HW133833   3.086   0.085   1.166 -1.5501  0.0501 -0.0296
 7399SOL    HW233834   3.184   0.049   1.259  0.7321  2.0604 -0.5157
 7400SOL     OW33835   4.081   4.559  15.797 -0.2900 -0.6919  1.0537
 7400SOL    HW133836   4.139   4.567  15.721 -0.5698 -1.4553  0.7586
 7400SOL    HW233837   4.006   4.610  15.765 -0.5633 -1.9018 -0.2102
 7401SOL     OW33838   2.827   0.868   5.478 -0.2574  0.6608 -0.2760
 7401SOL    HW133839   2.841   0.793   5.537  0.6324  0.4249 -0.7794
 7401SOL    HW233840   2.807   0.932   5.546  1.5273  1.7600 -0.7766
 7402SOL     OW33841   0.719   0.029  16.528  0.5042 -0.0082 -0.1441
 7402SOL    HW133842   0.738   0.119  16.555 -3.1809  0.5943  0.4283
 7402SOL    HW233843   0.787   0.014  16.463  0.9397 -0.1869  0.3514
 7403SOL     OW33844   2.566   1.972   5.335  0.1945 -0.2961 -0.6440
 7403SOL    HW133845   2.564   2.063   5.306  1.3596 -0.3813 -0.9794
 7403SOL    HW233846   2.562   1.922   5.253 -1.2515 -0.9491 -0.1846
 7404SOL     OW33847   1.867   2.170   2.476 -0.4503 -0.0866 -0.5680
 7404SOL    HW133848   1.934   2.213   2.529  0.1481  0.0318 -1.4202
 7404SOL    HW233849   1.925   2.146   2.403  0.1095  0.8752 -0.4421
 7405SOL     OW33850   0.806   3.329   1.695  0.1934 -0.2215 -0.1531
 7405SOL    HW133851   0.831   3.371   1.777 -3.8338 -0.1565  1.0377
 7405SOL    HW233852   0.855   3.247   1.698  0.9028  0.1739 -0.8860
 7406SOL     OW33853   4.203   2.637  10.169 -0.6689  0.2699  0.4838
 7406SOL    HW133854   4.185   2.574  10.238 -2.0646 -0.8215 -0.8716
 7406SOL    HW233855   4.143   2.619  10.096 -1.0946 -0.8963  1.1367
 7407SOL     OW33856   0.095   4.550   8.761  0.3674  0.1326  0.0905
 7407SOL    HW133857   0.064   4.640   8.749  1.2381  0.2104 -1.6645
 7407SOL    HW233858   0.167   4.559   8.823  1.4168  0.9945 -1.2336
 7408SOL     OW33859   1.055   3.803   5.694 -0.4462  0.2019  0.2922
 7408SOL    HW133860   1.124   3.754   5.740  1.5440  1.5739 -1.1884
 7408SOL    HW233861   1.091   3.887   5.667  0.2105 -0.9834 -2.5235
 7409SOL     OW33862   2.520   2.662  17.472 -0.0804  0.1989 -0.3863
 7409SOL    HW133863   2.595   2.602  17.470 -1.0232 -0.9765 -0.2121
 7409SOL    HW233864   2.545   2.689  17.560  2.5593 -0.8837 -0.7927
 7410SOL     OW33865   1.684   1.525  15.444 -0.2734 -0.0159  0.2953
 7410SOL    HW133866   1.627   1.576  15.386 -0.0240  0.1264  0.1753
 7410SOL    HW233867   1.749   1.592  15.461 -1.2402  1.2057 -0.8369
 7411SOL     OW33868   2.755   0.925   4.806  0.5577  0.0030  0.2154
 7411SOL    HW133869   2.755   0.991   4.736  2.3120 -0.8052 -0.5528
 7411SOL    HW233870   2.743   0.847   4.752 -1.5529 -0.0083  0.7339
 7412SOL     OW33871   2.369   3.958   9.201 -0.1447  0.2425  0.1193
 7412SOL    HW133872   2.403   4.041   9.234  1.7588 -1.3037  2.0489
 7412SOL    HW233873   2.364   3.906   9.281  0.9448  1.2660  0.8517
 7413SOL     OW33874   3.165   4.337  12.276  0.6526  0.0539 -0.0884
 7413SOL    HW133875   3.081   4.381  12.262  1.8558  1.4063 -3.0866
 7413SOL    HW233876   3.238   4.394  12.253  1.1084 -0.5939 -0.2195
 7414SOL     OW33877   4.502   0.510   2.075  1.3925 -0.0868  0.2540
 7414SOL    HW133878   4.491   0.426   2.120 -3.1696  0.9130  0.9663
 7414SOL    HW233879   4.498   0.471   1.988 -1.8235 -1.3861  0.9847
 7415SOL     OW33880   4.202   0.875   4.145  0.0214 -0.0664  0.0634
 7415SOL    HW133881   4.256   0.798   4.126  1.4661  0.6867  1.0747
 7415SOL    HW233882   4.220   0.894   4.238  0.5619 -0.5882  0.0685
 7416SOL     OW33883   4.349   3.374   6.793  0.2803 -0.5471  0.1937
 7416SOL    HW133884   4.381   3.292   6.829  2.0516  1.1381  2.4552
 7416SOL    HW233885   4.276   3.404   6.848 -0.3610  1.1572 -1.5848
 7417SOL     OW33886   0.576   4.273   8.570 -0.5671  0.2436 -0.6406
 7417SOL    HW133887   0.567   4.178   8.562 -1.6223  0.2163  0.9323
 7417SOL    HW233888   0.653   4.278   8.513  1.0848  0.1194  1.6252
 7418SOL     OW33889   1.394   3.283  11.680  0.8536  0.2391 -0.3303
 7418SOL    HW133890   1.469   3.282  11.620 -1.5264 -0.7403 -3.2882
 7418SOL    HW233891   1.440   3.289  11.764 -1.5051 -0.4873  1.0271
 7419SOL     OW33892   2.907   3.238  12.732  0.2845 -0.2519 -0.1656
 7419SOL    HW133893   2.878   3.302  12.667  2.2799  1.3582  0.5029
 7419SOL    HW233894   3.002   3.238  12.719 -0.0272 -1.5710 -2.4420
 7420SOL     OW33895   1.793   4.104   4.306  0.2505 -0.6250 -0.1148
 7420SOL    HW133896   1.706   4.134   4.277 -0.1775 -0.0521  1.7516
 7420SOL    HW233897   1.785   4.010   4.288  0.5280 -1.0192  1.7530
 7421SOL     OW33898   0.212   1.702  12.357 -0.0657  0.0792  0.3822
 7421SOL    HW133899   0.238   1.612  12.378 -0.9960 -0.0745  0.9248
 7421SOL    HW233900   0.121   1.704  12.387  0.3583  0.4426  1.6497
 7422SOL     OW33901   4.212   3.472   2.000 -0.1026 -0.3594  0.3255
 7422SOL    HW133902   4.254   3.386   1.995  0.0423 -0.2089 -0.9660
 7422SOL    HW233903   4.174   3.472   2.088 -1.8250  0.3400 -0.4177
 7423SOL     OW33904   2.641   3.405  17.459 -0.2686  0.0898  0.0130
 7423SOL    HW133905   2.712   3.458  17.422  0.1491 -0.5861 -0.1610
 7423SOL    HW233906   2.586   3.476  17.491 -1.5861 -0.4687 -0.9990
 7424SOL     OW33907   2.916   1.834   8.065 -0.4511  0.4646  0.3238
 7424SOL    HW133908   2.907   1.900   7.997  0.5152  0.4243  0.1542
 7424SOL    HW233909   2.948   1.889   8.136  0.7042  0.5200 -0.2352
 7425SOL     OW33910   3.303   2.023   2.273 -0.0853  0.0333 -0.3900
 7425SOL    HW133911   3.251   2.028   2.353 -0.3714 -1.5546 -0.4831
 7425SOL    HW233912   3.238   2.059   2.213  0.9235 -0.5553 -1.8352
 7426SOL     OW33913   4.090   1.456   4.020 -0.2170 -0.3416  0.2305
 7426SOL    HW133914   4.082   1.409   4.103 -1.1796 -2.1720 -0.8760
 7426SOL    HW233915   4.034   1.533   4.029 -0.1220 -0.3846  1.1629
 7427SOL     OW33916   1.294   4.272  14.462  0.1304  0.1987  0.4755
 7427SOL    HW133917   1.314   4.310  14.376  0.8894  2.7574  1.7800
 7427SOL    HW233918   1.219   4.220  14.433 -0.1313  1.3751 -0.9154
 7428SOL     OW33919   0.327   4.436   3.774  0.3076 -0.6334 -0.2588
 7428SOL    HW133920   0.252   4.385   3.744 -0.3217 -1.1041  2.1188
 7428SOL    HW233921   0.379   4.425   3.695  1.5958  2.7546  0.0990
 7429SOL     OW33922   4.395   0.865  12.883  0.2574  0.0055 -0.6912
 7429SOL    HW133923   4.427   0.775  12.875  0.1993 -0.0551 -0.2467
 7429SOL    HW233924   4.379   0.864  12.977 -1.0815  0.9561 -0.9075
 7430SOL     OW33925   2.852   2.410   6.522 -0.0034  0.0355 -0.3468
 7430SOL    HW133926   2.863   2.494   6.478 -0.5387  0.6838  0.7754
 7430SOL    HW233927   2.943   2.393   6.550 -0.5088 -0.3341  1.0687
 7431SOL     OW33928   1.852   4.137   8.932  0.1610 -0.2577 -0.0024
 7431SOL    HW133929   1.890   4.159   9.017 -0.2041 -2.9675  0.8622
 7431SOL    HW233930   1.817   4.220   8.898  0.5311  0.6229  1.7742
 7432SOL     OW33931   2.485   4.054  14.391 -0.3123 -0.3245  0.1582
 7432SOL    HW133932   2.497   3.973  14.439  3.2732 -0.3481 -0.7908
 7432SOL    HW233933   2.538   4.114  14.443  1.1978 -1.1549 -0.4233
 7433SOL     OW33934   3.259   3.043   5.610 -0.1019  0.3734  0.1764
 7433SOL    HW133935   3.269   2.957   5.651  3.0419  1.4149  1.6420
 7433SOL    HW233936   3.201   3.024   5.536 -0.4427 -0.9323  0.7759
 7434SOL     OW33937   0.228   3.979   3.282  0.6437  0.3210  0.0446
 7434SOL    HW133938   0.170   3.931   3.342 -1.2960  0.4666 -1.7173
 7434SOL    HW233939   0.271   4.041   3.339  1.2389  0.0094 -0.0675
 7435SOL     OW33940   2.630   1.930   7.350 -0.5678 -0.2252 -0.3007
 7435SOL    HW133941   2.670   1.843   7.347 -0.4036 -0.1482 -0.3039
 7435SOL    HW233942   2.643   1.960   7.439 -3.2801 -0.5908  0.2248
 7436SOL     OW33943   0.261   2.741  16.556 -0.4394 -0.2793 -0.5987
 7436SOL    HW133944   0.349   2.753  16.520 -0.7058 -0.0072 -1.1474
 7436SOL    HW233945   0.262   2.822  16.607  0.8224 -0.1543 -0.8276
 7437SOL     OW33946   3.098   2.894   6.935 -0.3586  0.1105  0.3384
 7437SOL    HW133947   3.188   2.868   6.958 -0.7437 -1.9681 -0.5338
 7437SOL    HW233948   3.043   2.829   6.977 -1.0913  0.8060  0.4420
 7438SOL     OW33949   1.076   0.801   4.559 -0.1884 -0.1458  0.3480
 7438SOL    HW133950   1.158   0.836   4.594 -0.8569  1.2257  0.5510
 7438SOL    HW233951   1.095   0.788   4.467 -3.4407 -0.8141 -0.2105
 7439SOL     OW33952   3.140   2.656   9.145  0.0412  0.6127 -0.4104
 7439SOL    HW133953   3.074   2.588   9.132  0.6779  0.0462 -0.6936
 7439SOL    HW233954   3.174   2.615   9.224  1.2452  2.8609  0.2064
 7440SOL     OW33955   4.565   2.766   3.765 -0.4144  0.1923 -0.2399
 7440SOL    HW133956   4.646   2.785   3.719  1.3151 -2.4683  1.7516
 7440SOL    HW233957   4.587   2.797   3.853 -0.0965  0.6730 -0.4857
 7441SOL     OW33958   3.745   2.221  15.961  0.1733 -0.7943 -0.0752
 7441SOL    HW133959   3.738   2.170  15.881 -2.0477  0.2085 -0.5244
 7441SOL    HW233960   3.684   2.185  16.026 -0.1212  1.1672  0.7404
 7442SOL     OW33961   0.500   1.180   4.461 -0.4987 -0.0059 -0.3146
 7442SOL    HW133962   0.520   1.268   4.495  3.7771 -1.5850  1.2270
 7442SOL    HW233963   0.510   1.132   4.543 -0.5962  1.2181  0.4263
 7443SOL     OW33964   0.333   2.062   8.068 -0.0610  0.1054  0.0513
 7443SOL    HW133965   0.377   1.977   8.060  1.3261  0.9388 -1.0177
 7443SOL    HW233966   0.389   2.128   8.029  0.8134 -0.0437  1.0439
 7444SOL     OW33967   1.233   0.774  16.263 -0.1659  0.3306 -0.3105
 7444SOL    HW133968   1.238   0.866  16.237 -2.2017  0.2904 -0.8049
 7444SOL    HW233969   1.327   0.758  16.266  0.1372  1.5453 -4.0318
 7445SOL     OW33970   2.875   3.679   6.473 -0.1717 -0.2591 -0.5552
 7445SOL    HW133971   2.940   3.652   6.409  2.4035  1.4726  1.3654
 7445SOL    HW233972   2.798   3.658   6.420 -1.0883  1.5917  0.0062
 7446SOL     OW33973   4.112   2.590  15.485  1.0439 -0.0337 -0.1338
 7446SOL    HW133974   4.073   2.658  15.539  1.6143 -1.5978  2.2397
 7446SOL    HW233975   4.039   2.570  15.425  0.0337 -0.7865  1.3430
 7447SOL     OW33976   4.314   4.069  12.801 -0.2175 -0.1644  0.4698
 7447SOL    HW133977   4.313   4.069  12.705  3.3504  1.8338  0.4430
 7447SOL    HW233978   4.252   3.999  12.823 -1.9940  0.3466 -2.7617
 7448SOL     OW33979   2.572   0.393   7.619 -0.7293  0.3784  0.2856
 7448SOL    HW133980   2.592   0.303   7.645  0.1290  0.5148  0.0889
 7448SOL    HW233981   2.490   0.414   7.664  0.8930  1.3539  2.7940
 7449SOL     OW33982   2.103   2.423  13.914  0.1153  0.3397 -0.2830
 7449SOL    HW133983   2.101   2.514  13.883  1.4310  0.0328 -1.2986
 7449SOL    HW233984   2.091   2.428  14.009  0.4219  2.1742 -0.3372
 7450SOL     OW33985   4.293   1.169   9.436  0.4125 -0.1595 -0.3321
 7450SOL    HW133986   4.271   1.229   9.508 -0.4287  0.2737 -0.9458
 7450SOL    HW233987   4.206   1.161   9.397 -0.2312  0.1075  1.0207
 7451SOL     OW33988   2.471   4.152   5.032  0.2710  0.1927 -0.1350
 7451SOL    HW133989   2.453   4.113   5.118 -0.6805 -3.2251 -1.8822
 7451SOL    HW233990   2.494   4.240   5.061  0.2943  0.5911 -1.3822
 7452SOL     OW33991   0.252   2.979   6.420  0.3496  0.5128 -0.3315
 7452SOL    HW133992   0.287   2.907   6.473 -0.3315 -2.1646 -3.5240
 7452SOL    HW233993   0.334   3.001   6.377  0.8112 -3.5399 -1.5558
 7453SOL     OW33994   2.325   2.606   6.399 -0.2675 -0.8067 -0.3316
 7453SOL    HW133995   2.315   2.510   6.399 -0.3608 -0.7992 -1.4830
 7453SOL    HW233996   2.417   2.601   6.373  0.4749  0.2488  2.0597
 7454SOL     OW33997   4.286   3.475   9.752  0.8078 -0.3620 -0.4868
 7454SOL    HW133998   4.289   3.505   9.661  1.0878  1.2528  0.0453
 7454SOL    HW233999   4.193   3.465   9.770  0.8603 -2.1200 -1.1862
 7455SOL     OW34000   2.649   3.662   3.567 -0.4815  0.1850 -0.3021
 7455SOL    HW134001   2.568   3.614   3.584 -0.5200  0.6799  0.9653
 7455SOL    HW234002   2.653   3.709   3.651  1.0922  0.0504 -0.3174
 7456SOL     OW34003   2.760   0.874   8.369 -0.4137  0.2935 -0.0288
 7456SOL    HW134004   2.742   0.954   8.417 -1.1285  0.0782  0.0659
 7456SOL    HW234005   2.805   0.818   8.433 -1.2539  1.0018  1.1636
 7457SOL     OW34006   4.660   4.594   6.412  0.4699  0.0866  0.8945
 7457SOL    HW134007   4.667   4.499   6.421 -0.0006  0.0422  0.7818
 7457SOL    HW234008   4.642   4.618   6.503  0.5595 -0.6283  1.1007
 7458SOL     OW34009   4.508   4.364   7.908  0.4434 -0.1444  0.1311
 7458SOL    HW134010   4.559   4.315   7.973  1.0350  0.8643  0.4232
 7458SOL    HW234011   4.421   4.336   7.937  1.4186 -1.8769  1.3994
 7459SOL     OW34012   3.694   4.698   7.588 -0.0270  0.2260  0.2652
 7459SOL    HW134013   3.693   4.603   7.593  1.8029  0.1861 -0.1064
 7459SOL    HW234014   3.784   4.709   7.555 -0.0664  0.9893  0.4163
 7460SOL     OW34015   0.847   4.632  14.089 -1.2021 -0.0007 -0.0505
 7460SOL    HW134016   0.766   4.620  14.138 -0.0497  2.7581  2.5413
 7460SOL    HW234017   0.874   4.542  14.070 -1.4444  0.2677 -1.7306
 7461SOL     OW34018   2.717   2.492   8.296 -0.1258 -0.5727  0.4122
 7461SOL    HW134019   2.715   2.523   8.387 -0.5518 -0.4565  0.3626
 7461SOL    HW234020   2.629   2.507   8.263 -1.0173 -2.3125  2.0165
 7462SOL     OW34021   0.761   0.514   8.659 -0.1105 -0.2976  0.1616
 7462SOL    HW134022   0.794   0.552   8.578  1.1184  0.3690  0.9819
 7462SOL    HW234023   0.670   0.542   8.660  0.3027  0.9454  1.5078
 7463SOL     OW34024   4.008   2.439  10.270 -0.5187 -0.3067 -0.2023
 7463SOL    HW134025   3.956   2.360  10.259  0.7074 -1.4163  1.8952
 7463SOL    HW234026   3.945   2.510  10.262 -0.4190 -0.3779 -1.5208
 7464SOL     OW34027   1.640   2.161   9.739  0.4020 -0.0504  0.1844
 7464SOL    HW134028   1.656   2.086   9.681  0.9567 -0.4426  0.8312
 7464SOL    HW234029   1.546   2.160   9.752  0.4900  0.2145  0.8151
 7465SOL     OW34030   2.119   4.131  14.827 -0.5150  0.0340 -0.4845
 7465SOL    HW134031   2.147   4.048  14.865 -1.6395 -0.3448 -0.5017
 7465SOL    HW234032   2.139   4.132  14.733  2.2032 -2.3470  0.0732
 7466SOL     OW34033   0.953   3.415  12.166  0.6000 -0.1618 -0.3660
 7466SOL    HW134034   0.871   3.405  12.215  0.1264  3.5614 -0.3551
 7466SOL    HW234035   0.942   3.496  12.116  1.8554  0.4308  0.2927
 7467SOL     OW34036   3.343   0.190   6.132  0.7646 -0.2462  0.0726
 7467SOL    HW134037   3.403   0.144   6.073  0.8412  0.0565 -0.0874
 7467SOL    HW234038   3.371   0.280   6.118  0.1877 -0.1007 -0.1423
 7468SOL     OW34039   1.761   4.390  15.605  0.1041  0.0756  0.0698
 7468SOL    HW134040   1.685   4.413  15.552  1.5297  1.2332 -1.4906
 7468SOL    HW234041   1.793   4.309  15.567 -0.9822  0.3197 -1.3592
 7469SOL     OW34042   4.160   0.813  10.975 -0.1583 -1.0389  0.0317
 7469SOL    HW134043   4.177   0.756  10.900 -0.8655 -1.8582  0.4870
 7469SOL    HW234044   4.174   0.901  10.940  0.6789 -0.1198  2.6549
 7470SOL     OW34045   2.208   0.105   5.178  0.3373  0.2228 -0.3398
 7470SOL    HW134046   2.153   0.178   5.151  1.0937 -0.0445 -2.6127
 7470SOL    HW234047   2.153   0.027   5.168 -0.0979  0.9276 -3.2867
 7471SOL     OW34048   3.675   4.636   2.034  0.0035  0.2717 -0.2712
 7471SOL    HW134049   3.626   4.609   2.112  1.5348 -0.1625  0.5382
 7471SOL    HW234050   3.609   4.650   1.966 -0.7268 -0.6664  0.2454
 7472SOL     OW34051   2.059   4.165   4.758  0.0721 -0.5211  0.1580
 7472SOL    HW134052   2.019   4.108   4.824 -1.9467 -0.9707 -1.4324
 7472SOL    HW234053   1.989   4.229   4.746  2.1136  1.6958  0.2682
 7473SOL     OW34054   4.286   2.994   8.744 -0.1896  0.4811  0.4529
 7473SOL    HW134055   4.211   3.049   8.720  0.2152  1.5096  1.5590
 7473SOL    HW234056   4.294   3.007   8.838  0.7236  0.9196  0.3083
 7474SOL     OW34057   2.164   3.878  14.962 -0.2436  0.5350 -0.0898
 7474SOL    HW134058   2.145   3.795  14.919 -0.5700  0.6457 -0.1596
 7474SOL    HW234059   2.258   3.887  14.945 -0.1894  1.1413  0.5330
 7475SOL     OW34060   3.150   2.457   6.881  0.0247  0.0074  0.0879
 7475SOL    HW134061   3.180   2.375   6.919  1.9167  1.3287  1.4884
 7475SOL    HW234062   3.160   2.515   6.957  2.2487  0.1760 -0.3264
 7476SOL     OW34063   2.968   0.733   4.817  0.5694  0.1174  0.7318
 7476SOL    HW134064   3.029   0.783   4.762 -1.1889 -1.0126 -2.2473
 7476SOL    HW234065   2.910   0.794   4.861 -0.9571 -2.2021  1.8978
 7477SOL     OW34066   1.909   3.059  16.312 -0.3456 -0.4899  0.6080
 7477SOL    HW134067   1.841   3.089  16.252  0.2290  0.8764  0.6470
 7477SOL    HW234068   1.885   2.976  16.354 -2.4333 -0.2753 -0.1902
 7478SOL     OW34069   2.031   1.160   2.310 -0.0111  0.7029  0.2483
 7478SOL    HW134070   1.975   1.114   2.371  0.3347  0.5953  0.4878
 7478SOL    HW234071   1.998   1.247   2.334  2.9525  1.4261  1.8098
 7479SOL     OW34072   4.247   3.798   4.489 -0.1547  0.0176 -0.4077
 7479SOL    HW134073   4.182   3.853   4.533 -0.5751 -1.4929  0.8175
 7479SOL    HW234074   4.259   3.841   4.403  0.9471  3.9157  1.6833
 7480SOL     OW34075   2.673   3.793   2.599 -0.6802 -0.0287 -0.7603
 7480SOL    HW134076   2.749   3.840   2.562  0.0424 -0.0223  0.7224
 7480SOL    HW234077   2.614   3.866   2.619  0.6088  0.1492  2.3951
 7481SOL     OW34078   4.642   4.053  16.753 -0.0663 -0.3973  0.0996
 7481SOL    HW134079   4.548   4.038  16.766  0.2209 -1.1741  1.3454
 7481SOL    HW234080   4.647   4.055  16.658 -1.2769 -0.7550  0.0165
 7482SOL     OW34081   1.291   4.204   2.457  0.3724  0.1847  0.2768
 7482SOL    HW134082   1.313   4.292   2.488 -0.4906  0.2545  0.6868
 7482SOL    HW234083   1.313   4.149   2.533  0.7408  2.3552  1.7321
 7483SOL     OW34084   1.397   0.204   6.946 -0.2852 -0.0379  0.6572
 7483SOL    HW134085   1.441   0.125   6.979 -0.1656 -0.8531 -1.4594
 7483SOL    HW234086   1.305   0.177   6.948  0.4192 -2.5734 -0.3537
 7484SOL     OW34087   0.693   2.578   6.638 -0.1926  0.0099  0.5397
 7484SOL    HW134088   0.667   2.521   6.566 -0.3656  0.0594  0.5626
 7484SOL    HW234089   0.782   2.544   6.643  0.3041  1.1936 -0.4028
 7485SOL     OW34090   0.568   3.284   2.321 -0.6811 -0.4773 -0.2747
 7485SOL    HW134091   0.553   3.216   2.255  0.3450 -1.8012  0.8717
 7485SOL    HW234092   0.483   3.297   2.364 -0.2178  3.3594 -0.4923
 7486SOL     OW34093   2.106   0.689   9.295  0.1513 -0.3231 -0.2498
 7486SOL    HW134094   2.061   0.704   9.378  1.8030 -0.0251  0.5953
 7486SOL    HW234095   2.086   0.599   9.268  4.0976 -0.2886 -3.3099
 7487SOL     OW34096   3.002   3.289   4.983  0.0450  0.3432  0.9412
 7487SOL    HW134097   3.090   3.283   4.944 -0.2870 -0.3007  0.2791
 7487SOL    HW234098   2.948   3.247   4.915  0.3024  0.8046  0.4536
 7488SOL     OW34099   4.196   2.245   7.499 -0.3427  0.0619 -0.2675
 7488SOL    HW134100   4.289   2.231   7.518 -0.4734  1.7587  1.5649
 7488SOL    HW234101   4.169   2.153   7.498  0.5204 -0.1738 -1.7387
 7489SOL     OW34102   2.071   3.759   8.355 -0.2858  0.7042  0.1019
 7489SOL    HW134103   2.150   3.800   8.391  1.1828  0.6931 -3.0993
 7489SOL    HW234104   2.020   3.752   8.436  0.8889  1.1040  0.8983
 7490SOL     OW34105   3.085   0.052   8.302 -0.0277  0.5274 -0.3852
 7490SOL    HW134106   3.161   0.028   8.355 -1.2097 -0.6470  0.7652
 7490SOL    HW234107   3.117   0.124   8.248  0.3531  0.2729 -0.4985
 7491SOL     OW34108   2.347   1.594   7.968 -0.1128 -0.2193 -0.4826
 7491SOL    HW134109   2.347   1.671   7.912  1.5450  0.2675  0.1725
 7491SOL    HW234110   2.441   1.597   7.986 -0.3959  1.0893  0.7705
 7492SOL     OW34111   2.505   1.986  16.890 -1.5980 -0.0476  0.4000
 7492SOL    HW134112   2.457   1.938  16.823 -0.9760  0.6504 -0.5447
 7492SOL    HW234113   2.434   1.995  16.954 -2.0967  0.8899 -0.2972
 7493SOL     OW34114   4.503   1.996  12.238 -0.3247 -0.2299 -0.5196
 7493SOL    HW134115   4.437   2.064  12.232 -0.3324 -0.2570 -0.7471
 7493SOL    HW234116   4.456   1.913  12.230  0.6882 -0.5723 -3.0225
 7494SOL     OW34117   3.410   1.355   6.469  0.2494  0.1115 -0.1058
 7494SOL    HW134118   3.376   1.378   6.382 -2.5313 -2.1663  0.3679
 7494SOL    HW234119   3.452   1.438   6.492  1.8949 -1.4091  2.3136
 7495SOL     OW34120   2.458   1.224   3.995  0.7137 -0.0029 -0.3850
 7495SOL    HW134121   2.423   1.300   4.041 -0.5096 -0.7771 -0.0347
 7495SOL    HW234122   2.379   1.210   3.943 -0.7238  0.9725  1.5296
 7496SOL     OW34123   4.201   1.229   1.017  0.1069 -0.0402  0.2925
 7496SOL    HW134124   4.222   1.201   0.928 -2.2428 -0.2823 -0.1827
 7496SOL    HW234125   4.107   1.210   1.015  0.0986  0.2182 -1.9556
 7497SOL     OW34126   4.238   3.887   1.947  0.0919  0.3748 -0.3978
 7497SOL    HW134127   4.306   3.822   1.931 -1.2725 -1.7258  2.3360
 7497SOL    HW234128   4.227   3.882   2.042 -1.8899  1.8537 -0.5393
 7498SOL     OW34129   1.843   3.403   8.191 -0.2641  0.5540 -0.0989
 7498SOL    HW134130   1.809   3.490   8.213 -0.7789  0.0603  1.0115
 7498SOL    HW234131   1.861   3.421   8.098  0.2561  2.1678  0.3075
 7499SOL     OW34132   3.647   4.065   6.690  0.5081  0.7019 -0.4498
 7499SOL    HW134133   3.590   4.101   6.758  0.3661 -1.0880  0.3857
 7499SOL    HW234134   3.706   4.016   6.748  2.6669  2.0820 -1.4979
 7500SOL     OW34135   3.906   4.314   3.502  0.1083  0.3762  0.5345
 7500SOL    HW134136   3.946   4.234   3.537  2.2541  0.1995 -2.3519
 7500SOL    HW234137   3.866   4.340   3.585 -1.4195 -0.0711 -0.0713
 7501SOL     OW34138   2.848   3.271   8.020  0.7787 -0.3244 -0.1935
 7501SOL    HW134139   2.768   3.256   8.070  0.4885  0.1279 -0.5219
 7501SOL    HW234140   2.820   3.347   7.969 -0.1416 -0.1130  0.6242
 7502SOL     OW34141   0.910   2.907  14.506 -1.1085 -0.2134 -0.0880
 7502SOL    HW134142   0.992   2.859  14.505 -0.0515  1.6066  0.6453
 7502SOL    HW234143   0.926   2.990  14.461  1.6752 -0.3463  0.6777
 7503SOL     OW34144   1.431   0.353   5.487  0.3949  0.1592  0.2981
 7503SOL    HW134145   1.457   0.278   5.540 -1.0054 -1.3456 -1.1832
 7503SOL    HW234146   1.375   0.305   5.427 -1.6537  2.5877  0.2745
 7504SOL     OW34147   3.615   3.319  15.708  0.9291 -0.0094  0.8627
 7504SOL    HW134148   3.663   3.280  15.781  2.4468 -0.8325 -0.5634
 7504SOL    HW234149   3.686   3.359  15.658  0.7728 -0.7028  0.0751
 7505SOL     OW34150   0.959   1.212   5.680  0.0829  0.5240 -0.4184
 7505SOL    HW134151   0.897   1.285   5.673  1.1100  1.4241 -0.0934
 7505SOL    HW234152   0.959   1.184   5.589 -0.2703 -0.6477 -0.0611
 7506SOL     OW34153   0.182   0.610   7.268  0.0189  0.2358  0.3316
 7506SOL    HW134154   0.116   0.649   7.325 -0.8242 -1.1356  0.2936
 7506SOL    HW234155   0.258   0.623   7.325  1.2809 -0.9520 -1.0932
 7507SOL     OW34156   2.814   1.098   6.922 -0.1016  0.0181 -0.3355
 7507SOL    HW134157   2.888   1.069   6.976  0.4465  0.9723 -0.5755
 7507SOL    HW234158   2.851   1.186   6.917 -1.0409  0.4616  0.5675
 7508SOL     OW34159   2.380   3.081   7.713 -0.1144 -0.7194 -0.2572
 7508SOL    HW134160   2.391   3.007   7.654  2.2460  0.1025 -0.8538
 7508SOL    HW234161   2.356   3.146   7.647 -0.8782  0.0488  0.7776
 7509SOL     OW34162   2.202   1.504   7.174  0.2963  0.4697  0.1076
 7509SOL    HW134163   2.263   1.501   7.101  1.4668  1.4017  1.0514
 7509SOL    HW234164   2.228   1.436   7.235 -1.2864 -1.3897 -1.2968
 7510SOL     OW34165   0.135   4.480   3.106  0.0835 -0.5574 -0.4029
 7510SOL    HW134166   0.113   4.560   3.153 -0.8125  0.3150 -2.3334
 7510SOL    HW234167   0.047   4.447   3.090 -0.6252 -1.1897  4.9199
 7511SOL     OW34168   3.025   0.474   4.930  0.1522 -0.0234 -0.1704
 7511SOL    HW134169   3.011   0.424   4.849 -1.4752 -1.1506  0.8039
 7511SOL    HW234170   3.014   0.563   4.895 -0.6081  0.5038  1.3728
 7512SOL     OW34171   1.805   4.618   7.940  0.6211  0.0114  0.4744
 7512SOL    HW134172   1.729   4.675   7.930  1.4085  1.1846  1.2116
 7512SOL    HW234173   1.850   4.631   7.856 -0.4921 -0.7822 -0.2531
 7513SOL     OW34174   2.994   3.372   2.862 -0.2028  0.2668  0.4471
 7513SOL    HW134175   2.905   3.354   2.893 -0.8987 -0.6120 -2.0626
 7513SOL    HW234176   2.984   3.467   2.854  1.5167  0.2854 -1.5277
 7514SOL     OW34177   3.521   1.100   3.980  0.0974  0.9271 -0.4651
 7514SOL    HW134178   3.545   1.126   3.891 -1.4192  0.9545 -0.8576
 7514SOL    HW234179   3.609   1.077   4.011  0.1952  0.2218 -1.2548
 7515SOL     OW34180   2.844   3.690   3.375  0.4520 -0.1894  0.1815
 7515SOL    HW134181   2.801   3.630   3.437  0.0312 -0.3048 -0.2209
 7515SOL    HW234182   2.791   3.769   3.388 -1.7957 -1.6749  0.1722
 7516SOL     OW34183   2.654   4.477   1.713 -0.2993 -0.3265  0.4853
 7516SOL    HW134184   2.741   4.456   1.679 -0.0048  0.6798  0.5873
 7516SOL    HW234185   2.654   4.415   1.786 -0.6932  1.2893  1.8930
 7517SOL     OW34186   3.974   4.735   7.524  0.2106 -0.1682  0.4506
 7517SOL    HW134187   4.051   4.725   7.581  0.2990 -0.1419  0.3372
 7517SOL    HW234188   3.990   4.667   7.458  1.1247  0.4486  0.0313
 7518SOL     OW34189   3.394   3.280   3.251 -0.6803  1.1207 -0.1216
 7518SOL    HW134190   3.391   3.376   3.259 -1.0624  1.2304 -1.5425
 7518SOL    HW234191   3.329   3.262   3.183  0.2052 -3.4764  0.3001
 7519SOL     OW34192   0.068   3.010   2.241 -0.6894 -0.5253 -0.0812
 7519SOL    HW134193   0.114   2.991   2.323 -1.4604 -0.8154  0.2899
 7519SOL    HW234194   4.720   2.965   2.254 -0.5791 -1.2533 -1.9510
 7520SOL     OW34195   3.344   0.052   1.159 -0.0560 -0.0241  0.1958
 7520SOL    HW134196   3.411   0.027   1.096  0.6241 -2.5891  1.9435
 7520SOL    HW234197   3.396   0.080   1.234 -1.4380  1.8938  0.4578
 7521SOL     OW34198   1.363   3.059   5.562 -0.1028 -0.3213 -0.9317
 7521SOL    HW134199   1.291   3.025   5.616  1.4949 -0.2578  1.2213
 7521SOL    HW234200   1.437   3.001   5.579  0.5234  0.3086 -1.5160
 7522SOL     OW34201   3.936   0.821   3.389  0.0423  0.3461  0.4433
 7522SOL    HW134202   3.896   0.741   3.423  4.5035 -1.8714  0.4649
 7522SOL    HW234203   3.996   0.856   3.455 -0.2874 -1.8965  1.9202
 7523SOL     OW34204   1.891   1.530   5.073  0.1935 -0.2924 -0.5452
 7523SOL    HW134205   1.955   1.517   5.142 -0.9479  0.2572  0.6320
 7523SOL    HW234206   1.880   1.625   5.077  0.4082 -0.3403  1.0621
 7524SOL     OW34207   4.161   1.002  15.603 -0.5650 -0.1508  0.1847
 7524SOL    HW134208   4.098   1.025  15.534 -1.0454 -0.5528  0.4838
 7524SOL    HW234209   4.145   1.077  15.660  0.9873 -0.3592  0.8636
 7525SOL     OW34210   2.341   4.085   4.221 -0.4042  0.7880  0.1609
 7525SOL    HW134211   2.255   4.110   4.256  0.5100  1.1246  2.1276
 7525SOL    HW234212   2.381   4.055   4.302  0.2351 -0.1149 -0.4978
 7526SOL     OW34213   2.035   1.114   8.797  0.8253 -0.0101 -0.1119
 7526SOL    HW134214   2.005   1.188   8.744 -2.2614 -2.8425 -2.2872
 7526SOL    HW234215   1.965   1.116   8.862 -0.6547  0.6959 -1.7316
 7527SOL     OW34216   4.695   3.037   0.358 -0.3831  0.1831  0.5140
 7527SOL    HW134217   0.017   2.998   0.292  0.1824  0.8287  0.6292
 7527SOL    HW234218   4.724   3.127   0.346  1.1712 -0.6606 -1.9068
 7528SOL     OW34219   0.968   3.219   5.755  0.6774  0.2625 -0.0659
 7528SOL    HW134220   0.889   3.262   5.786  0.4867  0.1099 -0.3420
 7528SOL    HW234221   0.966   3.132   5.795 -0.0622  0.7399  0.9350
 7529SOL     OW34222   2.483   4.229   2.250  0.3785 -0.1742 -0.0255
 7529SOL    HW134223   2.427   4.305   2.234  0.9020  0.1235 -0.4639
 7529SOL    HW234224   2.456   4.209   2.339 -1.5886  1.5862 -0.2150
 7530SOL     OW34225   3.905   1.818  14.484 -0.6851  0.2076 -1.2104
 7530SOL    HW134226   3.914   1.832  14.578 -1.7075 -0.0779 -1.0705
 7530SOL    HW234227   3.837   1.752  14.491 -1.7832  1.6280  1.4556
 7531SOL     OW34228   0.197   0.043   2.963  0.0021 -0.2579 -0.0563
 7531SOL    HW134229   0.133   4.734   2.907 -0.5260 -0.0245  0.3560
 7531SOL    HW234230   0.213   4.719   3.037  0.0208 -2.1409 -1.5634
 7532SOL     OW34231   1.207   1.389   3.798 -0.2450 -0.2495  0.2019
 7532SOL    HW134232   1.291   1.433   3.809  0.3548 -1.6542  1.2242
 7532SOL    HW234233   1.151   1.454   3.757  2.1601  1.4152 -0.4572
 7533SOL     OW34234   3.929   2.280   8.541 -0.1208 -0.4754 -0.2886
 7533SOL    HW134235   3.953   2.189   8.559 -2.4257 -0.9636  0.3574
 7533SOL    HW234236   3.839   2.253   8.523 -0.3901 -0.5723  1.2228
 7534SOL     OW34237   0.129   1.857   8.970  0.0848  0.1608 -0.0690
 7534SOL    HW134238   0.152   1.794   8.901 -0.7112  0.8193 -0.9474
 7534SOL    HW234239   0.177   1.933   8.935  0.5046  0.1297  0.4423
 7535SOL     OW34240   4.707   1.684  15.976  0.7466  0.8464  0.2412
 7535SOL    HW134241   4.683   1.591  15.979 -0.8099  1.2608  0.9940
 7535SOL    HW234242   4.697   1.703  16.070  0.9898 -0.0856  0.4593
 7536SOL     OW34243   2.383   1.408  14.196 -0.4246  0.0217  0.0386
 7536SOL    HW134244   2.389   1.330  14.250 -0.6683  0.4579  0.7066
 7536SOL    HW234245   2.475   1.435  14.191 -0.1733 -0.5125  1.8224
 7537SOL     OW34246   1.451   3.274  16.253 -0.3891 -0.4048 -0.3407
 7537SOL    HW134247   1.371   3.296  16.300  0.2325  2.6213 -0.6517
 7537SOL    HW234248   1.436   3.328  16.176 -0.5828  2.2092  1.5096
 7538SOL     OW34249   3.420   3.879   5.748 -0.2499 -0.4610 -0.6646
 7538SOL    HW134250   3.408   3.849   5.838 -1.0855 -1.2852 -1.0432
 7538SOL    HW234251   3.359   3.827   5.696  2.2099 -3.6633 -0.3236
 7539SOL     OW34252   4.553   3.264   8.670 -0.2735  0.2202 -0.6424
 7539SOL    HW134253   4.590   3.311   8.744 -0.2803 -1.7239  0.5936
 7539SOL    HW234254   4.626   3.205   8.652 -2.2812 -1.6243 -2.7557
 7540SOL     OW34255   3.833   2.754   5.007 -0.4217 -0.6214  0.0545
 7540SOL    HW134256   3.766   2.816   5.037 -0.0166  0.1108 -0.5371
 7540SOL    HW234257   3.848   2.701   5.085 -0.0548 -0.9969 -0.2753
 7541SOL     OW34258   3.094   1.036   3.708  0.0190 -0.5359  0.2812
 7541SOL    HW134259   3.135   1.107   3.757  2.0178 -0.1562 -1.9706
 7541SOL    HW234260   3.162   0.970   3.697  0.3282 -0.1534 -0.1153
 7542SOL     OW34261   1.841   3.143   2.444  0.9260  0.1129 -0.1758
 7542SOL    HW134262   1.758   3.165   2.403  0.0971 -2.7914 -0.0166
 7542SOL    HW234263   1.817   3.122   2.534  1.3019 -3.1595 -0.8298
 7543SOL     OW34264   2.381   1.773   6.106  0.7262 -0.1603  0.2684
 7543SOL    HW134265   2.286   1.775   6.116  0.7989 -1.3470  1.1860
 7543SOL    HW234266   2.386   1.697   6.048 -1.7624 -0.2895  0.2472
 7544SOL     OW34267   0.871   2.467   3.257 -0.0845 -0.6124 -0.0075
 7544SOL    HW134268   0.859   2.394   3.317  0.0831 -2.4337 -2.1969
 7544SOL    HW234269   0.883   2.544   3.312 -0.8338 -0.2415 -0.3561
 7545SOL     OW34270   0.992   1.743   6.073  0.0006  0.4097  0.7085
 7545SOL    HW134271   1.025   1.668   6.122 -3.3632 -1.7771 -0.3413
 7545SOL    HW234272   0.899   1.725   6.061  0.1864  0.0926 -0.3066
 7546SOL     OW34273   0.292   1.942  12.163  0.3435  0.5350 -0.2589
 7546SOL    HW134274   0.210   1.961  12.209  1.0686  2.3327  0.2830
 7546SOL    HW234275   0.316   2.023  12.117  1.3209  0.0811 -0.5405
 7547SOL     OW34276   0.215   2.151   5.834 -0.2188  0.2224  0.0438
 7547SOL    HW134277   0.188   2.062   5.855  2.9099 -0.8527 -0.3963
 7547SOL    HW234278   0.296   2.134   5.786 -0.2393  1.0396 -0.2795
 7548SOL     OW34279   1.755   0.049   9.306  0.2731 -0.2891 -0.4425
 7548SOL    HW134280   1.678   0.034   9.360  0.0124 -1.0708 -1.0343
 7548SOL    HW234281   1.821   0.056   9.375 -1.3087  0.7662  0.9684
 7549SOL     OW34282   3.034   3.864   4.664 -0.1968 -0.0307  0.4875
 7549SOL    HW134283   3.066   3.938   4.715  3.2871  0.1462 -1.9776
 7549SOL    HW234284   2.964   3.909   4.617  0.1203 -1.2462 -1.1439
 7550SOL     OW34285   3.700   3.068   1.233 -0.0411  0.4787 -0.2904
 7550SOL    HW134286   3.634   3.021   1.284 -0.1652  1.8556  0.8039
 7550SOL    HW234287   3.692   3.017   1.152  1.1822 -1.2939  0.7157
 7551SOL     OW34288   0.887   3.291   3.173  0.5505  0.2337  0.5541
 7551SOL    HW134289   0.849   3.378   3.165 -0.1772 -0.1752 -0.3991
 7551SOL    HW234290   0.859   3.258   3.087  4.0676  0.1020 -0.5482
 7552SOL     OW34291   1.571   3.971   2.937 -0.4542 -0.4681 -0.3176
 7552SOL    HW134292   1.645   4.031   2.928 -1.1865  0.6933  1.4636
 7552SOL    HW234293   1.527   4.003   3.016 -0.7385  0.3213 -0.8020
 7553SOL     OW34294   0.568   2.903   2.336  0.1132  0.4012 -0.4635
 7553SOL    HW134295   0.621   2.932   2.410 -1.6682 -0.1549  1.0084
 7553SOL    HW234296   0.634   2.857   2.283  0.4076  0.1731  0.1006
 7554SOL     OW34297   0.196   1.580  16.603 -0.2629  0.2180  0.3696
 7554SOL    HW134298   0.251   1.527  16.546 -0.7813  0.3978 -0.2996
 7554SOL    HW234299   0.177   1.645  16.535 -0.8235  0.2211  0.5296
 7555SOL     OW34300   3.029   4.267   6.980  0.5092  0.2426 -0.3565
 7555SOL    HW134301   3.040   4.339   6.918 -0.4434  0.8309  0.1656
 7555SOL    HW234302   2.944   4.280   7.021  0.3814  1.4850 -1.0133
 7556SOL     OW34303   0.801   2.033  11.101 -0.1764  0.3079  0.4665
 7556SOL    HW134304   0.823   1.945  11.132  0.8681  0.4171  0.0295
 7556SOL    HW234305   0.725   2.011  11.047  0.8657 -1.1050 -0.4260
 7557SOL     OW34306   0.884   3.491   7.052 -0.3613 -0.2372  0.0094
 7557SOL    HW134307   0.945   3.442   7.107 -0.2759 -1.4499 -1.1916
 7557SOL    HW234308   0.885   3.436   6.975  0.3419 -1.9610  1.2492
 7558SOL     OW34309   0.578   2.052  10.007 -0.4487 -0.3502  0.0465
 7558SOL    HW134310   0.580   1.957   9.996  0.8832 -0.1941 -1.0536
 7558SOL    HW234311   0.487   2.073   9.986 -1.0304 -0.2489  2.6987
 7559SOL     OW34312   3.110   4.612  13.107 -0.1473 -0.0802  0.5669
 7559SOL    HW134313   3.178   4.571  13.053 -0.5598 -0.3038  0.2274
 7559SOL    HW234314   3.042   4.618  13.040 -0.9736 -1.1904  1.3252
 7560SOL     OW34315   3.549   4.576   2.270  0.0073 -0.1866  0.0781
 7560SOL    HW134316   3.497   4.497   2.287 -1.9546  0.9753 -0.6132
 7560SOL    HW234317   3.632   4.554   2.313 -0.1433 -0.8791  0.0132
 7561SOL     OW34318   4.600   2.127   2.163 -0.0155  0.0114  0.0915
 7561SOL    HW134319   4.587   2.037   2.193 -0.2213  0.5098  1.5277
 7561SOL    HW234320   4.581   2.186   2.237  0.8694  2.6923 -1.8281
 7562SOL     OW34321   0.617   3.375  14.404  0.1813 -0.0763 -0.1477
 7562SOL    HW134322   0.689   3.373  14.342 -1.1395  0.6644 -1.7051
 7562SOL    HW234323   0.536   3.373  14.353 -0.7676  0.3454  1.3493
 7563SOL     OW34324   1.591   1.971   9.526  0.3988 -0.4911 -0.2273
 7563SOL    HW134325   1.606   1.880   9.552  2.2290 -0.0433  0.2989
 7563SOL    HW234326   1.649   1.974   9.450  1.7835  1.4209  0.8951
 7564SOL     OW34327   4.166   0.459   5.610  0.0700  0.0971 -0.1676
 7564SOL    HW134328   4.110   0.534   5.631  0.3966  0.8810 -2.0524
 7564SOL    HW234329   4.235   0.466   5.676 -0.5971  0.6678  0.4627
 7565SOL     OW34330   4.581   0.296   8.030 -0.7501 -0.4300 -0.3285
 7565SOL    HW134331   4.560   0.238   8.102 -0.3416  1.5430  1.3784
 7565SOL    HW234332   4.513   0.269   7.969 -1.6567 -0.0201  0.5126
 7566SOL     OW34333   3.177   0.945   8.211 -0.4659 -0.2291  0.1658
 7566SOL    HW134334   3.208   1.027   8.249 -3.0039  0.6852  0.2788
 7566SOL    HW234335   3.203   0.879   8.276  0.0506  0.3242  0.5241
 7567SOL     OW34336   2.583   1.162   4.259 -0.6549 -0.0277 -0.1553
 7567SOL    HW134337   2.624   1.193   4.178  3.0125  0.3080  1.8324
 7567SOL    HW234338   2.507   1.220   4.260 -0.4820  0.2081 -0.6610
 7568SOL     OW34339   3.060   2.364   3.595 -0.3355 -0.2503  0.1847
 7568SOL    HW134340   3.143   2.365   3.547  0.0022  1.0782  0.8111
 7568SOL    HW234341   3.075   2.442   3.647 -0.1496  0.2611 -0.6439
 7569SOL     OW34342   2.520   0.464   1.688 -0.0167 -0.2862  0.2349
 7569SOL    HW134343   2.562   0.521   1.623  0.0283  0.3729  0.8526
 7569SOL    HW234344   2.520   0.380   1.642  0.0244  0.0544 -0.3894
 7570SOL     OW34345   3.096   3.106   3.416 -0.4821 -0.3662 -0.1775
 7570SOL    HW134346   3.106   3.034   3.354  0.6352  0.4411 -0.9266
 7570SOL    HW234347   3.078   3.171   3.348 -2.7746 -1.4880 -0.6721
 7571SOL     OW34348   1.209   3.944   2.861  0.0021 -0.0570  0.3188
 7571SOL    HW134349   1.245   3.856   2.873  0.4585  0.1344  0.3611
 7571SOL    HW234350   1.115   3.933   2.875 -0.3593  0.7887 -1.5238
 7572SOL     OW34351   2.336   0.764   9.528  0.5984 -0.1076  0.1295
 7572SOL    HW134352   2.415   0.760   9.475  0.3737  0.0389 -0.2113
 7572SOL    HW234353   2.362   0.720   9.610  0.7064  1.7392  1.0923
 7573SOL     OW34354   4.217   4.414   4.622 -0.6988 -0.3219 -0.4898
 7573SOL    HW134355   4.168   4.335   4.599  0.3033 -1.1199  0.1260
 7573SOL    HW234356   4.258   4.391   4.705 -0.4384  1.0636 -0.2435
 7574SOL     OW34357   1.326   4.382   8.235  0.2612  0.1771  0.6178
 7574SOL    HW134358   1.311   4.389   8.330  0.3442  3.2521  0.4008
 7574SOL    HW234359   1.378   4.462   8.227  0.4462  0.1698  1.7137
 7575SOL     OW34360   4.255   2.983   6.617  0.3933 -0.0258  0.5031
 7575SOL    HW134361   4.173   3.015   6.656 -1.0961 -1.3790 -1.5564
 7575SOL    HW234362   4.317   3.023   6.678 -0.5744  2.1135  0.0477
 7576SOL     OW34363   0.689   2.912   8.053  0.3061 -0.2487  0.0502
 7576SOL    HW134364   0.625   2.844   8.076  0.1778  0.3531  1.4231
 7576SOL    HW234365   0.698   2.893   7.959 -1.6034  0.5666 -0.3225
 7577SOL     OW34366   4.544   1.973   2.527 -0.5446  0.3863 -0.1708
 7577SOL    HW134367   4.612   1.944   2.466  0.0230  1.0115  0.1692
 7577SOL    HW234368   4.483   1.899   2.533 -0.1520  0.1938  1.5466
 7578SOL     OW34369   4.626   0.268  10.808 -0.4440  0.4132  0.4005
 7578SOL    HW134370   4.566   0.209  10.854  0.4470 -0.3934  0.5303
 7578SOL    HW234371   4.703   0.270  10.865  1.4268  2.4149 -2.2289
 7579SOL     OW34372   1.490   0.097  10.097 -0.1145  0.1956  0.3789
 7579SOL    HW134373   1.491   0.042  10.018 -0.5889  0.1286  0.4217
 7579SOL    HW234374   1.466   0.181  10.058  1.5138  0.8440  0.7621
 7580SOL     OW34375   2.002   0.075   8.566  0.0201  0.1897 -0.2083
 7580SOL    HW134376   2.096   0.066   8.576  0.1763 -0.0115 -1.9794
 7580SOL    HW234377   1.973   0.128   8.641 -1.3173  2.7377 -2.5221
 7581SOL     OW34378   0.914   3.372   8.188 -0.5115  0.0064 -0.0532
 7581SOL    HW134379   0.986   3.358   8.126 -0.8083  0.8560 -0.5879
 7581SOL    HW234380   0.857   3.296   8.178  1.2406 -1.3962  0.6695
 7582SOL     OW34381   2.473   1.063   7.495  0.5893  0.3233 -0.3414
 7582SOL    HW134382   2.509   1.071   7.583  0.5692  1.2876 -0.4236
 7582SOL    HW234383   2.555   1.044   7.451  0.4870 -2.1777  0.5150
 7583SOL     OW34384   3.309   0.480   2.739 -0.5973 -0.1458 -0.3613
 7583SOL    HW134385   3.281   0.453   2.826  0.8201  0.1788  0.2026
 7583SOL    HW234386   3.403   0.463   2.751 -0.7690 -0.4680  0.5231
 7584SOL     OW34387   1.342   3.763   3.193  1.5197  0.3975 -0.7291
 7584SOL    HW134388   1.354   3.857   3.179 -1.5962  0.4234 -3.1132
 7584SOL    HW234389   1.255   3.767   3.153  1.7587 -1.0949 -1.3964
 7585SOL     OW34390   3.547   0.658   5.986 -0.3194 -0.3429 -0.4306
 7585SOL    HW134391   3.456   0.665   6.013 -0.0922  1.3365 -0.1435
 7585SOL    HW234392   3.595   0.618   6.059  0.0869  1.8819  0.5029
 7586SOL     OW34393   0.751   1.591   6.735 -0.8227  1.0739 -0.0214
 7586SOL    HW134394   0.666   1.608   6.777 -1.6887  0.6023 -1.5992
 7586SOL    HW234395   0.729   1.505   6.699  1.7623  0.4454 -0.0647
 7587SOL     OW34396   1.935   1.621   9.048 -0.0387  0.7087 -0.0004
 7587SOL    HW134397   1.909   1.692   9.106 -0.1073  0.3200  0.4504
 7587SOL    HW234398   1.940   1.553   9.116  0.5233  0.0762 -0.6789
 7588SOL     OW34399   0.488   4.333  14.478  0.0059  0.3201 -0.2937
 7588SOL    HW134400   0.447   4.287  14.552  1.8301 -1.5071 -0.4296
 7588SOL    HW234401   0.576   4.296  14.474 -0.1477 -0.2285  1.2438
 7589SOL     OW34402   0.180   1.833  16.413  0.1028  0.3443 -0.7580
 7589SOL    HW134403   0.201   1.926  16.419 -0.6906  0.4394  0.7706
 7589SOL    HW234404   0.266   1.802  16.387  0.1179 -0.7319  0.5385
 7590SOL     OW34405   1.662   1.852   5.328 -0.0323  0.7905  0.5213
 7590SOL    HW134406   1.633   1.839   5.418 -0.3284  0.7481  0.4194
 7590SOL    HW234407   1.711   1.934   5.335 -2.2963  2.2066 -0.1727
 7591SOL     OW34408   2.942   2.044   7.814 -0.0203 -0.1791  0.4981
 7591SOL    HW134409   2.980   1.977   7.757 -1.0234  0.1342 -0.5265
 7591SOL    HW234410   3.020   2.077   7.858 -0.6413  1.0966  0.6219
 7592SOL     OW34411   1.139   1.677   4.051  0.4927 -0.5540  0.5398
 7592SOL    HW134412   1.193   1.741   4.098 -0.6607 -0.6497  2.0014
 7592SOL    HW234413   1.161   1.604   4.108  0.7353  0.1626  1.3664
 7593SOL     OW34414   2.785   1.923   3.623  0.3253  0.0328 -0.4895
 7593SOL    HW134415   2.870   1.966   3.633  1.1453 -1.2682 -1.8606
 7593SOL    HW234416   2.733   2.004   3.618  2.7136  1.5650 -0.4675
 7594SOL     OW34417   4.220   0.368   8.844  0.6851  0.3206 -0.0103
 7594SOL    HW134418   4.303   0.350   8.800 -2.3537 -3.1741 -4.3064
 7594SOL    HW234419   4.212   0.463   8.848  1.4554  0.3151  1.4321
 7595SOL     OW34420   3.861   4.596   0.566 -0.1584 -0.6493 -0.7766
 7595SOL    HW134421   3.824   4.523   0.517  2.0910 -2.0776 -0.3523
 7595SOL    HW234422   3.842   4.670   0.508 -2.8745 -1.5629 -1.0638
 7596SOL     OW34423   0.848   4.117   6.451 -0.6695 -0.2757 -0.8964
 7596SOL    HW134424   0.830   4.023   6.459 -0.1785 -0.2570  0.4028
 7596SOL    HW234425   0.908   4.116   6.377  1.1023 -1.6758  0.5637
 7597SOL     OW34426   2.276   4.211   1.370 -0.0096  0.6949  0.3684
 7597SOL    HW134427   2.357   4.189   1.417 -0.2337 -1.2017 -0.1507
 7597SOL    HW234428   2.257   4.132   1.320  0.9126  0.1740  0.8325
 7598SOL     OW34429   4.681   2.735   6.648 -0.0945  0.1895  0.0787
 7598SOL    HW134430   4.703   2.810   6.592  0.3357  0.6279  0.8405
 7598SOL    HW234431   4.639   2.687   6.576 -1.7518 -0.7165  1.6708
 7599SOL     OW34432   0.525   4.643   6.395 -0.4651  0.6856 -0.1973
 7599SOL    HW134433   0.602   4.614   6.346 -1.0198 -1.1101  0.0067
 7599SOL    HW234434   0.566   4.664   6.478 -1.2557 -1.0754  0.6388
 7600SOL     OW34435   2.480   2.171  10.058 -0.0007 -0.0471  0.2527
 7600SOL    HW134436   2.535   2.210  10.126 -1.3747  1.7505  0.3172
 7600SOL    HW234437   2.393   2.200  10.083  0.3810 -0.2072  1.7764
 7601SOL     OW34438   3.488   0.824  14.207 -0.0707  0.1179  0.3397
 7601SOL    HW134439   3.566   0.800  14.157 -1.3170  1.2227 -2.1116
 7601SOL    HW234440   3.497   0.769  14.285 -0.5642  1.4193  1.3257
 7602SOL     OW34441   4.256   0.730  12.081  0.2259 -0.0936 -0.0443
 7602SOL    HW134442   4.344   0.766  12.072  0.2931 -0.2913 -0.1698
 7602SOL    HW234443   4.210   0.804  12.121  0.1084 -0.4915  0.5602
 7603SOL     OW34444   3.850   1.918  13.663 -0.2408  0.1337 -0.3401
 7603SOL    HW134445   3.763   1.880  13.672 -0.8451  1.5897 -0.0864
 7603SOL    HW234446   3.892   1.834  13.683 -0.3289  0.3947  0.9217
 7604SOL     OW34447   3.768   1.604   1.542 -0.1516  0.2314 -0.1156
 7604SOL    HW134448   3.751   1.524   1.493  1.4580  0.8389 -1.6657
 7604SOL    HW234449   3.808   1.565   1.620 -1.8000 -2.6563 -0.7221
 7605SOL     OW34450   3.846   0.698   7.600 -0.1236  0.1617  0.3701
 7605SOL    HW134451   3.788   0.770   7.626  0.4057  0.0726  1.8329
 7605SOL    HW234452   3.900   0.694   7.679 -0.3070 -0.1084  0.4796
 7606SOL     OW34453   3.637   4.252   1.693 -0.6379 -0.4342 -0.0287
 7606SOL    HW134454   3.682   4.309   1.756 -3.7972 -0.5575  2.3170
 7606SOL    HW234455   3.567   4.307   1.658  0.1078 -0.6464 -1.8465
 7607SOL     OW34456   4.402   3.340   7.862  0.0901 -0.4947  0.3103
 7607SOL    HW134457   4.446   3.256   7.877 -1.5993 -1.3301  0.6010
 7607SOL    HW234458   4.311   3.324   7.889  0.2114 -1.1405  0.3347
 7608SOL     OW34459   3.957   3.211  15.184  0.3891 -0.5682 -0.4346
 7608SOL    HW134460   3.950   3.300  15.151  0.6093 -0.3296  0.1679
 7608SOL    HW234461   3.866   3.191  15.204  0.8348 -3.2953 -1.0762
 7609SOL     OW34462   1.234   1.090   0.382 -0.1321 -0.4537 -0.6215
 7609SOL    HW134463   1.279   1.174   0.377 -0.1546 -0.3810  0.4667
 7609SOL    HW234464   1.216   1.073   0.474 -1.2089 -0.3463 -0.8119
 7610SOL     OW34465   3.174   3.333   3.543 -0.1203 -0.4951 -0.1946
 7610SOL    HW134466   3.088   3.333   3.586  0.3636  2.3635  0.7536
 7610SOL    HW234467   3.177   3.242   3.514 -1.5927 -0.5748 -0.1122
 7611SOL     OW34468   1.702   0.187   5.630  0.1702  0.3688  0.1875
 7611SOL    HW134469   1.750   0.251   5.681  1.6478 -1.6443  1.3088
 7611SOL    HW234470   1.742   0.190   5.543  0.5706 -1.3257  0.3065
 7612SOL     OW34471   3.397   1.774  11.222 -0.4138 -0.4274  0.2812
 7612SOL    HW134472   3.417   1.727  11.304  0.3680  0.8302  0.8211
 7612SOL    HW234473   3.302   1.778  11.221 -0.4207 -1.2338 -2.7738
 7613SOL     OW34474   3.459   3.262   4.737 -0.6721  0.0091 -0.4481
 7613SOL    HW134475   3.448   3.308   4.654 -0.3056  1.2231  0.1700
 7613SOL    HW234476   3.510   3.192   4.698 -0.7002 -0.3673  0.1962
 7614SOL     OW34477   2.437   2.341   9.171  0.3373  0.2122 -0.4596
 7614SOL    HW134478   2.422   2.247   9.175  0.0886  0.0866 -3.7062
 7614SOL    HW234479   2.449   2.349   9.076 -1.4208 -0.3285 -0.7272
 7615SOL     OW34480   4.230   1.301   3.673  0.4217  0.0837  0.2880
 7615SOL    HW134481   4.241   1.243   3.749  1.3752  0.3543  0.3540
 7615SOL    HW234482   4.278   1.247   3.610 -2.0504 -3.1193  1.1225
 7616SOL     OW34483   0.013   1.018  12.483 -0.4049  0.2150 -0.7606
 7616SOL    HW134484   4.723   0.984  12.398 -1.2766  0.2108 -0.4892
 7616SOL    HW234485   4.735   0.944  12.543 -0.7061 -0.3131 -1.4695
 7617SOL     OW34486   3.732   1.728  10.484  0.0747  0.3000 -0.2046
 7617SOL    HW134487   3.707   1.640  10.455 -0.7324  0.1308  1.0135
 7617SOL    HW234488   3.825   1.712  10.500 -0.4466 -3.1969 -0.5407
 7618SOL     OW34489   1.483   1.378   4.304  0.0944  0.0341  0.2303
 7618SOL    HW134490   1.502   1.302   4.360  0.7429 -1.2425 -1.7257
 7618SOL    HW234491   1.430   1.341   4.234 -0.5182  1.4294 -0.0435
 7619SOL     OW34492   0.823   0.524   8.390  0.5284  0.1250 -0.2660
 7619SOL    HW134493   0.804   0.534   8.297 -2.2646 -0.1019  0.2660
 7619SOL    HW234494   0.761   0.458   8.421  3.0083 -2.2624 -0.4962
 7620SOL     OW34495   0.240   1.119   5.106 -0.2425  0.1581  0.3151
 7620SOL    HW134496   0.285   1.089   5.185 -1.1856  1.0853  1.2118
 7620SOL    HW234497   0.181   1.046   5.093 -2.7394  2.3131 -0.5098
 7621SOL     OW34498   3.229   3.617   8.803 -0.0293  0.4763  0.1317
 7621SOL    HW134499   3.290   3.668   8.749  1.0318 -1.9097 -0.8902
 7621SOL    HW234500   3.236   3.650   8.892 -2.9718  1.0874  0.1301
 7622SOL     OW34501   0.703   4.589   8.918  0.4406  0.4108  0.1607
 7622SOL    HW134502   0.694   4.504   8.874  2.8118  1.1594 -1.7970
 7622SOL    HW234503   0.684   4.656   8.852 -3.0042 -0.1588  0.5987
 7623SOL     OW34504   1.271   0.204   2.823  0.2379  0.2640  0.3631
 7623SOL    HW134505   1.282   0.262   2.898  0.0690 -0.2060  0.7554
 7623SOL    HW234506   1.355   0.200   2.777  0.4408 -0.1030  0.7653
 7624SOL     OW34507   2.515   1.827   9.882  0.6528  0.2595  0.3405
 7624SOL    HW134508   2.441   1.874   9.844  0.5567  2.3370  3.1204
 7624SOL    HW234509   2.539   1.764   9.813  2.7453 -0.8453  2.0709
 7625SOL     OW34510   4.067   2.578   4.501  0.3144 -0.3014  0.6299
 7625SOL    HW134511   4.087   2.659   4.549 -0.2614  1.1194 -1.5551
 7625SOL    HW234512   4.159   2.558   4.486 -0.0229  0.4118 -2.2641
 7626SOL     OW34513   0.286   0.707  14.039 -0.2686  0.6564  0.6414
 7626SOL    HW134514   0.283   0.794  13.999  0.1529  1.2554  1.9217
 7626SOL    HW234515   0.190   0.702  14.049 -0.1325 -0.9041  1.1723
 7627SOL     OW34516   1.071   1.442   4.424  0.4817  0.6348  0.0846
 7627SOL    HW134517   1.079   1.375   4.357 -1.6761 -0.2360  0.6949
 7627SOL    HW234518   1.149   1.494   4.404 -0.4606  1.7821 -0.5890
 7628SOL     OW34519   3.333   3.855   9.294  0.3454 -0.3448 -0.1898
 7628SOL    HW134520   3.414   3.806   9.284  0.6486 -0.0600  0.8922
 7628SOL    HW234521   3.319   3.888   9.205  0.3908  1.4853  0.4830
 7629SOL     OW34522   3.128   4.467   2.362  0.7763  0.1583 -0.4718
 7629SOL    HW134523   3.034   4.455   2.368  0.3523  2.7200 -1.8398
 7629SOL    HW234524   3.135   4.558   2.391  0.3299 -0.3453  1.2119
 7630SOL     OW34525   2.303   1.139  15.083 -0.2750  0.4733 -0.1622
 7630SOL    HW134526   2.264   1.098  15.160 -0.6952  0.7860 -0.2122
 7630SOL    HW234527   2.319   1.061  15.030 -1.0530  0.6931 -0.7238
 7631SOL     OW34528   2.201   1.873   4.322 -0.1410  0.0990  0.3163
 7631SOL    HW134529   2.265   1.857   4.253  0.2801 -0.3944  0.8175
 7631SOL    HW234530   2.229   1.824   4.400 -0.1997 -1.1391 -0.4396
 7632SOL     OW34531   4.017   1.560   4.946  0.7288  0.2093  0.3538
 7632SOL    HW134532   4.005   1.519   4.861  0.4702 -0.5260  0.7439
 7632SOL    HW234533   3.938   1.613   4.959  0.0022 -0.5597 -0.9115
 7633SOL     OW34534   1.619   4.057   3.657  0.6058 -0.1533 -0.9684
 7633SOL    HW134535   1.648   3.966   3.654 -2.3139 -1.0525 -1.9158
 7633SOL    HW234536   1.630   4.081   3.749  0.5741 -0.0697 -0.9863
 7634SOL     OW34537   1.783   0.139   8.954 -0.1100  0.1374  0.2678
 7634SOL    HW134538   1.693   0.106   8.957  0.0552 -0.3872 -0.8665
 7634SOL    HW234539   1.841   0.063   8.962 -3.8211 -2.6506  0.7740
 7635SOL     OW34540   3.355   0.558  12.002  0.1823  0.4221  0.4815
 7635SOL    HW134541   3.320   0.509  12.076 -1.9487 -0.0124 -0.8093
 7635SOL    HW234542   3.448   0.539  12.010 -0.1239 -0.0649  2.7022
 7636SOL     OW34543   2.523   3.723  15.353  0.5280  0.1109  0.7129
 7636SOL    HW134544   2.439   3.717  15.398 -0.7658 -0.7032 -1.8386
 7636SOL    HW234545   2.565   3.642  15.384 -1.7874 -1.7974 -1.1933
 7637SOL     OW34546   2.832   3.845  11.505 -0.0733 -0.7325  0.6828
 7637SOL    HW134547   2.875   3.929  11.492  2.7762 -2.2227  0.4930
 7637SOL    HW234548   2.901   3.787  11.537 -0.6245 -1.2171  0.9935
 7638SOL     OW34549   2.643   3.341  16.333  0.4771 -0.2241  0.0084
 7638SOL    HW134550   2.714   3.396  16.363 -1.6161  1.9144  1.0399
 7638SOL    HW234551   2.584   3.411  16.305  1.2579  0.9925  1.4303
 7639SOL     OW34552   3.596   2.126   4.403  0.0048 -0.1333  0.1783
 7639SOL    HW134553   3.516   2.143   4.352  0.2932  3.2293  0.8825
 7639SOL    HW234554   3.633   2.214   4.399  0.0279 -0.2861 -3.1917
 7640SOL     OW34555   0.895   4.267   2.425  0.0887  0.2945  0.2325
 7640SOL    HW134556   0.963   4.225   2.372  0.4267  0.6635  0.3695
 7640SOL    HW234557   0.876   4.191   2.479  2.6775 -0.4404  0.1226
 7641SOL     OW34558   3.400   3.985  11.097 -0.6184  0.5897  0.1453
 7641SOL    HW134559   3.460   3.996  11.171  0.2943  2.0520 -0.8067
 7641SOL    HW234560   3.325   3.958  11.150 -0.7880  1.8174  0.5191
 7642SOL     OW34561   0.258   1.537   2.567 -0.3872  0.2809  0.3246
 7642SOL    HW134562   0.319   1.466   2.587  0.9836  0.5558 -2.9725
 7642SOL    HW234563   0.290   1.567   2.482 -2.3085 -0.6529 -0.7238
 7643SOL     OW34564   0.863   4.030   4.060  0.6649 -0.2597  0.0314
 7643SOL    HW134565   0.876   4.048   4.153  2.5431 -1.3907 -0.0267
 7643SOL    HW234566   0.883   4.112   4.015  0.1270  0.6281  1.4048
 7644SOL     OW34567   2.095   1.035   5.850  0.1824 -0.6463 -0.0498
 7644SOL    HW134568   2.176   0.987   5.834 -0.0309 -0.7216 -0.9250
 7644SOL    HW234569   2.040   0.979   5.904 -0.2133 -0.2203 -0.0027
 7645SOL     OW34570   1.758   2.173   7.297  0.0967  0.0996 -0.1859
 7645SOL    HW134571   1.710   2.199   7.218 -0.9061 -0.3195  0.2825
 7645SOL    HW234572   1.826   2.118   7.260 -0.4903 -0.5111 -0.3633
 7646SOL     OW34573   4.005   2.740   4.163 -0.4752  0.4070  0.6820
 7646SOL    HW134574   4.094   2.724   4.196 -0.3525  0.4476  0.3718
 7646SOL    HW234575   4.013   2.680   4.089 -0.3262  1.0165  0.2009
 7647SOL     OW34576   2.714   4.597  15.527 -0.1015 -0.5059  0.1621
 7647SOL    HW134577   2.726   4.575  15.435 -1.0354 -0.7915  0.1103
 7647SOL    HW234578   2.634   4.547  15.535  0.8705 -2.1345 -0.3409
 7648SOL     OW34579   2.363   2.038  13.135 -0.1413 -0.5179 -0.2246
 7648SOL    HW134580   2.294   2.007  13.075 -1.7357 -1.2690  2.0236
 7648SOL    HW234581   2.333   2.122  13.169 -0.5854 -0.0060 -1.8601
 7649SOL     OW34582   0.016   4.587   4.742 -0.3168 -0.3632  0.5957
 7649SOL    HW134583   4.668   4.578   4.789 -1.0559 -0.8320 -0.8296
 7649SOL    HW234584   4.731   4.545   4.659  3.0146  0.1586 -0.4703
 7650SOL     OW34585   0.909   0.160  17.348 -0.1923 -0.4446 -0.1833
 7650SOL    HW134586   0.847   0.111  17.402  2.5481 -0.5087  2.8542
 7650SOL    HW234587   0.979   0.095  17.342  0.2989 -0.0026  0.8195
 7651SOL     OW34588   3.697   2.384   6.676 -0.3913 -0.0666  0.5269
 7651SOL    HW134589   3.704   2.442   6.601 -2.9544  0.3621  0.6199
 7651SOL    HW234590   3.620   2.327   6.665  0.0691 -0.5908  0.0524
 7652SOL     OW34591   2.168   2.062   4.631 -0.3007  0.0222  0.6000
 7652SOL    HW134592   2.099   2.067   4.565 -0.9770  1.5068  1.4357
 7652SOL    HW234593   2.248   2.067   4.578  0.8716  1.0562  2.4647
 7653SOL     OW34594   3.193   4.493   8.417  0.3951 -0.2919  0.3275
 7653SOL    HW134595   3.279   4.521   8.387 -0.1447 -0.5364 -1.4615
 7653SOL    HW234596   3.210   4.446   8.499  0.2057  0.2145  0.6591
 7654SOL     OW34597   2.848   3.491  16.434 -0.1224 -0.4358 -0.0839
 7654SOL    HW134598   2.898   3.518  16.358 -0.8987 -0.2456 -0.5288
 7654SOL    HW234599   2.866   3.566  16.490 -0.4692 -0.7238  0.4211
 7655SOL     OW34600   4.560   2.816  15.952 -0.1003 -0.0496  0.0570
 7655SOL    HW134601   4.527   2.757  15.884 -1.4199  1.8057 -0.9042
 7655SOL    HW234602   4.498   2.787  16.019 -1.9540 -1.9904 -2.5053
 7656SOL     OW34603   3.205   2.510   9.385  0.5101  0.4350  0.5308
 7656SOL    HW134604   3.187   2.549   9.470  1.5922 -0.8804  1.3597
 7656SOL    HW234605   3.300   2.513   9.400  0.7982 -2.2448 -0.6878
 7657SOL     OW34606   0.558   1.558  12.750  0.6958 -0.4816  0.1628
 7657SOL    HW134607   0.551   1.507  12.669 -2.7348  0.4894 -0.1504
 7657SOL    HW234608   0.542   1.504  12.827  2.0814 -2.8170 -1.1794
 7658SOL     OW34609   2.408   2.675   8.739  0.4343 -0.8194 -0.6672
 7658SOL    HW134610   2.358   2.650   8.817  0.1861 -0.7499 -0.8019
 7658SOL    HW234611   2.385   2.767   8.727 -0.3117 -1.0822 -1.2640
 7659SOL     OW34612   3.085   2.621   8.111 -0.0263 -0.1490 -0.2985
 7659SOL    HW134613   3.098   2.527   8.128 -0.1161  0.4514  3.0485
 7659SOL    HW234614   2.995   2.618   8.081  0.3394 -0.7610 -1.3325
 7660SOL     OW34615   4.374   1.955   0.306 -0.6551  0.4806  0.0516
 7660SOL    HW134616   4.465   1.940   0.281 -0.7094  1.1957 -0.5989
 7660SOL    HW234617   4.388   1.949   0.400  2.9519  1.0928 -0.4441
 7661SOL     OW34618   3.985   1.671   0.750  0.2561  0.3398  0.3736
 7661SOL    HW134619   3.947   1.658   0.664 -1.8015 -2.7899  1.7734
 7661SOL    HW234620   4.041   1.594   0.746 -0.7183 -0.4221  1.5228
 7662SOL     OW34621   0.688   2.304   5.145  0.1668 -0.4433  0.7360
 7662SOL    HW134622   0.633   2.376   5.116  2.1392  0.4457 -0.7603
 7662SOL    HW234623   0.710   2.264   5.061  0.7114 -1.4960  1.3812
 7663SOL     OW34624   1.752   1.216  13.261 -0.4855 -0.2365  0.5999
 7663SOL    HW134625   1.763   1.282  13.193 -1.3150  0.3788  1.0747
 7663SOL    HW234626   1.844   1.192  13.273 -0.8931 -1.1849  1.9159
 7664SOL     OW34627   3.079   2.103   6.968  0.3746  0.3259 -0.1662
 7664SOL    HW134628   2.996   2.150   6.980  1.8393  3.0266 -0.5342
 7664SOL    HW234629   3.103   2.097   7.061  0.6235  1.6466 -0.1501
 7665SOL     OW34630   0.618   1.971  16.074 -0.0706 -0.0617  0.2189
 7665SOL    HW134631   0.544   1.983  16.133 -0.6359 -2.4039  0.0154
 7665SOL    HW234632   0.684   2.002  16.136  1.5037 -0.8795 -1.0450
 7666SOL     OW34633   3.498   1.419   1.434 -0.0903  0.1108 -0.4357
 7666SOL    HW134634   3.499   1.423   1.530 -0.1733 -4.4766 -0.2349
 7666SOL    HW234635   3.587   1.396   1.407 -0.5313 -0.0286 -1.7871
 7667SOL     OW34636   3.898   4.203   7.691  0.6687 -0.3136  0.4730
 7667SOL    HW134637   3.912   4.257   7.613  0.3510  1.7549  1.8168
 7667SOL    HW234638   3.899   4.118   7.649  1.8717 -0.0399 -0.0581
 7668SOL     OW34639   1.542   4.568   4.989 -0.2120 -0.1554 -0.0885
 7668SOL    HW134640   1.535   4.660   5.015  0.1317 -0.3694  0.7865
 7668SOL    HW234641   1.630   4.557   5.027 -0.3932 -1.4339 -0.0363
 7669SOL     OW34642   3.234   0.559   8.671 -0.3270 -0.2277  0.1483
 7669SOL    HW134643   3.171   0.632   8.674 -1.1248 -0.8428 -1.5665
 7669SOL    HW234644   3.206   0.510   8.748 -0.0145  2.0701  1.7260
 7670SOL     OW34645   4.410   2.941   4.196  0.0780 -0.2606 -0.1478
 7670SOL    HW134646   4.375   3.029   4.213 -2.0964 -1.6676  2.5933
 7670SOL    HW234647   4.479   2.952   4.130 -2.3509 -0.0002 -2.6499
 7671SOL     OW34648   4.071   1.297  14.703  0.5100 -0.7359  0.3516
 7671SOL    HW134649   4.154   1.279  14.658 -0.7108 -0.9578 -1.8208
 7671SOL    HW234650   4.090   1.266  14.792  0.9587 -0.8983  0.1991
 7672SOL     OW34651   4.072   1.158   5.612  0.5149  0.1818 -0.2966
 7672SOL    HW134652   4.129   1.113   5.549 -0.6328  0.7036 -1.7287
 7672SOL    HW234653   4.136   1.158   5.683  1.0779 -1.5763 -0.8086
 7673SOL     OW34654   0.543   2.054   5.286  0.4283 -0.1514  0.3758
 7673SOL    HW134655   0.568   2.013   5.203 -2.7754 -1.9979  0.3402
 7673SOL    HW234656   0.621   2.031   5.337  1.2606  2.1706  0.1353
 7674SOL     OW34657   1.901   0.484  17.731 -0.0148  0.2474  0.2242
 7674SOL    HW134658   1.891   0.535  17.651  2.9501 -1.4247 -1.1948
 7674SOL    HW234659   1.857   0.406  17.699  3.8906 -0.8305 -2.4425
 7675SOL     OW34660   4.241   1.384   4.706 -0.0308  0.4315  0.1070
 7675SOL    HW134661   4.161   1.435   4.694 -1.5735 -2.9265 -3.6035
 7675SOL    HW234662   4.222   1.318   4.640 -1.0445 -0.5587  1.4032
 7676SOL     OW34663   0.123   2.966   9.065 -0.0843 -0.1293 -0.1891
 7676SOL    HW134664   0.054   3.015   9.109 -1.0048 -1.8371  0.2831
 7676SOL    HW234665   0.183   3.040   9.062  0.9213 -0.9617 -0.5964
 7677SOL     OW34666   4.677   2.449   9.281  0.2557  0.2103  0.1366
 7677SOL    HW134667   4.679   2.520   9.217  1.5486 -0.9938 -1.1688
 7677SOL    HW234668   4.645   2.374   9.231 -0.1098 -1.1038  2.3529
 7678SOL     OW34669   4.283   2.373   6.147 -0.0661  0.2008  0.2403
 7678SOL    HW134670   4.359   2.352   6.202  0.5851 -1.1139 -1.1775
 7678SOL    HW234671   4.207   2.374   6.206  0.5329 -2.1349  1.0473
 7679SOL     OW34672   4.002   1.359   0.488  0.0104  0.1092 -0.4161
 7679SOL    HW134673   4.071   1.417   0.457  1.7572 -1.5333  0.3941
 7679SOL    HW234674   4.037   1.271   0.475 -2.6785 -1.2620  1.6028
 7680SOL     OW34675   4.284   4.010   6.133 -0.6279  1.0819 -0.1291
 7680SOL    HW134676   4.311   4.098   6.106 -0.4266  0.8461 -0.6931
 7680SOL    HW234677   4.206   3.992   6.080  0.1645  0.8674 -1.2239
 7681SOL     OW34678   0.346   2.496   5.336  0.3070 -0.4257 -0.8911
 7681SOL    HW134679   0.268   2.463   5.380 -0.3254  2.4849  0.1547
 7681SOL    HW234680   0.421   2.443   5.363  2.3833  2.4313 -1.0224
 7682SOL     OW34681   1.629   2.729   6.270 -0.3111 -0.3201  1.0431
 7682SOL    HW134682   1.624   2.814   6.227 -1.0418 -1.1420 -0.5077
 7682SOL    HW234683   1.721   2.712   6.249 -0.7520  0.0758 -1.1451
 7683SOL     OW34684   4.011   3.730   7.596  0.1840 -0.4302 -0.0265
 7683SOL    HW134685   4.068   3.764   7.665 -0.0226 -2.1741  1.0183
 7683SOL    HW234686   4.016   3.637   7.618  0.6453 -0.4607 -0.2640
 7684SOL     OW34687   0.479   1.009  10.182  0.1203  0.3616 -0.4284
 7684SOL    HW134688   0.502   1.022  10.274 -0.8379 -3.1432  0.3089
 7684SOL    HW234689   0.386   1.030  10.182  0.6459  2.8836  3.4706
 7685SOL     OW34690   1.083   1.125   4.697 -0.0196  0.3238  0.2525
 7685SOL    HW134691   1.039   1.125   4.782  0.7538  1.8619  0.6588
 7685SOL    HW234692   1.076   1.219   4.678 -0.9609  0.1824 -0.0957
 7686SOL     OW34693   2.163   0.034   7.574 -0.4869 -0.5945 -0.1447
 7686SOL    HW134694   2.210   4.690   7.547  2.7446  0.3113  2.6868
 7686SOL    HW234695   2.165   0.026   7.670  2.3013  0.5124 -0.0871
 7687SOL     OW34696   0.945   2.578   4.349  0.1218 -0.2896  0.0159
 7687SOL    HW134697   0.864   2.528   4.359  0.1647 -0.7821 -2.1529
 7687SOL    HW234698   1.003   2.520   4.398  1.2034 -0.3236 -1.3171
 7688SOL     OW34699   1.361   2.223   3.385  0.3978 -0.0352  0.0253
 7688SOL    HW134700   1.378   2.214   3.479 -0.2969  1.5898  0.3103
 7688SOL    HW234701   1.267   2.204   3.381  0.4745 -0.2366 -0.8097
 7689SOL     OW34702   3.575   4.229   5.462  0.1086  0.4398  0.1822
 7689SOL    HW134703   3.502   4.197   5.515 -0.3652  0.5685 -0.3985
 7689SOL    HW234704   3.549   4.321   5.454 -1.6503 -0.0080  0.9500
 7690SOL     OW34705   3.203   3.921   7.228  0.4963 -0.0033 -0.0727
 7690SOL    HW134706   3.114   3.954   7.221  0.1658 -0.7735  0.4317
 7690SOL    HW234707   3.189   3.829   7.202  1.3737  0.2390 -1.4044
 7691SOL     OW34708   2.151   1.918   3.087  0.1698  0.0593  0.1087
 7691SOL    HW134709   2.229   1.972   3.078  0.3505 -0.1280  0.6054
 7691SOL    HW234710   2.098   1.957   3.157 -0.9242  1.7120 -1.6353
 7692SOL     OW34711   0.302   4.623   8.916 -0.0963  0.3984 -0.3527
 7692SOL    HW134712   0.307   4.615   9.012 -1.0293  1.0756 -0.2434
 7692SOL    HW234713   0.376   4.579   8.876  0.9497 -0.5846  2.6708
 7693SOL     OW34714   0.728   3.887  10.841 -0.0310 -0.3051 -0.4761
 7693SOL    HW134715   0.689   3.973  10.850  1.1024  0.1475  0.1835
 7693SOL    HW234716   0.740   3.862  10.932 -0.9274  0.5924 -0.1231
 7694SOL     OW34717   3.659   0.473   8.183 -0.7589 -0.0197 -0.4987
 7694SOL    HW134718   3.729   0.528   8.146  0.3139 -0.4545  0.9203
 7694SOL    HW234719   3.673   0.494   8.275  2.0462 -1.4289 -0.6105
 7695SOL     OW34720   4.065   2.356   5.728  0.3487  0.3687  0.0568
 7695SOL    HW134721   4.001   2.426   5.738  1.1279  0.8173  1.8640
 7695SOL    HW234722   4.061   2.317   5.815  0.1261 -1.8620 -0.9299
 7696SOL     OW34723   0.481   0.808   8.030  0.4781 -0.3299  0.3313
 7696SOL    HW134724   0.402   0.767   8.065  0.3524  1.0205  1.6327
 7696SOL    HW234725   0.498   0.748   7.957  1.3912 -0.9576  1.0563
 7697SOL     OW34726   0.369   0.381   1.243  0.1699  0.4979  0.5979
 7697SOL    HW134727   0.372   0.475   1.222  0.3730  0.7518  1.7696
 7697SOL    HW234728   0.323   0.381   1.327 -0.0864 -2.0348  0.4642
 7698SOL     OW34729   3.463   4.390   4.297 -0.1449  0.3405 -0.5521
 7698SOL    HW134730   3.554   4.410   4.321 -0.4874  0.2427  0.8090
 7698SOL    HW234731   3.479   4.334   4.221 -2.8457  0.2668 -1.0785
 7699SOL     OW34732   3.722   3.347   9.039  0.0770 -0.3504  0.3025
 7699SOL    HW134733   3.647   3.380   9.089 -0.1300  1.1917 -1.0449
 7699SOL    HW234734   3.773   3.427   9.031 -1.1860  0.4534  0.3320
 7700SOL     OW34735   1.360   1.879   2.936 -0.3068 -0.5835 -0.4330
 7700SOL    HW134736   1.369   1.968   2.971  0.7487 -0.3590 -1.2565
 7700SOL    HW234737   1.267   1.860   2.927 -0.5474 -0.1440  0.9970
 7701SOL     OW34738   3.600   3.733   7.046  0.6405  0.1702 -0.6532
 7701SOL    HW134739   3.673   3.784   7.011  2.0647 -0.0637  2.0345
 7701SOL    HW234740   3.585   3.668   6.977  0.2289 -0.6925  0.2556
 7702SOL     OW34741   3.341   2.536  12.197 -0.0396 -0.5697 -0.1650
 7702SOL    HW134742   3.378   2.456  12.233  0.7263 -0.3728 -0.5033
 7702SOL    HW234743   3.304   2.582  12.273 -0.5961  1.1434 -1.4646
 7703SOL     OW34744   2.982   4.024   6.351 -0.1430 -0.2967  0.0983
 7703SOL    HW134745   2.979   3.929   6.338 -0.7750 -0.5144  1.8816
 7703SOL    HW234746   3.073   4.048   6.333  0.2554 -0.4210  2.0252
 7704SOL     OW34747   2.898   2.949   6.037  0.1289 -0.1041  0.2328
 7704SOL    HW134748   2.890   2.970   5.944  2.5014 -1.1703 -0.2167
 7704SOL    HW234749   2.981   2.901   6.035  0.3246  0.3164 -1.7975
 7705SOL     OW34750   3.062   4.195   7.398  0.3319 -0.4856 -0.3868
 7705SOL    HW134751   3.109   4.249   7.462  0.2887 -1.2402  0.2752
 7705SOL    HW234752   3.110   4.214   7.318  1.2100  2.6635  0.8754
 7706SOL     OW34753   3.231   4.275   4.362  0.1618 -0.2602  0.6223
 7706SOL    HW134754   3.296   4.338   4.331  1.0172 -1.1844  0.5385
 7706SOL    HW234755   3.285   4.216   4.415  1.7316 -0.3492 -1.0735
 7707SOL     OW34756   2.567   0.054   3.706  0.2586  0.0148  0.0373
 7707SOL    HW134757   2.637   0.029   3.766 -0.8209 -0.2786  1.1701
 7707SOL    HW234758   2.610   0.045   3.621 -0.5387 -3.3201 -0.0155
 7708SOL     OW34759   0.149   3.504  15.097 -0.0297 -0.0324 -0.1118
 7708SOL    HW134760   0.184   3.524  15.184 -2.7362  0.6911  0.8174
 7708SOL    HW234761   0.224   3.476  15.044  1.8872 -1.1723  3.1935
 7709SOL     OW34762   0.034   4.176   5.883 -0.6120  0.3546 -0.0710
 7709SOL    HW134763   4.734   4.258   5.849  0.4161  1.3705  1.3249
 7709SOL    HW234764   0.013   4.120   5.808 -0.9741  0.9777 -0.4369
 7710SOL     OW34765   1.123   1.975   6.195  0.0812  0.3314 -0.1716
 7710SOL    HW134766   1.081   1.975   6.282  0.8611 -0.9211  0.2126
 7710SOL    HW234767   1.092   1.896   6.152  0.8095 -0.7284  1.2340
 7711SOL     OW34768   0.964   3.007   4.704  0.6292 -0.1428  0.9188
 7711SOL    HW134769   0.912   3.080   4.670  3.5074  0.5871 -1.8404
 7711SOL    HW234770   0.937   3.025   4.794 -1.7752 -1.2074  0.4235
 7712SOL     OW34771   3.447   2.600  13.048  0.2534  0.2141  0.5570
 7712SOL    HW134772   3.509   2.582  13.120  0.7462  0.2233  0.1368
 7712SOL    HW234773   3.388   2.525  13.058  1.1274 -0.0885  3.4494
 7713SOL     OW34774   3.951   0.796   3.860  0.1106 -0.3803 -0.0570
 7713SOL    HW134775   4.045   0.778   3.868  0.4552  1.4230 -0.0702
 7713SOL    HW234776   3.914   0.711   3.886 -0.4368  0.0716  0.6534
 7714SOL     OW34777   2.528   0.582  13.677  0.0500 -0.2620 -0.8165
 7714SOL    HW134778   2.437   0.576  13.707  0.4767  1.8023  0.8693
 7714SOL    HW234779   2.530   0.512  13.611 -0.9153 -0.4882 -0.6007
 7715SOL     OW34780   4.731   1.367   3.580 -0.0488 -0.0038  0.0350
 7715SOL    HW134781   0.051   1.392   3.653  0.5213  0.1313 -0.4430
 7715SOL    HW234782   0.067   1.366   3.516 -1.6229 -1.1583 -1.7143
 7716SOL     OW34783   4.408   1.286   1.559 -0.1722  0.1689 -0.4494
 7716SOL    HW134784   4.362   1.258   1.638 -0.1702  1.7754  0.1190
 7716SOL    HW234785   4.404   1.215   1.494  3.6354  0.4437 -0.9832
 7717SOL     OW34786   0.197   4.062  12.881  0.1334 -0.3527 -0.4515
 7717SOL    HW134787   0.235   4.122  12.945  0.9304  1.1400 -2.3045
 7717SOL    HW234788   0.116   4.042  12.928  0.0023  0.6970 -0.2174
 7718SOL     OW34789   1.178   3.857  14.479  0.5406 -0.3115  0.2814
 7718SOL    HW134790   1.201   3.811  14.398  0.7616 -0.8577  0.6460
 7718SOL    HW234791   1.231   3.936  14.471  0.5103 -0.3492 -0.3191
 7719SOL     OW34792   0.821   0.686   0.908  0.1065  0.0461  0.0027
 7719SOL    HW134793   0.780   0.730   0.834 -0.1914 -1.5890 -0.8103
 7719SOL    HW234794   0.818   0.595   0.878  0.7811 -0.2120  0.7039
 7720SOL     OW34795   2.724   0.355   3.782  0.3099 -0.8559 -0.0245
 7720SOL    HW134796   2.733   0.443   3.745  0.9830 -0.9576 -0.1008
 7720SOL    HW234797   2.630   0.337   3.773  0.3285 -1.1474  0.3659
 7721SOL     OW34798   0.420   2.667   2.410  0.8717 -0.3741 -0.6553
 7721SOL    HW134799   0.454   2.749   2.375  3.6551 -0.6381  1.4086
 7721SOL    HW234800   0.452   2.655   2.499 -0.6708  1.2450  0.0948
 7722SOL     OW34801   0.173   3.260   6.062 -0.1038 -0.0091 -0.1918
 7722SOL    HW134802   0.084   3.234   6.040  0.4518 -0.9107 -1.3535
 7722SOL    HW234803   0.158   3.275   6.156  2.3031  0.3661  0.1402
 7723SOL     OW34804   2.600   0.470   8.893  0.6957  0.4288 -0.4249
 7723SOL    HW134805   2.677   0.413   8.896 -0.7460 -1.4924  0.4315
 7723SOL    HW234806   2.526   0.409   8.903  1.8592 -0.6305  1.7043
 7724SOL     OW34807   2.827   3.529  10.145  0.3285 -0.1806 -0.4737
 7724SOL    HW134808   2.775   3.558  10.070  0.0181 -0.5985 -0.4254
 7724SOL    HW234809   2.796   3.593  10.209 -1.2826 -0.4495 -0.9834
 7725SOL     OW34810   4.205   0.968   4.787 -0.1588 -0.2786 -0.5845
 7725SOL    HW134811   4.129   0.952   4.730 -0.2481 -0.7576 -0.3337
 7725SOL    HW234812   4.162   0.962   4.872 -0.9489  2.1752 -0.8124
 7726SOL     OW34813   4.128   2.861   3.038 -0.2462  0.3803 -0.1809
 7726SOL    HW134814   4.195   2.814   2.990  0.8252  1.5798  0.1326
 7726SOL    HW234815   4.067   2.889   2.969  1.3198  0.7560 -1.3914
 7727SOL     OW34816   2.037   1.241  13.487  0.0076 -0.8942 -0.1442
 7727SOL    HW134817   2.035   1.176  13.557 -0.6068  1.4403  2.0407
 7727SOL    HW234818   2.098   1.305  13.524  0.1945  0.3366 -2.5847
 7728SOL     OW34819   1.863   3.567   6.543  0.8326 -0.5310  0.0645
 7728SOL    HW134820   1.769   3.572   6.525  0.5722 -2.1519  0.9809
 7728SOL    HW234821   1.866   3.483   6.588  1.1958 -0.8065 -0.4802
 7729SOL     OW34822   2.230   0.200  13.642 -0.3640  0.0892  0.1622
 7729SOL    HW134823   2.245   0.217  13.735  0.5227  2.2504 -0.3682
 7729SOL    HW234824   2.156   0.260  13.634  0.0986  0.5458 -0.6485
 7730SOL     OW34825   2.404   0.433   0.833  0.4155  0.1702 -0.8817
 7730SOL    HW134826   2.327   0.383   0.862  0.7609  0.0678 -0.1290
 7730SOL    HW234827   2.369   0.518   0.861 -1.3220 -0.5429 -0.8390
 7731SOL     OW34828   2.929   4.580   4.343 -0.8190  0.5557  0.2776
 7731SOL    HW134829   3.003   4.632   4.374 -0.2985  0.8410 -1.4679
 7731SOL    HW234830   2.861   4.630   4.388 -1.1150  0.5385 -0.1525
 7732SOL     OW34831   2.190   2.357   7.468  0.5176 -0.0580  0.2405
 7732SOL    HW134832   2.233   2.333   7.386  1.9673  0.0365  0.9880
 7732SOL    HW234833   2.186   2.453   7.466  0.5297 -0.0970 -1.4011
 7733SOL     OW34834   0.457   2.433   3.012 -0.2436 -0.4532 -0.3617
 7733SOL    HW134835   0.499   2.355   3.047  0.1054  0.9620  2.3718
 7733SOL    HW234836   0.451   2.406   2.920 -1.4331 -1.8333  0.1169
 7734SOL     OW34837   0.187   2.635   4.397 -0.4778  0.8422  0.7563
 7734SOL    HW134838   0.131   2.668   4.327 -0.0176 -4.2010 -2.0239
 7734SOL    HW234839   0.275   2.652   4.362 -0.4552  1.3890  1.0749
 7735SOL     OW34840   0.194   2.401   2.574  0.3836  0.1315  0.2882
 7735SOL    HW134841   0.208   2.464   2.503  0.4608 -0.9274 -0.6346
 7735SOL    HW234842   0.176   2.325   2.518 -0.5049  1.1267 -0.7776
 7736SOL     OW34843   0.605   3.551   4.360  0.0413  1.1044  0.0285
 7736SOL    HW134844   0.607   3.637   4.318 -0.4029  1.3062  0.4086
 7736SOL    HW234845   0.661   3.569   4.436 -0.9830  0.4052  0.9518
 7737SOL     OW34846   3.536   3.068   2.175  0.2884  0.3681  0.1343
 7737SOL    HW134847   3.612   3.124   2.193  0.6100  0.8495 -2.6615
 7737SOL    HW234848   3.581   3.010   2.114 -0.7124 -1.0240  0.7208
 7738SOL     OW34849   4.196   2.425   4.146 -0.1952 -0.5726  0.2620
 7738SOL    HW134850   4.229   2.501   4.193 -2.1316  1.4525 -1.6738
 7738SOL    HW234851   4.273   2.400   4.096  1.3492  1.5335  1.6073
 7739SOL     OW34852   2.188   1.237   3.468 -0.3498  0.1937 -0.0694
 7739SOL    HW134853   2.235   1.320   3.468  0.6161 -0.3463  0.3163
 7739SOL    HW234854   2.098   1.262   3.451  0.1115  0.4491 -2.1180
 7740SOL     OW34855   1.293   0.439  15.272  0.6204 -0.2459  0.7017
 7740SOL    HW134856   1.245   0.508  15.317 -0.0137  0.1062 -0.5167
 7740SOL    HW234857   1.373   0.449  15.324  0.7147  2.6817 -0.0133
 7741SOL     OW34858   0.469   2.716   3.746 -0.7527  0.9846 -0.3481
 7741SOL    HW134859   0.480   2.811   3.742  1.8702  0.8873  4.1591
 7741SOL    HW234860   0.505   2.681   3.665 -1.2841  1.0271 -0.6005
 7742SOL     OW34861   1.542   0.568   1.144 -0.2748 -0.3207  0.1676
 7742SOL    HW134862   1.618   0.509   1.133  0.3607 -0.1969  4.0940
 7742SOL    HW234863   1.470   0.505   1.151 -0.8563  0.1969 -1.1117
 7743SOL     OW34864   4.691   1.754   5.016  0.1269 -0.2445  0.0407
 7743SOL    HW134865   4.679   1.673   4.967 -0.5147  1.0663 -1.9554
 7743SOL    HW234866   4.603   1.764   5.053 -0.4396  0.6523 -1.5582
 7744SOL     OW34867   1.597   4.231  14.448  0.2360  0.0674 -0.0376
 7744SOL    HW134868   1.656   4.182  14.392 -0.4551  0.6247 -1.2442
 7744SOL    HW234869   1.622   4.320  14.424  0.3770  0.3935  1.2984
 7745SOL     OW34870   0.264   0.223   7.697 -0.0485  0.0666 -0.5650
 7745SOL    HW134871   0.229   0.138   7.723  0.8729 -1.3394 -3.8220
 7745SOL    HW234872   0.195   0.268   7.746  0.1231 -0.1921 -0.0922
 7746SOL     OW34873   2.443   3.609   5.929 -0.2161 -0.0392  0.7269
 7746SOL    HW134874   2.516   3.570   5.881  0.5684  0.5263  1.4532
 7746SOL    HW234875   2.374   3.543   5.924 -1.1847  0.9021  1.5949
 7747SOL     OW34876   2.189   4.241  15.389  0.3625 -0.1976 -0.3671
 7747SOL    HW134877   2.164   4.242  15.297 -0.2714 -1.5726 -0.2067
 7747SOL    HW234878   2.241   4.161  15.394  1.4822  0.4990 -1.0174
 7748SOL     OW34879   0.285   0.613   6.571 -0.1639 -0.5099  0.1127
 7748SOL    HW134880   0.250   0.642   6.655 -0.5021 -1.5141  0.3198
 7748SOL    HW234881   0.263   0.681   6.507  1.4596 -0.2049 -0.1450
 7749SOL     OW34882   3.977   1.304   6.734 -0.3903  0.0741  0.2336
 7749SOL    HW134883   3.926   1.224   6.720  1.8990 -1.3127 -0.1908
 7749SOL    HW234884   3.933   1.336   6.655  0.4371  2.2248  0.6707
 7750SOL     OW34885   2.440   2.486  13.763  0.2946  0.4545  0.4346
 7750SOL    HW134886   2.534   2.476  13.780  0.4451  1.1286  0.0009
 7750SOL    HW234887   2.429   2.580  13.751  0.8183  0.4907  0.2264
 7751SOL     OW34888   0.841   0.213  17.648  0.5525  0.3753  0.1517
 7751SOL    HW134889   0.931   0.184  17.637 -0.0580 -1.6921  0.5181
 7751SOL    HW234890   0.835   0.268  17.571  3.5992  2.0085  1.0842
 7752SOL     OW34891   3.925   1.141   1.296  0.9108  0.3700  0.5697
 7752SOL    HW134892   3.997   1.126   1.357 -0.0548  2.0213  2.0989
 7752SOL    HW234893   3.977   1.120   1.218  1.0870  1.6279  0.3589
 7753SOL     OW34894   4.405   0.755   2.142 -0.4372 -0.3392  0.8951
 7753SOL    HW134895   4.318   0.727   2.171 -0.4800 -0.9954  0.1598
 7753SOL    HW234896   4.437   0.670   2.110  0.8718  0.4849  0.0332
 7754SOL     OW34897   1.780   3.585   1.913  0.9270 -0.1761 -0.0641
 7754SOL    HW134898   1.753   3.528   1.984  1.1423 -1.1367 -0.7509
 7754SOL    HW234899   1.725   3.658   1.941 -0.1794 -1.1232  0.2182
 7755SOL     OW34900   2.250   1.575  12.707 -0.0429  0.6198  0.0003
 7755SOL    HW134901   2.312   1.569  12.779  0.2344  1.1531 -0.1922
 7755SOL    HW234902   2.227   1.483  12.696  0.9210  0.5207 -1.2470
 7756SOL     OW34903   4.497   0.816  10.330 -0.0648 -0.1539  0.0339
 7756SOL    HW134904   4.466   0.802  10.420  0.7618 -2.1100  0.0190
 7756SOL    HW234905   4.478   0.725  10.306  3.3177 -0.4773 -1.3547
 7757SOL     OW34906   4.364   3.864   9.680 -0.5908  0.2040 -0.0100
 7757SOL    HW134907   4.311   3.928   9.632 -1.8799 -0.8178  0.0324
 7757SOL    HW234908   4.300   3.821   9.737 -2.2775  1.3786 -1.0343
 7758SOL     OW34909   0.243   0.550   7.741  0.4005  0.5213 -0.3884
 7758SOL    HW134910   0.213   0.484   7.678  1.0245  0.3452 -0.4920
 7758SOL    HW234911   0.258   0.491   7.815  2.3808  2.7879  1.0219
 7759SOL     OW34912   0.723   0.519   0.515  0.3286  0.1047 -0.6088
 7759SOL    HW134913   0.652   0.506   0.452  1.1472  0.5382 -1.6279
 7759SOL    HW234914   0.799   0.541   0.460  1.7212  0.6113  1.5113
 7760SOL     OW34915   3.771   3.460   8.092  0.3438  0.5143 -0.3951
 7760SOL    HW134916   3.724   3.518   8.152  2.9931 -0.0216  2.1959
 7760SOL    HW234917   3.809   3.388   8.143 -3.5544  0.6712  2.7807
 7761SOL     OW34918   1.327   2.486   7.570  0.4082 -0.3864  0.3142
 7761SOL    HW134919   1.236   2.515   7.577  0.2620 -0.2490 -2.0989
 7761SOL    HW234920   1.368   2.551   7.627  0.8926  0.8375 -1.4272
 7762SOL     OW34921   0.799   0.162   4.408  0.5335  0.2117 -0.7622
 7762SOL    HW134922   0.766   0.073   4.398 -0.8457  0.4618  1.5730
 7762SOL    HW234923   0.830   0.173   4.498 -1.6673  1.0701 -0.1253
 7763SOL     OW34924   1.352   3.410   1.893  0.4506 -0.2323 -0.3635
 7763SOL    HW134925   1.394   3.398   1.807  1.4027  1.3619 -0.1046
 7763SOL    HW234926   1.279   3.467   1.867  0.4877 -0.2566 -0.5224
 7764SOL     OW34927   1.223   2.859   4.988 -0.0776 -0.3731  0.6912
 7764SOL    HW134928   1.313   2.847   4.959 -0.5685 -1.4208 -0.4312
 7764SOL    HW234929   1.164   2.811   4.929 -0.0717  1.0953 -0.4977
 7765SOL     OW34930   1.419   0.921  16.496  0.0565 -0.4181  0.4569
 7765SOL    HW134931   1.415   0.975  16.575 -2.8169  0.1341 -0.0854
 7765SOL    HW234932   1.417   0.837  16.542 -0.8288 -0.9099 -0.4721
 7766SOL     OW34933   0.940   4.042  11.790 -0.0594 -0.5389  0.1575
 7766SOL    HW134934   0.886   4.025  11.867 -2.3090 -0.0381 -1.3032
 7766SOL    HW234935   1.023   4.005  11.819 -0.0093 -0.8147 -0.3340
 7767SOL     OW34936   3.376   0.016   5.797  0.5785 -0.0721  0.5906
 7767SOL    HW134937   3.428   0.082   5.843  1.1833  0.6219 -1.0680
 7767SOL    HW234938   3.364   0.058   5.711 -1.2211 -1.0385  0.3781
 7768SOL     OW34939   2.049   0.002   0.493 -0.0682  0.3428 -0.4179
 7768SOL    HW134940   2.013   4.679   0.427 -0.0576  0.0991 -0.2054
 7768SOL    HW234941   2.005   0.084   0.469 -2.4003 -0.7135  0.3140
 7769SOL     OW34942   4.569   1.477  17.434  0.3698  0.0284  0.4330
 7769SOL    HW134943   4.557   1.564  17.472 -4.4201 -0.6429  0.5470
 7769SOL    HW234944   4.631   1.436  17.494  0.0043  1.3998  1.7543
 7770SOL     OW34945   3.231   4.065   3.996 -0.1752 -0.3945  0.0981
 7770SOL    HW134946   3.281   4.090   4.074 -2.4225  0.5983  1.2141
 7770SOL    HW234947   3.147   4.104   4.019 -0.1686  1.1596 -2.4988
 7771SOL     OW34948   1.637   2.377  14.310 -0.0809 -0.2434  0.1002
 7771SOL    HW134949   1.596   2.293  14.331 -1.0732  0.5430  1.3434
 7771SOL    HW234950   1.560   2.416  14.268 -0.6295 -1.7814 -0.3050
 7772SOL     OW34951   4.707   4.319   8.310  0.0322 -0.6477 -0.3532
 7772SOL    HW134952   0.041   4.345   8.250 -0.0531  0.3723 -0.0192
 7772SOL    HW234953   4.663   4.403   8.324  0.4563 -0.7374  1.5712
 7773SOL     OW34954   1.544   3.323   0.841  0.0273  0.5206 -0.0817
 7773SOL    HW134955   1.609   3.367   0.787  0.1450 -0.7970 -1.0118
 7773SOL    HW234956   1.596   3.307   0.920  1.3702  0.3644 -0.9895
 7774SOL     OW34957   0.442   1.153  11.787 -0.1597  0.1886 -0.3255
 7774SOL    HW134958   0.453   1.197  11.703 -1.3719  1.3836  0.1496
 7774SOL    HW234959   0.362   1.199  11.813  1.0711  2.5705 -0.8110
 7775SOL     OW34960   0.530   0.689   1.225 -0.2390  0.3736 -0.3455
 7775SOL    HW134961   0.540   0.751   1.153 -1.6368 -0.2142 -1.0513
 7775SOL    HW234962   0.437   0.701   1.248 -0.2707  1.3150 -0.9833
 7776SOL     OW34963   0.469   2.065   3.591 -0.1074  0.1418 -0.3894
 7776SOL    HW134964   0.437   2.151   3.564  0.8181  0.7899  0.5677
 7776SOL    HW234965   0.494   2.075   3.683 -1.9169  1.4190 -0.0372
 7777SOL     OW34966   0.625   1.986   7.034  0.7678 -0.0416 -0.5815
 7777SOL    HW134967   0.575   1.950   7.107 -1.9667 -1.2186 -3.0581
 7777SOL    HW234968   0.705   2.010   7.081 -0.5773 -1.6487  2.5452
 7778SOL     OW34969   0.645   1.746   3.267  0.5746  0.2690 -0.2689
 7778SOL    HW134970   0.679   1.805   3.334 -1.6064  0.9269  0.2480
 7778SOL    HW234971   0.656   1.800   3.188 -1.1559  2.7493  1.1642
 7779SOL     OW34972   3.192   3.294   7.589 -0.1104  0.4236  0.1144
 7779SOL    HW134973   3.262   3.303   7.524 -0.8897 -0.5937 -0.8493
 7779SOL    HW234974   3.223   3.360   7.651 -0.0837 -1.6876  2.3576
 7780SOL     OW34975   1.691   2.720   2.056  0.2386  0.1339  0.0332
 7780SOL    HW134976   1.598   2.738   2.070  0.1145 -0.2063 -0.3687
 7780SOL    HW234977   1.722   2.810   2.044 -2.8301  1.1410 -0.3615
 7781SOL     OW34978   4.004   3.815   0.162  0.0438 -0.6369  1.0027
 7781SOL    HW134979   3.980   3.897   0.118 -1.2577 -2.6226 -1.9548
 7781SOL    HW234980   4.098   3.812   0.144 -0.1212 -0.5477  0.1245
 7782SOL     OW34981   0.354   1.334   4.754 -0.2597 -0.2412  0.1264
 7782SOL    HW134982   0.340   1.264   4.818  1.6465 -1.7962 -1.1920
 7782SOL    HW234983   0.274   1.321   4.702  0.3136  0.0580 -0.8271
 7783SOL     OW34984   1.969   3.979   7.908  0.7274  0.1029  0.4724
 7783SOL    HW134985   2.052   3.994   7.954 -0.0275  0.1282  1.8429
 7783SOL    HW234986   1.908   3.994   7.980  0.6597 -3.4236  1.1888
 7784SOL     OW34987   4.600   3.227   9.849  0.2895  0.2951 -0.0278
 7784SOL    HW134988   4.530   3.168   9.820  1.7103 -1.2769 -0.2560
 7784SOL    HW234989   4.613   3.201   9.940 -1.3153 -1.1414 -0.2205
 7785SOL     OW34990   2.793   1.782   8.487  0.7582  0.3404 -0.1547
 7785SOL    HW134991   2.888   1.769   8.485  0.8180  1.1105 -2.0485
 7785SOL    HW234992   2.776   1.831   8.567  1.0588 -1.4840  1.0255
 7786SOL     OW34993   1.032   0.306   3.383  0.1138  0.0978  0.3640
 7786SOL    HW134994   1.055   0.393   3.415  1.4834 -0.0980 -0.1152
 7786SOL    HW234995   0.961   0.288   3.445  0.6100  4.4867  2.1955
 7787SOL     OW34996   3.225   0.988   9.049  0.3603 -0.3184 -0.0653
 7787SOL    HW134997   3.129   0.981   9.050  0.2275  1.4679 -0.6405
 7787SOL    HW234998   3.244   1.076   9.017  0.7811 -0.6168 -0.6425
 7788SOL     OW34999   4.006   3.192  12.491 -0.1765  0.4800  0.1470
 7788SOL    HW135000   3.955   3.122  12.451 -1.8495  1.4781  0.5254
 7788SOL    HW235001   4.052   3.150  12.564 -2.6458  0.6375  1.8115
 7789SOL     OW35002   0.590   4.183   3.242  0.3797 -0.5012 -0.3625
 7789SOL    HW135003   0.509   4.220   3.207  0.6900  0.4089 -0.1060
 7789SOL    HW235004   0.582   4.217   3.331  0.8096 -0.5407 -0.3090
 7790SOL     OW35005   3.848   2.274   0.160 -0.2134  0.2852  0.0592
 7790SOL    HW135006   3.921   2.273   0.099  1.5396  0.6618  2.1785
 7790SOL    HW235007   3.784   2.218   0.115 -2.0405  1.1578  1.5484
 7791SOL     OW35008   0.781   1.164  10.010  0.5061 -0.3188  0.5942
 7791SOL    HW135009   0.814   1.219   9.940 -1.5925  0.2448  0.0344
 7791SOL    HW235010   0.725   1.236  10.040  1.5900  1.0941 -0.8207
 7792SOL     OW35011   2.571   4.374   5.186 -0.0997 -0.0608 -0.5364
 7792SOL    HW135012   2.544   4.336   5.269  2.3886 -0.3862  0.1187
 7792SOL    HW235013   2.541   4.465   5.188  1.1785  0.3525  0.0839
 7793SOL     OW35014   1.766   4.202  10.251 -0.2137  0.1038 -0.3294
 7793SOL    HW135015   1.798   4.291  10.234  0.9178 -0.1850  0.3242
 7793SOL    HW235016   1.753   4.165  10.164  0.0706  0.6111 -0.5844
 7794SOL     OW35017   0.759   3.274   3.769  0.2776 -0.0083  0.6720
 7794SOL    HW135018   0.742   3.368   3.759  0.8387 -0.2496 -2.7311
 7794SOL    HW235019   0.783   3.261   3.677  2.0098  0.1368  1.0943
 7795SOL     OW35020   0.345   1.057  11.432  0.2576  0.1889 -0.1013
 7795SOL    HW135021   0.331   1.131  11.491 -0.3144 -0.4469  0.5687
 7795SOL    HW235022   0.323   0.985  11.492 -0.8726  1.0487  0.5307
 7796SOL     OW35023   1.851   0.844   7.202 -0.3755  0.2733  0.0951
 7796SOL    HW135024   1.891   0.860   7.117 -1.2648  0.7731 -0.2194
 7796SOL    HW235025   1.814   0.758   7.182 -0.2097 -0.3669  2.5629
 7797SOL     OW35026   1.319   0.269   8.155 -0.0636  0.2468  0.4142
 7797SOL    HW135027   1.357   0.273   8.244  0.2083 -2.4056  0.4176
 7797SOL    HW235028   1.397   0.255   8.101 -1.0128 -1.2224 -0.5520
 7798SOL     OW35029   3.391   0.969  12.248 -1.2885 -0.4537 -0.1444
 7798SOL    HW135030   3.312   0.959  12.302 -1.1868 -0.0017  0.0892
 7798SOL    HW235031   3.457   0.968  12.318  0.2194 -2.2517 -1.6079
 7799SOL     OW35032   2.624   2.117   2.224  0.0931  0.0945  0.1449
 7799SOL    HW135033   2.706   2.149   2.185  1.4163 -2.3976  0.8559
 7799SOL    HW235034   2.655   2.038   2.269 -0.6945 -0.1370  0.2706
 7800SOL     OW35035   3.791   1.486   2.213  0.0749  0.2861  0.0347
 7800SOL    HW135036   3.813   1.397   2.186 -0.0584  0.4831 -0.7280
 7800SOL    HW235037   3.741   1.473   2.294 -0.3377  1.9729  0.0618
 7801SOL     OW35038   3.796   1.029   4.017 -0.2791  0.2518  0.0924
 7801SOL    HW135039   3.830   1.095   3.957  1.1784 -1.3636 -0.8576
 7801SOL    HW235040   3.841   0.959   3.970  0.0600  1.5494 -1.5289
 7802SOL     OW35041   3.435   3.348   6.223 -0.9428 -0.0571  0.0146
 7802SOL    HW135042   3.480   3.312   6.300  0.3323  0.3720 -0.5215
 7802SOL    HW235043   3.425   3.272   6.166  1.1088 -0.6770  0.4793
 7803SOL     OW35044   2.543   3.078   9.459  0.4991  0.1089 -0.1995
 7803SOL    HW135045   2.598   3.156   9.467  2.5311 -1.0910 -2.8596
 7803SOL    HW235046   2.605   3.024   9.412 -0.1366  0.1263 -1.0664
 7804SOL     OW35047   0.772   4.669   2.339 -0.3744  0.2469 -0.1264
 7804SOL    HW135048   0.858   4.632   2.361  0.0543  0.9694 -0.6078
 7804SOL    HW235049   0.724   4.668   2.422  1.1021 -0.6429  0.7412
 7805SOL     OW35050   0.801   1.992  12.188 -0.1443  0.2310  0.6598
 7805SOL    HW135051   0.797   1.898  12.204  6.8590 -0.3060 -0.7411
 7805SOL    HW235052   0.871   2.000  12.123  0.9728  1.6565  2.0410
 7806SOL     OW35053   2.014   3.788   5.919 -0.3774 -0.0318 -0.1297
 7806SOL    HW135054   1.930   3.801   5.963 -0.6925 -2.3529 -0.0048
 7806SOL    HW235055   2.079   3.768   5.986  0.1062 -1.1706 -0.9383
 7807SOL     OW35056   1.956   2.936   8.653  0.2563 -0.0193  0.2263
 7807SOL    HW135057   1.976   2.878   8.579 -1.5019  0.0727 -0.3208
 7807SOL    HW235058   1.944   3.014   8.599  0.1138  0.1866  0.5574
 7808SOL     OW35059   1.661   2.735  17.215 -0.2977  0.0860  0.3566
 7808SOL    HW135060   1.730   2.683  17.256 -1.8656 -0.7123  1.9641
 7808SOL    HW235061   1.587   2.679  17.233  0.3680 -0.1023  2.5157
 7809SOL     OW35062   1.078   4.524   5.840  0.0278  0.5073  0.3106
 7809SOL    HW135063   1.044   4.438   5.817 -1.1256  0.8986  0.5305
 7809SOL    HW235064   1.005   4.583   5.819  0.9011  1.0530 -1.1506
 7810SOL     OW35065   3.958   0.341   4.861  0.3522  0.6386 -0.0659
 7810SOL    HW135066   4.029   0.398   4.831  0.9290  1.2477  2.4966
 7810SOL    HW235067   4.006   0.287   4.924 -0.1614 -0.7211 -0.8333
 7811SOL     OW35068   4.721   3.716   2.815  0.0203  0.4476  0.0171
 7811SOL    HW135069   0.047   3.757   2.755  0.1708 -0.8646 -0.7172
 7811SOL    HW235070   4.703   3.790   2.873  0.9900  0.1570  0.6844
 7812SOL     OW35071   2.846   0.910   5.945 -0.4375 -0.3456  0.0031
 7812SOL    HW135072   2.753   0.896   5.962 -1.2236  3.1093 -1.4922
 7812SOL    HW235073   2.872   0.955   6.025 -1.9031 -1.0488  0.8603
 7813SOL     OW35074   1.985   1.362   4.727 -0.6247  0.0400 -0.2340
 7813SOL    HW135075   1.959   1.435   4.782  0.8851  1.3836 -1.2998
 7813SOL    HW235076   2.042   1.310   4.785 -2.0595 -1.0360  0.2109
 7814SOL     OW35077   0.144   4.324   4.747  0.6688 -0.4524  0.0730
 7814SOL    HW135078   0.154   4.281   4.662 -2.2422 -2.6681  0.8696
 7814SOL    HW235079   0.106   4.411   4.737  0.9650 -0.3680 -0.3629
 7815SOL     OW35080   2.334   3.710   1.198 -0.3904  0.4225  0.6986
 7815SOL    HW135081   2.407   3.673   1.248 -1.5882 -0.1133  2.0556
 7815SOL    HW235082   2.366   3.719   1.109  0.7263  1.7917  1.2344
 7816SOL     OW35083   2.138   4.651   1.200  0.2026 -0.1228  0.0778
 7816SOL    HW135084   2.204   4.593   1.239 -0.5710 -1.5413 -0.7228
 7816SOL    HW235085   2.159   4.673   1.109 -1.5669  0.9794 -0.0559
 7817SOL     OW35086   3.922   1.000   4.726 -0.2214 -0.2474 -0.0301
 7817SOL    HW135087   3.901   1.086   4.689 -1.2810 -0.7730 -0.6498
 7817SOL    HW235088   3.853   0.983   4.790 -0.1815  1.9278  0.5982
 7818SOL     OW35089   4.500   2.882   1.369  0.0869  0.4140 -0.0314
 7818SOL    HW135090   4.494   2.898   1.463 -1.5548  1.3009 -0.2868
 7818SOL    HW235091   4.498   2.967   1.326  2.3103  0.4191 -0.1281
 7819SOL     OW35092   0.710   0.874   0.125 -0.0446  0.3044 -0.7472
 7819SOL    HW135093   0.758   0.864   0.043 -0.8995  0.3123 -1.2407
 7819SOL    HW235094   0.721   0.967   0.144 -0.1294  0.3362 -0.8560
 7820SOL     OW35095   3.248   4.252  16.219  0.5734  0.7837 -0.1208
 7820SOL    HW135096   3.321   4.218  16.271  0.0260  2.3881  1.6722
 7820SOL    HW235097   3.301   4.281  16.145 -0.0364 -1.4892 -1.4327
 7821SOL     OW35098   2.953   1.668  16.011  0.4434  0.0119 -0.1208
 7821SOL    HW135099   2.955   1.728  15.937  0.8724  0.2817  0.1071
 7821SOL    HW235100   3.044   1.678  16.039  0.9382 -1.3145 -1.2878
 7822SOL     OW35101   2.108   0.716  14.369 -0.1675  0.2907  0.0108
 7822SOL    HW135102   2.108   0.778  14.297 -0.9560  0.9508  0.5723
 7822SOL    HW235103   2.055   0.754  14.440  0.3196  0.8384  0.0777
 7823SOL     OW35104   4.004   2.343   8.185  0.5690 -0.5578  0.5043
 7823SOL    HW135105   4.069   2.302   8.127  2.0648 -0.9808  2.4744
 7823SOL    HW235106   4.061   2.393   8.244  1.5780 -1.0162 -0.0758
 7824SOL     OW35107   0.920   0.120  13.307  0.1327 -0.2096 -0.3116
 7824SOL    HW135108   0.929   0.035  13.349 -0.8522  0.1222  0.6007
 7824SOL    HW235109   1.000   0.153  13.347 -0.0284 -0.6536  0.3786
 7825SOL     OW35110   1.341   4.251   8.510  0.3665 -0.7084  0.1120
 7825SOL    HW135111   1.261   4.295   8.540  1.1739  0.6658  0.2155
 7825SOL    HW235112   1.355   4.177   8.568 -1.7488 -0.0647  1.4384
 7826SOL     OW35113   3.226   0.186   3.672  0.5769 -0.0996  0.1160
 7826SOL    HW135114   3.166   0.206   3.601 -0.1833  1.3401  1.1425
 7826SOL    HW235115   3.222   0.273   3.713  0.9497  0.1282 -0.3295
 7827SOL     OW35116   0.609   1.492  16.030 -0.3821  0.4975 -0.0644
 7827SOL    HW135117   0.692   1.481  16.076 -0.2809 -0.1496 -0.4067
 7827SOL    HW235118   0.597   1.586  16.041 -1.9441  0.2459  0.3871
 7828SOL     OW35119   4.403   1.802  16.537 -0.2687  0.3948 -0.0729
 7828SOL    HW135120   4.326   1.755  16.503  1.1145 -2.0645  0.1646
 7828SOL    HW235121   4.359   1.876  16.578  0.6519  0.5603  0.6081
 7829SOL     OW35122   2.063   4.359   2.398  0.6697  0.2505  0.4859
 7829SOL    HW135123   1.979   4.366   2.443  1.4995  2.3919  1.6786
 7829SOL    HW235124   2.122   4.407   2.456 -0.7973  2.5443  0.0913
 7830SOL     OW35125   3.424   3.365   8.109 -0.1566 -0.6675 -0.6400
 7830SOL    HW135126   3.431   3.441   8.051  1.1304  0.9153  1.5825
 7830SOL    HW235127   3.331   3.355   8.133 -0.2918 -0.9212 -1.2763
 7831SOL     OW35128   2.731   2.985   5.058 -0.0321 -0.1785 -0.7273
 7831SOL    HW135129   2.645   3.006   5.095  0.4958 -2.9246  2.1211
 7831SOL    HW235130   2.742   3.032   4.975 -1.8891 -0.9932 -1.4490
 7832SOL     OW35131   3.180   1.387  13.030 -0.1249  0.6131  0.4451
 7832SOL    HW135132   3.244   1.426  12.971 -0.3065  1.5338  0.8572
 7832SOL    HW235133   3.096   1.405  12.987 -0.1535 -1.4607 -0.3479
 7833SOL     OW35134   1.274   1.067   3.390 -0.4783 -0.8159 -0.5757
 7833SOL    HW135135   1.198   1.038   3.339 -0.2112 -0.0593 -1.4062
 7833SOL    HW235136   1.226   1.122   3.452 -2.7809 -2.5875 -0.7450
 7834SOL     OW35137   2.636   1.359   8.653  0.1029  0.4743 -0.2457
 7834SOL    HW135138   2.552   1.341   8.694 -0.2003 -0.7759 -1.4038
 7834SOL    HW235139   2.617   1.451   8.632  0.9368  0.7573  0.2491
 7835SOL     OW35140   0.284   2.720   5.183 -0.0467  0.4504 -0.3764
 7835SOL    HW135141   0.378   2.741   5.185 -0.1058  0.4503  2.5056
 7835SOL    HW235142   0.302   2.642   5.236 -2.4595  0.2062  0.0646
 7836SOL     OW35143   3.280   1.522  13.233  0.0215 -0.5596  0.0043
 7836SOL    HW135144   3.253   1.472  13.155 -2.7429  1.0126 -0.0521
 7836SOL    HW235145   3.350   1.474  13.278 -0.5359 -1.0362  0.3701
 7837SOL     OW35146   3.721   3.803   9.677 -0.3282  0.0816  0.4451
 7837SOL    HW135147   3.660   3.852   9.733 -0.3957  1.8984 -1.2265
 7837SOL    HW235148   3.695   3.712   9.689  0.3636 -0.2392 -0.5292
 7838SOL     OW35149   4.550   3.240   3.693  0.0098  0.1220  0.5737
 7838SOL    HW135150   4.634   3.257   3.735  0.2409 -0.5618  0.3982
 7838SOL    HW235151   4.526   3.330   3.671  0.7271  0.5513  1.5498
 7839SOL     OW35152   3.156   2.978   7.268 -0.2454 -0.6111 -0.9076
 7839SOL    HW135153   3.175   2.885   7.258 -2.1520 -0.7771 -2.9785
 7839SOL    HW235154   3.236   3.009   7.310 -2.9452  1.2940  2.8891
 7840SOL     OW35155   4.192   0.639   4.534  0.0009  0.1302 -0.0366
 7840SOL    HW135156   4.149   0.563   4.573 -0.9655  1.1694  0.9323
 7840SOL    HW235157   4.216   0.597   4.452  1.1683  0.6423  0.0345
 7841SOL     OW35158   1.891   2.581   8.880 -0.6603  0.7087 -0.3642
 7841SOL    HW135159   1.866   2.582   8.973 -0.3710  1.1110 -0.2935
 7841SOL    HW235160   1.830   2.652   8.860 -0.7174  0.7414 -0.0844
 7842SOL     OW35161   0.305   3.288   9.923  0.7018  0.2668 -0.2572
 7842SOL    HW135162   0.351   3.372   9.926 -0.3634  0.8689 -0.4944
 7842SOL    HW235163   0.229   3.303   9.867  0.5740 -2.9201 -0.9444
 7843SOL     OW35164   0.786   1.819   2.323 -0.5794  0.3442  0.1186
 7843SOL    HW135165   0.858   1.775   2.278  0.8080  1.1355  1.5169
 7843SOL    HW235166   0.817   1.910   2.325  0.5974 -0.0153 -2.3358
 7844SOL     OW35167   3.481   2.603   6.805 -0.5721 -0.5258  0.1743
 7844SOL    HW135168   3.420   2.540   6.766 -1.5510 -0.7057  2.0016
 7844SOL    HW235169   3.555   2.616   6.746 -1.8073  1.8404 -0.8819
 7845SOL     OW35170   1.605   2.076  17.374  0.4705  0.3523  0.4623
 7845SOL    HW135171   1.527   2.127  17.394  1.1969  0.6399  2.5974
 7845SOL    HW235172   1.566   2.010  17.317  0.3980 -0.3412  1.3166
 7846SOL     OW35173   2.390   2.023   6.568  0.2304 -0.0165  0.4498
 7846SOL    HW135174   2.415   2.012   6.660  0.2260  2.8486  0.7743
 7846SOL    HW235175   2.298   2.042   6.582  0.2499  0.1125  0.4008
 7847SOL     OW35176   1.563   4.137  11.580  0.5704  0.5402 -0.2719
 7847SOL    HW135177   1.615   4.097  11.650  0.5910  0.6369 -0.2323
 7847SOL    HW235178   1.603   4.223  11.571 -0.6091  0.9389 -1.7456
 7848SOL     OW35179   3.514   2.659   2.798  0.6594  0.6294 -0.1954
 7848SOL    HW135180   3.469   2.591   2.849 -2.9974  1.4088 -2.3566
 7848SOL    HW235181   3.453   2.730   2.819  0.4856  1.0296 -2.0080
 7849SOL     OW35182   4.244   1.814   3.048 -0.2604  0.4594 -0.4064
 7849SOL    HW135183   4.316   1.865   3.011  0.6463 -0.3335  0.2694
 7849SOL    HW235184   4.195   1.794   2.968  0.4669 -1.7187 -0.3094
 7850SOL     OW35185   1.833   1.993   7.007  0.7208  0.2362 -0.5824
 7850SOL    HW135186   1.843   1.901   6.983 -0.3401 -0.6876  2.5991
 7850SOL    HW235187   1.874   2.003   7.093 -0.3045 -1.5430  0.1080
 7851SOL     OW35188   2.225   4.105   9.482  0.0214  0.2232  0.0913
 7851SOL    HW135189   2.293   4.105   9.549 -1.7389  3.0277  1.8679
 7851SOL    HW235190   2.234   4.193   9.446 -1.2836  0.0738 -0.6145
 7852SOL     OW35191   2.437   0.036   9.524 -0.1896 -0.4630 -0.8378
 7852SOL    HW135192   2.448   4.729   9.609  1.6773  0.6375 -0.5129
 7852SOL    HW235193   2.437   0.129   9.545 -0.8174 -0.2170 -1.9411
 7853SOL     OW35194   1.099   0.399   1.790  0.1586 -0.1478  0.5086
 7853SOL    HW135195   1.080   0.491   1.775  0.3379 -0.2745 -0.4623
 7853SOL    HW235196   1.063   0.384   1.878  0.6934  2.1335  1.1033
 7854SOL     OW35197   1.770   3.246   8.739 -0.0806  0.4327  0.0511
 7854SOL    HW135198   1.851   3.262   8.691 -0.8331 -0.4157 -1.4767
 7854SOL    HW235199   1.706   3.274   8.674 -0.1270  0.1513 -0.0246
 7855SOL     OW35200   1.078   4.101   7.279  0.1318 -0.0727  0.0722
 7855SOL    HW135201   1.038   4.179   7.319  0.5044  1.3980 -2.4257
 7855SOL    HW235202   1.102   4.065   7.364 -1.2189 -0.3039  0.3669
 7856SOL     OW35203   1.221   2.484   7.260 -0.1674 -0.3436 -0.0199
 7856SOL    HW135204   1.286   2.501   7.329  1.7611 -2.5256 -1.2775
 7856SOL    HW235205   1.183   2.571   7.252  1.3498  0.2272 -0.9191
 7857SOL     OW35206   3.600   3.429  13.203  0.2715  0.0862 -0.1311
 7857SOL    HW135207   3.638   3.366  13.265  0.6438  0.2290 -0.2168
 7857SOL    HW235208   3.635   3.512  13.234  1.0532  0.1294 -1.1251
 7858SOL     OW35209   4.327   1.917   3.886  0.0243  0.0902 -0.3475
 7858SOL    HW135210   4.324   1.837   3.834  0.6171  0.1052 -0.4096
 7858SOL    HW235211   4.385   1.898   3.959  0.0810 -0.4880 -0.5428
 7859SOL     OW35212   0.912   2.852   2.518  0.2506  0.1234  0.7418
 7859SOL    HW135213   0.873   2.765   2.509  0.3014  0.2763 -1.0522
 7859SOL    HW235214   1.004   2.852   2.490  0.3113 -1.2271  0.9228
 7860SOL     OW35215   1.567   4.532  14.694  0.1781  0.0652 -0.7836
 7860SOL    HW135216   1.589   4.521  14.601  0.3370  0.2947 -0.7742
 7860SOL    HW235217   1.583   4.627  14.700 -3.8262  0.7536 -0.8253
 7861SOL     OW35218   4.719   3.008   8.752  0.1419  0.1075  0.7083
 7861SOL    HW135219   0.078   3.004   8.768  0.5974 -2.4704 -2.5721
 7861SOL    HW235220   4.688   3.002   8.842  0.7207  0.1282  0.9078
 7862SOL     OW35221   4.099   2.575   3.835 -0.2852 -0.1348  0.1665
 7862SOL    HW135222   4.175   2.628   3.812 -0.6011 -1.0495 -2.9606
 7862SOL    HW235223   4.134   2.510   3.897 -0.0391 -0.1591  0.0048
 7863SOL     OW35224   3.312   0.938   7.500  0.1384 -0.4409 -0.0105
 7863SOL    HW135225   3.291   0.848   7.474 -0.9659 -0.1675 -0.0693
 7863SOL    HW235226   3.350   0.980   7.423 -0.7333  3.7229  1.8054
 7864SOL     OW35227   2.931   1.355   5.157 -0.2223 -0.0778 -0.1135
 7864SOL    HW135228   2.840   1.382   5.149  0.1724  1.1930 -0.2849
 7864SOL    HW235229   2.968   1.327   5.073 -2.1374 -2.1207 -0.2921
 7865SOL     OW35230   2.372   0.057  10.398 -0.3310 -0.2893  0.1672
 7865SOL    HW135231   2.319   0.049  10.477  0.3490  0.3248  0.6806
 7865SOL    HW235232   2.372   4.704  10.362 -2.2070  0.5194 -1.8715
 7866SOL     OW35233   2.284   2.313   6.672  0.1988  0.1306  0.7832
 7866SOL    HW135234   2.228   2.255   6.621 -0.1173  1.2586 -0.1689
 7866SOL    HW235235   2.342   2.346   6.603 -0.7017  1.6896  0.7831
 7867SOL     OW35236   0.587   1.354  12.290  0.3228  0.1774 -0.0125
 7867SOL    HW135237   0.527   1.300  12.239  1.3837  0.1428 -1.2123
 7867SOL    HW235238   0.648   1.378  12.221  0.5420 -1.9449 -0.5547
 7868SOL     OW35239   3.540   4.153   3.123 -0.2285  0.5474 -0.1672
 7868SOL    HW135240   3.516   4.135   3.032 -1.3217  2.8828 -0.3324
 7868SOL    HW235241   3.593   4.232   3.114  0.5607 -0.0812 -0.9970
 7869SOL     OW35242   2.864   1.087   0.241  0.5439 -0.0244  0.1263
 7869SOL    HW135243   2.937   1.025   0.241  1.6026  1.2207  1.0032
 7869SOL    HW235244   2.831   1.073   0.330 -2.0940  0.4850 -0.7595
 7870SOL     OW35245   4.105   3.526   5.683  0.0884 -0.0926  0.1826
 7870SOL    HW135246   4.136   3.592   5.620  3.1926 -0.6244  1.1336
 7870SOL    HW235247   4.078   3.463   5.617 -0.3315 -0.2730  0.5297
 7871SOL     OW35248   1.223   3.986  17.189 -0.1899  0.1741 -0.4825
 7871SOL    HW135249   1.255   3.941  17.110 -0.5357 -2.0949  0.6528
 7871SOL    HW235250   1.141   3.937  17.198  0.7697 -0.8551  2.4507
 7872SOL     OW35251   3.186   3.732   5.681 -0.2036 -0.1409 -0.4979
 7872SOL    HW135252   3.140   3.743   5.598  1.0969 -2.4176 -1.5153
 7872SOL    HW235253   3.111   3.694   5.726 -1.1670  0.3570 -1.6688
 7873SOL     OW35254   3.276   4.008   1.867  0.0134  0.2370  0.0098
 7873SOL    HW135255   3.285   4.101   1.888  0.6134  0.1635  0.0844
 7873SOL    HW235256   3.256   3.965   1.951 -1.9285  2.1759  0.5276
 7874SOL     OW35257   0.984   0.244   3.101  0.2974 -0.5268  0.1557
 7874SOL    HW135258   1.063   0.260   3.153 -1.3837  3.1237  1.5285
 7874SOL    HW235259   0.925   0.225   3.173  0.2220  0.1514  0.2690
 7875SOL     OW35260   1.535   3.666   6.281  0.0022  0.7717  0.0122
 7875SOL    HW135261   1.610   3.634   6.332  0.6835  2.3069 -0.0388
 7875SOL    HW235262   1.467   3.612   6.321  0.3786  1.2753  1.3420
 7876SOL     OW35263   4.247   1.949   4.305 -0.1310  0.0027  0.6228
 7876SOL    HW135264   4.207   1.912   4.383 -1.5138  1.4184  0.5949
 7876SOL    HW235265   4.168   1.977   4.258  0.5539  1.0198  0.0752
 7877SOL     OW35266   0.207   4.484  10.033 -0.2221  0.2824  0.3869
 7877SOL    HW135267   0.223   4.526   9.948  1.0726 -0.6787  0.1708
 7877SOL    HW235268   0.167   4.402  10.004 -1.4126  1.0494 -0.1740
 7878SOL     OW35269   2.531   0.048   8.929 -1.0841  0.2336  0.2004
 7878SOL    HW135270   2.466   0.090   8.872  0.1094  0.4930 -0.9648
 7878SOL    HW235271   2.582   0.123   8.961  3.4067 -2.5560 -0.5072
 7879SOL     OW35272   4.034   1.200   5.085 -0.1203  0.1862  0.0027
 7879SOL    HW135273   4.095   1.229   5.017 -1.1068  0.1798 -0.8764
 7879SOL    HW235274   4.055   1.107   5.090 -0.4846  0.1735  1.2791
 7880SOL     OW35275   2.454   4.074  11.137 -0.5929 -0.1251 -0.2625
 7880SOL    HW135276   2.453   4.164  11.104  1.7167  0.0069  0.0230
 7880SOL    HW235277   2.367   4.046  11.110 -0.1511 -2.0909  0.3635
 7881SOL     OW35278   3.505   2.869   1.305 -0.5619  0.2397  0.1793
 7881SOL    HW135279   3.503   2.791   1.249  0.2664 -0.9654  1.8469
 7881SOL    HW235280   3.472   2.848   1.392 -0.8827  0.4150  0.1003
 7882SOL     OW35281   2.270   1.400  15.184  0.8239 -0.1862  0.3322
 7882SOL    HW135282   2.232   1.485  15.164 -1.2263 -0.8974  1.1663
 7882SOL    HW235283   2.211   1.338  15.141  1.2249 -0.9537  0.8713
 7883SOL     OW35284   1.718   0.280  12.702 -0.2541 -0.2241  0.7832
 7883SOL    HW135285   1.810   0.292  12.727 -0.2398  2.3166 -0.4546
 7883SOL    HW235286   1.683   0.347  12.760 -0.8210  1.3969 -1.4435
 7884SOL     OW35287   1.653   3.138   6.767  0.2736 -0.6802 -0.4259
 7884SOL    HW135288   1.706   3.080   6.712 -0.4651 -1.8699  0.1001
 7884SOL    HW235289   1.629   3.074   6.834  2.3935 -0.9901  0.0176
 7885SOL     OW35290   1.086   0.027   4.298  0.2844 -0.2801  0.5379
 7885SOL    HW135291   1.021   0.070   4.354  0.7726  3.6801 -1.9213
 7885SOL    HW235292   1.042   0.026   4.212 -0.5417  2.2173  0.9298
 7886SOL     OW35293   0.154   0.613   8.355 -0.5123 -0.2020  0.1376
 7886SOL    HW135294   0.213   0.634   8.283 -0.8586  0.9710  0.2071
 7886SOL    HW235295   0.080   0.579   8.305  1.9145 -1.9995 -2.3071
 7887SOL     OW35296   2.882   3.046  17.597  0.2618  0.5148 -0.2575
 7887SOL    HW135297   2.815   3.019  17.659 -0.2321  2.3673  0.0106
 7887SOL    HW235298   2.932   2.967  17.574 -0.2935 -0.2406  1.1627
 7888SOL     OW35299   2.661   2.878  13.247 -0.4991 -0.2921  0.1649
 7888SOL    HW135300   2.708   2.956  13.276 -2.4066  0.7013  0.6254
 7888SOL    HW235301   2.694   2.869  13.158 -0.0683 -0.8242  0.3751
 7889SOL     OW35302   4.628   2.680  13.929 -0.3438 -0.7045 -0.3438
 7889SOL    HW135303   4.578   2.762  13.922 -0.9955 -0.9235  1.8483
 7889SOL    HW235304   4.557   2.626  13.964  1.4296 -1.5704  1.9275
 7890SOL     OW35305   3.869   3.365   4.638 -0.4733 -0.4210  0.3375
 7890SOL    HW135306   3.818   3.424   4.582 -0.4737 -1.4059 -0.7100
 7890SOL    HW235307   3.958   3.401   4.634 -0.8259  0.6685  2.5377
 7891SOL     OW35308   2.364   4.477  11.980 -0.3575 -0.0151  0.1590
 7891SOL    HW135309   2.409   4.415  11.923  2.0119  0.4340  1.5152
 7891SOL    HW235310   2.425   4.551  11.981 -0.9039  0.4492 -2.8003
 7892SOL     OW35311   0.961   3.148  14.779  0.3953  0.3882 -0.3703
 7892SOL    HW135312   1.024   3.087  14.740  0.0023 -2.0406  2.7803
 7892SOL    HW235313   0.873   3.116  14.762  0.6927 -0.6303 -0.0112
 7893SOL     OW35314   0.600   2.413   1.074 -0.0503 -0.3040  0.5439
 7893SOL    HW135315   0.659   2.344   1.042  0.0298  0.2236 -0.4532
 7893SOL    HW235316   0.616   2.484   1.011  1.7622 -0.7696  0.4751
 7894SOL     OW35317   2.511   4.296  16.301  0.0309 -0.1419 -0.3567
 7894SOL    HW135318   2.535   4.349  16.225 -3.0444  0.1345 -1.1159
 7894SOL    HW235319   2.450   4.358  16.341 -0.8416  0.0308 -1.9573
 7895SOL     OW35320   1.970   0.857   8.735 -0.1403 -0.8665 -0.7505
 7895SOL    HW135321   1.912   0.833   8.808 -1.6415  1.5368 -1.1549
 7895SOL    HW235322   2.007   0.939   8.767 -1.8644  0.9404 -3.3750
 7896SOL     OW35323   3.946   1.639   5.317 -0.1885 -0.3296  0.1576
 7896SOL    HW135324   3.871   1.585   5.292 -0.4980  0.2834 -0.2213
 7896SOL    HW235325   4.012   1.591   5.267  0.2511 -0.4091  0.8191
 7897SOL     OW35326   4.029   3.290   9.755  0.1415 -0.4952  0.4343
 7897SOL    HW135327   3.985   3.229   9.697  0.4771 -0.9357  0.6428
 7897SOL    HW235328   4.062   3.238   9.829  2.1680 -0.7026 -0.6316
 7898SOL     OW35329   0.020   2.415  17.449 -0.5615  0.3353  0.0756
 7898SOL    HW135330   0.103   2.423  17.497 -1.7200 -1.4806  2.3753
 7898SOL    HW235331   0.052   2.438  17.361 -0.8585 -2.0455 -0.6616
 7899SOL     OW35332   0.191   3.240   8.818 -0.4277  0.4826  0.3991
 7899SOL    HW135333   0.192   3.235   8.723  0.5197 -1.7906  0.5382
 7899SOL    HW235334   0.277   3.202   8.835  0.0417  1.1696 -0.4239
 7900SOL     OW35335   4.679   0.859  14.912 -0.0612  0.3294  0.3249
 7900SOL    HW135336   0.017   0.833  14.856  0.9574  0.9531  1.3834
 7900SOL    HW235337   4.606   0.854  14.850 -0.6174 -1.7124  1.1536
 7901SOL     OW35338   0.449   0.246   4.260  0.1461  0.2106 -0.3516
 7901SOL    HW135339   0.481   0.191   4.331 -2.1867 -0.6454  0.0384
 7901SOL    HW235340   0.447   0.330   4.305 -1.1464  1.6912 -3.1718
 7902SOL     OW35341   4.379   2.129   4.573  0.0609 -0.1473  0.0445
 7902SOL    HW135342   4.409   2.095   4.657 -0.2285  0.9805  0.6053
 7902SOL    HW235343   4.383   2.224   4.583 -2.1505  0.0282 -0.8074
 7903SOL     OW35344   1.332   0.295   0.835 -0.2290 -0.7800 -0.1250
 7903SOL    HW135345   1.398   0.235   0.870 -0.4695 -1.2922 -0.5563
 7903SOL    HW235346   1.316   0.347   0.913  0.5005 -2.6204  1.2589
 7904SOL     OW35347   3.901   0.754  12.127 -0.2495 -0.0624  0.2079
 7904SOL    HW135348   3.978   0.809  12.139 -0.9163  0.8784  0.1779
 7904SOL    HW235349   3.830   0.809  12.160  1.0943  1.8644 -0.0446
 7905SOL     OW35350   0.417   0.574  11.062 -0.4976  0.1530 -0.0581
 7905SOL    HW135351   0.465   0.576  10.980  0.0423  2.0565  0.3218
 7905SOL    HW235352   0.472   0.630  11.117  0.2282 -1.7173  1.1291
 7906SOL     OW35353   4.449   3.409   1.692  0.3084  0.5484 -0.0615
 7906SOL    HW135354   4.365   3.388   1.735  0.6599 -0.3587  0.1804
 7906SOL    HW235355   4.412   3.432   1.606 -1.4032  0.0894  0.5506
 7907SOL     OW35356   2.004   1.767  12.476  0.1998  0.0719  0.5769
 7907SOL    HW135357   1.974   1.851  12.442  3.0596  0.3694 -1.2224
 7907SOL    HW235358   2.026   1.723  12.394 -0.1932  0.4378  0.2765
 7908SOL     OW35359   2.916   0.103   4.138 -0.2181 -0.2045  0.1597
 7908SOL    HW135360   2.846   0.141   4.192  1.1471  1.6907  0.6132
 7908SOL    HW235361   2.965   0.040   4.192 -0.5077 -0.5270  0.0435
 7909SOL     OW35362   0.192   1.458   7.890  0.0333 -0.4569  0.8570
 7909SOL    HW135363   0.189   1.375   7.843  0.7789  0.6618 -1.2174
 7909SOL    HW235364   0.139   1.516   7.834 -1.2309 -2.7871 -0.3396
 7910SOL     OW35365   4.251   1.524   7.939  0.4679  0.5713 -0.7107
 7910SOL    HW135366   4.248   1.429   7.946 -3.5658  0.4750 -4.0066
 7910SOL    HW235367   4.184   1.554   8.001 -1.1234 -0.7842 -1.7739
 7911SOL     OW35368   2.912   2.025  12.864 -0.3589  0.2516  0.0195
 7911SOL    HW135369   2.939   1.982  12.945  1.4297  1.6770  0.1890
 7911SOL    HW235370   2.825   1.986  12.857  0.7151 -2.0639 -0.5218
 7912SOL     OW35371   1.854   4.563   1.582  0.5241 -0.0355  0.0938
 7912SOL    HW135372   1.921   4.543   1.647  0.0147  0.4398  0.7705
 7912SOL    HW235373   1.841   4.473   1.553 -1.9449  0.8570 -1.5993
 7913SOL     OW35374   2.897   0.557  12.138  0.6701 -0.4390  0.2401
 7913SOL    HW135375   2.912   0.462  12.140  2.3451 -0.1634  0.4328
 7913SOL    HW235376   2.802   0.572  12.137  0.4883 -1.9544 -3.0715
 7914SOL     OW35377   4.059   4.158   4.617 -0.1895 -0.1204 -0.0395
 7914SOL    HW135378   3.978   4.163   4.667 -2.5591  2.2028 -4.0670
 7914SOL    HW235379   4.093   4.074   4.648 -1.8523 -1.5301 -2.0176
 7915SOL     OW35380   2.590   0.257   6.259 -1.1038  0.4445  0.4753
 7915SOL    HW135381   2.599   0.162   6.251 -0.8005  0.4740  0.4588
 7915SOL    HW235382   2.499   0.264   6.287 -1.1841  1.9935 -0.1801
 7916SOL     OW35383   0.022   3.732   8.082 -0.2738 -0.0388  0.6635
 7916SOL    HW135384   4.720   3.650   8.051 -0.4296  0.0735  0.5527
 7916SOL    HW235385   4.700   3.789   8.030  1.0682 -0.8698 -1.6988
 7917SOL     OW35386   1.057   3.790   3.110  0.7451 -0.1159 -0.1219
 7917SOL    HW135387   1.018   3.877   3.120  0.8779 -0.1111  0.3727
 7917SOL    HW235388   1.024   3.743   3.186 -1.5408 -0.7043 -1.5065
 7918SOL     OW35389   4.200   1.546   3.753  0.2104  0.5282  0.0253
 7918SOL    HW135390   4.178   1.544   3.846 -1.9559  0.1415 -0.4962
 7918SOL    HW235391   4.195   1.453   3.730 -0.0784  0.3350  0.8724
 7919SOL     OW35392   3.538   3.197   0.619  0.3978 -0.6201 -0.3226
 7919SOL    HW135393   3.496   3.254   0.553 -1.0242  0.0556  1.1601
 7919SOL    HW235394   3.538   3.251   0.698 -1.3944 -1.1833  0.0758
 7920SOL     OW35395   2.256   1.046   3.041  0.1907 -0.1020 -0.2602
 7920SOL    HW135396   2.240   1.126   2.991 -2.8614  0.0050  0.8601
 7920SOL    HW235397   2.313   1.068   3.114  0.8616  0.0880 -0.8442
 7921SOL     OW35398   3.886   4.029   9.616 -0.2047  0.3883  0.2850
 7921SOL    HW135399   3.853   3.946   9.650  1.1142 -0.7773 -1.2862
 7921SOL    HW235400   3.853   4.090   9.681  1.3654  1.7861 -0.2298
 7922SOL     OW35401   0.246   1.893   3.892 -0.2870  0.1626 -0.2658
 7922SOL    HW135402   0.167   1.906   3.945 -0.9929 -0.9085 -1.0444
 7922SOL    HW235403   0.285   1.814   3.927 -0.6057  0.1104 -0.0297
 7923SOL     OW35404   4.472   2.511   2.765  0.1679  0.6072 -0.3824
 7923SOL    HW135405   4.485   2.503   2.670 -2.1292 -0.5924 -0.5958
 7923SOL    HW235406   4.562   2.510   2.798 -0.3642 -0.1337  1.0445
 7924SOL     OW35407   1.224   0.194  11.211 -0.4309  0.3576  0.0619
 7924SOL    HW135408   1.216   0.169  11.303  1.6722  0.0037  0.1569
 7924SOL    HW235409   1.132   0.205  11.185  0.1417  2.5966 -0.9829
 7925SOL     OW35410   1.070   4.017  15.212 -0.0092 -0.0608  0.6487
 7925SOL    HW135411   1.009   4.046  15.280  2.0990  0.5615  2.2915
 7925SOL    HW235412   1.157   4.017  15.252  0.4469  2.0144 -0.3122
 7926SOL     OW35413   1.741   2.536   0.062  0.2353 -0.5199 -0.4247
 7926SOL    HW135414   1.765   2.529   0.154 -0.0665  1.5789 -0.1807
 7926SOL    HW235415   1.678   2.608   0.057  0.4573 -0.2526  0.6138
 7927SOL     OW35416   2.799   3.298  10.459 -0.1589  0.0031  0.7160
 7927SOL    HW135417   2.731   3.325  10.521  0.5136  1.3003  0.9020
 7927SOL    HW235418   2.806   3.205  10.479 -2.6827 -0.3089  0.2183
 7928SOL     OW35419   3.396   0.906   2.904 -0.1631  0.5169 -0.2814
 7928SOL    HW135420   3.376   0.818   2.936  1.3604  0.1207 -0.4164
 7928SOL    HW235421   3.490   0.891   2.910 -0.3185  0.2816  1.7186
 7929SOL     OW35422   3.569   2.688   4.747 -0.4662 -0.0772  0.2487
 7929SOL    HW135423   3.479   2.657   4.738 -0.4583  0.0325 -0.2325
 7929SOL    HW235424   3.590   2.698   4.654  0.1725 -1.5253  0.2366
 7930SOL     OW35425   1.202   3.880  16.434  0.0611  0.0552 -0.9014
 7930SOL    HW135426   1.280   3.826  16.422 -0.0674 -0.3234 -0.0289
 7930SOL    HW235427   1.157   3.896  16.351 -0.8867 -0.6450 -0.5178
 7931SOL     OW35428   2.560   3.109   2.808  0.1652 -0.4583 -0.2228
 7931SOL    HW135429   2.540   3.040   2.870 -0.5884  0.3498  0.4290
 7931SOL    HW235430   2.532   3.069   2.726  3.6681  0.1691 -1.7364
 7932SOL     OW35431   1.922   3.008  11.628  0.5183  0.4921  0.3597
 7932SOL    HW135432   1.911   3.094  11.588  0.2342 -0.0271 -0.6813
 7932SOL    HW235433   1.862   3.011  11.703 -0.1982  0.9418 -0.2307
 7933SOL     OW35434   1.384   3.932   7.879 -0.3714 -0.4599 -0.1823
 7933SOL    HW135435   1.435   3.892   7.949  1.8088  0.3752 -1.2628
 7933SOL    HW235436   1.443   3.979   7.819 -0.5222 -0.0194  0.0167
 7934SOL     OW35437   1.882   0.599   4.975 -0.6503  0.3683 -0.3109
 7934SOL    HW135438   1.976   0.618   4.981 -0.5406  0.1467 -1.2434
 7934SOL    HW235439   1.853   0.674   4.923  0.1404  0.0052 -1.2780
 7935SOL     OW35440   0.458   2.487   7.454  0.2317  0.5203 -0.1724
 7935SOL    HW135441   0.463   2.561   7.514  2.2698  0.3213 -0.0920
 7935SOL    HW235442   0.547   2.452   7.457 -0.2288 -0.8058 -2.3437
 7936SOL     OW35443   3.966   4.053   4.289  0.4064  0.5931  0.3356
 7936SOL    HW135444   3.997   4.002   4.364  0.3715  0.5324  0.3086
 7936SOL    HW235445   3.875   4.072   4.312  0.1746 -0.0115 -0.0819
 7937SOL     OW35446   2.964   1.856  15.815 -0.7775 -0.9897 -0.0337
 7937SOL    HW135447   3.002   1.943  15.826  0.2567 -1.2788 -1.2975
 7937SOL    HW235448   2.911   1.864  15.735  1.9594  0.4787 -1.7212
 7938SOL     OW35449   4.330   3.655   7.440  0.4427 -0.0911  0.0049
 7938SOL    HW135450   4.351   3.735   7.392  0.6131  0.2107  0.5835
 7938SOL    HW235451   4.397   3.656   7.508 -0.1997  1.8795  0.6310
 7939SOL     OW35452   0.129   3.435   1.139 -0.5291  0.5452  0.1507
 7939SOL    HW135453   0.200   3.371   1.140 -2.3966 -1.5210  0.4917
 7939SOL    HW235454   0.087   3.394   1.063 -0.5495  0.4997  0.1867
 7940SOL     OW35455   2.223   0.741   5.559  0.7126 -0.9671 -0.1077
 7940SOL    HW135456   2.213   0.667   5.500  1.6486 -1.5879  0.4991
 7940SOL    HW235457   2.310   0.779   5.544  0.0707  0.3304 -0.5245
 7941SOL     OW35458   3.174   2.596   7.517 -0.3051 -0.3426  0.0009
 7941SOL    HW135459   3.199   2.675   7.563  0.4310 -0.4640 -0.1867
 7941SOL    HW235460   3.199   2.619   7.427  1.6097 -0.2244  0.5604
 7942SOL     OW35461   1.816   0.350   5.814  0.3153 -0.5914 -0.3322
 7942SOL    HW135462   1.763   0.361   5.893  0.7712 -2.9384  0.2838
 7942SOL    HW235463   1.857   0.437   5.811 -2.7967  0.9285 -0.0345
 7943SOL     OW35464   3.092   3.041  15.307  0.5692  0.4381  0.3760
 7943SOL    HW135465   3.111   3.066  15.398  3.4887 -2.8266  0.6743
 7943SOL    HW235466   3.179   3.028  15.268  1.6251 -2.6269  3.7778
 7944SOL     OW35467   0.093   2.847  11.219 -0.4302  0.3688  0.2271
 7944SOL    HW135468   0.024   2.863  11.283  0.6370 -0.9476  1.6913
 7944SOL    HW235469   0.079   2.916  11.154 -1.1188  1.2525  1.3065
 7945SOL     OW35470   0.472   3.573  12.754 -0.2740 -0.1534 -0.5392
 7945SOL    HW135471   0.485   3.608  12.666 -0.5987  2.7346  0.5542
 7945SOL    HW235472   0.553   3.605  12.794 -0.6658  1.6283 -1.1605
 7946SOL     OW35473   2.576   0.640  14.566  0.2550  0.1856 -0.2619
 7946SOL    HW135474   2.506   0.579  14.545  0.5177 -0.0162 -0.5493
 7946SOL    HW235475   2.639   0.613  14.500 -1.1161  0.5032 -1.6906
 7947SOL     OW35476   3.359   4.165   2.879  0.5018  0.0254  0.4851
 7947SOL    HW135477   3.328   4.231   2.817  0.5989 -1.1166 -0.7715
 7947SOL    HW235478   3.409   4.107   2.822  0.6864 -0.1303  0.8018
 7948SOL     OW35479   1.318   1.767   1.002 -0.0430  0.0249  0.1983
 7948SOL    HW135480   1.354   1.742   0.917 -0.3088  1.2482 -0.2640
 7948SOL    HW235481   1.232   1.798   0.975 -0.2872 -0.3317  0.5627
 7949SOL     OW35482   2.735   3.405   7.178 -0.1965 -0.0793  0.3056
 7949SOL    HW135483   2.711   3.470   7.112 -1.0425 -0.6198  0.0745
 7949SOL    HW235484   2.824   3.437   7.191  0.1361 -0.3761 -1.2777
 7950SOL     OW35485   3.838   2.180   8.919 -0.0978  0.0636 -0.1867
 7950SOL    HW135486   3.927   2.214   8.910  0.4962 -1.2484  0.6835
 7950SOL    HW235487   3.850   2.092   8.955 -1.5423  0.1613  0.5354
 7951SOL     OW35488   2.926   0.645   4.412  0.0917  0.3185 -0.0909
 7951SOL    HW135489   2.933   0.702   4.489  0.6578 -0.6232  0.5519
 7951SOL    HW235490   2.848   0.681   4.370 -0.4136  0.6380  1.1342
 7952SOL     OW35491   1.895   0.503   4.053  0.7153  0.2983  0.6674
 7952SOL    HW135492   1.912   0.410   4.068  0.2954  0.0735 -0.2367
 7952SOL    HW235493   1.956   0.517   3.981 -0.7365  0.0388 -0.6215
 7953SOL     OW35494   0.231   2.955   6.799  0.1464 -0.0690 -0.2432
 7953SOL    HW135495   0.242   2.876   6.852  1.4138  0.3662  0.1393
 7953SOL    HW235496   0.321   2.987   6.806 -0.8653  2.3578  1.8002
 7954SOL     OW35497   1.084   4.479  16.131 -0.3280  0.1864 -0.1365
 7954SOL    HW135498   1.038   4.563  16.131  0.1966  0.4741 -0.1053
 7954SOL    HW235499   1.060   4.429  16.054  0.9693  1.6898 -1.5272
 7955SOL     OW35500   1.815   4.219  14.231  0.1702  0.0439  0.1638
 7955SOL    HW135501   1.857   4.304  14.222  1.9200 -0.8109  0.1272
 7955SOL    HW235502   1.766   4.224  14.149 -2.3752  0.6006  1.7086
 7956SOL     OW35503   1.686   1.346   3.260  0.3089  0.1314  0.0614
 7956SOL    HW135504   1.608   1.365   3.312 -0.9546  0.5099 -1.9669
 7956SOL    HW235505   1.697   1.421   3.200  0.8215  0.7104  0.8717
 7957SOL     OW35506   3.214   3.916   2.154  0.6092  0.5799 -0.0170
 7957SOL    HW135507   3.127   3.888   2.182  0.7757 -1.3300 -1.4305
 7957SOL    HW235508   3.234   3.963   2.235  1.9757  1.0804 -0.6498
 7958SOL     OW35509   3.188   1.208   8.639 -0.2872  0.4351 -0.1848
 7958SOL    HW135510   3.254   1.267   8.675 -0.2867 -0.2771  0.9759
 7958SOL    HW235511   3.103   1.247   8.660 -0.3243 -0.6798  1.7182
 7959SOL     OW35512   4.196   4.401  15.170 -0.3398 -0.7569  0.0819
 7959SOL    HW135513   4.205   4.345  15.247  1.2466 -0.7866 -0.1207
 7959SOL    HW235514   4.286   4.396  15.138 -0.0425  1.3056  0.5791
 7960SOL     OW35515   0.794   0.720   8.076 -0.5985  0.4991  0.4383
 7960SOL    HW135516   0.822   0.734   8.166 -1.3801  0.2693  0.7141
 7960SOL    HW235517   0.796   0.625   8.075  1.2206  0.5461  0.0756
 7961SOL     OW35518   4.127   4.458   3.859 -0.2819  0.4760  0.0088
 7961SOL    HW135519   4.194   4.427   3.921  0.7557 -1.8842 -2.2677
 7961SOL    HW235520   4.085   4.373   3.852  1.6049 -0.5608  1.0324
 7962SOL     OW35521   4.228   4.723  14.277  0.8941  0.2326 -0.0784
 7962SOL    HW135522   4.139   4.687  14.284  1.5854 -1.4637  0.0965
 7962SOL    HW235523   4.266   4.640  14.307 -0.9970  0.5293  3.1582
 7963SOL     OW35524   2.870   2.568   2.847 -0.0602  0.0103  0.1600
 7963SOL    HW135525   2.826   2.615   2.918  0.1904 -2.2444  1.7876
 7963SOL    HW235526   2.956   2.551   2.884  0.5301 -1.2226 -1.7769
 7964SOL     OW35527   2.061   0.745   9.554 -0.0062 -0.2546 -0.5152
 7964SOL    HW135528   2.157   0.747   9.550  0.1037 -1.3129  1.4225
 7964SOL    HW235529   2.053   0.744   9.649 -1.8607 -0.2222 -0.6727
 7965SOL     OW35530   1.626   1.083   7.157  0.3451 -0.2406 -0.5304
 7965SOL    HW135531   1.686   1.012   7.180  0.0676  0.0677  1.1388
 7965SOL    HW235532   1.685   1.137   7.105  2.9274 -3.2636 -0.7458
 7966SOL     OW35533   0.916   0.577  10.497 -0.6633 -0.3823 -0.0146
 7966SOL    HW135534   0.923   0.491  10.455 -2.3616  0.0100 -1.0601
 7966SOL    HW235535   0.885   0.628  10.422 -0.7935 -1.6103 -0.7871
 7967SOL     OW35536   1.601   0.096   1.405 -0.2458 -0.8192 -0.5462
 7967SOL    HW135537   1.673   0.156   1.384 -0.7006  0.2499  0.9827
 7967SOL    HW235538   1.519   0.145   1.404 -0.2643 -0.8459 -0.2342
 7968SOL     OW35539   4.095   3.657   1.567  0.6534 -0.7111  0.4233
 7968SOL    HW135540   4.068   3.738   1.611  2.9244 -0.7177  1.7864
 7968SOL    HW235541   4.181   3.682   1.535 -0.1965  1.3699 -0.2944
 7969SOL     OW35542   3.871   0.653   2.415  0.1957  0.5245 -0.1763
 7969SOL    HW135543   3.900   0.743   2.399  0.3488  0.8291  1.8468
 7969SOL    HW235544   3.943   0.596   2.386  0.1259  2.7707 -4.6562
 7970SOL     OW35545   3.103   4.581   9.092 -0.2740  0.1014 -0.2993
 7970SOL    HW135546   3.023   4.566   9.143 -0.6794 -2.0171 -1.5367
 7970SOL    HW235547   3.135   4.668   9.113 -0.7310 -0.3231  2.1986
 7971SOL     OW35548   2.897   1.179   5.363  0.5106 -0.2019  0.7518
 7971SOL    HW135549   2.922   1.088   5.375  1.3933  0.0243  0.6936
 7971SOL    HW235550   2.934   1.198   5.276  1.3785 -0.0110  1.1606
 7972SOL     OW35551   3.215   3.321   3.015 -0.0086  0.0408  0.1105
 7972SOL    HW135552   3.143   3.315   2.952 -0.0566 -0.8461  0.2599
 7972SOL    HW235553   3.287   3.345   2.957  0.6772 -0.8237  0.6159
 7973SOL     OW35554   3.857   3.389   2.255  0.0643 -0.4709 -0.2314
 7973SOL    HW135555   3.867   3.331   2.331  0.7492 -0.9095 -0.6565
 7973SOL    HW235556   3.761   3.384   2.248  0.2692 -2.2040 -1.9194
 7974SOL     OW35557   0.679   1.919   4.192 -0.3408  0.1327 -0.2168
 7974SOL    HW135558   0.619   1.952   4.259  1.6155 -1.7796  2.5217
 7974SOL    HW235559   0.654   1.829   4.172 -0.0970  0.1814 -0.7322
 7975SOL     OW35560   0.930   3.172   4.963  0.0577 -0.0207 -0.0342
 7975SOL    HW135561   1.010   3.145   5.008 -0.6285 -1.0085  0.5931
 7975SOL    HW235562   0.959   3.259   4.936  1.3337 -0.2228  0.6709
 7976SOL     OW35563   1.240   0.194   0.591 -0.3180  0.0133 -0.3228
 7976SOL    HW135564   1.255   0.232   0.677  0.4206 -1.3647  0.1535
 7976SOL    HW235565   1.159   0.145   0.606  0.5461 -1.5455 -0.7358
 7977SOL     OW35566   0.145   3.131   7.723 -0.2571 -0.8127  0.2087
 7977SOL    HW135567   0.095   3.060   7.763 -0.7639 -2.4715 -3.3392
 7977SOL    HW235568   0.151   3.186   7.801 -0.4824 -0.6203  0.0893
 7978SOL     OW35569   2.856   0.164  16.612 -0.0629  0.5223  0.1567
 7978SOL    HW135570   2.885   0.095  16.673 -1.3957  0.6490  0.9454
 7978SOL    HW235571   2.773   0.121  16.593 -0.3864  0.3433  1.9507
 7979SOL     OW35572   2.238   1.092   6.685  0.0083 -0.3969  0.4903
 7979SOL    HW135573   2.235   1.044   6.768 -0.8240 -2.4405 -0.7113
 7979SOL    HW235574   2.146   1.086   6.660  0.4953  1.3625 -1.6954
 7980SOL     OW35575   3.556   0.284  11.201  0.3408 -0.2255  0.1160
 7980SOL    HW135576   3.558   0.206  11.145 -1.5292  1.1673 -1.8633
 7980SOL    HW235577   3.485   0.332  11.160  1.3011 -0.6685 -2.0685
 7981SOL     OW35578   1.087   2.077  16.374  0.2728  0.2121 -0.1380
 7981SOL    HW135579   1.160   2.021  16.401  0.0780  0.4976  0.9499
 7981SOL    HW235580   1.143   2.145  16.336 -1.0073  0.1167 -2.1863
 7982SOL     OW35581   4.320   1.190  12.370  0.2550  0.0175 -0.0586
 7982SOL    HW135582   4.289   1.099  12.369  1.0769 -0.2550 -0.9253
 7982SOL    HW235583   4.378   1.195  12.445 -1.6741  0.5791  1.3810
 7983SOL     OW35584   3.533   0.688  14.449 -0.0903  0.8398  0.0080
 7983SOL    HW135585   3.467   0.671  14.517 -0.0613 -0.3185 -0.2577
 7983SOL    HW235586   3.602   0.705  14.513  1.6393  1.8759 -2.1424
 7984SOL     OW35587   0.331   3.341   7.498 -0.1379 -0.3873  0.4323
 7984SOL    HW135588   0.273   3.356   7.573  1.4502 -1.0885  1.7992
 7984SOL    HW235589   0.413   3.362   7.542 -0.7477  1.2628  0.7793
 7985SOL     OW35590   4.171   4.592   3.016  0.5025 -0.0849  0.4952
 7985SOL    HW135591   4.240   4.658   3.010  0.9252 -0.5305  0.4838
 7985SOL    HW235592   4.089   4.640   3.006  1.0846  0.4218 -1.8551
 7986SOL     OW35593   2.624   2.618   6.052 -0.1083  0.3753 -0.6643
 7986SOL    HW135594   2.613   2.524   6.036 -1.6818 -0.0013  2.6872
 7986SOL    HW235595   2.713   2.633   6.021 -0.1987 -0.8300 -1.5221
 7987SOL     OW35596   2.370   2.025   6.842 -0.0808  0.6327  0.2321
 7987SOL    HW135597   2.300   2.061   6.897  0.4850 -0.7413  1.8787
 7987SOL    HW235598   2.427   1.974   6.899 -1.3091  0.5088  1.3773
 7988SOL     OW35599   1.334   1.751   7.056  0.4899  0.5031 -0.5424
 7988SOL    HW135600   1.305   1.668   7.092  0.6128 -0.0497 -1.7277
 7988SOL    HW235601   1.371   1.714   6.975 -2.2549 -1.1868 -1.0051
 7989SOL     OW35602   1.814   2.935  12.441  0.1851 -0.9027  0.0770
 7989SOL    HW135603   1.777   3.021  12.421  0.5404 -0.8172 -0.2044
 7989SOL    HW235604   1.750   2.882  12.394 -1.0514  3.1024 -2.7934
 7990SOL     OW35605   1.397   2.107   5.470 -0.4502  0.4006  0.4397
 7990SOL    HW135606   1.358   2.033   5.425 -2.2612  1.4597  0.2816
 7990SOL    HW235607   1.402   2.174   5.402 -1.7481 -0.5813 -0.6140
 7991SOL     OW35608   3.945   2.294   5.375  0.5337  0.5300  0.1802
 7991SOL    HW135609   4.007   2.366   5.383 -0.2146  1.1740  0.1874
 7991SOL    HW235610   3.975   2.249   5.296  1.0160  0.5531  0.3488
 7992SOL     OW35611   4.343   0.211  12.610  1.2131 -0.3124 -0.2707
 7992SOL    HW135612   4.287   0.146  12.566  0.5318  0.3024 -0.3070
 7992SOL    HW235613   4.408   0.230  12.543  1.2814 -0.6614 -0.3055
 7993SOL     OW35614   1.014   1.866  17.517  0.4146 -0.2857  0.8167
 7993SOL    HW135615   1.104   1.845  17.492  1.2112  0.3833  3.1045
 7993SOL    HW235616   1.021   1.957  17.489 -1.4193 -0.4802 -0.2906
 7994SOL     OW35617   0.747   4.011   7.459  0.6595 -0.0870 -0.2441
 7994SOL    HW135618   0.800   3.995   7.381  0.8931 -0.2874 -0.0462
 7994SOL    HW235619   0.813   3.999   7.528  1.6102  1.2987 -0.9003
 7995SOL     OW35620   1.973   3.766   2.012 -0.4696  0.4279 -0.4305
 7995SOL    HW135621   1.908   3.725   1.956 -0.2006 -0.9750  0.2776
 7995SOL    HW235622   1.975   3.853   1.972 -0.0347  0.0539 -1.2183
 7996SOL     OW35623   0.811   1.295   1.336 -0.5973 -0.2230 -0.4507
 7996SOL    HW135624   0.873   1.361   1.369 -0.4056 -0.3207 -0.6134
 7996SOL    HW235625   0.868   1.228   1.297 -0.3847 -1.3016  1.7032
 7997SOL     OW35626   1.560   0.523   7.472 -0.0134 -0.6417  0.4080
 7997SOL    HW135627   1.636   0.473   7.500  3.1972  2.5327 -2.6763
 7997SOL    HW235628   1.491   0.460   7.491 -0.0910 -0.7173 -0.1160
 7998SOL     OW35629   1.823   2.076   5.409 -0.3611 -0.1559  0.0054
 7998SOL    HW135630   1.806   2.153   5.463 -1.6602 -0.5751  0.1755
 7998SOL    HW235631   1.919   2.070   5.411 -0.3797 -0.2187  0.7487
 7999SOL     OW35632   2.552   2.129  14.644 -0.0661  1.0713  0.9381
 7999SOL    HW135633   2.478   2.187  14.625 -1.1745 -1.0686 -1.2710
 7999SOL    HW235634   2.619   2.199  14.646  1.8165 -0.7151  0.6345
 8000SOL     OW35635   0.517   3.178   6.946  0.2303 -0.6717 -0.1179
 8000SOL    HW135636   0.497   3.090   6.979  2.3366 -0.7304  1.0472
 8000SOL    HW235637   0.581   3.160   6.877  0.4017  1.7806 -0.5860
 8001SOL     OW35638   0.178   0.947   3.942 -0.1425  0.6805  0.0335
 8001SOL    HW135639   0.139   0.873   3.896  0.1227  0.0802  0.7528
 8001SOL    HW235640   0.270   0.942   3.916 -0.1719  0.5593 -0.0474
 8002SOL     OW35641   4.179   2.755  16.115 -0.1619 -0.2258  0.2451
 8002SOL    HW135642   4.251   2.693  16.130  1.0339  0.8631 -0.9656
 8002SOL    HW235643   4.211   2.828  16.168  1.0536 -1.0533  0.6771
 8003SOL     OW35644   3.197   1.496   9.669 -0.3455  0.3106 -0.0167
 8003SOL    HW135645   3.161   1.584   9.654  1.1974  0.6267 -1.9469
 8003SOL    HW235646   3.140   1.453   9.605  0.2731  0.9174 -0.9773
 8004SOL     OW35647   1.683   2.598  14.542  0.3566  0.3276  0.4516
 8004SOL    HW135648   1.683   2.509  14.577 -1.4926  0.1318 -0.0324
 8004SOL    HW235649   1.634   2.594  14.460 -0.1954 -2.0472  0.9185
 8005SOL     OW35650   1.954   2.427   9.256 -0.3123  0.3641 -0.3826
 8005SOL    HW135651   1.931   2.506   9.208  2.7368  0.7079 -1.2172
 8005SOL    HW235652   2.016   2.474   9.311  0.6284 -0.3858 -0.8045
 8006SOL     OW35653   2.733   0.671   0.219  0.2527  0.2014  0.2869
 8006SOL    HW135654   2.780   0.751   0.242 -0.8894  0.6730  0.9518
 8006SOL    HW235655   2.647   0.710   0.208  1.0267  1.6566 -0.5829
 8007SOL     OW35656   0.913   0.207   9.958 -0.0019  0.5761 -0.1669
 8007SOL    HW135657   1.003   0.220   9.987 -0.0303 -2.3645  1.2107
 8007SOL    HW235658   0.871   0.293   9.964 -2.2863 -0.6747  1.7108
 8008SOL     OW35659   0.680   0.057   3.955  0.2826 -0.5157  0.2439
 8008SOL    HW135660   0.760   0.079   4.003  2.1104  0.2386 -3.1376
 8008SOL    HW235661   0.627   0.134   3.976  0.5594 -0.4235  0.5968
 8009SOL     OW35662   1.843   3.344   6.722  0.4370  0.5867 -0.0023
 8009SOL    HW135663   1.762   3.292   6.729  0.7208  0.1001 -0.3327
 8009SOL    HW235664   1.908   3.279   6.748 -1.7182 -2.0905 -1.2784
 8010SOL     OW35665   2.360   3.232   6.427 -0.2155 -0.1855  0.1342
 8010SOL    HW135666   2.431   3.175   6.397  1.6027  1.1614  1.8454
 8010SOL    HW235667   2.354   3.203   6.518 -2.1179 -0.2797 -0.0289
 8011SOL     OW35668   1.239   3.453   2.343 -0.6525  0.5892 -0.2740
 8011SOL    HW135669   1.294   3.429   2.269  1.4236  2.1419  0.7737
 8011SOL    HW235670   1.170   3.387   2.336 -0.9436  1.0261 -1.5000
 8012SOL     OW35671   2.086   2.626   3.428 -0.0107 -0.3976 -0.6507
 8012SOL    HW135672   2.180   2.611   3.442 -0.5392 -0.0754  3.2046
 8012SOL    HW235673   2.058   2.548   3.381 -1.3610  0.4885 -1.3444
 8013SOL     OW35674   2.677   1.861   2.092 -0.1775 -0.3047  0.5541
 8013SOL    HW135675   2.605   1.917   2.118  0.9853  0.5834  1.8712
 8013SOL    HW235676   2.680   1.879   1.998  2.2353 -1.5558  0.3819
 8014SOL     OW35677   4.226   2.185  13.463  0.0957  0.3696 -0.7129
 8014SOL    HW135678   4.233   2.223  13.375  0.4739  1.4648 -0.2085
 8014SOL    HW235679   4.182   2.104  13.437  1.3745  0.1274 -2.1623
 8015SOL     OW35680   1.860   0.895   6.884  0.2741 -0.4332  0.4847
 8015SOL    HW135681   1.765   0.892   6.875  0.4523 -1.4786 -1.0852
 8015SOL    HW235682   1.890   0.804   6.890  0.1665 -0.5509 -0.8178
 8016SOL     OW35683   4.265   4.559  11.795  0.0808 -0.1329  0.3756
 8016SOL    HW135684   4.233   4.577  11.706  0.9771  0.4877  0.1801
 8016SOL    HW235685   4.281   4.465  11.797  1.3432  0.0821  0.3178
 8017SOL     OW35686   3.238   1.746   7.750  0.5628  0.0306 -0.1823
 8017SOL    HW135687   3.280   1.715   7.830  1.0046 -0.6638 -0.6883
 8017SOL    HW235688   3.265   1.838   7.750 -1.6339  0.6741 -0.7368
 8018SOL     OW35689   0.631   2.143  11.768  0.3798  0.2385 -0.1865
 8018SOL    HW135690   0.618   2.139  11.673 -3.2354 -0.1264  0.3431
 8018SOL    HW235691   0.722   2.116  11.782  0.1745  0.0949  0.8199
 8019SOL     OW35692   0.822   1.474   0.191 -0.3020  0.2434  0.1302
 8019SOL    HW135693   0.788   1.511   0.110 -0.9265 -1.7905 -0.5346
 8019SOL    HW235694   0.879   1.412   0.147 -1.0860  0.5276 -1.2662
 8020SOL     OW35695   0.739   1.343   5.381  0.0773  0.0947 -0.1942
 8020SOL    HW135696   0.829   1.356   5.351 -0.6055  1.3291 -1.6711
 8020SOL    HW235697   0.735   1.386   5.467 -0.0689  0.3529 -0.3325
 8021SOL     OW35698   3.459   0.818   9.369  0.2556  0.9276  0.0588
 8021SOL    HW135699   3.503   0.734   9.386 -0.0249  1.1088  1.7160
 8021SOL    HW235700   3.401   0.806   9.294 -0.2242  0.2148  0.5344
 8022SOL     OW35701   0.472   2.111   2.403  0.6147 -0.3643 -0.1490
 8022SOL    HW135702   0.479   2.200   2.369  1.6695 -0.2679  0.3068
 8022SOL    HW235703   0.540   2.124   2.469 -0.0163 -2.1415  0.8643
 8023SOL     OW35704   4.318   0.759   7.709  0.2890  0.5497 -0.2540
 8023SOL    HW135705   4.346   0.708   7.633  1.7112 -1.1105  1.3885
 8023SOL    HW235706   4.397   0.754   7.763  0.0515 -0.1226  0.0336
 8024SOL     OW35707   1.116   2.832   4.589  0.3773 -0.5182 -0.2061
 8024SOL    HW135708   1.064   2.836   4.509  0.9495 -0.6659 -0.5870
 8024SOL    HW235709   1.068   2.896   4.640 -0.9397 -3.5061  2.3355
 8025SOL     OW35710   0.287   4.078  16.901  0.2325 -0.2825  0.4227
 8025SOL    HW135711   0.334   4.151  16.859  0.4347 -1.1283 -0.8192
 8025SOL    HW235712   0.256   4.118  16.982  2.1001 -1.7216  1.8427
 8026SOL     OW35713   3.162   3.018   3.017 -0.0445  0.2342  0.3632
 8026SOL    HW135714   3.169   3.110   2.994 -1.5445  0.2568  0.0522
 8026SOL    HW235715   3.092   2.989   2.959  1.2182 -2.3288  0.0975
 8027SOL     OW35716   0.083   3.224  15.101 -0.3866 -0.2470 -0.2916
 8027SOL    HW135717   0.123   3.311  15.091  2.4457 -1.4662  0.4150
 8027SOL    HW235718   0.013   3.231  15.036 -0.2196  1.4382 -0.2935
 8028SOL     OW35719   2.631   2.132   7.145 -0.0452 -0.4735 -0.1438
 8028SOL    HW135720   2.590   2.056   7.103 -0.0099  0.1417 -1.2891
 8028SOL    HW235721   2.652   2.074   7.218 -0.1687 -0.8783 -0.4328
 8029SOL     OW35722   2.562   2.665  13.395  0.4286 -0.2828  0.4271
 8029SOL    HW135723   2.532   2.683  13.484  0.4985  0.6050  0.2766
 8029SOL    HW235724   2.569   2.749  13.348  0.3693 -1.9478 -2.5838
 8030SOL     OW35725   3.459   1.127   1.647  0.2489 -0.3673 -0.2692
 8030SOL    HW135726   3.398   1.090   1.710 -0.3367  1.3220  0.1682
 8030SOL    HW235727   3.515   1.053   1.623 -2.6361 -2.1745 -1.3631
 8031SOL     OW35728   4.268   2.498   5.626  0.0958  0.1666  0.2410
 8031SOL    HW135729   4.178   2.474   5.648  0.7018 -0.9509  1.4857
 8031SOL    HW235730   4.298   2.522   5.713  0.0435  0.0382  0.2954
 8032SOL     OW35731   2.185   4.535   1.986 -0.2917  0.3913 -0.1860
 8032SOL    HW135732   2.107   4.502   1.942 -0.7658 -0.9776  1.6901
 8032SOL    HW235733   2.215   4.592   1.914  0.8152  1.6480  1.2687
 8033SOL     OW35734   3.130   1.466   6.670 -0.6044 -0.1509 -0.1255
 8033SOL    HW135735   3.044   1.422   6.662 -1.8129  1.9932  1.2867
 8033SOL    HW235736   3.179   1.418   6.603 -0.3427 -0.5334  0.3404
 8034SOL     OW35737   2.428   3.956  14.928  0.1540  0.5143 -0.0997
 8034SOL    HW135738   2.482   3.886  14.965  1.1877  1.6996  0.6199
 8034SOL    HW235739   2.487   4.022  14.892  0.7273  1.3243  2.3453
 8035SOL     OW35740   4.675   0.351   2.364  0.1155 -0.1759  0.1669
 8035SOL    HW135741   4.719   0.338   2.448  2.4053  2.0176 -0.7025
 8035SOL    HW235742   4.712   0.434   2.336  1.5849 -0.4935  1.1552
 8036SOL     OW35743   2.821   2.856   5.300  0.0208  0.0525  0.0344
 8036SOL    HW135744   2.869   2.774   5.296  0.9861  0.6413 -0.5692
 8036SOL    HW235745   2.804   2.882   5.209  3.3523 -0.5933 -0.7697
 8037SOL     OW35746   3.818   1.744  17.034  0.3102  0.0846  0.0410
 8037SOL    HW135747   3.752   1.731  16.966  0.6175  0.4908 -0.3359
 8037SOL    HW235748   3.777   1.822  17.072 -0.2667  0.5896 -1.6063
 8038SOL     OW35749   1.327   0.995   6.869  0.6662  0.0939 -0.2615
 8038SOL    HW135750   1.240   1.011   6.835  0.7343 -2.3790 -1.5631
 8038SOL    HW235751   1.374   0.941   6.806  0.0364 -0.0769 -0.5778
 8039SOL     OW35752   2.176   4.565   2.625  0.2459 -0.0859 -0.0161
 8039SOL    HW135753   2.124   4.645   2.633  0.1568 -0.3375  1.7432
 8039SOL    HW235754   2.222   4.594   2.546 -0.7849 -1.7704 -1.2212
 8040SOL     OW35755   4.430   0.636   2.582 -0.2592  1.1670  0.4287
 8040SOL    HW135756   4.426   0.602   2.493  1.0210 -0.3254  0.9525
 8040SOL    HW235757   4.442   0.556   2.632 -0.6167  0.8390 -0.0153
 8041SOL     OW35758   2.375   3.817   4.063 -0.0885 -0.0465  0.4004
 8041SOL    HW135759   2.336   3.899   4.094  0.5878  0.1564  0.7209
 8041SOL    HW235760   2.372   3.829   3.968  2.6371 -2.4810 -0.0127
 8042SOL     OW35761   2.792   1.227  17.330 -0.2678  0.2992 -0.0631
 8042SOL    HW135762   2.809   1.281  17.407  0.2600  0.0932 -0.0348
 8042SOL    HW235763   2.821   1.289  17.264  1.5536 -0.9726 -0.4624
 8043SOL     OW35764   0.019   0.100   8.716  0.4766  0.4088  0.5986
 8043SOL    HW135765   0.097   0.138   8.676  2.1310 -3.9042 -0.2175
 8043SOL    HW235766   4.710   0.174   8.758 -1.5557  0.8733 -2.3551
 8044SOL     OW35767   3.730   2.809   6.470 -0.4725  0.0729  0.4218
 8044SOL    HW135768   3.806   2.867   6.468 -0.8530  0.5153 -1.9279
 8044SOL    HW235769   3.670   2.855   6.412  1.0801  0.1192 -1.1511
 8045SOL     OW35770   2.950   0.995   7.143  0.1517 -0.0224  0.5638
 8045SOL    HW135771   3.028   0.947   7.115 -0.4356 -0.2458 -0.6760
 8045SOL    HW235772   2.898   0.917   7.161  0.9401 -1.4803 -3.5532
 8046SOL     OW35773   4.367   4.047  11.241  0.4796  0.5103  0.1739
 8046SOL    HW135774   4.447   4.040  11.188 -0.6804  0.8797 -1.6167
 8046SOL    HW235775   4.396   4.118  11.298  2.8754  2.2403 -3.1265
 8047SOL     OW35776   2.755   3.652   0.350 -0.5104  0.0029  0.1996
 8047SOL    HW135777   2.724   3.707   0.278  1.2957 -0.8616 -1.2659
 8047SOL    HW235778   2.814   3.583   0.320 -1.2490 -0.0531 -1.1316
 8048SOL     OW35779   1.685   3.856   3.257 -0.2737  0.0434 -0.5173
 8048SOL    HW135780   1.682   3.766   3.225 -0.2780  1.0061 -3.2752
 8048SOL    HW235781   1.738   3.841   3.335  0.1861  0.6913 -0.6953
 8049SOL     OW35782   1.180   0.867   7.462  0.0127  0.3778  0.3293
 8049SOL    HW135783   1.258   0.878   7.409  0.5897 -0.6352  0.9701
 8049SOL    HW235784   1.200   0.779   7.496 -1.7280  0.4908  1.6770
 8050SOL     OW35785   1.875   1.771   9.474  0.0235  0.1737  0.3931
 8050SOL    HW135786   1.886   1.864   9.493  0.8233  0.1547  0.0028
 8050SOL    HW235787   1.958   1.763   9.427 -1.0946 -0.5034 -1.4633
 8051SOL     OW35788   4.244   1.457   0.404  0.0785  0.4303 -1.0004
 8051SOL    HW135789   4.271   1.548   0.414 -0.3037  0.4259  0.0466
 8051SOL    HW235790   4.298   1.413   0.469  1.1277  1.3086 -1.2782
 8052SOL     OW35791   2.625   0.373  15.332 -0.2751  0.4806  0.2309
 8052SOL    HW135792   2.623   0.382  15.236 -1.9461  2.3592  0.4446
 8052SOL    HW235793   2.694   0.306  15.336 -1.0565 -0.3001  0.6938
 8053SOL     OW35794   0.733   3.081   3.250 -0.1079  0.1586  0.6145
 8053SOL    HW135795   0.650   3.119   3.277 -0.7690 -0.1688 -0.9622
 8053SOL    HW235796   0.783   3.159   3.223  1.9763 -1.8455 -1.3716
 8054SOL     OW35797   1.076   4.447   6.337 -0.2473 -0.1381 -0.4776
 8054SOL    HW135798   1.080   4.355   6.313  1.0603  0.4177 -2.3725
 8054SOL    HW235799   1.095   4.492   6.255  0.8830  1.3614  0.5867
 8055SOL     OW35800   3.561   3.958   7.339  0.3149  0.0717 -0.5075
 8055SOL    HW135801   3.620   4.030   7.363 -0.4966  0.3607  0.5912
 8055SOL    HW235802   3.515   4.000   7.266  1.5828  2.9944  0.3460
 8056SOL     OW35803   1.266   2.091   0.680  0.0408  0.1807 -0.0175
 8056SOL    HW135804   1.308   2.150   0.742 -3.3334  2.4743  0.0603
 8056SOL    HW235805   1.283   2.005   0.719 -1.0532  0.3920  0.9341
 8057SOL     OW35806   1.226   3.629  10.381 -0.1165  0.4995  0.5109
 8057SOL    HW135807   1.159   3.616  10.315 -0.1808  0.1398  0.6474
 8057SOL    HW235808   1.213   3.547  10.430 -0.5082  0.0338 -0.3848
 8058SOL     OW35809   3.210   0.200   8.110  0.6625  0.1916  0.1322
 8058SOL    HW135810   3.200   0.238   8.022 -4.0850 -0.3640  0.4358
 8058SOL    HW235811   3.303   0.213   8.128  0.6682  2.0274 -1.1923
 8059SOL     OW35812   3.173   1.175   2.009  0.4548  0.3350  0.4411
 8059SOL    HW135813   3.114   1.114   2.054  2.2140 -0.0917  2.1602
 8059SOL    HW235814   3.212   1.227   2.079  0.0998  0.7394  0.3357
 8060SOL     OW35815   2.715   0.478   4.116 -0.4018 -0.8221  0.0242
 8060SOL    HW135816   2.624   0.454   4.132 -0.4092 -1.0138 -0.2855
 8060SOL    HW235817   2.718   0.572   4.132 -0.1411 -0.8682  0.2388
 8061SOL     OW35818   2.489   0.562  12.877 -0.1772  0.3293 -0.1322
 8061SOL    HW135819   2.566   0.514  12.846 -0.5790 -0.5554  0.2375
 8061SOL    HW235820   2.484   0.643  12.826 -1.0797 -1.2062 -2.4790
 8062SOL     OW35821   4.151   0.610   5.985 -0.2600 -0.1674  0.3676
 8062SOL    HW135822   4.195   0.690   6.013  2.3298 -1.2241 -0.7002
 8062SOL    HW235823   4.059   0.637   5.978 -0.5818 -1.2189  0.6105
 8063SOL     OW35824   2.329   4.109   7.672  0.1487  0.0028  0.1100
 8063SOL    HW135825   2.361   4.025   7.639  1.3664  1.3991 -2.2579
 8063SOL    HW235826   2.413   4.152   7.689  0.0842 -0.3733  1.4053
 8064SOL     OW35827   2.864   2.504   6.842 -0.2189  0.2557  0.2383
 8064SOL    HW135828   2.856   2.429   6.901 -1.9917  0.5230  0.3537
 8064SOL    HW235829   2.958   2.508   6.825 -0.4871 -1.3082 -1.6908
 8065SOL     OW35830   2.472   0.761   0.253 -0.2144 -0.2874 -0.8649
 8065SOL    HW135831   2.377   0.755   0.244 -0.3828  0.1934  0.6280
 8065SOL    HW235832   2.490   0.847   0.214 -1.6819  1.8223  3.0145
 8066SOL     OW35833   4.140   2.063   7.047  0.2872  0.4561 -0.2642
 8066SOL    HW135834   4.072   2.125   7.073 -0.3085 -1.2971  2.3887
 8066SOL    HW235835   4.220   2.111   7.071  1.0027  0.3445 -2.4319
 8067SOL     OW35836   3.261   2.802   8.258 -0.1173 -0.7723  0.8992
 8067SOL    HW135837   3.209   2.754   8.194  1.4683 -0.8211 -0.3445
 8067SOL    HW235838   3.306   2.728   8.298 -0.0072 -1.2394 -0.0977
 8068SOL     OW35839   2.887   2.015  11.686  0.1702 -0.4790 -0.2072
 8068SOL    HW135840   2.858   1.948  11.748 -1.4056  1.5727  1.2715
 8068SOL    HW235841   2.940   2.070  11.744 -0.4063  0.6579 -0.7700
 8069SOL     OW35842   1.748   2.337   8.230 -0.1072 -0.0998 -0.2362
 8069SOL    HW135843   1.680   2.283   8.269  1.2398 -0.7493  1.2183
 8069SOL    HW235844   1.805   2.355   8.305  0.8929 -1.8202 -0.5979
 8070SOL     OW35845   0.340   2.062  17.380 -0.6021  0.6937  0.7134
 8070SOL    HW135846   0.292   2.013  17.447  0.8123  1.1235  2.0571
 8070SOL    HW235847   0.268   2.092  17.325 -0.6711  0.7371  0.8273
 8071SOL     OW35848   0.270   3.230   5.140 -0.0211 -0.0664 -0.3872
 8071SOL    HW135849   0.313   3.303   5.095  2.6176 -1.8762 -0.8252
 8071SOL    HW235850   0.281   3.148   5.091 -2.8182 -0.0512 -1.0243
 8072SOL     OW35851   2.910   1.667   5.722  0.6652  0.0866  0.2117
 8072SOL    HW135852   2.966   1.743   5.737 -0.0866  0.1962  2.4383
 8072SOL    HW235853   2.894   1.672   5.627  0.6886  0.8900  0.2551
 8073SOL     OW35854   2.047   3.381   3.756  0.0960  0.1362  0.2295
 8073SOL    HW135855   2.134   3.388   3.793 -0.0456 -0.3334  0.6415
 8073SOL    HW235856   1.993   3.363   3.833 -2.3430  2.8843 -0.7970
 8074SOL     OW35857   0.898   0.187   5.778 -0.1043 -0.7230  0.1170
 8074SOL    HW135858   0.860   0.168   5.693 -1.2192 -1.3952  0.7576
 8074SOL    HW235859   0.861   0.271   5.806  0.5777 -0.5136  0.3913
 8075SOL     OW35860   1.831   2.670   9.172 -0.0379 -0.3467  0.2656
 8075SOL    HW135861   1.761   2.692   9.109  0.9398  1.1000 -0.3246
 8075SOL    HW235862   1.844   2.752   9.220  0.3893  0.7424 -1.6873
 8076SOL     OW35863   3.709   0.403  11.868 -0.6792  0.0920  0.6352
 8076SOL    HW135864   3.736   0.311  11.865  3.1317  1.1937  1.4541
 8076SOL    HW235865   3.757   0.430  11.946 -1.3990 -0.3339  1.2211
 8077SOL     OW35866   2.265   0.000   8.619  0.4289  0.2375  0.1663
 8077SOL    HW135867   2.267   0.051   8.701  0.4779  1.3313 -0.5147
 8077SOL    HW235868   2.353   4.699   8.621  0.4936  0.3189 -1.1811
 8078SOL     OW35869   2.657   1.847   5.846  0.3108 -0.8193  0.0668
 8078SOL    HW135870   2.699   1.869   5.763 -0.7701 -1.4494 -0.6496
 8078SOL    HW235871   2.595   1.786   5.805 -0.3295  0.2153 -0.5249
 8079SOL     OW35872   2.110   4.179   4.321 -0.2152  0.3495  0.1233
 8079SOL    HW135873   2.129   4.128   4.400 -0.3861 -1.4178 -0.9753
 8079SOL    HW235874   2.023   4.150   4.297 -0.6702  2.2014 -0.4786
 8080SOL     OW35875   0.818   3.414   6.734 -0.3133 -0.4438 -0.0388
 8080SOL    HW135876   0.906   3.410   6.696 -0.4217  1.1476 -0.4440
 8080SOL    HW235877   0.802   3.507   6.750 -0.8639 -0.7838  1.3899
 8081SOL     OW35878   0.887   2.931   5.803 -0.5048  0.0577  0.0148
 8081SOL    HW135879   0.839   2.976   5.873 -1.3185  0.3095 -0.6999
 8081SOL    HW235880   0.848   2.844   5.798  0.6978 -0.5270  0.8752
 8082SOL     OW35881   0.532   1.797   3.711 -0.2991 -0.2359 -0.4065
 8082SOL    HW135882   0.455   1.853   3.708  2.0180  3.0131 -0.0097
 8082SOL    HW235883   0.481   1.719   3.687  0.1948 -1.1698  1.6486
 8083SOL     OW35884   1.271   1.174   0.959  0.8799  0.0195  0.6611
 8083SOL    HW135885   1.264   1.188   0.864  2.2522 -1.0106  0.4114
 8083SOL    HW235886   1.255   1.080   0.966 -0.7419  0.2679  0.2067
 8084SOL     OW35887   1.027   2.424   7.766  0.4651  0.6894 -0.2809
 8084SOL    HW135888   1.013   2.400   7.674 -0.4802  2.8156 -0.6981
 8084SOL    HW235889   0.949   2.473   7.789 -0.5225  0.0276 -2.1911
 8085SOL     OW35890   2.086   0.875  17.449  0.1848 -0.2283 -0.1278
 8085SOL    HW135891   2.156   0.831  17.401  2.2334  2.5849  0.2192
 8085SOL    HW235892   2.086   0.965  17.418  0.4896 -0.0963  0.2499
 8086SOL     OW35893   4.411   0.100   7.462  0.0039  0.2726  0.1668
 8086SOL    HW135894   4.451   0.013   7.468  1.3792  0.9088  0.1226
 8086SOL    HW235895   4.455   0.133   7.385  0.8334 -0.1124  0.4785
 8087SOL     OW35896   2.357   4.550   3.739 -0.3826 -0.3501 -0.0387
 8087SOL    HW135897   2.413   4.626   3.725  0.4148 -0.6277  1.6088
 8087SOL    HW235898   2.425   4.487   3.763 -0.1075 -1.1904 -2.9524
 8088SOL     OW35899   1.892   0.656  17.510 -0.2468  0.2542  0.0954
 8088SOL    HW135900   1.831   0.728  17.529 -2.3917 -0.2007 -4.9204
 8088SOL    HW235901   1.965   0.705  17.473 -0.8458  0.2297 -1.1197
 8089SOL     OW35902   3.732   1.320  10.665 -0.5332 -0.2273 -0.1744
 8089SOL    HW135903   3.815   1.311  10.711 -1.0546  1.0433  1.0125
 8089SOL    HW235904   3.686   1.384  10.720 -0.4799  1.5841 -2.2468
 8090SOL     OW35905   4.367   0.626   8.354  0.3120 -0.0823  0.1740
 8090SOL    HW135906   4.442   0.653   8.301 -1.1463  0.3844 -1.6588
 8090SOL    HW235907   4.401   0.616   8.443  0.4736  0.6799  0.1919
 8091SOL     OW35908   2.529   4.600   8.656 -0.0132  0.4407 -0.9840
 8091SOL    HW135909   2.592   4.669   8.675 -1.6862  1.6766  0.0354
 8091SOL    HW235910   2.505   4.577   8.745 -0.7422  1.8119 -0.8318
 8092SOL     OW35911   1.004   3.022   6.207  0.0383 -0.1122  0.0893
 8092SOL    HW135912   0.932   2.965   6.179  0.0087 -1.0921  2.1656
 8092SOL    HW235913   0.991   3.096   6.147  1.8884  0.5666  0.5550
 8093SOL     OW35914   0.531   2.931   8.552  0.2066  0.1915  0.1057
 8093SOL    HW135915   0.599   2.916   8.487 -2.0175 -0.3429 -2.0733
 8093SOL    HW235916   0.588   2.918   8.628  0.4773 -0.0204 -0.1365
 8094SOL     OW35917   2.094   2.375  12.875  0.0007 -0.2753  0.2692
 8094SOL    HW135918   2.010   2.417  12.895 -1.2725 -2.0336 -1.4054
 8094SOL    HW235919   2.141   2.399  12.955  3.2760 -1.5527 -1.2987
 8095SOL     OW35920   1.485   2.409   4.127  0.6180 -0.2782 -0.0191
 8095SOL    HW135921   1.480   2.393   4.033  0.5926  2.4414 -0.4825
 8095SOL    HW235922   1.416   2.475   4.124  2.0855  1.3867  2.3433
 8096SOL     OW35923   3.810   4.079   1.414 -0.0302  0.0692  0.3893
 8096SOL    HW135924   3.811   3.995   1.368 -0.0138 -0.4666  1.3654
 8096SOL    HW235925   3.869   4.072   1.489 -1.4209  1.9134  1.6656
 8097SOL     OW35926   3.344   1.075   0.276 -0.7142 -0.1446  0.1586
 8097SOL    HW135927   3.375   0.997   0.321  0.9892  0.5477  0.1882
 8097SOL    HW235928   3.435   1.101   0.257  0.3409 -3.2394  1.0137
 8098SOL     OW35929   1.539   3.423   6.896  0.1319  0.3949  0.4950
 8098SOL    HW135930   1.463   3.481   6.888 -0.7434 -0.8456 -0.1664
 8098SOL    HW235931   1.570   3.416   6.806 -2.2451 -2.1872 -0.1275
 8099SOL     OW35932   1.695   3.174  16.208 -0.0393  0.1325  0.0369
 8099SOL    HW135933   1.610   3.193  16.248  0.8683 -0.3468  2.2250
 8099SOL    HW235934   1.721   3.245  16.149 -0.9715  0.0142 -0.5028
 8100SOL     OW35935   4.342   0.114   4.163 -0.2675  0.1415 -0.1982
 8100SOL    HW135936   4.251   0.142   4.164  0.0555  1.1205  1.8323
 8100SOL    HW235937   4.354   0.093   4.256  0.5374 -0.4161 -0.4256
 8101SOL     OW35938   4.358   3.062   0.866  0.2000  0.5475  0.3454
 8101SOL    HW135939   4.264   3.045   0.872  0.5858 -1.5379  0.3107
 8101SOL    HW235940   4.362   3.147   0.910  3.3380  0.0643  0.9761
 8102SOL     OW35941   3.139   1.650   3.100 -0.1904  0.3058  0.0194
 8102SOL    HW135942   3.143   1.598   3.180  0.4457  1.1781  0.5559
 8102SOL    HW235943   3.155   1.580   3.037 -1.6430 -0.9753  1.0646
 8103SOL     OW35944   0.137   2.951   1.171  0.5224 -0.0147  0.0541
 8103SOL    HW135945   0.202   2.966   1.240  0.6229 -0.9309  0.1523
 8103SOL    HW235946   0.091   3.035   1.161 -0.1252 -0.4843 -0.9264
 8104SOL     OW35947   0.423   2.943   5.671 -0.4209  0.2109  0.1420
 8104SOL    HW135948   0.368   3.011   5.709  1.7423  2.0340  0.0358
 8104SOL    HW235949   0.477   3.006   5.624 -1.1966  0.2724 -0.6662
 8105SOL     OW35950   2.492   1.822   5.109 -0.1955  0.0139 -0.2663
 8105SOL    HW135951   2.400   1.797   5.114 -0.5856  2.2816  3.2947
 8105SOL    HW235952   2.496   1.825   5.013 -0.1608  1.0633 -0.2290
 8106SOL     OW35953   1.863   2.893   3.800  0.3720  0.0296  0.2263
 8106SOL    HW135954   1.900   2.809   3.774 -1.0427 -1.3712  2.7806
 8106SOL    HW235955   1.887   2.955   3.731  2.5700  0.0859  1.0541
 8107SOL     OW35956   1.416   2.945   3.807  0.8076 -0.8556 -0.4866
 8107SOL    HW135957   1.450   2.962   3.719  3.0439  0.1940  0.5633
 8107SOL    HW235958   1.425   3.034   3.844  0.8829  0.8056 -4.5105
 8108SOL     OW35959   1.384   1.744   5.632  0.7326  0.3239  0.4042
 8108SOL    HW135960   1.389   1.783   5.545 -2.2396 -0.4830 -0.1369
 8108SOL    HW235961   1.295   1.708   5.631  0.6975  0.5876 -3.3017
 8109SOL     OW35962   2.181   0.419   4.272 -0.3668 -0.1642  0.1757
 8109SOL    HW135963   2.155   0.328   4.283  0.0168 -0.3884 -0.7430
 8109SOL    HW235964   2.096   0.464   4.276  1.2819  2.9192  1.1963
 8110SOL     OW35965   0.852   4.061  12.263  0.2385  0.0057 -0.1819
 8110SOL    HW135966   0.800   4.140  12.280 -0.0115  0.1095 -1.4243
 8110SOL    HW235967   0.885   4.039  12.350 -1.5619 -1.0802  0.2059
 8111SOL     OW35968   2.684   3.319   6.544 -0.2978  0.4296 -0.0098
 8111SOL    HW135969   2.664   3.225   6.548  0.0598  0.4407  2.1257
 8111SOL    HW235970   2.748   3.325   6.473  1.3730 -0.6390  1.4015
 8112SOL     OW35971   0.926   0.666  15.784  0.6831 -0.9927 -0.0020
 8112SOL    HW135972   1.004   0.662  15.729  0.5897  2.7587 -0.4046
 8112SOL    HW235973   0.860   0.708  15.729 -0.4357 -1.1740  1.1890
 8113SOL     OW35974   0.105   2.696   7.638  0.2641 -0.0925  0.0292
 8113SOL    HW135975   0.061   2.705   7.553  0.1964 -1.1554 -0.0462
 8113SOL    HW235976   0.180   2.650   7.602  0.4380  0.1759  0.0481
 8114SOL     OW35977   3.362   1.347   5.948  0.0043  0.2371 -0.1022
 8114SOL    HW135978   3.346   1.284   5.878 -1.2513  1.4280 -0.8763
 8114SOL    HW235979   3.293   1.410   5.928 -1.1602  0.0144  3.1399
 8115SOL     OW35980   3.704   0.389  16.181 -0.4949  0.5955 -0.2147
 8115SOL    HW135981   3.661   0.415  16.099 -1.3812 -0.7987 -0.1988
 8115SOL    HW235982   3.661   0.304  16.192  0.3334  0.2415  0.1956
 8116SOL     OW35983   3.944   4.721   2.863 -0.1253 -0.9699  0.0690
 8116SOL    HW135984   3.896   4.716   2.780 -1.4472 -1.3237  0.8482
 8116SOL    HW235985   3.873   0.028   2.911 -0.6775 -1.2456 -0.5018
 8117SOL     OW35986   3.301   0.032   7.334  0.3286 -0.7585  0.1374
 8117SOL    HW135987   3.381   0.002   7.376 -0.0653 -2.7307 -0.5020
 8117SOL    HW235988   3.334   0.120   7.314  0.1406 -1.0605 -1.5520
 8118SOL     OW35989   0.563   3.824   3.338 -0.2340  0.3435 -0.2833
 8118SOL    HW135990   0.504   3.810   3.412  2.4695  0.6980  1.9198
 8118SOL    HW235991   0.528   3.764   3.272  0.5830 -0.6431  0.1721
 8119SOL     OW35992   1.524   4.169   7.206 -0.9398  0.2141  0.2782
 8119SOL    HW135993   1.450   4.196   7.152 -0.6567  0.5709  0.0707
 8119SOL    HW235994   1.569   4.253   7.211  2.0413 -1.2580 -1.8941
 8120SOL     OW35995   0.849   4.578   5.702 -0.2290 -0.1933 -0.5111
 8120SOL    HW135996   0.876   4.524   5.627 -0.4897 -1.3260  0.2104
 8120SOL    HW235997   0.816   4.658   5.661 -1.8929 -0.5856  0.0515
 8121SOL     OW35998   4.024   1.064   5.999 -0.0117 -0.0944 -0.8412
 8121SOL    HW135999   3.945   1.024   6.036 -1.6394  3.8036 -0.1239
 8121SOL    HW236000   3.998   1.156   6.004 -1.3068 -0.5946  2.0795
 8122SOL     OW36001   3.870   1.602   1.004  0.5527 -0.4959  0.2640
 8122SOL    HW136002   3.948   1.610   1.060  0.2353  0.8848  0.5077
 8122SOL    HW236003   3.905   1.614   0.916 -0.2061  1.8710  0.2885
 8123SOL     OW36004   3.436   3.934   3.614 -0.3297  0.5449  1.0133
 8123SOL    HW136005   3.365   3.974   3.664 -1.3955  0.6872 -0.5913
 8123SOL    HW236006   3.447   4.013   3.560 -0.2403 -0.7906 -0.9124
 8124SOL     OW36007   1.215   2.110   7.665  0.1010  0.4028  0.4052
 8124SOL    HW136008   1.201   2.153   7.750  1.2577 -1.5746  1.6065
 8124SOL    HW236009   1.255   2.033   7.704 -1.0508 -0.2668  0.2843
 8125SOL     OW36010   0.812   1.369   8.293 -0.1097 -0.7644  0.5154
 8125SOL    HW136011   0.795   1.301   8.358 -1.0591  0.1216  1.1937
 8125SOL    HW236012   0.898   1.392   8.328  0.2314  0.5387 -1.1907
 8126SOL     OW36013   2.254   4.654   9.147 -0.1585  0.1679  0.3046
 8126SOL    HW136014   2.219   4.657   9.236 -0.5857  1.9840  0.0809
 8126SOL    HW236015   2.217   4.571   9.118  1.5788  0.5025 -2.8118
 8127SOL     OW36016   1.990   2.109  15.448  0.1994 -0.1530 -0.0652
 8127SOL    HW136017   2.059   2.043  15.441 -0.0970 -0.1232 -3.2886
 8127SOL    HW236018   1.935   2.081  15.375 -3.0424  1.7074  1.6738
 8128SOL     OW36019   2.992   4.314  11.367 -0.1812 -0.4832 -0.0510
 8128SOL    HW136020   3.038   4.310  11.451  1.2297 -2.7588 -0.9165
 8128SOL    HW236021   3.039   4.253  11.310  1.6187  0.3968  0.4732
 8129SOL     OW36022   4.243   1.368   9.231  0.0716  0.5076 -0.4666
 8129SOL    HW136023   4.320   1.315   9.209 -0.1938  0.2744 -0.8199
 8129SOL    HW236024   4.202   1.392   9.148 -1.7640  0.7093  0.5151
 8130SOL     OW36025   4.490   1.314   8.424  0.7542  0.5606  0.1127
 8130SOL    HW136026   4.508   1.319   8.518 -0.1409 -0.7828  0.3638
 8130SOL    HW236027   4.396   1.299   8.430  0.6090  1.2003 -0.5635
 8131SOL     OW36028   0.081   4.378   2.715 -0.2329 -0.1578  0.2423
 8131SOL    HW136029   0.086   4.320   2.638 -2.6908  0.6537 -0.5259
 8131SOL    HW236030   0.013   4.339   2.770  0.5876  0.7239  1.8784
 8132SOL     OW36031   1.098   1.698   5.097 -0.1513 -0.2109  0.5230
 8132SOL    HW136032   1.087   1.608   5.065  0.3635 -0.4506  1.0150
 8132SOL    HW236033   1.188   1.706   5.128  0.6777  1.3974 -2.3040
 8133SOL     OW36034   0.617   1.165   4.764  0.0736 -0.3933 -0.1038
 8133SOL    HW136035   0.552   1.100   4.790 -0.7706  0.4818 -0.0255
 8133SOL    HW236036   0.584   1.237   4.817 -0.4200 -0.8315  0.1812
 8134SOL     OW36037   4.165   0.245  13.676 -0.2625  0.4008  0.2565
 8134SOL    HW136038   4.111   0.173  13.643 -1.1966  1.7031 -1.0036
 8134SOL    HW236039   4.121   0.311  13.622 -0.4719  1.2332  1.4405
 8135SOL     OW36040   0.921   4.645   7.898 -0.5014  0.1016  0.4864
 8135SOL    HW136041   0.982   4.586   7.941  0.4280  0.3343 -0.5178
 8135SOL    HW236042   0.956   4.732   7.917 -0.5932  0.3992 -0.7111
 8136SOL     OW36043   4.425   0.273  13.104 -0.6646  0.5297  0.0652
 8136SOL    HW136044   4.377   0.273  13.021 -1.3583  0.4822  0.4691
 8136SOL    HW236045   4.361   0.226  13.157 -1.3656  0.9351 -0.4262
 8137SOL     OW36046   3.935   2.650   1.901  0.1417 -0.4998  0.1175
 8137SOL    HW136047   4.001   2.711   1.934 -0.0410  0.2906 -1.0137
 8137SOL    HW236048   3.991   2.587   1.856  0.5003 -1.8815  2.4600
 8138SOL     OW36049   2.091   1.162   6.394 -0.0395 -0.4945 -0.4208
 8138SOL    HW136050   2.048   1.243   6.423 -0.4785 -1.0598  0.5238
 8138SOL    HW236051   2.032   1.113   6.452  0.1289 -1.0159 -0.6901
 8139SOL     OW36052   0.988   3.068  14.065  0.1159 -0.2699 -0.1821
 8139SOL    HW136053   0.950   3.074  14.153  1.5009  1.4601  0.3009
 8139SOL    HW236054   0.918   3.019  14.022 -0.3857 -0.3725  0.7510
 8140SOL     OW36055   0.783   3.375   6.132  0.0474 -0.2043  0.4468
 8140SOL    HW136056   0.693   3.373   6.102  1.0971 -0.3629 -2.6744
 8140SOL    HW236057   0.835   3.417   6.064 -2.3318  1.3313 -0.4187
 8141SOL     OW36058   2.139   0.900   4.425  0.1238 -0.9116  0.1939
 8141SOL    HW136059   2.184   0.980   4.451  0.1414 -0.9519  0.2878
 8141SOL    HW236060   2.214   0.841   4.417  0.2980 -0.4011 -1.7444
 8142SOL     OW36061   3.475   3.662   1.650 -0.4405  0.7020  0.2600
 8142SOL    HW136062   3.557   3.698   1.683  0.8953 -1.8324 -0.2420
 8142SOL    HW236063   3.468   3.567   1.662  0.9084  0.5883  0.0799
 8143SOL     OW36064   0.966   0.549   4.606  0.1563  0.2407  0.1233
 8143SOL    HW136065   0.953   0.591   4.691  0.5978  0.5931  0.0226
 8143SOL    HW236066   1.012   0.626   4.571 -2.2738  2.6552  2.2593
 8144SOL     OW36067   1.599   1.774   0.305 -0.4577  0.4871  0.0254
 8144SOL    HW136068   1.555   1.690   0.308 -1.4060  0.9246 -1.8537
 8144SOL    HW236069   1.660   1.769   0.379 -1.2225 -1.2773  0.5291
 8145SOL     OW36070   4.546   2.083   7.048 -0.0138  0.4191 -0.1746
 8145SOL    HW136071   4.534   2.092   6.953  0.6711 -1.2453 -0.4175
 8145SOL    HW236072   4.477   2.134   7.089 -1.6292 -2.6099  0.8651
 8146SOL     OW36073   2.709   1.052  12.440  0.6161  0.1977 -0.6343
 8146SOL    HW136074   2.669   1.138  12.452  0.4048  0.2437 -1.6544
 8146SOL    HW236075   2.800   1.072  12.416  0.5225 -0.0573 -1.2118
 8147SOL     OW36076   0.837   4.062  11.168 -0.1435  0.1044 -0.4110
 8147SOL    HW136077   0.890   4.025  11.098  1.6292 -2.2154  2.1502
 8147SOL    HW236078   0.878   4.149  11.164 -1.5692  0.8825  1.6976
 8148SOL     OW36079   3.029   2.996   0.268 -0.8503  0.6205 -0.1191
 8148SOL    HW136080   3.107   2.954   0.304 -0.6398  1.1216  0.0206
 8148SOL    HW236081   3.053   3.079   0.309 -0.7285 -0.5391  2.1527
 8149SOL     OW36082   2.300   0.737   7.988  0.0480 -0.0400  0.0128
 8149SOL    HW136083   2.222   0.707   8.034  1.5452 -1.7833  1.3764
 8149SOL    HW236084   2.302   0.688   7.906  2.1917 -0.4978  0.3540
 8150SOL     OW36085   4.416   0.593  16.592 -0.4157  0.3691  0.3919
 8150SOL    HW136086   4.496   0.630  16.630 -1.6117  3.6864 -0.3660
 8150SOL    HW236087   4.362   0.651  16.645  0.8158 -0.5634  2.6774
 8151SOL     OW36088   0.496   4.092   7.419 -0.1659  0.3596  0.6386
 8151SOL    HW136089   0.583   4.060   7.445 -0.7265  0.0285  2.0850
 8151SOL    HW236090   0.445   4.082   7.499 -0.6408 -3.4300 -0.1318
 8152SOL     OW36091   3.521   0.229   5.901  0.5919 -0.1340 -0.1434
 8152SOL    HW136092   3.463   0.288   5.853  1.6151 -0.7599 -2.1467
 8152SOL    HW236093   3.608   0.236   5.861 -0.1514  0.3958 -1.6393
 8153SOL     OW36094   0.048   0.390   3.762 -0.0706  0.0895  0.5548
 8153SOL    HW136095   0.080   0.403   3.851 -0.3142 -2.1705  0.9895
 8153SOL    HW236096   4.688   0.384   3.771  0.0548 -1.6655  0.7397
 8154SOL     OW36097   2.212   2.681   4.801 -0.0315 -0.0088  0.4697
 8154SOL    HW136098   2.164   2.654   4.879 -0.8280  0.5530  0.1712
 8154SOL    HW236099   2.149   2.726   4.745  0.4237  0.8060  0.6102
 8155SOL     OW36100   1.459   2.053   3.201  0.1867  0.2943  1.3062
 8155SOL    HW136101   1.415   2.111   3.138  1.2040  1.2908  1.5182
 8155SOL    HW236102   1.435   2.095   3.283  2.1097  0.6912  1.6483
 8156SOL     OW36103   2.790   3.136   0.203  0.2280 -0.2513 -0.4286
 8156SOL    HW136104   2.742   3.066   0.248 -0.2602 -0.7283 -1.7068
 8156SOL    HW236105   2.873   3.092   0.186 -0.7544 -1.6328 -1.5724
 8157SOL     OW36106   4.362   2.878   9.708  0.0824 -0.3772  0.2212
 8157SOL    HW136107   4.325   2.795   9.736  1.0911 -0.6015  0.8745
 8157SOL    HW236108   4.345   2.935   9.783 -4.0655 -1.8186  0.3484
 8158SOL     OW36109   2.907   2.235   3.155 -0.8910 -0.0482  0.0996
 8158SOL    HW136110   2.852   2.290   3.098  1.8032  2.2867 -0.2826
 8158SOL    HW236111   2.839   2.212   3.218  1.2404 -0.3149  2.2709
 8159SOL     OW36112   2.142   3.615   6.577  0.0912  0.0976  0.2539
 8159SOL    HW136113   2.047   3.606   6.574  0.0649  0.3038  0.5892
 8159SOL    HW236114   2.165   3.594   6.486 -1.8891  2.1649 -0.7427
 8160SOL     OW36115   2.937   1.883  12.137 -0.0905 -0.2888 -0.1445
 8160SOL    HW136116   2.949   1.949  12.205 -3.1710  0.3405 -0.1955
 8160SOL    HW236117   2.936   1.803  12.189 -4.1163  0.0986  0.3533
 8161SOL     OW36118   4.158   0.415  12.512  0.4864 -0.4312  0.0420
 8161SOL    HW136119   4.215   0.343  12.487 -0.6401 -0.7724 -1.5678
 8161SOL    HW236120   4.179   0.480  12.445  0.7881 -1.6846 -1.0620
 8162SOL     OW36121   4.063   3.423   8.163 -0.4904  0.3720  0.8368
 8162SOL    HW136122   4.055   3.383   8.250 -3.3178  0.6184  0.6996
 8162SOL    HW236123   4.019   3.354   8.114  4.5064 -1.6939 -0.7037
 8163SOL     OW36124   2.280   0.684   0.896  0.4253  0.1935  0.2259
 8163SOL    HW136125   2.203   0.678   0.839 -1.0793  1.0401  2.1536
 8163SOL    HW236126   2.341   0.733   0.841  0.7542 -1.1537 -0.6215
 8164SOL     OW36127   4.621   3.025   4.469  0.5651 -0.1535 -0.4280
 8164SOL    HW136128   4.672   3.088   4.520  0.2907  1.0307 -1.6237
 8164SOL    HW236129   4.554   3.003   4.534  1.5125 -1.1711  0.2137
 8165SOL     OW36130   0.966   1.304   0.042 -0.2831 -0.1619 -0.5623
 8165SOL    HW136131   1.015   1.286  17.703 -1.3298 -1.1298 -0.9866
 8165SOL    HW236132   0.971   1.218   0.084  0.7094  1.0246  1.7110
 8166SOL     OW36133   1.122   2.987   2.303  0.0471  0.5516 -0.1566
 8166SOL    HW136134   1.188   3.015   2.241  0.7306  0.1351  0.3827
 8166SOL    HW236135   1.123   2.891   2.308 -0.1195  0.4309 -2.5472
 8167SOL     OW36136   1.325   0.388   3.712 -0.3622  0.0593 -0.0032
 8167SOL    HW136137   1.410   0.419   3.744 -0.1950  0.1523 -0.5370
 8167SOL    HW236138   1.312   0.309   3.766  1.8011  0.9061  1.7549
 8168SOL     OW36139   1.660   1.657   8.939 -0.1799 -0.6277 -0.6393
 8168SOL    HW136140   1.643   1.569   8.906 -0.8115 -2.2835  4.0997
 8168SOL    HW236141   1.724   1.638   9.008 -1.0392  0.9597  0.5980
 8169SOL     OW36142   0.669   4.359   1.255 -0.3971 -0.0068 -0.0669
 8169SOL    HW136143   0.664   4.276   1.209 -1.7272  1.1305 -1.9317
 8169SOL    HW236144   0.638   4.420   1.188  2.5417 -0.3332 -1.7392
 8170SOL     OW36145   1.566   4.231   0.116  0.0184 -0.1905  0.3984
 8170SOL    HW136146   1.507   4.235   0.041  0.0197  0.5913  0.4367
 8170SOL    HW236147   1.632   4.169   0.084 -1.1007 -0.2041 -1.8655
 8171SOL     OW36148   2.982   3.662   8.029 -0.0779 -0.3609 -0.4849
 8171SOL    HW136149   2.937   3.608   7.964  0.6625 -0.8530 -0.5840
 8171SOL    HW236150   2.909   3.663   8.091  0.1020 -1.3562 -0.2610
 8172SOL     OW36151   2.700   1.396   4.517 -0.3261 -0.3964 -0.0612
 8172SOL    HW136152   2.660   1.393   4.430  0.7876 -0.9072 -0.5501
 8172SOL    HW236153   2.784   1.442   4.509  0.5510 -1.9826  0.2150
 8173SOL     OW36154   3.000   3.877  13.643  0.1027  0.0055  0.0121
 8173SOL    HW136155   3.021   3.796  13.597 -0.6080 -1.0963  1.6541
 8173SOL    HW236156   2.926   3.901  13.588  1.0158 -0.7896 -1.5651
 8174SOL     OW36157   2.480   2.327   6.917 -0.2094 -0.3323  0.1128
 8174SOL    HW136158   2.446   2.285   6.838  0.8413 -0.6685 -0.1597
 8174SOL    HW236159   2.493   2.259   6.984  1.9792 -1.2300 -1.2119
 8175SOL     OW36160   0.984   4.347   4.659  0.0317 -0.0086  0.3829
 8175SOL    HW136161   1.040   4.306   4.593 -0.1633  1.2743 -0.5825
 8175SOL    HW236162   1.003   4.302   4.741  0.6294  1.0437  0.8150
 8176SOL     OW36163   4.546   3.969   4.795  0.0794  0.7405 -0.3021
 8176SOL    HW136164   4.591   4.051   4.814 -1.3396  0.9935  1.9060
 8176SOL    HW236165   4.546   3.932   4.883 -4.0680  0.9781 -0.1894
 8177SOL     OW36166   3.145   2.995   9.870  0.2196  0.0252 -0.1675
 8177SOL    HW136167   3.127   3.046   9.950  1.0982 -0.1844  0.1613
 8177SOL    HW236168   3.058   3.000   9.830  0.3631  0.2806 -0.4397
 8178SOL     OW36169   2.407   4.504   7.772 -0.0180 -0.2083  0.4268
 8178SOL    HW136170   2.451   4.491   7.688 -2.4474  0.2968 -0.9373
 8178SOL    HW236171   2.337   4.439   7.769 -0.8409  0.5880  2.3831
 8179SOL     OW36172   2.659   1.299  16.901 -0.5996 -0.2216 -0.1389
 8179SOL    HW136173   2.612   1.231  16.949  0.5361  0.0939  1.4159
 8179SOL    HW236174   2.673   1.248  16.821 -1.1353  0.7974 -0.8902
 8180SOL     OW36175   4.574   0.043   9.341  0.2152 -0.1021 -0.7426
 8180SOL    HW136176   4.536   0.129   9.321  0.4275  0.7343  2.3655
 8180SOL    HW236177   4.610   0.021   9.256 -1.1497  0.4741 -1.4847
 8181SOL     OW36178   0.712   1.803  11.246 -0.3181 -0.4365  0.0894
 8181SOL    HW136179   0.764   1.840  11.317 -1.4009 -1.4270  1.4140
 8181SOL    HW236180   0.653   1.874  11.222  1.1493  1.0592  0.9822
 8182SOL     OW36181   0.734   1.388   2.396 -0.7567 -0.2906 -0.0063
 8182SOL    HW136182   0.775   1.319   2.344 -1.9298 -1.6385  0.8578
 8182SOL    HW236183   0.693   1.327   2.458  1.4811 -2.0200 -0.2258
 8183SOL     OW36184   4.501   2.904   1.032 -0.1395  0.2883 -0.2451
 8183SOL    HW136185   4.453   2.936   0.955 -0.5871 -1.4770 -0.7100
 8183SOL    HW236186   4.447   2.947   1.098 -0.7655 -1.1139  0.1649
 8184SOL     OW36187   2.734   3.211   4.055  0.0005 -0.0396  0.2770
 8184SOL    HW136188   2.669   3.255   4.001 -0.8391  1.3448  2.4146
 8184SOL    HW236189   2.812   3.265   4.039  0.7246 -0.6205  1.8581
 8185SOL     OW36190   2.130   0.045   3.764 -1.3672  0.1328 -0.1374
 8185SOL    HW136191   2.150   4.693   3.730 -0.3288  0.4377 -0.2931
 8185SOL    HW236192   2.102   0.080   3.679 -4.1081 -0.1965  0.6419
 8186SOL     OW36193   2.035   1.118   4.856 -0.1628 -0.2133 -0.1415
 8186SOL    HW136194   2.013   1.151   4.944 -1.2522  0.4451 -0.6460
 8186SOL    HW236195   1.950   1.088   4.824 -0.2044 -0.1335 -0.1087
 8187SOL     OW36196   2.020   1.275  15.086 -0.3865  0.3872  0.0918
 8187SOL    HW136197   1.994   1.342  15.150 -0.5282 -0.6060  1.0769
 8187SOL    HW236198   2.006   1.326  15.006  1.1750  0.5067 -0.1049
 8188SOL     OW36199   3.525   1.739   4.563  0.2265 -0.3032 -0.3452
 8188SOL    HW136200   3.617   1.712   4.557  0.7765  1.3942  0.5736
 8188SOL    HW236201   3.496   1.659   4.608 -0.9433  1.1924  1.5933
 8189SOL     OW36202   1.841   1.383   9.160  0.0867  0.1722 -0.3991
 8189SOL    HW136203   1.796   1.396   9.243 -0.5686 -0.0592 -0.7243
 8189SOL    HW236204   1.873   1.294   9.174 -1.6663 -0.2672  0.7807
 8190SOL     OW36205   2.360   3.729   0.467  0.1367  0.2450 -0.1031
 8190SOL    HW136206   2.335   3.725   0.559 -1.6316  0.0516 -0.5794
 8190SOL    HW236207   2.430   3.665   0.464 -0.7533 -0.6472 -1.6175
 8191SOL     OW36208   0.576   2.817   1.987 -0.1772 -0.2390  0.5645
 8191SOL    HW136209   0.518   2.828   1.911 -0.3346  0.8267  0.8371
 8191SOL    HW236210   0.551   2.727   2.006  1.4764 -1.4834 -3.1028
 8192SOL     OW36211   3.938   3.528   8.727  0.3129  0.0494  0.0012
 8192SOL    HW136212   3.930   3.453   8.668 -0.1859 -0.1186  0.2834
 8192SOL    HW236213   3.892   3.590   8.671  0.0582 -0.7980 -0.7259
 8193SOL     OW36214   4.426   0.577  12.831 -0.3410  0.7735 -0.7198
 8193SOL    HW136215   4.467   0.495  12.857 -0.6439  0.8559  0.0258
 8193SOL    HW236216   4.340   0.550  12.798 -1.1963  1.1291  1.1733
 8194SOL     OW36217   0.277   3.494   2.552  0.0616 -0.1262  0.1625
 8194SOL    HW136218   0.206   3.558   2.554 -0.6138 -0.7957 -2.0346
 8194SOL    HW236219   0.239   3.406   2.546  2.8494 -1.3112 -0.0960
 8195SOL     OW36220   2.587   3.459   8.552  0.2463  0.2607  0.1372
 8195SOL    HW136221   2.565   3.368   8.531  1.8781  0.3329 -1.8427
 8195SOL    HW236222   2.568   3.461   8.645  0.7079  0.6627  0.2227
 8196SOL     OW36223   2.580   0.962   0.110  0.1076 -0.1325  0.1782
 8196SOL    HW136224   2.643   0.990   0.177 -1.6176  0.9612  1.3573
 8196SOL    HW236225   2.555   1.050   0.083  2.1900 -0.2492 -2.1213
 8197SOL     OW36226   4.268   0.228  12.863 -0.0276 -0.5098 -0.1357
 8197SOL    HW136227   4.292   0.213  12.772 -1.0346  0.2616 -0.5290
 8197SOL    HW236228   4.210   0.153  12.872 -0.6311 -0.0346 -0.0166
 8198SOL     OW36229   3.865   2.166  13.814  0.1422  0.1758  0.5481
 8198SOL    HW136230   3.800   2.219  13.767  1.4148  0.5729 -0.7483
 8198SOL    HW236231   3.865   2.091  13.755 -0.4072 -0.6600  1.6070
 8199SOL     OW36232   2.347   1.700   4.530  0.2716 -0.0009  0.7027
 8199SOL    HW136233   2.305   1.706   4.616  0.8077 -2.7182  1.1410
 8199SOL    HW236234   2.388   1.613   4.532  1.1254  0.3816 -0.1822
 8200SOL     OW36235   3.899   2.089   5.801  0.3951 -0.3110 -0.1135
 8200SOL    HW136236   3.929   2.162   5.856 -0.7872 -1.4631  2.0467
 8200SOL    HW236237   3.806   2.111   5.793  0.5038 -0.4821 -1.8255
 8201SOL     OW36238   1.615   3.184   2.323  0.7979 -0.2103  0.1025
 8201SOL    HW136239   1.543   3.240   2.294  0.0165 -0.5893  1.3038
 8201SOL    HW236240   1.570   3.099   2.321 -2.5956  1.5444  1.5458
 8202SOL     OW36241   2.644   4.073   2.616  0.2311 -0.2117  0.1693
 8202SOL    HW136242   2.677   4.112   2.697 -1.1051  0.0098  0.6091
 8202SOL    HW236243   2.567   4.126   2.596  1.8683  0.8020 -3.3257
 8203SOL     OW36244   1.676   2.178   5.038  0.2320 -0.0298 -0.0066
 8203SOL    HW136245   1.588   2.140   5.034 -1.0092  2.7572  0.8650
 8203SOL    HW236246   1.646   2.267   5.017 -0.0030  0.5712  2.8472
 8204SOL     OW36247   0.881   2.175   6.338  0.4578 -0.3207  0.1160
 8204SOL    HW136248   0.922   2.163   6.423 -1.6862  0.7187  1.3019
 8204SOL    HW236249   0.878   2.083   6.309  0.9017 -0.5657  0.8625
 8205SOL     OW36250   3.850   2.665  10.187 -0.6014  0.2066  0.2658
 8205SOL    HW136251   3.786   2.730  10.218 -0.7691  0.0793  0.1852
 8205SOL    HW236252   3.846   2.677  10.092 -0.8897  2.2509  0.5198
 8206SOL     OW36253   2.241   3.322  10.516 -0.4611  0.4871 -0.1901
 8206SOL    HW136254   2.223   3.342  10.425 -1.9753  2.2032  0.4958
 8206SOL    HW236255   2.154   3.340  10.550 -0.7497  0.4236 -0.9066
 8207SOL     OW36256   1.215   1.760   4.631  0.3947  0.0310  0.3633
 8207SOL    HW136257   1.259   1.750   4.546 -0.0236  1.9297 -0.0697
 8207SOL    HW236258   1.133   1.714   4.613  1.2825 -1.7695  0.9217
 8208SOL     OW36259   4.655   1.706  12.397  0.0553  0.5736  0.1486
 8208SOL    HW136260   4.626   1.627  12.442  1.9725 -0.9420 -1.2585
 8208SOL    HW236261   4.672   1.766  12.470 -1.3493 -0.2547  1.1463
 8209SOL     OW36262   3.894   2.138  16.950 -0.0852  0.0005  0.2777
 8209SOL    HW136263   3.848   2.195  16.888 -0.2471 -0.6050 -0.1647
 8209SOL    HW236264   3.922   2.064  16.896  1.6630  2.7125 -2.5218
 8210SOL     OW36265   4.369   2.239   8.769 -0.4147  0.9482 -0.4996
 8210SOL    HW136266   4.460   2.224   8.794 -1.1300 -1.6824  0.4412
 8210SOL    HW236267   4.384   2.268   8.679 -1.4219  0.5732 -0.7852
 8211SOL     OW36268   0.077   2.428   7.110 -0.0880  0.2529  0.0778
 8211SOL    HW136269   0.162   2.444   7.150 -0.5734  0.8557  0.8898
 8211SOL    HW236270   0.085   2.334   7.099 -0.1430 -0.1501  3.4414
 8212SOL     OW36271   2.058   0.580   7.722  0.0499 -0.3694 -0.0144
 8212SOL    HW136272   2.029   0.489   7.712  1.0748 -0.7314  0.2550
 8212SOL    HW236273   2.003   0.611   7.794 -0.7894  0.3292 -0.9634
 8213SOL     OW36274   3.676   3.579   5.710 -0.2621  0.0943 -0.4971
 8213SOL    HW136275   3.583   3.557   5.715 -0.2321 -0.2710 -1.5905
 8213SOL    HW236276   3.718   3.503   5.670 -2.3422 -1.8930  1.1322
 8214SOL     OW36277   2.741   1.142   4.628 -0.0779 -0.2779 -0.0228
 8214SOL    HW136278   2.793   1.202   4.681 -0.1561 -0.3170  0.0985
 8214SOL    HW236279   2.711   1.208   4.566 -0.6161  0.0837  0.6369
 8215SOL     OW36280   2.547   4.055   6.830  0.1163 -0.4751  0.2403
 8215SOL    HW136281   2.640   4.045   6.850  0.1533  0.0699  0.3234
 8215SOL    HW236282   2.521   3.968   6.861  1.2507 -1.0821 -0.5095
 8216SOL     OW36283   3.172   4.662   0.625 -0.1698 -0.2734  0.4813
 8216SOL    HW136284   3.153   0.018   0.604 -0.2924 -0.5709 -0.6814
 8216SOL    HW236285   3.198   4.665   0.717 -2.8798 -1.0717  1.2649
 8217SOL     OW36286   1.581   4.657  14.219 -0.1540  0.0183  0.0053
 8217SOL    HW136287   1.504   4.667  14.163  0.7460  1.3146 -0.9941
 8217SOL    HW236288   1.657   4.664  14.161 -0.0219 -1.2496  0.0360
 8218SOL     OW36289   4.076   0.475   6.531  0.0406 -1.6235  0.2713
 8218SOL    HW136290   4.070   0.448   6.623 -0.1388  1.0703  1.0557
 8218SOL    HW236291   4.163   0.443   6.504  0.1678 -1.0363 -0.0123
 8219SOL     OW36292   4.711   1.317   6.500 -0.2185  0.3811 -0.8346
 8219SOL    HW136293   4.704   1.314   6.596  1.7925 -1.4900 -0.7512
 8219SOL    HW236294   0.069   1.302   6.493  0.3637  2.2104  2.8280
 8220SOL     OW36295   1.650   2.291   6.479  0.1630  0.2036  0.2685
 8220SOL    HW136296   1.598   2.297   6.559 -1.3010 -0.5777 -0.6237
 8220SOL    HW236297   1.596   2.222   6.442 -2.1116  1.9728  0.3086
 8221SOL     OW36298   0.900   2.001   4.717  0.0404  0.4551 -0.1695
 8221SOL    HW136299   0.955   2.079   4.717 -2.5167  2.2777  1.0062
 8221SOL    HW236300   0.928   1.960   4.799  0.5879 -0.5788 -0.8808
 8222SOL     OW36301   1.548   2.208  10.934  0.1802  0.1197  0.6970
 8222SOL    HW136302   1.641   2.212  10.956  0.6626 -0.5557 -1.2758
 8222SOL    HW236303   1.533   2.124  10.890  0.2853  0.9180 -0.8503
 8223SOL     OW36304   2.829   0.575   0.755  0.1023 -0.4587  0.9948
 8223SOL    HW136305   2.848   0.575   0.849  0.7501  0.2717  0.8701
 8223SOL    HW236306   2.854   0.661   0.720  1.2616 -0.5603  1.5579
 8224SOL     OW36307   2.459   0.845  14.676 -0.3488 -0.2490  0.2790
 8224SOL    HW136308   2.510   0.773  14.639  0.0493  0.6603 -0.9284
 8224SOL    HW236309   2.377   0.807  14.706  0.0580  0.1296  1.9034
 8225SOL     OW36310   3.617   3.406   3.710 -0.0622  0.2990 -0.5952
 8225SOL    HW136311   3.530   3.427   3.676 -0.6490  1.2079  1.4241
 8225SOL    HW236312   3.606   3.403   3.805  2.2294  3.3861 -0.2262
 8226SOL     OW36313   4.041   2.336   2.057  0.5017 -0.6269  0.0109
 8226SOL    HW136314   3.953   2.363   2.031  0.3114 -1.0284  0.2367
 8226SOL    HW236315   4.067   2.275   1.988  0.7378  0.4147 -0.8104
 8227SOL     OW36316   4.263   0.841  16.573  0.1099  0.0665 -0.4461
 8227SOL    HW136317   4.178   0.797  16.563  0.0951  0.0182 -0.1026
 8227SOL    HW236318   4.238   0.911  16.632 -1.5352  0.2813 -1.3969
 8228SOL     OW36319   0.310   1.790   7.453 -0.2675  0.0574  0.3797
 8228SOL    HW136320   0.216   1.781   7.438 -0.1182 -3.0022  1.1592
 8228SOL    HW236321   0.342   1.711   7.497  2.3927  0.9819  0.0935
 8229SOL     OW36322   3.430   1.363   9.731 -0.3734  0.1029  0.3110
 8229SOL    HW136323   3.350   1.415   9.723 -1.3312 -1.4756 -0.4269
 8229SOL    HW236324   3.490   1.420   9.683 -0.0171 -1.2629 -0.8886
 8230SOL     OW36325   3.573   1.004   9.562 -0.1973 -0.2122 -0.4529
 8230SOL    HW136326   3.520   1.073   9.521  1.8606  1.0499 -0.9676
 8230SOL    HW236327   3.548   0.931   9.504 -0.2948 -0.6270  0.1164
 8231SOL     OW36328   1.103   1.691  13.671 -0.1480 -0.0796  0.3496
 8231SOL    HW136329   1.054   1.772  13.660 -1.5686 -0.6483  2.3636
 8231SOL    HW236330   1.086   1.641  13.591 -2.0962  0.8201  0.1956
 8232SOL     OW36331   2.988   0.167   3.242  0.0702 -0.5037 -0.0811
 8232SOL    HW136332   2.963   0.089   3.292 -0.4194 -0.2969 -0.0027
 8232SOL    HW236333   2.907   0.188   3.196  0.2270  1.2900  0.4850
 8233SOL     OW36334   3.023   4.654   1.912  0.2592 -0.0543  0.0081
 8233SOL    HW136335   3.075   4.642   1.833 -1.6794  0.2838 -1.3151
 8233SOL    HW236336   3.099   4.660   1.970  0.7796  0.6905 -0.7617
 8234SOL     OW36337   3.850   2.666  16.193 -0.4957  0.4574  0.5890
 8234SOL    HW136338   3.801   2.623  16.123  3.7365  0.7652 -2.5149
 8234SOL    HW236339   3.871   2.747  16.147  0.2168 -0.0756 -0.0314
 8235SOL     OW36340   0.629   1.657  14.751  0.5881 -0.4538 -0.3638
 8235SOL    HW136341   0.572   1.598  14.702 -0.2038  1.7963 -2.1804
 8235SOL    HW236342   0.574   1.693  14.821  0.5767 -0.8189 -0.1869
 8236SOL     OW36343   2.092   3.816   3.232 -0.3179 -0.4825  0.1084
 8236SOL    HW136344   2.101   3.863   3.315 -0.1706  1.2618 -0.8894
 8236SOL    HW236345   2.151   3.743   3.248 -0.3184 -0.7848 -1.2664
 8237SOL     OW36346   4.006   1.810   2.572  0.1819  0.1059 -0.0707
 8237SOL    HW136347   4.046   1.890   2.539  1.7394  0.3503  2.4097
 8237SOL    HW236348   3.984   1.771   2.487  0.0988  0.9223 -0.4155
 8238SOL     OW36349   1.607   3.962   8.089 -0.4906  0.1455  0.4450
 8238SOL    HW136350   1.666   3.971   8.164  0.3598 -2.0370  0.0433
 8238SOL    HW236351   1.590   4.056   8.078  1.8483  0.5302  0.0341
 8239SOL     OW36352   2.091   3.407   9.132  0.4195 -0.1915 -0.0846
 8239SOL    HW136353   2.131   3.493   9.124  1.1529 -0.6792 -1.6691
 8239SOL    HW236354   2.030   3.400   9.058  2.9658 -0.5891 -2.1263
 8240SOL     OW36355   1.837   3.659   6.244  0.1016  0.0366 -0.4632
 8240SOL    HW136356   1.889   3.597   6.193 -1.1090  0.5559 -2.2943
 8240SOL    HW236357   1.901   3.672   6.315  1.1509 -1.0217 -1.2159
 8241SOL     OW36358   0.803   2.545   8.637 -0.1202  0.1751  0.1579
 8241SOL    HW136359   0.765   2.571   8.553  2.2983 -0.6109 -1.2171
 8241SOL    HW236360   0.899   2.548   8.632 -0.2874  0.5788 -3.1112
 8242SOL     OW36361   0.198   2.380   4.471 -0.3239  0.2339 -0.1507
 8242SOL    HW136362   0.169   2.314   4.407 -0.1000 -0.3381  0.3363
 8242SOL    HW236363   0.177   2.462   4.427  2.0050  0.8372 -0.1312
 8243SOL     OW36364   4.126   0.371   7.701  0.1933  0.1228  0.0913
 8243SOL    HW136365   4.123   0.461   7.732  1.9355 -0.5553  2.2261
 8243SOL    HW236366   4.032   0.356   7.712  0.4914 -2.1834 -0.3824
 8244SOL     OW36367   1.332   0.791   2.558 -0.3704  0.4638  0.2041
 8244SOL    HW136368   1.352   0.874   2.513  0.3162  0.0545 -0.2490
 8244SOL    HW236369   1.412   0.776   2.608 -0.0257 -0.2348 -0.5581
 8245SOL     OW36370   0.908   3.478   3.477 -0.0128 -0.0886 -0.4556
 8245SOL    HW136371   0.920   3.387   3.505 -1.8976 -0.0690  0.4152
 8245SOL    HW236372   0.989   3.514   3.513  0.0441 -0.1441 -0.5256
 8246SOL     OW36373   2.911   4.508   9.298 -0.3001  0.0643  0.1960
 8246SOL    HW136374   2.854   4.581   9.322  0.1734  0.6725 -0.5194
 8246SOL    HW236375   2.862   4.434   9.335  0.6681 -1.1260 -0.8867
 8247SOL     OW36376   3.034   2.769   2.197  0.0253 -0.1938  0.2925
 8247SOL    HW136377   3.009   2.747   2.287  0.8609  0.0307  0.5886
 8247SOL    HW236378   3.071   2.856   2.216 -0.2377 -0.1636  0.6751
 8248SOL     OW36379   3.340   1.264   7.642  0.0635 -0.0964  0.5195
 8248SOL    HW136380   3.287   1.190   7.671 -1.5173  1.1014  0.6191
 8248SOL    HW236381   3.370   1.238   7.554  0.3300  0.3675  0.4700
 8249SOL     OW36382   3.313   0.866   4.020 -0.1243 -0.3195 -0.0722
 8249SOL    HW136383   3.283   0.785   3.978 -2.1822 -0.4269  1.6160
 8249SOL    HW236384   3.374   0.904   3.957  0.5889  0.5062  1.1167
 8250SOL     OW36385   2.153   2.267   7.751 -0.2948  0.2473 -0.1092
 8250SOL    HW136386   2.142   2.280   7.657 -0.6217 -2.4824 -0.4311
 8250SOL    HW236387   2.117   2.180   7.767  0.3495 -0.1802 -0.9840
 8251SOL     OW36388   3.204   1.734   6.698  0.8202  0.1858  0.4042
 8251SOL    HW136389   3.169   1.747   6.609  0.4155  0.6600  0.6329
 8251SOL    HW236390   3.164   1.646   6.696 -0.6466  0.8559  0.3494
 8252SOL     OW36391   4.143   0.626   0.246 -0.0377  0.0880 -0.2327
 8252SOL    HW136392   4.159   0.686   0.174 -0.7995  0.0287 -0.4526
 8252SOL    HW236393   4.152   0.541   0.203  0.7562  1.9880 -3.7539
 8253SOL     OW36394   1.073   3.607  11.968  0.0449 -0.2830 -0.2475
 8253SOL    HW136395   1.138   3.658  11.920 -0.8293  0.5411 -0.5671
 8253SOL    HW236396   1.001   3.636  11.911 -0.7849  2.9236  2.4350
 8254SOL     OW36397   2.674   1.783   6.616 -0.0030 -0.1270 -0.0002
 8254SOL    HW136398   2.627   1.831   6.547  0.8401  0.3725 -0.2248
 8254SOL    HW236399   2.695   1.852   6.679  1.0003 -0.1008 -0.3641
 8255SOL     OW36400   2.834   3.628  10.635  0.1310 -0.2890 -0.0095
 8255SOL    HW136401   2.781   3.549  10.646  1.1079 -0.9041  0.2803
 8255SOL    HW236402   2.834   3.661  10.725 -1.0031 -0.1094 -0.0799
 8256SOL     OW36403   2.989   3.082   7.624  0.1660 -0.7635 -0.0553
 8256SOL    HW136404   2.972   3.061   7.716 -0.6659 -0.0452 -0.0449
 8256SOL    HW236405   3.073   3.128   7.624  0.2666 -0.9405  3.1514
 8257SOL     OW36406   2.767   3.569  15.060 -0.3657  0.0667  0.0384
 8257SOL    HW136407   2.776   3.480  15.093  0.0978 -1.0489 -3.0216
 8257SOL    HW236408   2.831   3.624  15.104 -1.5758  2.3346 -1.0208
 8258SOL     OW36409   2.559   4.175   7.356 -0.3384  0.2209  0.8564
 8258SOL    HW136410   2.574   4.121   7.278 -1.6787  0.5282  0.3893
 8258SOL    HW236411   2.641   4.168   7.405  0.0521 -0.1715  0.1539
 8259SOL     OW36412   2.377   0.299   9.568 -0.0317  0.3095  0.0064
 8259SOL    HW136413   2.326   0.300   9.487  0.2916  0.0929 -0.2035
 8259SOL    HW236414   2.314   0.352   9.616  1.2666  1.8036  0.0986
 8260SOL     OW36415   0.889   0.802   8.328 -0.7172 -0.0168 -0.0770
 8260SOL    HW136416   0.934   0.792   8.412  2.1139  3.0919 -1.1917
 8260SOL    HW236417   0.937   0.881   8.302  0.8629 -1.4233 -1.4737
 8261SOL     OW36418   3.826   4.149   2.346 -0.1858  0.0503  0.7125
 8261SOL    HW136419   3.832   4.054   2.352  0.7038  0.0951  0.5776
 8261SOL    HW236420   3.780   4.154   2.262  0.3345  0.4527  0.4514
 8262SOL     OW36421   1.573   2.927   4.880  0.1055  0.0781 -0.0265
 8262SOL    HW136422   1.664   2.946   4.905  0.1832 -0.9028  0.4379
 8262SOL    HW236423   1.547   2.871   4.953  0.7983 -0.5585 -0.2651
 8263SOL     OW36424   2.723   2.659   9.567 -0.5520  0.4536  0.0649
 8263SOL    HW136425   2.675   2.707   9.499 -0.8512  2.7558  1.8633
 8263SOL    HW236426   2.800   2.712   9.588 -0.4162  0.5442 -0.6917
 8264SOL     OW36427   4.540   4.664   8.702  0.2177 -0.3695  1.0512
 8264SOL    HW136428   4.613   4.724   8.720 -0.0393  0.3553 -0.2380
 8264SOL    HW236429   4.480   4.686   8.773 -0.9188  0.0126 -0.0339
 8265SOL     OW36430   1.615   0.682  13.451  0.1024 -0.2649 -0.7806
 8265SOL    HW136431   1.556   0.730  13.393  1.4902  1.4235 -0.7778
 8265SOL    HW236432   1.599   0.591  13.423  0.5610  0.5856 -3.7776
 8266SOL     OW36433   3.537   4.174   7.674 -0.6664  0.5930  0.1351
 8266SOL    HW136434   3.458   4.167   7.727 -1.2210  1.8903 -0.5104
 8266SOL    HW236435   3.497   4.206   7.593 -1.3969 -2.0601 -0.5553
 8267SOL     OW36436   1.777   4.280  13.766  0.6737 -0.1001  0.4568
 8267SOL    HW136437   1.725   4.343  13.716  0.2331  1.5700  2.9955
 8267SOL    HW236438   1.852   4.280  13.706  0.2380  1.0391 -0.0895
 8268SOL     OW36439   2.208   0.532   3.990  0.4362  0.1889  0.6011
 8268SOL    HW136440   2.221   0.438   3.976 -0.4913  0.4446 -2.0907
 8268SOL    HW236441   2.250   0.550   4.074  1.2252 -0.1192  0.2694
 8269SOL     OW36442   4.664   3.640   5.642  0.0795 -0.6049  0.8908
 8269SOL    HW136443   4.619   3.620   5.724  0.8438  0.1667  1.4949
 8269SOL    HW236444   4.606   3.592   5.583 -0.3865 -0.7694  1.4897
 8270SOL     OW36445   4.059   3.811   2.761 -0.2956  0.1650  0.2586
 8270SOL    HW136446   4.113   3.753   2.816  1.2037  1.9560  0.6641
 8270SOL    HW236447   3.987   3.748   2.768  0.3911 -0.7094 -0.6178
 8271SOL     OW36448   2.950   4.470   4.091 -0.1526 -0.2511 -0.1758
 8271SOL    HW136449   2.942   4.494   4.183  1.8117  0.0152 -0.0841
 8271SOL    HW236450   3.024   4.526   4.069 -0.3503 -0.4889 -1.4481
 8272SOL     OW36451   0.969   0.124  11.415  0.3767 -0.3410  0.0512
 8272SOL    HW136452   1.060   0.097  11.426 -0.2682 -2.7505 -0.3981
 8272SOL    HW236453   0.928   0.046  11.376 -1.5756  0.4048  0.5870
 8273SOL     OW36454   1.076   0.517  17.474 -0.1063 -0.6275 -0.1625
 8273SOL    HW136455   1.086   0.499  17.380  1.4305 -0.8085  0.0454
 8273SOL    HW236456   1.164   0.506  17.510 -0.3166  1.0238  0.8344
 8274SOL     OW36457   1.255   4.377   6.588 -0.2089 -0.4771 -0.3895
 8274SOL    HW136458   1.315   4.451   6.596 -0.7663 -0.0066 -0.5026
 8274SOL    HW236459   1.211   4.398   6.506 -0.1032  0.8876 -0.1071
 8275SOL     OW36460   3.379   4.282   7.860 -0.0507 -0.1975 -0.0537
 8275SOL    HW136461   3.432   4.352   7.898  0.5763 -0.4615 -0.4620
 8275SOL    HW236462   3.320   4.281   7.936  0.2144  0.4597  0.1591
 8276SOL     OW36463   2.184   1.890  15.423  0.0564 -0.3104 -0.0881
 8276SOL    HW136464   2.229   1.899  15.507 -0.9205 -0.0348  0.4093
 8276SOL    HW236465   2.168   1.796  15.433  0.3163 -0.4278 -0.7653
 8277SOL     OW36466   3.710   0.275   2.626  0.3683  0.5951 -0.0938
 8277SOL    HW136467   3.665   0.294   2.709 -1.3996 -1.0611 -0.6603
 8277SOL    HW236468   3.671   0.192   2.599  1.9557  0.3285 -1.5116
 8278SOL     OW36469   2.913   0.603   3.240 -0.2366  0.2494 -0.1734
 8278SOL    HW136470   2.838   0.601   3.180  1.0658  1.0743 -1.8136
 8278SOL    HW236471   2.911   0.691   3.279 -0.4552 -0.1786  0.7969
 8279SOL     OW36472   1.795   1.142  12.470 -0.5789  0.4067  0.2885
 8279SOL    HW136473   1.803   1.126  12.564 -4.6686 -0.4357  0.4801
 8279SOL    HW236474   1.838   1.228  12.470 -1.8810  1.0750 -2.8841
 8280SOL     OW36475   1.577   2.386   7.046 -0.3447 -0.3288  0.2894
 8280SOL    HW136476   1.638   2.392   6.972 -0.5464 -0.4806  0.1089
 8280SOL    HW236477   1.569   2.292   7.061  2.7046 -1.0956 -3.1126
 8281SOL     OW36478   4.628   0.083   3.770 -0.5280 -0.1656  0.5328
 8281SOL    HW136479   4.577   0.127   3.839  1.2663 -1.0882  2.4268
 8281SOL    HW236480   4.569   0.106   3.697  1.9636 -1.1519 -1.7997
 8282SOL     OW36481   1.156   3.009  14.659  0.4193 -0.1700 -0.7953
 8282SOL    HW136482   1.231   2.950  14.656  2.6701  2.6330  0.5271
 8282SOL    HW236483   1.174   3.081  14.599  0.7988  0.7861  0.4761
 8283SOL     OW36484   4.388   4.531   5.717 -0.2261 -0.7896  0.1363
 8283SOL    HW136485   4.394   4.553   5.810  1.3046  3.1357 -0.9183
 8283SOL    HW236486   4.305   4.483   5.719 -0.9158  0.4129  0.2910
 8284SOL     OW36487   2.999   0.215   3.526  0.3335 -0.9891  0.1452
 8284SOL    HW136488   2.929   0.277   3.504  3.3003  1.6842 -1.8271
 8284SOL    HW236489   3.045   0.194   3.445 -0.8966 -0.4195 -0.6954
 8285SOL     OW36490   2.425   0.809   0.693 -0.3186  0.1828  0.5511
 8285SOL    HW136491   2.485   0.760   0.637 -2.1164 -1.7340  0.3263
 8285SOL    HW236492   2.470   0.894   0.700  1.1683 -0.5441 -0.2565
 8286SOL     OW36493   2.322   0.871  12.295 -0.1065 -0.1784  0.0846
 8286SOL    HW136494   2.415   0.870  12.276 -0.4573 -1.8054 -1.5006
 8286SOL    HW236495   2.268   0.828  12.229  0.5305 -0.0971 -0.4762
 8287SOL     OW36496   3.747   3.962   9.230 -0.0179  0.2375  0.0977
 8287SOL    HW136497   3.740   3.876   9.272  1.5512  0.3006  0.5251
 8287SOL    HW236498   3.830   4.001   9.258 -0.1291  0.4497  0.1331
 8288SOL     OW36499   0.137   1.867   3.465  0.1571  0.4299 -0.4352
 8288SOL    HW136500   0.096   1.788   3.499  2.3383 -0.7608 -0.6357
 8288SOL    HW236501   0.071   1.893   3.400  0.1670  0.8420 -0.2862
 8289SOL     OW36502   2.628   2.268   7.702  0.0941  0.0404  0.0997
 8289SOL    HW136503   2.541   2.306   7.716  0.7720  2.2696 -1.7727
 8289SOL    HW236504   2.686   2.343   7.711 -2.4295  1.9045  0.8702
 8290SOL     OW36505   0.171   4.357   8.126 -0.7439 -0.0422  0.4071
 8290SOL    HW136506   0.206   4.283   8.077 -1.3331  0.1741 -0.3296
 8290SOL    HW236507   0.245   4.418   8.123 -0.5009 -0.3219  0.7144
 8291SOL     OW36508   1.918   3.010   9.163 -0.3846 -0.5179  0.4491
 8291SOL    HW136509   1.878   2.938   9.212 -2.4098  0.4065  0.1901
 8291SOL    HW236510   1.973   3.056   9.226  0.6958 -0.5187 -0.5067
 8292SOL     OW36511   2.314   0.564  14.498  0.0629 -0.2590  0.1902
 8292SOL    HW136512   2.233   0.612  14.483 -0.3174 -1.2207 -0.8812
 8292SOL    HW236513   2.304   0.548  14.592 -2.2368  0.2988  0.0289
 8293SOL     OW36514   3.461   0.747  11.061 -0.2609  0.5429  0.3417
 8293SOL    HW136515   3.500   0.830  11.089 -1.0712  1.2592 -0.6539
 8293SOL    HW236516   3.479   0.691  11.136 -0.8179  0.2351  0.2402
 8294SOL     OW36517   2.053   4.163   9.128 -0.2181 -0.9831  0.2140
 8294SOL    HW136518   2.046   4.086   9.185 -1.1178 -0.2628  1.0715
 8294SOL    HW236519   2.075   4.229   9.193 -0.1156  0.4340 -1.2532
 8295SOL     OW36520   4.685   2.880   8.505 -0.7165  0.1343 -0.0174
 8295SOL    HW136521   4.718   2.934   8.577 -1.1447  1.7437 -1.0322
 8295SOL    HW236522   4.609   2.840   8.549  0.0298 -1.9044 -0.5964
 8296SOL     OW36523   4.351   1.376   2.302 -0.1397  0.2581  0.4857
 8296SOL    HW136524   4.380   1.337   2.219  0.1236 -0.2126  0.8008
 8296SOL    HW236525   4.257   1.359   2.295  0.1071 -0.5165 -1.1000
 8297SOL     OW36526   0.330   1.349  14.279 -0.2520 -0.1561  0.3501
 8297SOL    HW136527   0.274   1.394  14.342 -1.0804  0.7076 -0.9902
 8297SOL    HW236528   0.411   1.323  14.323 -2.2592 -0.6343  3.7751
 8298SOL     OW36529   1.234   1.361   0.213 -0.0519 -0.6609  0.2191
 8298SOL    HW136530   1.166   1.418   0.249  2.0777  2.2251 -0.2431
 8298SOL    HW236531   1.177   1.327   0.145 -1.1258  1.8751 -0.1648
 8299SOL     OW36532   3.847   4.658   5.357  0.1161 -0.2584 -0.8696
 8299SOL    HW136533   3.788   4.597   5.312  0.1001 -1.4613  0.8008
 8299SOL    HW236534   3.886   4.695   5.278 -1.3625 -0.9500 -1.9400
 8300SOL     OW36535   1.370   0.779   0.631  0.0003  0.1619  0.1010
 8300SOL    HW136536   1.384   0.820   0.546  2.0923 -0.1854  0.2767
 8300SOL    HW236537   1.458   0.748   0.649  0.0524  0.2222 -0.0555
 8301SOL     OW36538   2.163   3.436   0.376 -0.6397 -0.1255  0.0732
 8301SOL    HW136539   2.229   3.465   0.440 -1.7601 -0.0406  1.1881
 8301SOL    HW236540   2.208   3.369   0.324 -2.3469 -0.0641 -1.4980
 8302SOL     OW36541   3.935   2.310   4.081  0.1904  0.3950  0.5709
 8302SOL    HW136542   3.930   2.278   3.991  1.3483 -0.3178  0.7645
 8302SOL    HW236543   4.024   2.344   4.090  0.0934 -0.1380  3.4721
 8303SOL     OW36544   3.935   3.211   5.207  0.2742 -0.0617  0.8726
 8303SOL    HW136545   3.993   3.252   5.142  0.6218 -1.4375  0.3138
 8303SOL    HW236546   3.998   3.180   5.271  0.5091 -1.3630 -0.0034
 8304SOL     OW36547   1.612   0.872   3.373 -0.2065  0.0968  0.0789
 8304SOL    HW136548   1.532   0.822   3.393  1.1773 -1.4830  1.6260
 8304SOL    HW236549   1.681   0.806   3.381 -1.9963 -1.5626  2.2628
 8305SOL     OW36550   0.184   2.549   1.812  0.8788 -0.1409  0.1819
 8305SOL    HW136551   0.150   2.538   1.723  2.4607  1.0921 -0.5582
 8305SOL    HW236552   0.209   2.641   1.802 -1.5507  0.4577 -0.6680
 8306SOL     OW36553   2.099   1.908   6.756 -0.0600  0.7107  0.2512
 8306SOL    HW136554   2.080   1.826   6.711  1.5148  1.7274 -2.3069
 8306SOL    HW236555   2.187   1.885   6.788  0.5777  1.0587 -1.2633
 8307SOL     OW36556   0.791   1.118   3.627  0.1225  0.0031  0.3775
 8307SOL    HW136557   0.741   1.191   3.662  0.4658  0.2152  0.4244
 8307SOL    HW236558   0.807   1.142   3.536 -2.0398  3.0936  0.8195
 8308SOL     OW36559   3.602   4.224  13.490 -0.0182 -0.2360  0.3659
 8308SOL    HW136560   3.685   4.265  13.514  0.6448 -0.7727 -1.0048
 8308SOL    HW236561   3.541   4.262  13.553  0.1912 -0.4535  0.6965
 8309SOL     OW36562   3.083   0.135  13.200  0.1108 -0.1356 -0.1415
 8309SOL    HW136563   3.073   0.122  13.294 -0.8174 -0.3336 -0.2656
 8309SOL    HW236564   3.074   0.047  13.164  2.2295 -0.6298  0.5006
 8310SOL     OW36565   3.122   2.601  14.949  0.0688  0.9471  0.2488
 8310SOL    HW136566   3.119   2.608  14.854 -1.0529  1.8723  0.3653
 8310SOL    HW236567   3.202   2.552  14.971  0.1258  0.8022 -0.2828
 8311SOL     OW36568   4.731   3.167   1.104  0.0681 -0.2865  0.5157
 8311SOL    HW136569   4.709   3.217   1.025  0.4538 -2.2190 -0.8120
 8311SOL    HW236570   4.644   3.135   1.126 -0.0611 -0.4870 -0.2995
 8312SOL     OW36571   4.203   1.145   8.232 -0.0343  0.4148  0.5163
 8312SOL    HW136572   4.205   1.153   8.137  0.2213  0.2271  0.5032
 8312SOL    HW236573   4.112   1.171   8.245 -0.1960  0.3448 -0.5041
 8313SOL     OW36574   2.866   0.637  16.041  0.0890  0.3784  0.1450
 8313SOL    HW136575   2.806   0.575  16.083 -2.0010  2.7867  0.7626
 8313SOL    HW236576   2.916   0.582  15.981  1.3362  0.6659  0.9323
 8314SOL     OW36577   4.287   2.179  12.223  0.0645  0.0404 -0.6891
 8314SOL    HW136578   4.201   2.218  12.205 -0.5068 -0.3433  1.1768
 8314SOL    HW236579   4.329   2.258  12.258  0.0860 -0.4362  0.3594
 8315SOL     OW36580   1.082   0.281   6.097  0.4417  0.3848  0.2088
 8315SOL    HW136581   1.023   0.211   6.067  0.3210  0.7385 -0.3726
 8315SOL    HW236582   1.134   0.239   6.165  2.6591  2.3021 -0.3202
 8316SOL     OW36583   3.005   1.299   8.947 -0.0480 -0.0123 -0.0267
 8316SOL    HW136584   2.971   1.232   8.887  1.1841 -0.9618  0.3331
 8316SOL    HW236585   3.082   1.254   8.982  0.9089  0.0796 -1.9900
 8317SOL     OW36586   0.890   1.112   3.339 -0.1083  0.3714 -0.2233
 8317SOL    HW136587   0.970   1.160   3.317 -0.1824 -0.0571 -1.4233
 8317SOL    HW236588   0.860   1.088   3.251 -0.0844 -1.1974  0.1967
 8318SOL     OW36589   4.560   2.831  10.814 -0.2220 -0.0978  0.4705
 8318SOL    HW136590   4.577   2.880  10.895  0.4344  1.1194 -0.4006
 8318SOL    HW236591   4.473   2.795  10.827  0.0296 -1.3168 -1.2214
 8319SOL     OW36592   4.485   2.898  13.841 -0.0279 -1.0283 -0.6258
 8319SOL    HW136593   4.401   2.928  13.876 -0.1674 -1.5684 -0.4998
 8319SOL    HW236594   4.498   2.965  13.773 -1.8390 -1.1699 -1.1128
 8320SOL     OW36595   2.888   1.443  12.550 -0.3099 -0.1973  0.2736
 8320SOL    HW136596   2.860   1.375  12.490 -0.4930 -1.2960  1.6052
 8320SOL    HW236597   2.949   1.496  12.498  0.8290 -0.1352  1.6697
 8321SOL     OW36598   1.810   2.237  10.949  0.8097  0.1774 -0.1359
 8321SOL    HW136599   1.900   2.210  10.933  0.5609 -1.5086  1.2596
 8321SOL    HW236600   1.795   2.298  10.878  1.8481 -0.1606 -0.6435
 8322SOL     OW36601   1.065   2.336  12.380  0.1715  0.5712 -0.1857
 8322SOL    HW136602   1.050   2.431  12.372 -2.9153  0.0689 -0.4592
 8322SOL    HW236603   1.052   2.312  12.288  0.5500  0.4651 -0.2128
 8323SOL     OW36604   4.538   2.390   4.303 -0.1267 -0.0014  0.2488
 8323SOL    HW136605   4.495   2.313   4.265 -0.0004 -0.9670  2.0451
 8323SOL    HW236606   4.562   2.431   4.220 -0.5506 -0.0826  0.0900
 8324SOL     OW36607   0.700   1.833   8.351  0.0310 -0.3975  0.0722
 8324SOL    HW136608   0.622   1.887   8.367 -0.4172 -1.0997  0.2523
 8324SOL    HW236609   0.681   1.759   8.409  1.2614 -0.4005  0.4652
 8325SOL     OW36610   3.182   0.480   6.887  0.3857 -0.2477 -0.1256
 8325SOL    HW136611   3.153   0.513   6.802  0.9795 -0.1647 -0.2996
 8325SOL    HW236612   3.101   0.432   6.899 -0.6753  1.2985 -1.0640
 8326SOL     OW36613   3.229   3.552  14.341 -0.1463  0.6280  0.2093
 8326SOL    HW136614   3.210   3.619  14.274 -0.7963 -0.1788 -0.4194
 8326SOL    HW236615   3.220   3.598  14.424 -1.3431  2.1567 -0.7647
 8327SOL     OW36616   4.142   2.884   8.003 -0.1413  0.3174  0.1969
 8327SOL    HW136617   4.136   2.828   8.081  1.2569  2.2357  1.6809
 8327SOL    HW236618   4.110   2.825   7.935  0.7940  0.1152 -0.0650
 8328SOL     OW36619   0.504   2.193   4.136  0.3765  0.6272 -0.2539
 8328SOL    HW136620   0.521   2.166   4.227 -0.5388 -2.6457 -1.0446
 8328SOL    HW236621   0.421   2.147   4.120 -1.0979  2.4257  2.0337
 8329SOL     OW36622   0.805   3.808  11.385 -0.2585 -0.1922 -0.1158
 8329SOL    HW136623   0.727   3.836  11.434  0.6422  2.5151 -0.2528
 8329SOL    HW236624   0.831   3.891  11.346 -1.5275 -0.3349 -1.2876
 8330SOL     OW36625   4.045   1.966  16.782  0.7252  0.1764 -0.0787
 8330SOL    HW136626   3.988   1.923  16.718  2.4785  0.3505 -1.7459
 8330SOL    HW236627   4.124   1.917  16.764 -0.1634 -0.7129 -1.5237
 8331SOL     OW36628   3.866   1.677   7.745 -0.6604 -0.1353  0.2753
 8331SOL    HW136629   3.838   1.718   7.827 -2.2392 -1.8719  0.6044
 8331SOL    HW236630   3.873   1.585   7.770  0.5355  0.1000  0.7738
 8332SOL     OW36631   0.798   4.171   5.374 -0.1260 -0.7171  0.0328
 8332SOL    HW136632   0.867   4.146   5.435  0.4173  0.8194  0.0517
 8332SOL    HW236633   0.733   4.189   5.442  0.4739  1.4494  0.0332
 8333SOL     OW36634   1.666   0.965  15.245 -0.3425 -0.2519 -0.6244
 8333SOL    HW136635   1.742   0.962  15.303  0.4562 -1.0154 -1.7202
 8333SOL    HW236636   1.677   1.051  15.206 -1.9041  0.5515  0.7118
 8334SOL     OW36637   1.693   2.279  11.726  1.0162 -0.0718  0.1404
 8334SOL    HW136638   1.663   2.220  11.657  3.0650 -0.8801 -0.0660
 8334SOL    HW236639   1.768   2.316  11.679  1.0201  0.9030  0.9338
 8335SOL     OW36640   0.084   1.609   7.687  0.3322 -0.0622 -0.4575
 8335SOL    HW136641   0.011   1.624   7.627 -0.5122 -0.4478  0.4906
 8335SOL    HW236642   0.155   1.637   7.629  1.2891  0.5112  0.9773
 8336SOL     OW36643   1.379   4.346   3.791 -0.3103 -0.2608 -0.1500
 8336SOL    HW136644   1.465   4.382   3.768 -0.3368  0.4511  0.8841
 8336SOL    HW236645   1.372   4.279   3.723 -1.2742  1.0792 -1.3792
 8337SOL     OW36646   4.190   4.274   4.263  0.0950  0.3356  0.0067
 8337SOL    HW136647   4.106   4.260   4.306  1.8131 -1.4356  2.8047
 8337SOL    HW236648   4.183   4.204   4.198  1.2262  0.4581 -0.2398
 8338SOL     OW36649   4.172   3.051   7.440 -0.1169 -0.1773 -0.6265
 8338SOL    HW136650   4.111   2.984   7.410 -1.1039  0.3318  0.2542
 8338SOL    HW236651   4.121   3.129   7.420 -1.6395 -1.1746 -0.6140
 8339SOL     OW36652   3.819   2.630   4.392  0.0046 -0.2833 -0.6385
 8339SOL    HW136653   3.864   2.661   4.313  0.3551 -0.7564 -0.6224
 8339SOL    HW236654   3.891   2.628   4.455  1.3715  1.3369 -2.1432
 8340SOL     OW36655   3.970   0.710   9.843  0.2065 -0.0609  0.3168
 8340SOL    HW136656   4.015   0.786   9.808 -1.9001  1.4198  0.7797
 8340SOL    HW236657   4.040   0.666   9.891 -0.3313 -0.6737  0.5520
 8341SOL     OW36658   3.242   2.373   0.720 -0.2644 -0.3943  0.3582
 8341SOL    HW136659   3.282   2.300   0.673 -0.4750  0.6434 -1.4374
 8341SOL    HW236660   3.166   2.386   0.663  1.7661  1.2965 -1.9551
 8342SOL     OW36661   2.926   0.027  15.576 -0.4129 -0.1866 -0.7482
 8342SOL    HW136662   2.981   4.685  15.581 -0.9804 -0.5163  0.3205
 8342SOL    HW236663   2.840   4.721  15.578 -0.1933 -0.5701  1.3762
 8343SOL     OW36664   4.250   0.522  10.498  0.2393  0.6523  0.8631
 8343SOL    HW136665   4.284   0.596  10.449  0.3631 -0.5063 -0.7887
 8343SOL    HW236666   4.330   0.490  10.540 -1.1366 -1.9677  1.4999
 8344SOL     OW36667   0.103   2.759   4.124  0.3874  0.9378 -0.6381
 8344SOL    HW136668   0.153   2.733   4.047 -1.3877 -0.1666 -1.4074
 8344SOL    HW236669   0.170   2.818   4.157  1.5703 -1.7283  1.6268
 8345SOL     OW36670   1.492   4.243  10.278  0.0477  0.0263 -0.3436
 8345SOL    HW136671   1.587   4.240  10.286  0.2196  0.8464 -2.1596
 8345SOL    HW236672   1.461   4.216  10.365  0.2249  0.1791 -0.2339
 8346SOL     OW36673   1.629   1.921   0.061  0.2478 -0.0553 -0.0467
 8346SOL    HW136674   1.709   1.973   0.066  1.4486 -1.6947 -2.1271
 8346SOL    HW236675   1.635   1.883   0.149  0.2031 -1.6898 -0.7626
 8347SOL     OW36676   3.664   2.192   1.913 -0.3031 -0.0213  0.4858
 8347SOL    HW136677   3.600   2.208   1.982 -1.8643  0.3744 -1.0596
 8347SOL    HW236678   3.727   2.263   1.922  0.4702 -0.8524  1.7456
 8348SOL     OW36679   3.154   1.388  11.225  0.1796  0.2649  0.0493
 8348SOL    HW136680   3.151   1.440  11.145 -0.5057 -0.7680 -0.6070
 8348SOL    HW236681   3.189   1.307  11.187  3.0252  2.2489 -1.5303
 8349SOL     OW36682   0.154   4.199  14.932  0.0528  0.4877 -1.3486
 8349SOL    HW136683   0.207   4.175  14.855 -1.4405 -2.1852 -1.5460
 8349SOL    HW236684   0.195   4.276  14.972  1.8733  0.4820 -3.1794
 8350SOL     OW36685   2.168   3.978   2.521 -0.1332 -0.1457 -0.3914
 8350SOL    HW136686   2.178   3.884   2.508  0.9255  0.0637 -1.0673
 8350SOL    HW236687   2.152   3.987   2.615 -0.7127 -0.0860 -0.4941
 8351SOL     OW36688   2.716   3.778   7.643 -0.4550  0.5769  0.2422
 8351SOL    HW136689   2.775   3.742   7.577  1.0012  2.1250  0.6998
 8351SOL    HW236690   2.634   3.777   7.593  0.1954  3.1864 -0.8646
 8352SOL     OW36691   0.742   2.913   3.020 -0.4003 -0.0960 -0.7878
 8352SOL    HW136692   0.672   2.850   3.039  0.4500 -0.5871  0.7098
 8352SOL    HW236693   0.736   2.966   3.099 -0.4640 -0.9866 -0.1945
 8353SOL     OW36694   4.340   2.749   4.923  0.1739 -0.0622 -0.5452
 8353SOL    HW136695   4.421   2.707   4.895 -0.4897 -1.2570 -0.6652
 8353SOL    HW236696   4.372   2.832   4.958  2.1912 -0.0893 -2.3575
 8354SOL     OW36697   3.724   1.691   3.107  0.4709 -0.4641  0.0878
 8354SOL    HW136698   3.729   1.681   3.012  0.4228 -0.7230  0.1141
 8354SOL    HW236699   3.717   1.787   3.106 -1.4963 -0.6100  0.6509
 8355SOL     OW36700   1.386   4.001   8.651 -0.2675  0.1818  0.0623
 8355SOL    HW136701   1.331   3.926   8.673 -1.4895  0.6027 -1.5340
 8355SOL    HW236702   1.419   4.021   8.739 -2.4930 -2.3018  1.4528
 8356SOL     OW36703   3.654   4.013   8.923 -0.3328 -0.0553  0.2300
 8356SOL    HW136704   3.743   4.021   8.889 -0.3627  1.0386  0.4183
 8356SOL    HW236705   3.675   4.026   9.015 -1.5253 -1.0179  0.6436
 8357SOL     OW36706   2.191   4.664   0.950 -0.3040  0.2791  0.6354
 8357SOL    HW136707   2.128   4.593   0.954 -0.4256  0.4516  1.7427
 8357SOL    HW236708   2.213   4.671   0.857 -1.1755  0.7716  0.4716
 8358SOL     OW36709   0.848   4.260   3.417 -0.0865  0.1404 -0.7588
 8358SOL    HW136710   0.800   4.179   3.437 -0.1415  0.3836  0.0979
 8358SOL    HW236711   0.930   4.239   3.462 -0.3858  0.8831  0.1362
 8359SOL     OW36712   3.876   0.446   7.130  0.5346 -0.1750  0.1016
 8359SOL    HW136713   3.961   0.431   7.170  0.7880  2.4754  0.6134
 8359SOL    HW236714   3.812   0.399   7.183  0.6388  0.5197  0.8405
 8360SOL     OW36715   2.960   0.971   7.491 -0.2830  0.2315  0.2610
 8360SOL    HW136716   2.953   1.054   7.538 -1.9861  0.4316 -0.3373
 8360SOL    HW236717   3.035   0.984   7.434 -1.8369  1.0169 -1.5843
 8361SOL     OW36718   2.312   4.430  16.622 -0.0612  0.0908 -0.3207
 8361SOL    HW136719   2.275   4.418  16.535  2.6931 -1.1093 -1.3316
 8361SOL    HW236720   2.393   4.475  16.598 -1.6749  2.1941 -1.8210
 8362SOL     OW36721   2.636   1.955  12.824  0.2451 -0.4499  0.1615
 8362SOL    HW136722   2.573   2.019  12.857  0.0618 -0.0358 -0.9832
 8362SOL    HW236723   2.663   1.911  12.905 -1.4712  1.5395  1.8190
 8363SOL     OW36724   1.711   3.658   8.237 -0.6535  0.2356  0.5030
 8363SOL    HW136725   1.728   3.743   8.195 -0.4289  0.0702  0.2661
 8363SOL    HW236726   1.622   3.632   8.214 -0.2568  1.3563 -2.3790
 8364SOL     OW36727   0.550   3.961   3.811  0.2152  0.6035  0.2918
 8364SOL    HW136728   0.466   4.007   3.806 -0.9984 -1.6066  0.2911
 8364SOL    HW236729   0.528   3.905   3.885 -1.4044  1.8641  0.7684
 8365SOL     OW36730   3.839   3.298   8.619 -0.6504  0.4847  0.1504
 8365SOL    HW136731   3.768   3.252   8.664  0.1383 -0.1524  0.7491
 8365SOL    HW236732   3.906   3.230   8.620 -2.0623 -0.8896 -0.6575
 8366SOL     OW36733   2.005   2.303   6.878  0.0601 -0.5732 -0.3572
 8366SOL    HW136734   2.014   2.244   6.953 -1.6936 -0.5642 -0.1558
 8366SOL    HW236735   2.042   2.256   6.804 -0.6055  0.2459 -1.2102
 8367SOL     OW36736   4.496   1.967   0.975 -0.7573  0.1755  0.0815
 8367SOL    HW136737   4.420   1.941   0.922 -0.2935 -2.0894  0.5381
 8367SOL    HW236738   4.509   1.893   1.034 -0.4371  0.7054  0.6798
 8368SOL     OW36739   1.332   1.101  12.022  0.1746  0.4056 -0.2008
 8368SOL    HW136740   1.239   1.083  12.014  0.5060 -1.5747  0.4561
 8368SOL    HW236741   1.331   1.155  12.100  2.9538  0.8607 -0.4765
 8369SOL     OW36742   3.062   2.794   4.047  0.5072 -1.1011  0.0150
 8369SOL    HW136743   2.968   2.799   4.034  0.7396  1.8706 -0.3344
 8369SOL    HW236744   3.084   2.814   3.956 -1.7852  0.8034 -0.1027
 8370SOL     OW36745   3.334   2.323   4.924  0.3643 -0.8387 -0.5726
 8370SOL    HW136746   3.425   2.306   4.948  0.3620 -0.7620 -0.5110
 8370SOL    HW236747   3.337   2.394   4.860 -1.2372 -0.2888 -0.0381
 8371SOL     OW36748   1.877   0.079   2.995  0.2507  0.7799  0.4202
 8371SOL    HW136749   1.815   0.130   2.943  1.9809  1.6854 -0.7257
 8371SOL    HW236750   1.819   0.022   3.046  0.0061 -1.0514 -1.9203
 8372SOL     OW36751   4.508   2.770   7.573  0.3150 -0.2865  0.0217
 8372SOL    HW136752   4.573   2.766   7.503 -1.0115 -1.9866 -1.0936
 8372SOL    HW236753   4.431   2.776   7.518 -0.3699 -0.2549  0.9779
 8373SOL     OW36754   4.079   2.788   7.727  0.3647  0.1674  0.2104
 8373SOL    HW136755   4.052   2.720   7.666  3.7033 -0.1824 -0.8680
 8373SOL    HW236756   4.163   2.750   7.753  1.1503 -0.0230 -2.6799
 8374SOL     OW36757   3.819   1.584  13.613  0.5559  0.4425 -0.2491
 8374SOL    HW136758   3.853   1.500  13.581 -1.9342 -0.0026 -1.6873
 8374SOL    HW236759   3.856   1.596  13.700  2.3266  0.3016 -0.9655
 8375SOL     OW36760   0.953   3.863  10.017  0.1181  0.4841 -0.3009
 8375SOL    HW136761   0.977   3.927  10.084  1.1374 -1.6701  1.3919
 8375SOL    HW236762   0.876   3.824  10.059  0.2139  1.4196  0.7410
 8376SOL     OW36763   2.266   3.297   8.769  0.0725  0.0375  0.6509
 8376SOL    HW136764   2.300   3.247   8.843 -0.7536 -0.9568  0.3552
 8376SOL    HW236765   2.334   3.354   8.732 -0.7571  1.2854  1.0639
 8377SOL     OW36766   3.684   1.703  11.812  0.6430  0.1327  0.1964
 8377SOL    HW136767   3.630   1.640  11.765  0.8603 -0.0606  0.2080
 8377SOL    HW236768   3.713   1.754  11.736  0.5388  1.0591  0.7694
 8378SOL     OW36769   4.299   4.322   8.061 -0.6110 -0.3993  0.2430
 8378SOL    HW136770   4.215   4.279   8.075 -0.4889 -1.1315 -1.2657
 8378SOL    HW236771   4.332   4.367   8.139 -2.5753  0.0618  0.8041
 8379SOL     OW36772   3.756   1.307   8.122  0.2728  0.7321 -0.6326
 8379SOL    HW136773   3.685   1.247   8.098  0.6049  0.3259 -0.6067
 8379SOL    HW236774   3.710   1.391   8.123  1.3758  1.3467 -1.4191
 8380SOL     OW36775   4.286   2.338   2.173  0.6825 -0.3024 -0.0929
 8380SOL    HW136776   4.346   2.375   2.108 -0.2660 -0.6000 -1.1425
 8380SOL    HW236777   4.201   2.342   2.128 -0.3389 -1.7021  1.7104
 8381SOL     OW36778   4.490   3.095   2.879 -0.3751  0.3363  0.2931
 8381SOL    HW136779   4.447   3.067   2.960  0.8488  0.0786  0.8571
 8381SOL    HW236780   4.449   3.182   2.876 -3.2745 -0.9425  2.3459
 8382SOL     OW36781   0.039   1.649   6.068  0.2730  0.1039  0.2871
 8382SOL    HW136782   0.008   1.571   6.115  0.3773 -0.1304 -0.0367
 8382SOL    HW236783   0.097   1.609   6.004  1.0106 -0.1188  1.0949
 8383SOL     OW36784   2.019   2.433   6.224  0.2844  0.2551 -0.1904
 8383SOL    HW136785   2.087   2.411   6.161 -0.0144  0.0276 -0.4317
 8383SOL    HW236786   2.027   2.354   6.278 -0.6449  0.2645 -0.0432
 8384SOL     OW36787   3.791   0.517   5.210  0.8059 -0.2338 -0.3014
 8384SOL    HW136788   3.735   0.472   5.274  1.3358  0.8693  0.9296
 8384SOL    HW236789   3.752   0.488   5.127 -1.2406  2.3105 -0.2067
 8385SOL     OW36790   0.640   1.114   2.031 -0.4387 -0.3339 -0.3519
 8385SOL    HW136791   0.655   1.071   1.947 -1.2613 -1.5844  0.1367
 8385SOL    HW236792   0.716   1.101   2.088 -0.8441 -1.4903 -0.0797
 8386SOL     OW36793   0.795   1.183  13.922 -0.6572  0.0027  0.6727
 8386SOL    HW136794   0.773   1.104  13.874  3.1245  0.5155 -1.9497
 8386SOL    HW236795   0.889   1.172  13.940 -0.4489 -0.6801 -0.8444
 8387SOL     OW36796   4.564   3.777   2.452 -0.0913  0.3035  0.3808
 8387SOL    HW136797   4.554   3.845   2.518 -0.6135 -2.2849  2.9585
 8387SOL    HW236798   4.657   3.787   2.429  0.2310 -1.4408  0.9338
 8388SOL     OW36799   3.447   3.662   5.431  0.1678  0.3250 -0.0892
 8388SOL    HW136800   3.463   3.572   5.403  1.3267  0.9861 -1.6240
 8388SOL    HW236801   3.495   3.658   5.513  1.8400  1.4362 -1.0102
 8389SOL     OW36802   0.880   0.244  11.660  0.3951  0.4436  0.4085
 8389SOL    HW136803   0.916   0.204  11.581  1.8375  0.8583  0.8442
 8389SOL    HW236804   0.889   0.170  11.720 -1.7088  0.2727  0.4996
 8390SOL     OW36805   2.842   3.592   7.785 -0.0049  0.2026 -0.0400
 8390SOL    HW136806   2.791   3.662   7.744  0.2984 -0.3134 -1.3039
 8390SOL    HW236807   2.806   3.513   7.744 -0.7785  1.3487 -1.5651
 8391SOL     OW36808   0.705   1.385   7.137  0.0447 -0.1382  0.3439
 8391SOL    HW136809   0.724   1.474   7.108  0.9737 -0.4384  0.0599
 8391SOL    HW236810   0.771   1.337   7.087 -0.3862 -1.8151  1.3762
 8392SOL     OW36811   4.610   0.858   6.312  0.8015  0.1328 -0.1452
 8392SOL    HW136812   4.564   0.848   6.395  1.6878 -0.1921  0.3009
 8392SOL    HW236813   4.531   0.884   6.264 -0.3995 -2.4951  0.3656
 8393SOL     OW36814   3.465   3.291   5.833 -0.5633  0.0346  0.0590
 8393SOL    HW136815   3.461   3.386   5.845  1.7168 -0.0779  1.7632
 8393SOL    HW236816   3.440   3.284   5.741 -4.0302  1.0994  0.9426
 8394SOL     OW36817   3.054   1.999   3.147 -0.3651  0.0115  0.1055
 8394SOL    HW136818   3.019   2.087   3.130 -0.2843  0.1538  0.6941
 8394SOL    HW236819   2.999   1.941   3.095  0.1304  1.4244 -2.0113
 8395SOL     OW36820   2.336   0.622   9.756 -0.2140  0.3102 -0.3565
 8395SOL    HW136821   2.273   0.550   9.750 -0.7054  0.5715  1.7029
 8395SOL    HW236822   2.416   0.571   9.763  1.8849  3.4057 -1.8304
 8396SOL     OW36823   3.210   4.478   0.418  0.5393  0.2877 -0.2691
 8396SOL    HW136824   3.202   4.531   0.497  1.3867 -0.3841  0.2644
 8396SOL    HW236825   3.277   4.534   0.379  2.2565 -1.9571 -0.5322
 8397SOL     OW36826   1.997   3.786   4.710 -0.3885  0.0562  0.3878
 8397SOL    HW136827   2.051   3.811   4.785 -0.8440  2.4522 -0.0998
 8397SOL    HW236828   1.918   3.839   4.719 -0.1090  0.7037 -0.9930
 8398SOL     OW36829   0.813   0.842   2.614 -0.0678  0.6086 -0.8720
 8398SOL    HW136830   0.787   0.752   2.593 -0.0452  0.8193 -1.8103
 8398SOL    HW236831   0.907   0.825   2.611  0.1833  1.6997  0.5503
 8399SOL     OW36832   2.681   0.665  12.384  0.1660 -0.0548  0.3729
 8399SOL    HW136833   2.664   0.657  12.290  1.0178  1.3633  0.0852
 8399SOL    HW236834   2.638   0.588  12.420 -1.8162 -0.1828 -2.2765
 8400SOL     OW36835   3.216   2.541  16.021 -0.0913  0.5562 -0.3558
 8400SOL    HW136836   3.263   2.561  15.940  0.9695 -0.1861  0.0778
 8400SOL    HW236837   3.145   2.604  16.009  0.3726  0.8236 -1.7484
 8401SOL     OW36838   2.751   4.714   2.620 -0.4113 -0.3363  0.1890
 8401SOL    HW136839   2.758   4.732   2.526 -1.4813 -2.0399 -0.2131
 8401SOL    HW236840   2.715   0.063   2.645  0.8267  0.7782 -1.8423
 8402SOL     OW36841   0.648   2.969   5.316  0.3861  0.4761 -0.9321
 8402SOL    HW136842   0.623   3.000   5.403  3.4532 -0.2231  0.2128
 8402SOL    HW236843   0.744   2.969   5.322  0.2465 -4.5760  0.8907
 8403SOL     OW36844   2.706   2.973  13.015  0.1853  0.6108 -0.1060
 8403SOL    HW136845   2.646   3.023  13.070 -0.4654  1.7208 -1.8266
 8403SOL    HW236846   2.650   2.942  12.944 -0.2824  2.9241 -0.7446
 8404SOL     OW36847   4.634   2.958   7.209  0.5017 -0.5616  0.1007
 8404SOL    HW136848   4.651   2.887   7.271  1.4652 -1.2496 -0.9405
 8404SOL    HW236849   4.576   3.000   7.271  1.1458  1.5290 -0.7232
 8405SOL     OW36850   1.890   2.897  17.365 -0.2303 -0.0690 -0.6373
 8405SOL    HW136851   1.839   2.901  17.446  2.4507  1.6272  0.9700
 8405SOL    HW236852   1.948   2.970  17.387 -0.0315 -0.7496  1.0325
 8406SOL     OW36853   3.165   4.277  13.386 -0.3073 -0.4286  0.4662
 8406SOL    HW136854   3.117   4.360  13.384 -0.9270 -0.8345 -0.9246
 8406SOL    HW236855   3.249   4.304  13.350  0.9954 -1.6542  2.5699
 8407SOL     OW36856   0.666   1.616   0.012 -0.4529  0.6031  0.2149
 8407SOL    HW136857   0.681   1.688   0.074  2.2098  1.0601 -0.9494
 8407SOL    HW236858   0.692   1.665  17.675 -1.6383  0.5335 -0.2181
 8408SOL     OW36859   2.941   3.082  14.820 -0.4171 -0.1442 -0.1829
 8408SOL    HW136860   2.980   3.165  14.846  0.5564 -0.9229  0.8178
 8408SOL    HW236861   2.928   3.048  14.908 -1.1225 -1.9817 -0.9949
 8409SOL     OW36862   4.119   0.180   5.057 -0.1885  0.3765 -1.0210
 8409SOL    HW136863   4.126   0.256   5.115  1.8798  1.1377 -2.2553
 8409SOL    HW236864   4.201   0.136   5.082  0.7202  3.9955  2.4185
 8410SOL     OW36865   0.633   1.496   8.533 -0.0220  0.2030 -0.2540
 8410SOL    HW136866   0.726   1.517   8.530  0.1901 -0.6379  0.7560
 8410SOL    HW236867   0.640   1.404   8.555 -2.1533 -0.3529 -1.8938
 8411SOL     OW36868   3.928   1.609   3.558 -0.3979 -0.6526  0.0116
 8411SOL    HW136869   3.885   1.529   3.589  0.6846 -1.7701 -1.3667
 8411SOL    HW236870   4.016   1.596   3.593  0.2414  0.4332 -1.2228
 8412SOL     OW36871   1.564   4.504  12.920 -0.1359 -0.4711 -0.2111
 8412SOL    HW136872   1.620   4.433  12.952  0.5707 -0.7757 -2.1595
 8412SOL    HW236873   1.605   4.518  12.835 -1.0437  1.8455 -0.2684
 8413SOL     OW36874   3.923   1.221   0.984  0.4654 -1.0424  0.0316
 8413SOL    HW136875   3.895   1.218   0.893 -1.8773 -1.4620  0.7685
 8413SOL    HW236876   3.846   1.270   1.014  0.3600 -2.1245  1.5194
 8414SOL     OW36877   0.933   1.244  12.102  0.1851  0.0727  0.2012
 8414SOL    HW136878   0.859   1.185  12.090  0.2183  0.1165 -0.2253
 8414SOL    HW236879   0.985   1.203  12.034 -1.7787 -1.8716 -0.1188
 8415SOL     OW36880   4.428   2.013  11.307  1.0255 -0.1795  0.3867
 8415SOL    HW136881   4.509   1.983  11.347  1.0669 -0.3061  0.2034
 8415SOL    HW236882   4.464   2.094  11.269 -1.1903  0.9820  0.7406
 8416SOL     OW36883   4.567   4.453   3.344  0.0526 -0.1907 -0.2527
 8416SOL    HW136884   4.481   4.491   3.330 -0.1826 -0.1423  1.4127
 8416SOL    HW236885   4.588   4.457   3.250  1.4790  2.4511  0.1927
 8417SOL     OW36886   2.102   3.993   2.767 -0.0748 -0.2092 -0.0443
 8417SOL    HW136887   2.108   4.083   2.798 -0.9577  0.6295 -2.3003
 8417SOL    HW236888   2.137   3.951   2.845 -1.2091 -1.4021 -0.1782
 8418SOL     OW36889   2.584   2.624   6.336  0.9034  0.0823 -0.1413
 8418SOL    HW136890   2.659   2.604   6.392  0.8570  1.8095  0.5341
 8418SOL    HW236891   2.630   2.616   6.252  1.9565  0.7446  0.3723
 8419SOL     OW36892   1.017   4.315   0.936  0.2567  0.0556 -0.3043
 8419SOL    HW136893   0.946   4.282   0.991 -0.6719  0.6846 -1.1217
 8419SOL    HW236894   1.093   4.263   0.961  0.9949  0.2249 -2.1443
 8420SOL     OW36895   0.676   1.717   3.970 -0.1664 -0.1987 -0.2687
 8420SOL    HW136896   0.769   1.709   3.952 -0.1645 -1.0188  0.1030
 8420SOL    HW236897   0.640   1.730   3.882 -0.6425  0.1450 -0.0261
 8421SOL     OW36898   3.519   3.322   8.384 -0.0986 -0.1921 -0.2769
 8421SOL    HW136899   3.504   3.330   8.290  1.3568  0.6133 -0.4455
 8421SOL    HW236900   3.443   3.362   8.426  0.7462 -0.7277  1.8109
 8422SOL     OW36901   3.532   0.738   7.318 -0.6996  0.7631  0.0008
 8422SOL    HW136902   3.505   0.699   7.402  0.6146 -1.0080 -0.4056
 8422SOL    HW236903   3.619   0.698   7.322 -1.0486 -0.1351 -1.3619
 8423SOL     OW36904   4.560   3.570   4.275 -0.0611 -0.2663  0.4546
 8423SOL    HW136905   4.514   3.493   4.310 -0.3373  0.5304  1.8492
 8423SOL    HW236906   4.570   3.629   4.350 -0.8244  0.1061  0.2550
 8424SOL     OW36907   2.450   0.684   3.876 -0.2088 -0.0330  0.0499
 8424SOL    HW136908   2.456   0.718   3.965 -1.5860 -0.3844  0.2760
 8424SOL    HW236909   2.396   0.606   3.892 -0.8657  0.0625 -1.6545
 8425SOL     OW36910   0.997   1.428   2.341  0.1372  0.9657 -0.3455
 8425SOL    HW136911   0.957   1.417   2.255 -1.5422 -1.2585  0.7155
 8425SOL    HW236912   0.917   1.423   2.394 -1.3663 -2.6700 -2.9898
 8426SOL     OW36913   0.550   2.512   5.037  0.0331  0.2449 -0.3394
 8426SOL    HW136914   0.500   2.589   5.009 -0.7713  0.4929  1.7992
 8426SOL    HW236915   0.499   2.460   4.975 -0.7146 -0.8680  1.2327
 8427SOL     OW36916   2.400   4.262  17.378  0.1590 -0.1899 -0.6561
 8427SOL    HW136917   2.361   4.175  17.372  1.3003 -0.6206 -1.9271
 8427SOL    HW236918   2.386   4.292  17.289 -2.3723  0.4054 -0.0487
 8428SOL     OW36919   3.845   2.992  12.383  0.1506 -0.2062 -0.0374
 8428SOL    HW136920   3.757   2.968  12.354 -0.1231  2.3018 -1.2292
 8428SOL    HW236921   3.873   2.903  12.408  3.2364  0.6686 -0.4587
 8429SOL     OW36922   0.127   3.684   9.596 -0.9005  0.0626 -0.1489
 8429SOL    HW136923   0.080   3.665   9.677 -2.5365  1.2167 -0.8201
 8429SOL    HW236924   0.062   3.744   9.559 -1.6567 -0.8280 -0.2425
 8430SOL     OW36925   2.076   4.433   9.026  0.2132  0.1828  0.2196
 8430SOL    HW136926   2.090   4.348   9.067 -1.7895 -1.1450 -1.8658
 8430SOL    HW236927   2.094   4.406   8.936  1.9796 -0.8353  0.8880
 8431SOL     OW36928   4.587   1.739   7.569  0.3068  0.2900  0.0378
 8431SOL    HW136929   4.613   1.791   7.645 -1.7699  2.0188 -0.4258
 8431SOL    HW236930   4.501   1.709   7.600 -0.2774  0.0750 -1.8174
 8432SOL     OW36931   3.165   1.385   2.985 -0.2337 -0.0751  0.1685
 8432SOL    HW136932   3.187   1.292   2.982  0.6591  0.0882  1.5091
 8432SOL    HW236933   3.201   1.416   2.903  0.2445 -0.3236  0.2869
 8433SOL     OW36934   0.776   2.501   7.751  0.4366 -0.0549 -0.4509
 8433SOL    HW136935   0.692   2.531   7.784 -0.3353 -0.4144 -2.1447
 8433SOL    HW236936   0.744   2.418   7.717  2.0329  0.6842 -3.7242
 8434SOL     OW36937   3.049   3.217   6.002  0.2212 -0.2606  0.1303
 8434SOL    HW136938   2.972   3.206   6.057  0.1658 -0.1790  0.0684
 8434SOL    HW236939   3.093   3.293   6.041 -0.9335  1.3752 -1.7804
 8435SOL     OW36940   4.408   3.695   8.261  0.0724 -0.3101  0.0891
 8435SOL    HW136941   4.327   3.710   8.308  0.0494  0.7901 -0.3075
 8435SOL    HW236942   4.366   3.680   8.177  0.8430 -3.1154  0.2112
 8436SOL     OW36943   1.105   4.379  12.105  0.4017  0.0857 -0.1567
 8436SOL    HW136944   1.171   4.315  12.079  1.3881  1.3422 -0.7254
 8436SOL    HW236945   1.049   4.371  12.028 -1.1278  3.3640  0.6042
 8437SOL     OW36946   3.964   0.623   4.762 -0.3580 -0.5606 -0.0830
 8437SOL    HW136947   3.936   0.631   4.671 -2.2713  0.3815  0.5876
 8437SOL    HW236948   3.878   0.650   4.794  0.6685  1.6620  0.8525
 8438SOL     OW36949   1.192   0.753  17.009  0.3298  0.9909 -0.1289
 8438SOL    HW136950   1.274   0.791  16.978  1.6510 -1.9222 -0.2311
 8438SOL    HW236951   1.132   0.798  16.949 -0.5753 -1.2874 -0.9618
 8439SOL     OW36952   3.072   0.147   2.942 -0.5730 -0.2970 -0.6612
 8439SOL    HW136953   3.071   0.097   2.861 -1.3956  0.6605 -1.2419
 8439SOL    HW236954   3.107   0.091   3.012  1.9063 -1.3273 -2.7125
 8440SOL     OW36955   0.408   1.475  14.688 -0.2945 -0.9725 -0.2264
 8440SOL    HW136956   0.344   1.503  14.623  1.1306  1.6373 -0.5129
 8440SOL    HW236957   0.422   1.389  14.647 -2.0399 -0.7830 -1.2119
 8441SOL     OW36958   1.110   4.543   7.313  0.0014 -0.6364  0.3008
 8441SOL    HW136959   1.060   4.531   7.232  2.2847 -0.4344 -1.1750
 8441SOL    HW236960   1.082   4.465   7.360 -3.3953 -0.2722 -1.1658
 8442SOL     OW36961   3.494   2.221   2.136 -0.2634 -0.3221  0.5437
 8442SOL    HW136962   3.406   2.249   2.110  0.3649  0.1431 -1.1035
 8442SOL    HW236963   3.461   2.144   2.183  0.9450 -0.2362  1.5014
 8443SOL     OW36964   3.881   3.537   4.929  0.2574  0.4277  0.0726
 8443SOL    HW136965   3.795   3.513   4.966 -0.0343  1.6938  0.1995
 8443SOL    HW236966   3.869   3.620   4.883 -0.8502  0.5577  0.5948
 8444SOL     OW36967   3.146   3.904  15.153 -0.2424 -0.1050 -0.3978
 8444SOL    HW136968   3.140   3.854  15.072  0.5786 -1.9940  0.7078
 8444SOL    HW236969   3.086   3.856  15.211 -1.5468  1.2634 -0.6216
 8445SOL     OW36970   0.824   2.782   4.986 -0.3050 -0.2593  0.4654
 8445SOL    HW136971   0.892   2.847   5.001  1.0541 -1.8231  1.1159
 8445SOL    HW236972   0.851   2.699   5.026 -0.6354 -1.3866 -1.6431
 8446SOL     OW36973   4.269   4.500   3.630 -0.1501 -0.7959  0.0522
 8446SOL    HW136974   4.209   4.513   3.703  1.4183  1.7078  0.8606
 8446SOL    HW236975   4.307   4.584   3.605 -1.6955  0.0629  0.5874
 8447SOL     OW36976   2.623   2.064   8.958 -0.0825 -0.1243 -0.0332
 8447SOL    HW136977   2.592   2.106   8.877 -1.8127  1.0690  1.2350
 8447SOL    HW236978   2.691   2.130   8.973  0.0544 -0.7017  1.8964
 8448SOL     OW36979   0.441   1.236   8.040  0.2202 -0.4721  0.4200
 8448SOL    HW136980   0.424   1.256   7.948  1.0479  0.7653  0.5284
 8448SOL    HW236981   0.511   1.171   8.031  0.8228  0.1016  0.9165
 8449SOL     OW36982   2.790   3.746   9.211  0.4350 -0.0492 -0.0009
 8449SOL    HW136983   2.869   3.779   9.168  1.0313 -0.4441  0.7808
 8449SOL    HW236984   2.763   3.816   9.270 -0.0427 -1.1403  1.0708
 8450SOL     OW36985   0.948   1.659   7.775  0.2834  0.4314 -0.6015
 8450SOL    HW136986   0.993   1.729   7.824  2.5007 -1.0391 -0.5210
 8450SOL    HW236987   0.862   1.700   7.769  0.1878  0.2761 -0.3029
 8451SOL     OW36988   2.147   0.198   4.691 -0.3205 -0.1089  0.2067
 8451SOL    HW136989   2.082   0.260   4.660 -1.3570 -0.0556  2.4968
 8451SOL    HW236990   2.208   0.190   4.617 -1.8177 -0.3611 -0.9968
 8452SOL     OW36991   1.888   0.861   8.365  0.0538  0.4287 -0.0184
 8452SOL    HW136992   1.892   0.920   8.290 -4.1854  0.1083 -0.5003
 8452SOL    HW236993   1.947   0.790   8.340 -0.2051 -0.2992  1.4460
 8453SOL     OW36994   3.401   3.115  11.514  0.0388  0.3168  1.1206
 8453SOL    HW136995   3.313   3.109  11.551 -0.6989 -2.5315 -1.1076
 8453SOL    HW236996   3.454   3.098  11.592 -0.2718 -1.6244  0.9099
 8454SOL     OW36997   4.556   0.989   6.014 -0.3152 -0.3023  0.0143
 8454SOL    HW136998   4.569   1.071   5.966 -0.8615  0.6236  1.4359
 8454SOL    HW236999   4.462   0.989   6.027 -0.4877  2.6896 -1.0654
 8455SOL     OW37000   2.549   0.005   7.354 -0.1670  0.3709  0.3363
 8455SOL    HW137001   2.530   4.651   7.381  0.5773  0.3224  0.7033
 8455SOL    HW237002   2.464   0.012   7.311 -0.3431 -2.7076  0.1921
 8456SOL     OW37003   4.290   1.963  13.099  0.5662 -0.5963 -0.1430
 8456SOL    HW137004   4.272   1.934  13.009 -0.6438 -2.8117  0.8069
 8456SOL    HW237005   4.381   1.936  13.110  0.5941 -0.1716  0.6526
 8457SOL     OW37006   2.907   4.270   9.055 -0.7942 -0.3457 -0.3271
 8457SOL    HW137007   2.978   4.302   9.110 -1.0551  0.4213 -0.4385
 8457SOL    HW237008   2.854   4.346   9.030 -0.0468 -0.1395 -1.2848
 8458SOL     OW37009   2.697   3.269  12.877  0.3197 -0.0121 -0.0182
 8458SOL    HW137010   2.780   3.261  12.830 -0.7012 -3.6295 -1.2226
 8458SOL    HW237011   2.723   3.330  12.946  0.3164 -2.3052  2.0167
 8459SOL     OW37012   2.282   3.382   3.886 -0.4455 -0.2730 -0.6044
 8459SOL    HW137013   2.271   3.437   3.963 -0.7473 -1.1063 -0.0610
 8459SOL    HW237014   2.356   3.326   3.910  0.0907  0.2313 -1.0959
 8460SOL     OW37015   1.445   2.471  16.296  0.1365  0.1901  0.3153
 8460SOL    HW137016   1.447   2.566  16.307 -1.9832  0.0160  2.1625
 8460SOL    HW237017   1.524   2.462  16.241 -0.0402  0.8144 -0.0436
 8461SOL     OW37018   4.270   2.430  13.845 -0.4134 -0.0513 -0.5035
 8461SOL    HW137019   4.309   2.413  13.759  0.4439  3.7864 -0.8896
 8461SOL    HW237020   4.215   2.353  13.857 -2.1065  1.3969  0.9103
 8462SOL     OW37021   2.666   3.636   9.935  0.2051  0.0099 -0.5564
 8462SOL    HW137022   2.740   3.686   9.902 -0.4286  1.8035  0.7356
 8462SOL    HW237023   2.592   3.695   9.950 -0.1466 -0.1503 -1.6483
 8463SOL     OW37024   2.813   4.102   7.431  0.2281  0.3464  0.2543
 8463SOL    HW137025   2.814   4.077   7.523  0.5807 -0.2974  0.0725
 8463SOL    HW237026   2.904   4.131   7.424  0.8352 -1.5506  0.3121
 8464SOL     OW37027   2.965   2.360   5.415 -0.1507 -0.2077 -0.5354
 8464SOL    HW137028   3.001   2.271   5.419  1.2054  0.3572 -0.2337
 8464SOL    HW237029   2.988   2.377   5.506  1.5198 -1.4485 -0.7303
 8465SOL     OW37030   0.764   1.652   3.613 -0.2913 -0.1378 -0.0427
 8465SOL    HW137031   0.750   1.616   3.525 -0.8771 -1.6051  0.6475
 8465SOL    HW237032   0.678   1.691   3.629 -0.3143 -0.1905 -0.0350
 8466SOL     OW37033   1.068   1.934   5.836  0.4459 -0.2480 -0.0851
 8466SOL    HW137034   1.163   1.946   5.827  0.7481 -1.2878  1.7769
 8466SOL    HW237035   1.064   1.862   5.898 -2.2615 -0.3352 -0.3598
 8467SOL     OW37036   4.664   0.094  13.367 -0.6168 -0.1792 -0.1457
 8467SOL    HW137037   4.596   0.111  13.432 -1.2239  1.2380 -1.1495
 8467SOL    HW237038   0.006   0.112  13.420 -0.8086  2.7859 -0.8633
 8468SOL     OW37039   4.134   2.640   7.266  0.3173 -0.0946 -0.1645
 8468SOL    HW137040   4.063   2.638   7.202 -0.3631  0.9468  0.5670
 8468SOL    HW237041   4.167   2.551   7.253 -0.1545 -0.2529 -0.2834
 8469SOL     OW37042   1.390   0.766   4.135  0.2903 -0.8002  0.4215
 8469SOL    HW137043   1.438   0.841   4.170 -0.9484 -0.8580  2.2571
 8469SOL    HW237044   1.440   0.751   4.055  0.3459  0.2447  0.2623
 8470SOL     OW37045   2.738   4.459   8.977 -0.4847 -0.2461 -0.1262
 8470SOL    HW137046   2.771   4.470   8.888  2.3152  0.4886  1.0371
 8470SOL    HW237047   2.753   4.545   9.016 -0.3510 -0.3340  0.0124
 8471SOL     OW37048   0.478   4.545   2.994 -0.6794  0.0318  0.9662
 8471SOL    HW137049   0.455   4.634   2.969  0.0424 -0.3502 -1.0809
 8471SOL    HW237050   0.417   4.497   2.937  1.3122 -0.0753 -1.1279
 8472SOL     OW37051   2.932   4.010  14.845  0.2004  0.1784  0.0639
 8472SOL    HW137052   2.859   3.949  14.854 -3.1529  4.0050 -0.9341
 8472SOL    HW237053   2.989   3.959  14.902 -1.6603 -1.3944  0.5107
 8473SOL     OW37054   1.673   3.172   3.533  0.1745 -0.1960 -0.4336
 8473SOL    HW137055   1.768   3.173   3.542 -0.0117 -1.2440  1.6426
 8473SOL    HW237056   1.658   3.210   3.447  0.5635 -1.3829 -1.0371
 8474SOL     OW37057   4.190   2.404  11.948  0.4523  0.1347 -0.3255
 8474SOL    HW137058   4.115   2.383  12.004  0.6749 -0.7500 -0.3540
 8474SOL    HW237059   4.247   2.331  11.974  0.7119  0.0933 -1.0221
 8475SOL     OW37060   3.557   2.679   2.358 -0.2657 -0.2894 -0.0543
 8475SOL    HW137061   3.554   2.583   2.347 -0.5709 -0.3048  0.1672
 8475SOL    HW237062   3.466   2.708   2.358 -0.0637  0.3477 -0.6190
 8476SOL     OW37063   4.534   0.926  12.646 -0.6164 -0.3115 -0.5906
 8476SOL    HW137064   4.478   0.861  12.687 -0.5596 -0.5438 -0.8855
 8476SOL    HW237065   4.506   0.929  12.554  1.8773  0.3778 -1.3532
 8477SOL     OW37066   0.068   1.309   2.087 -0.3399  0.0240  0.2305
 8477SOL    HW137067   0.043   1.272   2.172 -1.4469  0.9973  0.3238
 8477SOL    HW237068   0.126   1.235   2.069  0.0733  0.8877 -1.9504
 8478SOL     OW37069   0.726   3.527  16.810 -0.1474  0.4988  0.0930
 8478SOL    HW137070   0.648   3.515  16.755  1.1071 -0.2683 -1.5374
 8478SOL    HW237071   0.706   3.606  16.860 -0.5780 -0.0742  0.8193
 8479SOL     OW37072   4.369   2.771   8.908 -0.0634  0.1002  0.1783
 8479SOL    HW137073   4.406   2.832   8.844  0.6283  2.3039  2.6540
 8479SOL    HW237074   4.324   2.710   8.850 -0.7808 -0.5105  1.3900
 8480SOL     OW37075   2.038   2.562   2.667 -0.2772  0.0952 -0.7154
 8480SOL    HW137076   2.062   2.614   2.590 -0.2856  2.2304  0.7236
 8480SOL    HW237077   2.076   2.603   2.744  0.3375 -1.4277 -0.2019
 8481SOL     OW37078   3.205   3.633  10.199  0.4245 -0.0728  0.4315
 8481SOL    HW137079   3.150   3.573  10.250 -0.8935  2.7768  2.3784
 8481SOL    HW237080   3.263   3.675  10.263 -0.4827  0.5801  0.8203
 8482SOL     OW37081   2.653   4.085   0.192  0.4053 -0.1376  0.2212
 8482SOL    HW137082   2.579   4.056   0.246 -0.5603  0.6566 -0.6575
 8482SOL    HW237083   2.640   4.041   0.108 -1.1505  0.4279  0.1579
 8483SOL     OW37084   2.120   3.467   2.100  0.4422  0.1578  0.0961
 8483SOL    HW137085   2.071   3.544   2.130  0.3232  0.1156  0.0091
 8483SOL    HW237086   2.069   3.401   2.147  0.3424  0.0447 -0.1706
 8484SOL     OW37087   2.124   3.755  14.548  0.4616 -0.4558  0.1169
 8484SOL    HW137088   2.183   3.771  14.474 -0.1714  0.0565 -0.2809
 8484SOL    HW237089   2.057   3.700  14.506 -1.0282  0.2941  1.5220
 8485SOL     OW37090   0.887   4.544  13.674  0.1304 -0.1742  0.3623
 8485SOL    HW137091   0.957   4.536  13.739  0.2993  1.4179  0.3938
 8485SOL    HW237092   0.812   4.521  13.729  0.7720 -0.7743  0.9784
 8486SOL     OW37093   4.330   2.710   2.920  0.5633 -0.0883  0.1476
 8486SOL    HW137094   4.325   2.617   2.901 -1.1720  0.6896 -3.3831
 8486SOL    HW237095   4.371   2.750   2.843 -1.7436  0.5289 -0.7646
 8487SOL     OW37096   4.048   2.724   5.530  0.5560  0.1359 -0.1389
 8487SOL    HW137097   4.031   2.717   5.436 -1.0703  1.2713  0.0563
 8487SOL    HW237098   3.981   2.668   5.569  0.7066 -0.1490 -0.2888
 8488SOL     OW37099   4.035   0.288   0.438 -1.0297 -0.0990 -0.7974
 8488SOL    HW137100   4.100   0.343   0.481 -1.3261 -0.8543  0.6306
 8488SOL    HW237101   4.071   0.269   0.351  1.9170  2.3635 -0.1308
 8489SOL     OW37102   1.578   1.416   7.278 -0.3762 -0.3294 -0.1630
 8489SOL    HW137103   1.511   1.476   7.244  1.2881  2.4110  1.3628
 8489SOL    HW237104   1.658   1.465   7.260 -0.0715 -0.4749  0.7918
 8490SOL     OW37105   3.759   4.636  11.496 -0.0184 -0.1321  0.0890
 8490SOL    HW137106   3.790   4.720  11.531  1.5386 -0.1471 -1.2199
 8490SOL    HW237107   3.745   4.655  11.403 -2.2429 -1.0763  0.2257
 8491SOL     OW37108   0.459   3.613   2.930 -0.7346  0.3480  0.5317
 8491SOL    HW137109   0.366   3.606   2.953 -1.1160 -1.8482 -1.6714
 8491SOL    HW237110   0.509   3.567   2.997  0.2524 -0.2887 -0.6360
 8492SOL     OW37111   0.316   4.344   1.204  0.0955 -0.1945  0.0818
 8492SOL    HW137112   0.335   4.263   1.251 -0.0095  0.2505  0.8925
 8492SOL    HW237113   0.374   4.412   1.237  1.4978 -2.1325  1.6407
 8493SOL     OW37114   3.876   4.524   6.994  0.3260 -0.0952 -0.1310
 8493SOL    HW137115   3.855   4.577   6.917  0.0386 -1.1844 -0.8064
 8493SOL    HW237116   3.877   4.439   6.950 -0.9415  0.1021 -0.5420
 8494SOL     OW37117   4.732   0.450   8.213  0.2511 -0.5255 -0.0281
 8494SOL    HW137118   0.017   0.390   8.286 -1.4611 -0.4686  0.5061
 8494SOL    HW237119   4.688   0.391   8.152 -1.0403  1.6409 -1.1724
 8495SOL     OW37120   4.479   4.572   4.825 -0.1869  0.4050  0.1967
 8495SOL    HW137121   4.459   4.575   4.918 -1.8736 -0.9191 -0.1199
 8495SOL    HW237122   4.457   4.482   4.801  1.7708  0.7500 -2.9224
 8496SOL     OW37123   2.711   3.957   3.330  0.0483 -0.4958 -0.1657
 8496SOL    HW137124   2.669   3.984   3.248  1.0406 -1.0719 -0.8587
 8496SOL    HW237125   2.662   3.875   3.335  0.7531 -0.8075  1.5618
 8497SOL     OW37126   4.336   2.776  15.550  0.0044 -0.5941  0.3175
 8497SOL    HW137127   4.303   2.864  15.535 -0.5347 -0.9921 -0.8645
 8497SOL    HW237128   4.275   2.730  15.491 -0.7949 -0.2652  0.8975
 8498SOL     OW37129   0.601   4.127   1.132  0.2460 -0.1343  0.1424
 8498SOL    HW137130   0.541   4.112   1.059  1.5700 -1.4747 -0.6448
 8498SOL    HW237131   0.546   4.084   1.198  0.2170  0.6050  0.6122
 8499SOL     OW37132   4.192   3.767   7.047 -0.1358 -1.2908  0.1588
 8499SOL    HW137133   4.253   3.695   7.065  1.4463 -0.3896 -1.5750
 8499SOL    HW237134   4.256   3.837   7.061  0.2755 -1.8755  1.1550
 8500SOL     OW37135   0.892   0.909   4.198 -0.3974 -0.1917  0.3969
 8500SOL    HW137136   0.807   0.946   4.174 -0.3443 -0.4862 -0.2443
 8500SOL    HW237137   0.899   0.932   4.290  0.3634 -2.8423  0.9998
 8501SOL     OW37138   3.534   2.952   9.908 -0.0830  0.0516  0.4655
 8501SOL    HW137139   3.485   2.983   9.984 -1.3451 -0.5012 -0.1194
 8501SOL    HW237140   3.617   2.998   9.921 -1.7304  3.0755  0.1858
 8502SOL     OW37141   3.539   0.275   2.355 -0.0621 -0.4304  0.3069
 8502SOL    HW137142   3.597   0.295   2.428 -1.5778 -0.3739  1.4807
 8502SOL    HW237143   3.585   0.314   2.280 -0.2032  1.5301  1.2330
 8503SOL     OW37144   2.384   0.029   1.447  0.5167  0.3698  0.3217
 8503SOL    HW137145   2.318   0.066   1.506  0.0443  1.5244 -0.9413
 8503SOL    HW237146   2.326   4.729   1.380  1.7313 -0.1507 -0.4423
 8504SOL     OW37147   1.895   4.395   4.052  0.0497 -0.0778 -0.6154
 8504SOL    HW137148   1.891   4.337   3.975  1.5728 -1.5922  0.4534
 8504SOL    HW237149   1.985   4.428   4.044  0.6226 -1.6714 -0.8687
 8505SOL     OW37150   1.614   4.214   0.692  0.5892  0.1675  0.1711
 8505SOL    HW137151   1.678   4.282   0.669  0.9080 -1.0873 -2.6761
 8505SOL    HW237152   1.675   4.158   0.741  1.9996 -0.7220 -2.5650
 8506SOL     OW37153   2.869   2.737   7.012 -0.7669 -0.0946 -0.1577
 8506SOL    HW137154   2.907   2.688   7.086 -1.0272 -2.1474 -1.3765
 8506SOL    HW237155   2.867   2.675   6.939 -2.1281  2.2164 -2.0465
 8507SOL     OW37156   3.783   3.144   4.804  0.0749 -0.0035 -0.1471
 8507SOL    HW137157   3.722   3.123   4.733 -1.3235 -1.7903  1.5998
 8507SOL    HW237158   3.800   3.233   4.775 -0.3283  0.3892  0.8338
 8508SOL     OW37159   1.722   2.916  17.571 -0.2629 -0.3040 -0.1658
 8508SOL    HW137160   1.765   2.923  17.656 -0.5675 -0.0986 -0.0297
 8508SOL    HW237161   1.629   2.918  17.592 -1.0557  0.1004 -3.7905
 8509SOL     OW37162   4.365   2.570   5.903  0.1434 -0.2832  0.1808
 8509SOL    HW137163   4.357   2.494   5.961  0.3841 -0.7768 -0.4362
 8509SOL    HW237164   4.460   2.576   5.893 -0.1670  0.2916 -2.5754
 8510SOL     OW37165   1.883   4.080   1.941 -0.2762 -0.7549  0.2055
 8510SOL    HW137166   1.851   4.153   1.993 -3.4979 -0.6671 -1.8753
 8510SOL    HW237167   1.966   4.110   1.904 -0.5790  0.0810  0.1929
 8511SOL     OW37168   2.648   0.606   3.120 -0.1010 -0.4320 -1.0544
 8511SOL    HW137169   2.589   0.571   3.187  1.3544 -2.7929 -0.9769
 8511SOL    HW237170   2.606   0.571   3.041  0.1856  0.0487 -1.4143
 8512SOL     OW37171   0.689   0.645   6.216 -0.9011 -0.0597  0.5173
 8512SOL    HW137172   0.710   0.676   6.304  0.5564  0.0886  0.1143
 8512SOL    HW237173   0.719   0.554   6.222  1.2045  0.7015  1.3281
 8513SOL     OW37174   0.640   1.472   6.141  0.3624 -0.6192 -0.8155
 8513SOL    HW137175   0.656   1.489   6.233  1.1667  1.2004 -1.2875
 8513SOL    HW237176   0.665   1.381   6.125  1.4048 -0.6583  1.0667
 8514SOL     OW37177   0.419   0.145   1.101 -0.2442 -0.1882  0.0857
 8514SOL    HW137178   0.399   0.230   1.142  2.9673 -0.0543  1.3484
 8514SOL    HW237179   0.341   0.095   1.124  1.2808 -1.5196  2.3528
 8515SOL     OW37180   1.827   1.284   0.785 -0.0848 -0.2490 -0.3039
 8515SOL    HW137181   1.788   1.224   0.848  0.2345 -0.8571 -0.6925
 8515SOL    HW237182   1.880   1.218   0.742  0.0893 -0.8149  0.7729
 8516SOL     OW37183   0.352   4.268   4.524  0.3349  0.0764  0.1011
 8516SOL    HW137184   0.359   4.180   4.562 -0.6126 -0.8338 -1.8285
 8516SOL    HW237185   0.297   4.241   4.451 -1.2469  1.2436  0.8484
 8517SOL     OW37186   2.232   2.451   4.037 -0.5321  0.3842 -0.3060
 8517SOL    HW137187   2.198   2.375   4.084  0.8735 -0.0150  0.0621
 8517SOL    HW237188   2.171   2.521   4.060  1.5324  2.0726 -0.0118
 8518SOL     OW37189   4.242   1.440   6.383  0.6108  0.1933  0.5069
 8518SOL    HW137190   4.325   1.394   6.379 -0.2031 -1.2747  0.6289
 8518SOL    HW237191   4.235   1.446   6.479  0.5617 -0.5549  0.5530
 8519SOL     OW37192   3.763   4.554  14.656 -0.1607 -0.2332  0.5098
 8519SOL    HW137193   3.844   4.586  14.694 -0.7684  1.2084  0.5892
 8519SOL    HW237194   3.745   4.633  14.605 -0.9256 -0.1967  0.8400
 8520SOL     OW37195   4.374   0.976   7.215  0.0323 -0.2918 -0.3262
 8520SOL    HW137196   4.369   0.955   7.122 -0.2225  1.4012 -0.7047
 8520SOL    HW237197   4.302   1.038   7.227 -0.8713 -1.6577  1.2760
 8521SOL     OW37198   1.807   1.691   6.990  0.3386 -0.1519 -0.0902
 8521SOL    HW137199   1.795   1.601   6.959 -0.8803  0.8414 -2.5194
 8521SOL    HW237200   1.884   1.687   7.047 -0.4708 -3.4708  0.7941
 8522SOL     OW37201   2.015   4.129   3.258  0.2272 -0.0884 -0.4150
 8522SOL    HW137202   1.964   4.160   3.183 -1.1748  3.0817  1.8621
 8522SOL    HW237203   2.085   4.087   3.208  0.6872  1.9327 -1.4691
 8523SOL     OW37204   3.197   4.584   9.517  0.1932  0.3427  0.1742
 8523SOL    HW137205   3.189   4.679   9.532  1.3751  0.2527  1.4223
 8523SOL    HW237206   3.257   4.589   9.443  0.9602  0.3579  0.7992
 8524SOL     OW37207   1.568   4.449   0.942 -0.2473  0.0264 -0.4024
 8524SOL    HW137208   1.539   4.429   0.853 -2.8275  0.5184  0.3330
 8524SOL    HW237209   1.661   4.469   0.934  0.2030 -1.2999  1.4141
 8525SOL     OW37210   1.007   1.038  11.348 -0.2567  0.0783  0.5339
 8525SOL    HW137211   1.005   1.127  11.314 -0.0976 -0.1843 -0.1543
 8525SOL    HW237212   1.028   1.048  11.441 -0.4126  1.4022  0.4157
 8526SOL     OW37213   0.902   1.926  16.210 -0.2951  0.0248  0.1334
 8526SOL    HW137214   0.960   1.970  16.272 -2.4913  3.8873 -0.5661
 8526SOL    HW237215   0.960   1.860  16.171 -0.1515 -0.4721  1.1884
 8527SOL     OW37216   3.096   1.178  10.150 -0.0212  0.2745 -0.1393
 8527SOL    HW137217   3.104   1.245  10.082 -1.0312  1.9385  1.3965
 8527SOL    HW237218   3.175   1.193  10.202  0.3300  0.3048 -0.6817
 8528SOL     OW37219   0.476   4.211   6.898  0.5838 -0.0749  0.4865
 8528SOL    HW137220   0.436   4.132   6.936 -1.2996  0.2387 -0.8684
 8528SOL    HW237221   0.397   4.264   6.886  1.4731  0.8551 -1.2163
 8529SOL     OW37222   2.498   3.205  11.135 -0.3583 -0.1680 -0.2609
 8529SOL    HW137223   2.480   3.129  11.189  1.6104 -2.6763 -3.1069
 8529SOL    HW237224   2.431   3.262  11.172  1.4627  2.2108 -0.5506
 8530SOL     OW37225   1.818   0.575  15.275 -0.1985 -0.1865  0.6484
 8530SOL    HW137226   1.893   0.568  15.333 -1.4662  3.5218  2.7663
 8530SOL    HW237227   1.850   0.604  15.189 -1.0250 -0.5591  0.2103
 8531SOL     OW37228   2.299   2.193   5.809 -0.4313  0.2822  1.3404
 8531SOL    HW137229   2.359   2.139   5.860 -1.7379 -0.7904  1.7676
 8531SOL    HW237230   2.240   2.126   5.774  1.4041 -0.9518  0.6084
 8532SOL     OW37231   4.411   3.521   5.442  0.0811  0.1066  0.5349
 8532SOL    HW137232   4.341   3.579   5.474  1.0833  1.7004 -0.1953
 8532SOL    HW237233   4.412   3.523   5.347 -1.0571  0.9357  0.5395
 8533SOL     OW37234   2.191   3.363   4.707  0.0656  0.4362  0.1485
 8533SOL    HW137235   2.285   3.370   4.689 -0.1971  1.5254 -0.7795
 8533SOL    HW237236   2.160   3.434   4.651 -0.2400  0.7314  0.6957
 8534SOL     OW37237   3.642   3.289   6.716  0.0127  0.1494  0.3121
 8534SOL    HW137238   3.708   3.309   6.782 -1.6827 -2.5012  2.8366
 8534SOL    HW237239   3.639   3.371   6.666 -1.8105 -0.3201 -0.3794
 8535SOL     OW37240   4.237   3.604   8.039 -0.0541  0.0489  0.0730
 8535SOL    HW137241   4.173   3.601   7.969  1.8427 -1.0535 -1.6321
 8535SOL    HW237242   4.189   3.556   8.107  0.7112 -1.5759 -0.5414
 8536SOL     OW37243   2.965   1.806   2.980  0.1463 -0.5703 -0.4385
 8536SOL    HW137244   3.001   1.802   2.891  2.7217 -2.5549  0.6842
 8536SOL    HW237245   3.044   1.777   3.026  1.0742 -0.9622 -2.2687
 8537SOL     OW37246   3.495   4.086   3.391  0.3565  0.2486  0.1643
 8537SOL    HW137247   3.542   4.097   3.309 -0.9128  0.1348 -0.5727
 8537SOL    HW237248   3.515   4.173   3.426 -2.0861  0.7442  0.2999
 8538SOL     OW37249   0.828   1.156   2.258 -0.1623 -0.1113 -0.1651
 8538SOL    HW137250   0.906   1.140   2.205 -1.3786 -3.9640 -0.7673
 8538SOL    HW237251   0.806   1.064   2.273  1.5213 -0.4143  0.5095
 8539SOL     OW37252   2.102   4.234   2.919 -0.3449 -0.0458 -0.1579
 8539SOL    HW137253   2.019   4.255   2.877 -1.0543  3.3769  2.9334
 8539SOL    HW237254   2.137   4.322   2.932 -3.0054  0.9825 -0.0069
 8540SOL     OW37255   3.963   2.972   1.852  0.1354 -0.3456  0.1243
 8540SOL    HW137256   3.939   3.044   1.795  3.0005 -1.5926 -2.6380
 8540SOL    HW237257   4.058   2.978   1.854  0.1168  0.8356 -2.7723
 8541SOL     OW37258   0.021   1.701  16.255  0.5686  0.1423 -0.6624
 8541SOL    HW137259   0.025   1.624  16.313 -0.2916  1.5332  1.2535
 8541SOL    HW237260   0.091   1.758  16.288 -0.4766 -0.1478  2.0920
 8542SOL     OW37261   2.822   4.263   7.200  0.4368  0.4090 -0.8457
 8542SOL    HW137262   2.841   4.192   7.263  0.9794 -0.3617 -1.8837
 8542SOL    HW237263   2.847   4.334   7.259 -3.1336  1.1743 -0.2701
 8543SOL     OW37264   1.313   2.907   2.598  0.2592 -0.5014  0.0990
 8543SOL    HW137265   1.250   2.978   2.592  0.5408 -0.4682 -2.6018
 8543SOL    HW237266   1.260   2.829   2.581 -1.4851  1.0116 -1.3229
 8544SOL     OW37267   1.996   0.544  14.863  0.5240  0.0382  0.5771
 8544SOL    HW137268   1.934   0.479  14.896  1.8977 -1.6710 -0.2739
 8544SOL    HW237269   2.077   0.494  14.861  0.6433  0.2840 -0.5545
 8545SOL     OW37270   3.220   4.369  15.932  0.0768 -0.4919 -0.4791
 8545SOL    HW137271   3.245   4.392  15.842  0.0587  3.4213  0.5074
 8545SOL    HW237272   3.269   4.435  15.982 -1.2936  0.3928 -0.2954
 8546SOL     OW37273   3.081   3.449   0.026  0.1660  0.4048  0.2368
 8546SOL    HW137274   3.062   3.540   0.047  0.6123  0.2483  1.3607
 8546SOL    HW237275   3.171   3.437  17.737  0.1647  0.1908  0.3163
 8547SOL     OW37276   1.440   1.241   5.783  0.1660  0.2202 -0.2213
 8547SOL    HW137277   1.375   1.175   5.759 -1.6638  2.1230 -0.3806
 8547SOL    HW237278   1.515   1.211   5.732 -0.6097 -0.9200 -0.7014
 8548SOL     OW37279   2.368   3.544  10.613  0.0268 -0.5581  0.2415
 8548SOL    HW137280   2.279   3.556  10.580  0.5349 -2.7727 -1.8892
 8548SOL    HW237281   2.365   3.449  10.612  0.7861 -0.5785  0.1072
 8549SOL     OW37282   0.929   3.934   2.884  0.1066  0.5252  0.0677
 8549SOL    HW137283   0.844   3.938   2.927 -1.1635  0.4855 -2.4044
 8549SOL    HW237284   0.904   3.884   2.806  2.2265  1.1729 -1.0279
 8550SOL     OW37285   1.764   1.622  12.558 -0.3988  0.1035 -0.6081
 8550SOL    HW137286   1.765   1.717  12.547  1.2670  0.3567  1.7281
 8550SOL    HW237287   1.860   1.613  12.559 -0.5342 -1.3891 -1.2424
 8551SOL     OW37288   2.111   4.459  10.088  0.2152  0.5070 -0.1286
 8551SOL    HW137289   2.044   4.450  10.156 -0.0326  0.0182 -0.4376
 8551SOL    HW237290   2.101   4.370  10.053 -0.8289  0.7854 -0.5333
 8552SOL     OW37291   3.286   3.463   7.792 -0.9328  0.0177 -0.3782
 8552SOL    HW137292   3.293   3.506   7.877 -0.4679  0.2826 -0.5493
 8552SOL    HW237293   3.216   3.516   7.752 -1.9883 -1.6432 -0.7118
 8553SOL     OW37294   1.414   1.535   5.853  0.1705 -0.5369  0.1376
 8553SOL    HW137295   1.335   1.483   5.841  0.4921 -0.4354 -2.5531
 8553SOL    HW237296   1.458   1.514   5.770  0.4124 -2.0934  0.6529
 8554SOL     OW37297   4.569   1.254   3.870 -0.3882  0.1842 -0.4843
 8554SOL    HW137298   4.478   1.273   3.891  0.1364 -0.0786  1.9745
 8554SOL    HW237299   4.610   1.255   3.956  0.0842  1.7749 -0.7230
 8555SOL     OW37300   4.479   0.457   2.974 -0.2779  0.0798 -0.0389
 8555SOL    HW137301   4.573   0.472   2.980 -0.5021  1.6466 -0.3843
 8555SOL    HW237302   4.472   0.439   2.881  0.7092  3.8727 -0.8484
 8556SOL     OW37303   1.394   0.806   6.682  0.4073 -0.1094 -0.5243
 8556SOL    HW137304   1.393   0.854   6.599 -0.2764 -0.7316 -0.8765
 8556SOL    HW237305   1.360   0.723   6.648  2.0279 -0.1875 -1.9992
 8557SOL     OW37306   0.452   0.405   3.173 -0.0431  0.6991  0.7640
 8557SOL    HW137307   0.372   0.371   3.132 -1.7878  0.7868  4.1208
 8557SOL    HW237308   0.501   0.438   3.097 -3.1959  2.2422 -0.5983
 8558SOL     OW37309   2.679   1.317   4.899 -0.1021 -0.1277 -0.6011
 8558SOL    HW137310   2.669   1.370   4.978  0.4623  2.1181 -2.0155
 8558SOL    HW237311   2.605   1.257   4.908  0.4537 -0.4839  1.6710
 8559SOL     OW37312   4.089   0.529   3.428  0.1691 -0.1694  0.2750
 8559SOL    HW137313   4.098   0.561   3.338  0.7244  0.2457  0.4818
 8559SOL    HW237314   4.177   0.525   3.463 -0.0525 -0.3541  0.8105
 8560SOL     OW37315   3.123   2.770  10.378 -0.0187  0.7497  0.1250
 8560SOL    HW137316   3.083   2.695  10.422  1.2820  0.1235  0.2221
 8560SOL    HW237317   3.054   2.794  10.316 -0.3694 -0.0954  0.1854
 8561SOL     OW37318   3.096   1.456   2.125  0.3818 -0.0625  0.0022
 8561SOL    HW137319   3.154   1.527   2.098  0.3959  0.3932  1.2286
 8561SOL    HW237320   3.123   1.458   2.217 -0.5647 -1.0745  0.2969
 8562SOL     OW37321   1.289   2.639  13.489  0.2050 -1.0644  0.2130
 8562SOL    HW137322   1.249   2.587  13.419 -0.8323  0.5242 -0.3704
 8562SOL    HW237323   1.307   2.573  13.556 -0.7653  0.8060  2.3137
 8563SOL     OW37324   2.646   4.180   5.425  0.2613 -0.5905  0.0825
 8563SOL    HW137325   2.632   4.234   5.503 -0.4783 -1.4908  0.5732
 8563SOL    HW237326   2.557   4.155   5.402 -0.7332  2.2560  0.8761
 8564SOL     OW37327   2.426   2.083   4.816 -0.3478  0.2196 -0.1812
 8564SOL    HW137328   2.517   2.086   4.786 -0.2346  0.8073  0.2186
 8564SOL    HW237329   2.396   2.159   4.767  0.6834  0.6613 -0.1315
 8565SOL     OW37330   1.888   4.343   7.159  0.0117 -0.1049  0.5133
 8565SOL    HW137331   1.822   4.366   7.225  1.1627 -1.1786  2.0294
 8565SOL    HW237332   1.922   4.257   7.183 -1.5020 -0.8142  0.1278
 8566SOL     OW37333   4.544   0.449   4.210  0.7329 -0.9603 -0.1313
 8566SOL    HW137334   4.551   0.504   4.131  2.6006 -0.8875  0.1016
 8566SOL    HW237335   4.516   0.516   4.273  1.1859 -1.1121  0.2270
 8567SOL     OW37336   2.690   1.769  11.079 -0.2783 -0.0427  0.8844
 8567SOL    HW137337   2.614   1.752  11.023 -1.2837  1.0635  1.9178
 8567SOL    HW237338   2.686   1.686  11.128  1.9654  0.7706  2.4253
 8568SOL     OW37339   2.859   1.360  14.085 -0.1244 -0.6763 -0.2230
 8568SOL    HW137340   2.824   1.412  14.013 -1.0936 -0.4454  0.4163
 8568SOL    HW237341   2.882   1.282  14.034  0.3730  0.3951 -1.6609
 8569SOL     OW37342   4.264   3.089  10.379  0.1488 -0.0395 -0.1350
 8569SOL    HW137343   4.247   3.180  10.353 -0.7889  0.2772  1.5845
 8569SOL    HW237344   4.201   3.067  10.447 -0.5820 -0.4216 -0.9315
 8570SOL     OW37345   0.707   1.538   9.961 -0.2223 -0.3074 -0.5287
 8570SOL    HW137346   0.733   1.466   9.903  2.9864 -2.4079  3.5002
 8570SOL    HW237347   0.675   1.483  10.033  0.2666 -1.3375 -1.0955
 8571SOL     OW37348   0.031   4.153   9.421 -0.5567  0.2666  0.0422
 8571SOL    HW137349   4.704   4.190   9.484  0.8278 -1.0618  2.1640
 8571SOL    HW237350   0.094   4.111   9.479 -0.3152  0.9363  0.2691
 8572SOL     OW37351   4.044   2.280   7.882  0.0978  0.2435 -0.4877
 8572SOL    HW137352   4.133   2.287   7.847  0.5738 -0.9767  0.5028
 8572SOL    HW237353   3.998   2.351   7.837 -1.6450 -1.3040 -1.1707
 8573SOL     OW37354   3.223   0.450   0.652 -0.1601  0.1898 -0.3040
 8573SOL    HW137355   3.281   0.500   0.594 -1.4616 -0.2583 -1.9766
 8573SOL    HW237356   3.147   0.438   0.596  0.3398  2.4063 -1.4462
 8574SOL     OW37357   1.500   0.661  16.610 -0.0614 -0.4327 -0.4027
 8574SOL    HW137358   1.594   0.677  16.608  0.1596 -1.5286  0.9783
 8574SOL    HW237359   1.497   0.588  16.549 -1.3308 -2.9327  2.6680
 8575SOL     OW37360   4.029   1.729   5.701 -0.3408 -0.1048  0.2130
 8575SOL    HW137361   4.090   1.776   5.645 -0.2577 -0.0691  0.3326
 8575SOL    HW237362   4.039   1.780   5.782  0.5404  2.0973 -1.2889
 8576SOL     OW37363   2.921   0.484   1.515 -0.4341  0.5326 -0.3997
 8576SOL    HW137364   2.870   0.469   1.594 -0.2720  1.4955 -0.1159
 8576SOL    HW237365   2.922   0.402   1.466 -0.6389  0.0412  0.4314
 8577SOL     OW37366   1.281   2.806   8.391 -0.0468 -1.0973  0.1422
 8577SOL    HW137367   1.210   2.778   8.449 -0.9252  1.1249  0.1141
 8577SOL    HW237368   1.324   2.874   8.443  2.9847 -1.0429 -2.3520
 8578SOL     OW37369   3.703   2.997  17.251  0.0351 -0.1887  0.4086
 8578SOL    HW137370   3.627   2.981  17.307 -0.7655 -0.8317 -0.8425
 8578SOL    HW237371   3.773   2.957  17.302 -1.1116  1.0615  2.9793
 8579SOL     OW37372   2.012   0.432   9.262 -0.0740 -0.0356  0.2076
 8579SOL    HW137373   1.929   0.386   9.252  1.2173 -1.9698 -1.5959
 8579SOL    HW237374   2.061   0.369   9.315 -0.3286 -0.4149 -0.0076
 8580SOL     OW37375   2.860   1.259  15.184  0.7693  0.1761  0.1199
 8580SOL    HW137376   2.787   1.230  15.130 -0.4655  0.0426  1.8787
 8580SOL    HW237377   2.854   1.198  15.257  1.5059  0.6888  0.6157
 8581SOL     OW37378   0.205   2.318   8.740  0.1071  0.0792 -0.0120
 8581SOL    HW137379   0.144   2.332   8.813  0.6682 -3.1894  1.0917
 8581SOL    HW237380   0.286   2.328   8.790  1.1210 -1.1554 -1.3981
 8582SOL     OW37381   4.329   4.137   5.752 -0.0532  0.3027 -0.4065
 8582SOL    HW137382   4.245   4.094   5.764  1.3409 -1.7943  1.8996
 8582SOL    HW237383   4.359   4.166   5.838 -0.6564  0.0389 -0.1096
 8583SOL     OW37384   1.976   3.256   7.208 -0.0675  0.3035 -0.4799
 8583SOL    HW137385   1.999   3.308   7.131 -0.5603 -0.4690 -1.1556
 8583SOL    HW237386   1.881   3.268   7.217  0.3005  1.1446  2.1437
 8584SOL     OW37387   4.345   2.223   7.131  0.4161 -0.2165  0.1738
 8584SOL    HW137388   4.368   2.316   7.122 -1.1898  0.1080 -0.4465
 8584SOL    HW237389   4.261   2.245   7.171  0.0576 -0.0970 -0.6308
 8585SOL     OW37390   1.585   1.131   4.453 -0.6182  0.4177 -0.1288
 8585SOL    HW137391   1.628   1.045   4.445 -2.0392 -0.4555  1.6211
 8585SOL    HW237392   1.600   1.158   4.544  0.7674 -1.0450  0.0816
 8586SOL     OW37393   2.899   4.430   3.275  0.0228  0.3679 -0.6355
 8586SOL    HW137394   2.806   4.442   3.257 -0.4319 -0.8062  0.9784
 8586SOL    HW237395   2.897   4.340   3.309 -1.2792  0.5209 -0.3221
 8587SOL     OW37396   0.394   3.475   4.031  0.3555 -0.0134  0.0490
 8587SOL    HW137397   0.430   3.548   3.981 -0.9450  0.9321  0.4867
 8587SOL    HW237398   0.358   3.523   4.106  2.3228  0.2872  0.8093
 8588SOL     OW37399   2.509   4.037  12.528  0.1204 -0.2043 -0.4377
 8588SOL    HW137400   2.592   4.055  12.572  1.8940 -3.3898 -2.4605
 8588SOL    HW237401   2.520   4.082  12.444  0.2475  0.3951 -0.1013
 8589SOL     OW37402   0.576   3.991  11.225  0.3158  0.2462 -0.6382
 8589SOL    HW137403   0.645   4.041  11.182 -1.4153  1.4300 -2.0193
 8589SOL    HW237404   0.503   4.054  11.225 -1.3286 -1.6419 -0.9077
 8590SOL     OW37405   3.255   0.828   3.283 -0.6509 -0.6944  0.8472
 8590SOL    HW137406   3.210   0.902   3.241 -1.2193 -1.3006  0.4040
 8590SOL    HW237407   3.295   0.777   3.213 -0.2100  1.2597 -0.3428
 8591SOL     OW37408   1.489   0.455  14.920  0.0832 -0.2017 -0.5269
 8591SOL    HW137409   1.523   0.539  14.889  1.4028  0.1076  1.7101
 8591SOL    HW237410   1.528   0.453  15.007  1.0478 -0.1542 -0.9612
 8592SOL     OW37411   4.557   3.211  13.813 -0.4678 -0.0965  0.1585
 8592SOL    HW137412   4.483   3.242  13.864 -0.3255  2.1940 -1.0236
 8592SOL    HW237413   4.623   3.275  13.839  0.3735 -0.0008 -2.1535
 8593SOL     OW37414   2.845   1.462   3.792  0.4092  0.0993 -0.2867
 8593SOL    HW137415   2.830   1.555   3.806 -2.3828 -0.2853 -0.7451
 8593SOL    HW237416   2.924   1.456   3.738  1.2013 -0.0654  0.9131
 8594SOL     OW37417   0.968   4.456   5.485  0.0068 -0.3800 -0.0004
 8594SOL    HW137418   1.042   4.476   5.428 -1.5435  2.7271 -0.9502
 8594SOL    HW237419   0.977   4.363   5.503 -0.9130 -0.4589  0.0683
 8595SOL     OW37420   2.100   1.022   3.777  0.3936 -0.3106 -0.2396
 8595SOL    HW137421   2.100   0.997   3.685 -0.4251 -0.9034 -0.0778
 8595SOL    HW237422   2.094   0.933   3.814 -0.2936  0.3629  1.2644
 8596SOL     OW37423   0.320   0.176   4.910  0.4990  0.1413 -0.7535
 8596SOL    HW137424   0.235   0.136   4.889  0.1385  1.3334 -1.6236
 8596SOL    HW237425   0.386   0.108   4.901  1.7991  1.2912  0.1252
 8597SOL     OW37426   0.140   3.835  13.542  0.1740  0.2328 -0.2524
 8597SOL    HW137427   0.214   3.877  13.499  0.5224  0.2817  0.3954
 8597SOL    HW237428   0.119   3.767  13.478 -0.9968  0.0833  0.2803
 8598SOL     OW37429   1.750   1.227  15.216 -0.4000 -0.4219  0.7212
 8598SOL    HW137430   1.838   1.252  15.244 -0.9679 -0.4711  2.5429
 8598SOL    HW237431   1.735   1.295  15.151  0.2810 -0.2542  0.7355
 8599SOL     OW37432   2.905   0.786  11.852  0.3003  0.2476  0.2224
 8599SOL    HW137433   2.972   0.788  11.921 -0.8878 -0.9934  1.4167
 8599SOL    HW237434   2.826   0.815  11.898  0.3260  1.1521 -0.3210
 8600SOL     OW37435   4.495   2.633   1.297  0.1719  0.0063  0.9427
 8600SOL    HW137436   4.495   2.729   1.300  0.4995  0.0924 -1.8793
 8600SOL    HW237437   4.489   2.606   1.388  0.6589 -0.8826  0.7111
 8601SOL     OW37438   1.491   2.793   5.123 -0.1357 -0.0992 -0.3084
 8601SOL    HW137439   1.415   2.820   5.173 -1.0337 -0.2999 -1.5631
 8601SOL    HW237440   1.528   2.727   5.181 -0.3566  1.6379  1.7781
 8602SOL     OW37441   4.198   0.315   5.380 -0.0126  0.1522 -0.0209
 8602SOL    HW137442   4.193   0.360   5.464  0.0871  3.3272 -1.7162
 8602SOL    HW237443   4.141   0.370   5.327  1.2891 -1.2282 -2.8276
 8603SOL     OW37444   1.179   4.200   5.164 -0.0793  0.5000  0.1770
 8603SOL    HW137445   1.207   4.281   5.121  0.4505  0.0186 -0.3779
 8603SOL    HW237446   1.093   4.201   5.122  0.4583 -2.0462 -0.9747
 8604SOL     OW37447   2.676   0.010   1.420  0.4584  0.3141 -0.5887
 8604SOL    HW137448   2.712   4.670   1.467 -3.4767  0.3139  2.4054
 8604SOL    HW237449   2.587   4.719   1.398  0.9365 -2.0629  0.4044
 8605SOL     OW37450   2.456   2.491   8.165 -0.0076 -0.0665  0.3782
 8605SOL    HW137451   2.453   2.401   8.134 -1.5365 -0.6938  2.3189
 8605SOL    HW237452   2.362   2.507   8.165  0.1740  1.0265 -0.2068
 8606SOL     OW37453   3.839   0.694   4.541  0.5242  0.0686 -0.1050
 8606SOL    HW137454   3.906   0.733   4.485  1.7593 -0.3903  1.0609
 8606SOL    HW237455   3.789   0.768   4.576  2.0179  0.3981  1.2986
 8607SOL     OW37456   3.540   3.261   9.622  0.4313  0.0256  0.0547
 8607SOL    HW137457   3.584   3.234   9.702  2.4728  0.7988 -0.8132
 8607SOL    HW237458   3.471   3.196   9.603 -0.2695  1.4866 -2.4454
 8608SOL     OW37459   2.574   2.301   9.687 -0.3393 -0.1300  0.0576
 8608SOL    HW137460   2.540   2.261   9.607 -2.1194  0.0907  0.7017
 8608SOL    HW237461   2.623   2.234   9.734 -0.1085 -1.6130 -2.3414
 8609SOL     OW37462   0.211   3.578   8.585 -0.7174  0.3279  0.0672
 8609SOL    HW137463   0.243   3.620   8.665 -0.2823  1.7485 -0.8541
 8609SOL    HW237464   0.118   3.599   8.595 -1.2458 -2.9867  2.1140
 8610SOL     OW37465   2.440   3.322   6.965  0.4073 -0.0800  0.3791
 8610SOL    HW137466   2.417   3.389   6.900  0.0138 -1.0170 -0.4394
 8610SOL    HW237467   2.531   3.341   6.990  0.6277  1.9616 -1.9907
 8611SOL     OW37468   3.091   2.974   6.636 -0.0893  1.0519 -0.0420
 8611SOL    HW137469   3.148   2.940   6.705  0.6209 -0.5067 -1.3779
 8611SOL    HW237470   3.069   3.056   6.681  0.6396  1.5911 -0.6695
 8612SOL     OW37471   1.080   1.473   7.924 -0.0712  0.1756  0.2020
 8612SOL    HW137472   1.099   1.541   7.989  1.3616  1.4793 -1.5745
 8612SOL    HW237473   1.014   1.514   7.868  1.1671  2.7618  0.6235
 8613SOL     OW37474   1.492   0.179   4.365 -0.1010 -0.1682 -0.2352
 8613SOL    HW137475   1.470   0.266   4.333  1.2342 -0.1682 -1.1586
 8613SOL    HW237476   1.588   0.174   4.367 -0.2019 -2.1429  0.0837
 8614SOL     OW37477   3.657   1.726   4.211 -0.4011  0.0209  0.3002
 8614SOL    HW137478   3.657   1.641   4.256 -1.5219 -0.6718 -1.0133
 8614SOL    HW237479   3.715   1.706   4.137 -2.0990 -0.8504 -0.8088
 8615SOL     OW37480   2.537   4.677  14.747  0.3485  0.0898  0.0656
 8615SOL    HW137481   2.515   0.028  14.712 -0.6500 -0.7720 -1.3690
 8615SOL    HW237482   2.531   4.687  14.842  0.0419  0.8330 -0.0274
 8616SOL     OW37483   0.671   0.706   2.115  0.5890 -0.0432  0.5662
 8616SOL    HW137484   0.711   0.793   2.108 -0.5674  0.2121 -2.4570
 8616SOL    HW237485   0.723   0.661   2.183  1.7238 -1.3690 -1.1861
 8617SOL     OW37486   4.061   1.541  14.868 -0.3747 -0.2281 -0.6284
 8617SOL    HW137487   4.144   1.546  14.821  0.1645  2.0204  0.5742
 8617SOL    HW237488   4.015   1.476  14.814 -1.3689 -1.7252  1.9756
 8618SOL     OW37489   1.833   3.269   0.005  0.2261 -0.1868  0.6243
 8618SOL    HW137490   1.891   3.232   0.072  0.2835  2.5887  2.0909
 8618SOL    HW237491   1.775   3.327   0.054 -0.2203 -1.3274  1.4573
 8619SOL     OW37492   0.275   2.041   7.422 -0.0796  0.5022  0.2569
 8619SOL    HW137493   0.299   1.949   7.432  0.3542  0.5895  0.0166
 8619SOL    HW237494   0.179   2.041   7.412 -0.0435 -2.8978  0.1573
 8620SOL     OW37495   0.281   3.009  15.091  0.2655 -0.1823 -0.7536
 8620SOL    HW137496   0.348   2.997  15.158  0.5942 -2.3700 -1.4749
 8620SOL    HW237497   0.231   3.085  15.121  0.4148 -0.1829 -0.5049
 8621SOL     OW37498   2.505   3.519   8.783 -0.4522 -0.0701 -0.3069
 8621SOL    HW137499   2.541   3.584   8.844  1.4078 -0.3535 -1.1060
 8621SOL    HW237500   2.420   3.559   8.764 -1.0681 -1.2076  0.0368
 8622SOL     OW37501   2.766   0.113  13.612 -0.3323  0.2999 -0.0955
 8622SOL    HW137502   2.762   0.071  13.698  0.2940  2.5945  1.0710
 8622SOL    HW237503   2.715   0.048  13.564 -1.7360  1.8846 -0.7398
 8623SOL     OW37504   4.054   0.278   1.676  0.0667 -0.0948  0.1509
 8623SOL    HW137505   3.961   0.298   1.683 -0.0003  0.1365 -1.4144
 8623SOL    HW237506   4.062   0.191   1.638 -0.1799 -0.9867  2.1382
 8624SOL     OW37507   3.630   3.785  15.696 -0.2411  0.2303 -0.4888
 8624SOL    HW137508   3.567   3.847  15.732  0.3768  0.1485  0.7342
 8624SOL    HW237509   3.668   3.753  15.778  0.9110 -1.1667 -1.5758
 8625SOL     OW37510   3.936   3.131  13.099  0.0322  0.3420 -0.7403
 8625SOL    HW137511   4.000   3.090  13.158  0.1731 -0.9505 -1.7872
 8625SOL    HW237512   3.858   3.078  13.117  2.7419 -3.8400 -1.3852
 8626SOL     OW37513   2.264   0.824   5.814 -0.7032 -0.2006 -0.0457
 8626SOL    HW137514   2.230   0.779   5.737 -1.4175 -0.0167  0.1672
 8626SOL    HW237515   2.356   0.806   5.793 -0.8666 -0.7931 -0.2397
 8627SOL     OW37516   2.519   1.676   3.980 -0.5819 -0.2012  0.2010
 8627SOL    HW137517   2.599   1.651   3.934 -0.6157 -0.1131  0.0963
 8627SOL    HW237518   2.545   1.763   4.009 -3.0628  0.2194  1.1383
 8628SOL     OW37519   1.979   0.353   4.542 -0.2812 -0.1269 -0.6142
 8628SOL    HW137520   1.886   0.364   4.562 -0.1919  2.3641 -1.6387
 8628SOL    HW237521   1.988   0.420   4.474  2.8569 -0.4799 -0.5783
 8629SOL     OW37522   2.138   4.034   4.540  0.5868  0.5952 -0.3344
 8629SOL    HW137523   2.100   4.092   4.606  2.5973  2.0004 -0.4126
 8629SOL    HW237524   2.210   4.000   4.594 -1.1212  1.0505  2.2280
 8630SOL     OW37525   0.271   2.108   5.079 -0.3268 -0.1835  0.4882
 8630SOL    HW137526   0.279   2.083   5.171  0.3163 -1.6524  0.0371
 8630SOL    HW237527   0.359   2.087   5.049 -1.1520 -0.1014 -1.9793
 8631SOL     OW37528   2.544   0.276   1.458  0.2323  0.5094  0.0968
 8631SOL    HW137529   2.601   0.213   1.414  0.3247 -0.5435  1.7021
 8631SOL    HW237530   2.468   0.219   1.469  0.5054  0.1066 -0.0999
 8632SOL     OW37531   2.696   2.873  12.231  0.5414  0.0661  0.2190
 8632SOL    HW137532   2.640   2.929  12.283 -0.7114 -2.2219  1.3458
 8632SOL    HW237533   2.637   2.820  12.178 -2.0984  3.1565  0.0816
 8633SOL     OW37534   0.380   2.012  16.228 -0.0634  0.2413 -0.0091
 8633SOL    HW137535   0.334   2.058  16.298 -2.0225 -0.6120 -0.7291
 8633SOL    HW237536   0.327   2.025  16.149  1.6465  3.3640 -0.6472
 8634SOL     OW37537   0.509   2.618   3.488 -0.3730 -0.2083  0.0895
 8634SOL    HW137538   0.472   2.534   3.462  0.2068  0.1271 -1.8126
 8634SOL    HW237539   0.602   2.599   3.478 -0.1227  0.8633  0.3212
 8635SOL     OW37540   2.357   0.408   5.699  0.5278 -0.0876  0.4098
 8635SOL    HW137541   2.332   0.433   5.788 -2.0056  0.1262 -0.3566
 8635SOL    HW237542   2.342   0.315   5.715 -0.5719  0.5416  3.0599
 8636SOL     OW37543   2.326   3.660   2.909 -0.6406  0.0942  0.9183
 8636SOL    HW137544   2.295   3.750   2.915  0.0390  0.4649 -1.0587
 8636SOL    HW237545   2.314   3.628   2.998 -1.0855 -1.5099  0.2813
 8637SOL     OW37546   1.800   0.863  13.463  1.1850  0.4338  0.2161
 8637SOL    HW137547   1.748   0.797  13.509 -0.6887  0.2589 -2.1446
 8637SOL    HW237548   1.781   0.837  13.373 -0.0767 -0.7869  0.8439
 8638SOL     OW37549   0.782   0.848  16.701  0.2030  0.2146  0.1681
 8638SOL    HW137550   0.819   0.932  16.673  0.2371  1.3248  3.5654
 8638SOL    HW237551   0.752   0.818  16.615 -0.5416 -0.5996  0.7145
 8639SOL     OW37552   2.960   3.804   3.649  0.1886 -0.1763 -0.5916
 8639SOL    HW137553   2.912   3.737   3.699  0.7015  0.1568  0.3447
 8639SOL    HW237554   3.042   3.757   3.636 -1.7918 -3.2169 -2.0587
 8640SOL     OW37555   2.916   0.999   1.641 -0.9112 -0.4205  0.1386
 8640SOL    HW137556   2.845   0.995   1.576 -2.0845  1.0854  1.3372
 8640SOL    HW237557   2.944   1.091   1.644 -1.0985 -0.3997  1.2775
 8641SOL     OW37558   0.420   1.716  16.646  0.0335 -0.3200 -0.3243
 8641SOL    HW137559   0.438   1.737  16.554 -2.9916 -2.8398 -1.4808
 8641SOL    HW237560   0.331   1.681  16.644  1.2833 -3.5420 -0.0810
 8642SOL     OW37561   3.979   3.749  11.792 -0.3503 -0.6042  0.0115
 8642SOL    HW137562   3.936   3.807  11.728 -0.5506 -1.2453 -0.4307
 8642SOL    HW237563   4.060   3.800  11.799 -2.6231  3.0998 -0.7623
 8643SOL     OW37564   3.640   3.570   4.460 -0.1861  0.2075  1.2087
 8643SOL    HW137565   3.617   3.621   4.537  0.8571  0.2655  1.4779
 8643SOL    HW237566   3.610   3.483   4.487 -0.9508  0.7500  2.1063
 8644SOL     OW37567   3.015   1.024   2.149  0.0260  0.0452 -0.0996
 8644SOL    HW137568   3.028   0.958   2.217  1.8127  1.8428  1.3034
 8644SOL    HW237569   2.922   1.036   2.170  0.2218 -0.6287  1.1023
 8645SOL     OW37570   3.785   3.347   9.461  0.2495 -0.2947 -0.0734
 8645SOL    HW137571   3.699   3.330   9.499  0.4813 -1.9160 -0.3004
 8645SOL    HW237572   3.801   3.262   9.421  1.6458 -0.0433 -0.0333
 8646SOL     OW37573   0.738   0.852   4.839  0.0399 -0.2742 -0.1243
 8646SOL    HW137574   0.650   0.833   4.872  0.4007 -0.2436  0.8291
 8646SOL    HW237575   0.724   0.890   4.751  3.5609  0.6610 -0.2680
 8647SOL     OW37576   0.306   4.032   8.445  0.1072  0.1438  0.0257
 8647SOL    HW137577   0.398   4.012   8.458 -0.5611 -1.2424  2.5468
 8647SOL    HW237578   0.289   3.942   8.415  0.0387 -0.0708  0.7241
 8648SOL     OW37579   0.855   1.343   9.812 -0.3088  0.2730  0.0656
 8648SOL    HW137580   0.882   1.435   9.802  0.9965 -0.3666 -2.3387
 8648SOL    HW237581   0.896   1.304   9.735 -0.9168 -1.7239  0.7772
 8649SOL     OW37582   3.527   4.057   6.069 -0.3038 -0.8966  0.2579
 8649SOL    HW137583   3.553   4.093   6.154  0.0598  2.3520 -1.2072
 8649SOL    HW237584   3.547   4.139   6.023 -2.3550 -0.9564 -0.7566
 8650SOL     OW37585   4.027   0.602   8.638  0.0249  0.3148  0.1884
 8650SOL    HW137586   3.944   0.609   8.685 -0.2509  0.2559 -0.2969
 8650SOL    HW237587   4.086   0.622   8.711  1.1329 -1.2909 -0.2702
 8651SOL     OW37588   0.892   2.717   6.389  0.0346 -0.3521  0.7395
 8651SOL    HW137589   0.922   2.777   6.321 -0.2592 -1.5587 -0.4698
 8651SOL    HW237590   0.803   2.744   6.411  1.0431  0.9378  3.1901
 8652SOL     OW37591   0.503   4.700   1.653 -0.2829  0.0663  0.3546
 8652SOL    HW137592   0.515   4.613   1.691 -2.2856 -0.6267 -0.6211
 8652SOL    HW237593   0.565   0.018   1.703  1.5600 -1.2089 -0.5217
 8653SOL     OW37594   4.442   4.308  16.339 -0.1562  0.2700 -0.4971
 8653SOL    HW137595   4.397   4.392  16.350 -0.7009 -0.0429 -0.3490
 8653SOL    HW237596   4.510   4.315  16.407  1.9923 -1.2455 -2.5239
 8654SOL     OW37597   0.827   1.309   5.061 -0.3786  0.2071 -0.6903
 8654SOL    HW137598   0.904   1.365   5.066 -0.4836  0.4193 -1.4468
 8654SOL    HW237599   0.869   1.224   5.071  1.9396  1.4373 -0.0937
 8655SOL     OW37600   3.206   0.610  13.003  0.0253  0.1890 -0.8603
 8655SOL    HW137601   3.245   0.613  13.090 -1.4879  2.0462 -0.2477
 8655SOL    HW237602   3.222   0.516  12.994 -0.6733 -0.1292  1.3320
 8656SOL     OW37603   2.347   3.946   4.684 -0.0093 -0.0598  0.2608
 8656SOL    HW137604   2.441   3.964   4.693  0.0729 -1.2579  1.8564
 8656SOL    HW237605   2.328   3.928   4.776  1.0968 -0.6602  0.3751
 8657SOL     OW37606   3.959   4.454   2.662 -0.1508  0.5938 -0.7336
 8657SOL    HW137607   3.955   4.364   2.631  1.6482 -0.3847  1.8760
 8657SOL    HW237608   3.918   4.442   2.748  1.2021 -2.0978 -0.4743
 8658SOL     OW37609   0.252   0.735   2.171 -0.2000 -0.0660 -0.0160
 8658SOL    HW137610   0.168   0.780   2.184 -0.0322  0.0141  0.7799
 8658SOL    HW237611   0.303   0.800   2.122  0.2758  1.2797  2.2925
 8659SOL     OW37612   1.645   1.384   5.954 -0.3179  0.1646 -0.0635
 8659SOL    HW137613   1.610   1.332   6.026  0.2656 -0.1381  0.0017
 8659SOL    HW237614   1.573   1.435   5.917  0.4429  1.2991  0.0069
 8660SOL     OW37615   1.408   4.619   4.202 -0.2045  0.2699  0.6846
 8660SOL    HW137616   1.339   4.604   4.137  1.4680  0.3375 -1.0769
 8660SOL    HW237617   1.393   4.711   4.225  0.1794  1.1892 -2.7533
 8661SOL     OW37618   3.940   3.681  14.180  0.2997  0.1665  0.2407
 8661SOL    HW137619   3.984   3.742  14.121  0.8680  0.1575  0.6562
 8661SOL    HW237620   3.887   3.627  14.122  1.5683 -0.4141 -0.3678
 8662SOL     OW37621   3.148   2.855   5.975  0.5071 -0.4659 -0.3508
 8662SOL    HW137622   3.240   2.881   5.968  0.1138  0.8559 -0.6325
 8662SOL    HW237623   3.132   2.832   5.883  0.0031 -0.7850 -0.1858
 8663SOL     OW37624   0.819   3.303   2.436  0.0690  0.1518  0.0699
 8663SOL    HW137625   0.732   3.282   2.402  0.7838  0.3170 -1.8471
 8663SOL    HW237626   0.786   3.336   2.519 -1.4180  1.7470 -1.1695
 8664SOL     OW37627   3.718   3.748   4.279 -0.0958  0.1823  0.3695
 8664SOL    HW137628   3.694   3.720   4.191  1.9690 -0.8418  0.1331
 8664SOL    HW237629   3.682   3.675   4.330  2.5435  1.1925  3.6791
 8665SOL     OW37630   0.697   2.847   4.134  0.0631  0.0060  0.5523
 8665SOL    HW137631   0.643   2.892   4.069  1.0977 -2.1249 -1.7625
 8665SOL    HW237632   0.741   2.912   4.188 -0.5012  0.0549  0.9535
 8666SOL     OW37633   1.427   3.593   0.876 -0.3275  0.0881  0.0842
 8666SOL    HW137634   1.355   3.540   0.912  1.1458 -0.8600  1.6305
 8666SOL    HW237635   1.495   3.526   0.873 -1.5801 -1.2385  1.3002
 8667SOL     OW37636   3.017   1.085   1.007  0.6211  0.0267  0.0048
 8667SOL    HW137637   2.994   1.009   1.061 -1.9210  0.5791 -0.3005
 8667SOL    HW237638   3.073   1.127   1.072  0.9884  0.9061 -0.8694
 8668SOL     OW37639   1.401   2.238  16.872 -0.5157 -0.0073  0.6818
 8668SOL    HW137640   1.447   2.241  16.956 -0.4748 -0.7159  0.6811
 8668SOL    HW237641   1.460   2.265  16.803 -0.0613 -1.2214  0.6054
 8669SOL     OW37642   3.393   2.129   8.969 -0.4339 -0.5025 -0.0632
 8669SOL    HW137643   3.443   2.056   8.931 -0.3699 -1.4811  1.8971
 8669SOL    HW237644   3.434   2.142   9.054  1.7558 -0.1763 -1.1666
 8670SOL     OW37645   4.178   3.986   2.618  0.3367  0.4510 -0.1974
 8670SOL    HW137646   4.222   3.930   2.555 -0.4204 -0.4474  0.0764
 8670SOL    HW237647   4.134   3.919   2.670  1.0350  1.2513  1.4310
 8671SOL     OW37648   4.653   0.195  14.719  0.3627  0.4547 -0.6998
 8671SOL    HW137649   4.642   0.131  14.649  1.9673 -1.1505  0.5342
 8671SOL    HW237650   0.002   0.171  14.757  0.3880  1.4492 -0.1380
 8672SOL     OW37651   1.978   0.921  13.878 -0.3016 -0.1989  0.0602
 8672SOL    HW137652   2.049   0.983  13.895  0.8168 -1.5271  0.2932
 8672SOL    HW237653   2.014   0.833  13.868  1.1035  0.4761 -0.8338
 8673SOL     OW37654   3.274   1.760   9.301  0.5526  0.7648 -0.4172
 8673SOL    HW137655   3.312   1.831   9.250  0.7082  0.1631 -1.1425
 8673SOL    HW237656   3.316   1.755   9.386  0.0885 -2.6629 -0.3764
 8674SOL     OW37657   0.820   0.058   7.112 -0.0151 -0.0437  0.6317
 8674SOL    HW137658   0.837   4.702   7.089  1.1297  0.4244 -0.3861
 8674SOL    HW237659   0.855   0.063   7.201  1.0947 -0.6532  0.2357
 8675SOL     OW37660   2.718   4.462  14.806  0.0342 -0.4093  0.1150
 8675SOL    HW137661   2.634   4.459  14.853 -0.5023 -0.7316 -0.8765
 8675SOL    HW237662   2.682   4.477  14.719 -1.4525  0.4430  0.8679
 8676SOL     OW37663   2.963   1.579  13.525 -0.0170 -0.0134 -0.0047
 8676SOL    HW137664   2.900   1.642  13.558  1.0328  1.8363 -1.5225
 8676SOL    HW237665   2.959   1.588  13.430  4.3374 -0.6784 -0.2792
 8677SOL     OW37666   0.722   1.957   6.107  0.4389 -0.0305  0.3540
 8677SOL    HW137667   0.738   2.036   6.056 -0.5248  0.8645  1.4105
 8677SOL    HW237668   0.750   1.882   6.054  2.0471  2.2389 -1.9827
 8678SOL     OW37669   1.500   4.677  17.285 -0.7918 -0.5451 -0.2890
 8678SOL    HW137670   1.529   4.621  17.213  0.1496 -2.6651  1.7400
 8678SOL    HW237671   1.566   4.650  17.348  0.7624  1.3486 -1.1274
 8679SOL     OW37672   4.313   1.687   2.314  0.2630  0.1222  0.6994
 8679SOL    HW137673   4.349   1.701   2.402  1.7095  1.1313 -0.0436
 8679SOL    HW237674   4.330   1.594   2.299  2.5066  0.4728  1.1251
 8680SOL     OW37675   2.842   3.482  13.008  0.0313  0.4423  0.0517
 8680SOL    HW137676   2.812   3.560  13.053 -1.4259 -0.1339  0.1007
 8680SOL    HW237677   2.933   3.482  13.039 -0.2189 -1.5861  0.8085
 8681SOL     OW37678   1.392   3.436   5.764  0.0065 -0.3335  0.0475
 8681SOL    HW137679   1.354   3.405   5.681  0.4762 -0.5314 -0.0915
 8681SOL    HW237680   1.412   3.349   5.798  0.6073 -0.6951 -1.2196
 8682SOL     OW37681   3.868   0.686   5.985  0.4225  0.7875 -0.6366
 8682SOL    HW137682   3.802   0.642   6.039  0.1450  1.1663 -0.6709
 8682SOL    HW237683   3.880   0.768   6.032 -1.1433  1.7801 -2.0156
 8683SOL     OW37684   2.703   0.490  12.736 -0.5514  0.2482  0.8780
 8683SOL    HW137685   2.668   0.511  12.650 -0.2819 -0.5631  0.5785
 8683SOL    HW237686   2.774   0.553  12.748 -0.1090 -0.0792 -0.0342
 8684SOL     OW37687   4.126   3.501   5.262  0.0887  0.6559  0.6685
 8684SOL    HW137688   4.070   3.456   5.198  0.9759 -0.2941  0.5672
 8684SOL    HW237689   4.203   3.512   5.207 -0.5588 -2.3081 -0.8512
 8685SOL     OW37690   0.513   3.305   1.943  0.1653 -0.6934 -0.2883
 8685SOL    HW137691   0.578   3.314   2.012  0.6520  0.3364 -0.8791
 8685SOL    HW237692   0.435   3.297   1.998 -1.6524  2.6802 -2.3804
 8686SOL     OW37693   1.275   2.901   8.869  0.0856  0.5166  0.1744
 8686SOL    HW137694   1.309   2.970   8.926  0.7133  1.0807 -0.8821
 8686SOL    HW237695   1.180   2.899   8.876  0.0985 -0.1857  0.1777
 8687SOL     OW37696   2.337   3.024   7.394  0.0981 -0.5288 -0.0021
 8687SOL    HW137697   2.430   3.027   7.370 -0.1559  1.0973 -0.7937
 8687SOL    HW237698   2.298   3.045   7.310  1.4922 -0.1321 -0.5520
 8688SOL     OW37699   3.938   3.810   3.104 -0.3138 -0.6004  0.2602
 8688SOL    HW137700   3.879   3.797   3.178 -1.0472 -1.4413 -0.4719
 8688SOL    HW237701   3.881   3.789   3.030 -0.1781 -1.6017  0.4355
 8689SOL     OW37702   2.612   0.111   8.321 -0.3747 -0.2000 -0.2614
 8689SOL    HW137703   2.592   0.032   8.370 -1.3639  0.0121 -0.3220
 8689SOL    HW237704   2.529   0.123   8.274  0.7214  2.8148 -1.4328
 8690SOL     OW37705   1.608   1.975   6.534  0.5429  0.6213 -0.1180
 8690SOL    HW137706   1.641   1.998   6.448 -0.2045 -0.3480 -0.6601
 8690SOL    HW237707   1.645   2.044   6.590 -1.8918  0.5667  1.6186
 8691SOL     OW37708   0.731   4.538   5.358  0.2320  0.4459  0.4423
 8691SOL    HW137709   0.668   4.540   5.430 -1.3718 -1.3011 -0.9102
 8691SOL    HW237710   0.805   4.508   5.410  0.6784  1.6370  0.4921
 8692SOL     OW37711   2.841   0.433   3.475 -0.6117  0.1848  0.4746
 8692SOL    HW137712   2.877   0.454   3.389 -0.3942 -1.9766  0.0378
 8692SOL    HW237713   2.749   0.418   3.452 -1.4441  1.1234  3.2229
 8693SOL     OW37714   1.150   2.342  17.466 -1.0615  0.2525 -0.8678
 8693SOL    HW137715   1.083   2.324  17.532 -1.2083  3.2397 -0.1755
 8693SOL    HW237716   1.134   2.436  17.458 -1.5849  0.3191  1.0135
 8694SOL     OW37717   3.146   0.028   6.999 -0.4009 -0.4146  0.0746
 8694SOL    HW137718   3.220   0.086   7.019  0.3207 -1.4367  0.3310
 8694SOL    HW237719   3.075   0.078   7.039 -1.2696 -1.4585 -0.1454
 8695SOL     OW37720   1.542   0.231   8.345 -0.1468  0.6802 -0.7642
 8695SOL    HW137721   1.608   0.179   8.390 -1.1306 -0.5557 -0.7837
 8695SOL    HW237722   1.592   0.288   8.286  1.4244  2.3385  2.1730
 8696SOL     OW37723   4.044   0.440   2.384 -0.7188  0.3946 -0.2615
 8696SOL    HW137724   4.038   0.430   2.479 -1.0687  1.5204 -0.1717
 8696SOL    HW237725   4.059   0.348   2.361 -1.5240  0.6042 -1.6524
 8697SOL     OW37726   1.136   1.656   8.591  0.0279  0.4137  0.4859
 8697SOL    HW137727   1.164   1.738   8.633 -0.6555  0.7097  0.3663
 8697SOL    HW237728   1.218   1.608   8.602 -0.7295 -0.6601  1.3114
 8698SOL     OW37729   3.365   1.838   6.342  0.7071  0.3863  0.2696
 8698SOL    HW137730   3.308   1.820   6.416  3.2304 -2.8334  1.3863
 8698SOL    HW237731   3.375   1.933   6.356 -0.8179  0.3016  1.9129
 8699SOL     OW37732   1.960   1.849   5.604  0.3932  0.2752  0.0983
 8699SOL    HW137733   1.920   1.924   5.648  1.6034  0.7510  0.3795
 8699SOL    HW237734   2.013   1.893   5.538  0.9832  0.5012  0.7216
 8700SOL     OW37735   2.325   3.804   7.847  0.1588 -0.0333  0.5383
 8700SOL    HW137736   2.414   3.820   7.877 -0.1367 -1.1279  1.9943
 8700SOL    HW237737   2.344   3.736   7.782  0.1213 -0.3241  0.8314
 8701SOL     OW37738   3.445   1.847  12.448 -0.1020  0.1691 -0.5075
 8701SOL    HW137739   3.440   1.913  12.518 -2.3690 -1.6682  1.0699
 8701SOL    HW237740   3.425   1.903  12.372 -0.1962  0.4123 -0.3048
 8702SOL     OW37741   2.386   4.707  12.236 -0.5279  0.2352 -0.5385
 8702SOL    HW137742   2.436   4.718  12.155  0.7505 -0.5907  0.1180
 8702SOL    HW237743   2.394   4.615  12.260 -0.6536 -0.1771 -2.1019
 8703SOL     OW37744   0.149   4.269   3.632 -0.4841 -0.0806  0.2608
 8703SOL    HW137745   0.107   4.228   3.707  0.0581 -0.4865  0.3455
 8703SOL    HW237746   0.100   4.350   3.624 -0.3661 -0.0479 -0.1198
 8704SOL     OW37747   0.521   4.723   5.213  0.5525  0.2949 -0.2652
 8704SOL    HW137748   0.542   4.646   5.265 -2.0992 -0.3609 -0.1745
 8704SOL    HW237749   0.447   4.687   5.164  0.3848  0.0717  0.1592
 8705SOL     OW37750   0.259   2.870  12.803 -0.1711 -0.5703  0.0802
 8705SOL    HW137751   0.200   2.846  12.875  0.6348 -2.5575  0.0855
 8705SOL    HW237752   0.294   2.954  12.831 -1.1839 -0.4476  0.9857
 8706SOL     OW37753   3.508   1.804   8.705 -0.1371  0.2263  0.2667
 8706SOL    HW137754   3.432   1.821   8.760 -1.2022  1.3069 -1.5195
 8706SOL    HW237755   3.549   1.885   8.676  0.6438 -0.0415  0.6183
 8707SOL     OW37756   1.237   0.835   6.230  0.2577 -0.7089  0.7475
 8707SOL    HW137757   1.300   0.827   6.158 -2.1728 -0.5331 -1.4214
 8707SOL    HW237758   1.162   0.856   6.174  1.8584  0.8488 -0.8041
 8708SOL     OW37759   2.859   3.688   4.984 -0.5614 -0.0105 -0.0022
 8708SOL    HW137760   2.869   3.640   5.066  1.3932  0.0404 -0.2092
 8708SOL    HW237761   2.899   3.623   4.927 -0.7517  0.1565 -0.3245
 8709SOL     OW37762   2.577   1.804  16.139 -0.2833  0.0573 -0.5518
 8709SOL    HW137763   2.547   1.788  16.229  2.4631  0.0728  0.3611
 8709SOL    HW237764   2.639   1.877  16.148 -0.0919 -0.1820  0.1030
 8710SOL     OW37765   2.494   2.736   9.262  0.1455 -0.6902 -0.2229
 8710SOL    HW137766   2.480   2.796   9.189 -1.4439  0.1477  0.7583
 8710SOL    HW237767   2.427   2.760   9.327 -0.9313 -1.0865 -1.1754
 8711SOL     OW37768   1.129   0.558   7.710  0.5064 -0.7556  0.5505
 8711SOL    HW137769   1.035   0.549   7.726  0.6467 -0.0072  1.8065
 8711SOL    HW237770   1.160   0.496   7.776 -1.2939 -3.0486 -0.7553
 8712SOL     OW37771   3.000   4.687   5.691  0.1865  0.4373 -0.3385
 8712SOL    HW137772   3.047   4.703   5.772  2.3730  0.1019 -1.5502
 8712SOL    HW237773   2.928   4.632   5.724  0.0786  1.4793  1.1320
 8713SOL     OW37774   0.213   1.253   7.707  0.4073  0.1741 -0.1406
 8713SOL    HW137775   0.197   1.221   7.619  0.5666  0.6455 -0.3376
 8713SOL    HW237776   0.308   1.267   7.705  0.2389  1.0299 -1.7800
 8714SOL     OW37777   1.508   1.425   3.456 -0.1841 -0.5517  0.5043
 8714SOL    HW137778   1.491   1.345   3.505  0.6596 -1.6108 -0.9498
 8714SOL    HW237779   1.419   1.460   3.456 -0.1699 -0.5102 -0.5532
 8715SOL     OW37780   0.947   2.389   3.971  0.4780  0.0036 -0.3527
 8715SOL    HW137781   0.891   2.340   4.031  2.1726 -1.4528  0.0430
 8715SOL    HW237782   0.914   2.478   3.983  0.3663 -0.5048  3.1640
 8716SOL     OW37783   1.790   0.770   2.441  0.2725 -0.6398 -0.2032
 8716SOL    HW137784   1.857   0.703   2.428  1.3798  0.2819  0.8396
 8716SOL    HW237785   1.747   0.763   2.355 -0.9658  1.1987  0.2564
 8717SOL     OW37786   0.679   0.597   1.433  0.2771  0.4919  0.2718
 8717SOL    HW137787   0.701   0.687   1.457  0.3640  0.4767  0.2501
 8717SOL    HW237788   0.623   0.610   1.356  4.1191 -1.4075 -2.8895
 8718SOL     OW37789   2.608   2.113   3.562  0.1229  0.2289 -0.1891
 8718SOL    HW137790   2.570   2.025   3.552  0.2199 -0.1271  2.7069
 8718SOL    HW237791   2.529   2.161   3.585 -0.1303  0.4607 -1.5050
 8719SOL     OW37792   3.659   1.594  12.638 -0.1054  0.4914 -0.3832
 8719SOL    HW137793   3.721   1.658  12.603 -1.7248  1.8414 -0.7777
 8719SOL    HW237794   3.681   1.603  12.731  1.5777  0.7188 -0.8104
 8720SOL     OW37795   3.769   2.199   3.854  0.4670 -0.2430 -0.2946
 8720SOL    HW137796   3.824   2.251   3.795  0.0199  1.0344  0.4179
 8720SOL    HW237797   3.807   2.114   3.831 -0.6957 -0.2483 -2.2063
 8721SOL     OW37798   3.350   3.056  12.336 -0.0028 -0.0921  0.2166
 8721SOL    HW137799   3.259   3.041  12.363  0.2687  0.7225  1.5969
 8721SOL    HW237800   3.329   3.120  12.267  0.1858  0.6065  0.8048
 8722SOL     OW37801   2.294   3.301  11.694 -0.6658 -0.0128 -0.4970
 8722SOL    HW137802   2.203   3.318  11.718  0.5088  3.0955  1.7295
 8722SOL    HW237803   2.347   3.349  11.758 -1.8490 -2.0111  1.9719
 8723SOL     OW37804   2.843   1.701   7.816  0.4179  0.1522 -0.3091
 8723SOL    HW137805   2.868   1.749   7.895 -1.9486  1.5234 -0.3916
 8723SOL    HW237806   2.818   1.614   7.846  0.1207  0.4658  0.3506
 8724SOL     OW37807   0.218   3.741  15.581 -0.1994 -0.0130 -0.0321
 8724SOL    HW137808   0.165   3.678  15.631  2.5890 -2.2134  0.2090
 8724SOL    HW237809   0.277   3.775  15.649  0.8737 -1.1103 -0.4119
 8725SOL     OW37810   0.247   0.302   2.999  0.0071  0.2138 -0.0578
 8725SOL    HW137811   0.221   0.211   3.014  1.5435 -0.2809 -0.3549
 8725SOL    HW237812   0.222   0.317   2.908 -3.2215 -2.7520  0.3666
 8726SOL     OW37813   1.748   1.140   8.545  0.0539  0.0294 -0.2007
 8726SOL    HW137814   1.788   1.060   8.512 -2.2344 -0.6199 -1.4156
 8726SOL    HW237815   1.721   1.113   8.633 -1.0845  1.3759 -0.1416
 8727SOL     OW37816   2.265   4.068  12.170 -0.2957  0.2235 -0.4018
 8727SOL    HW137817   2.266   4.056  12.075  1.0872  0.0097 -0.3595
 8727SOL    HW237818   2.359   4.059  12.187 -0.0838  2.7520 -0.3505
 8728SOL     OW37819   3.795   3.821   1.312  0.4241  0.2734 -0.5860
 8728SOL    HW137820   3.699   3.823   1.308  0.3684  0.0356  0.7322
 8728SOL    HW237821   3.813   3.754   1.246 -0.9335  1.4107 -2.1199
 8729SOL     OW37822   3.221   1.284   3.693  0.0529  0.0448  0.3137
 8729SOL    HW137823   3.299   1.331   3.722  0.1485 -0.0936  0.2771
 8729SOL    HW237824   3.264   1.239   3.620 -1.5887 -1.7142  0.4555
 8730SOL     OW37825   1.672   4.258   8.090 -0.1648  0.2679 -0.3412
 8730SOL    HW137826   1.654   4.257   8.184  1.9242 -1.7083  0.0617
 8730SOL    HW237827   1.739   4.326   8.094 -0.9831  0.8465  2.9972
 8731SOL     OW37828   0.667   3.813  16.816  0.7185  0.4827  0.4495
 8731SOL    HW137829   0.597   3.825  16.881  0.3008 -0.0104  0.0901
 8731SOL    HW237830   0.622   3.793  16.734  0.2850  0.4769  0.6841
 8732SOL     OW37831   2.129   4.133  12.398 -0.7125 -0.3728 -0.5042
 8732SOL    HW137832   2.186   4.107  12.325  0.1021 -1.3053  0.4564
 8732SOL    HW237833   2.045   4.096  12.368 -0.9226 -1.7609  1.8173
 8733SOL     OW37834   4.044   2.970   4.322 -0.0539 -0.4167 -0.2739
 8733SOL    HW137835   3.963   2.950   4.370  0.5377 -1.3128  0.3438
 8733SOL    HW237836   4.052   2.887   4.276 -0.3235 -0.3749 -0.3960
 8734SOL     OW37837   2.608   1.446   1.666  0.1653 -0.5924  0.1805
 8734SOL    HW137838   2.541   1.500   1.709  0.2422  0.4499 -1.0180
 8734SOL    HW237839   2.635   1.397   1.743  1.1817 -1.1004 -0.5095
 8735SOL     OW37840   4.156   0.576   4.962  0.1346  0.2286  0.5072
 8735SOL    HW137841   4.074   0.595   4.916  1.1507  0.3746 -1.2031
 8735SOL    HW237842   4.204   0.648   4.922 -1.4071  1.0351  0.1001
 8736SOL     OW37843   2.799   2.271   8.957  0.6124  0.1851  0.2011
 8736SOL    HW137844   2.843   2.287   8.874  0.9806  1.7816  0.7185
 8736SOL    HW237845   2.814   2.353   9.003  1.0346  0.8449 -1.1242
 8737SOL     OW37846   1.111   1.151   2.681  0.0596  0.5169 -0.3186
 8737SOL    HW137847   1.067   1.193   2.755  0.6371  1.9769 -0.7891
 8737SOL    HW237848   1.101   1.060   2.707 -1.7028  0.9150  0.4539
 8738SOL     OW37849   1.216   2.253   8.760  0.5780 -0.0161  0.9744
 8738SOL    HW137850   1.278   2.242   8.832  0.5841  0.3020  1.0171
 8738SOL    HW237851   1.132   2.266   8.805  0.0144 -0.9796  0.2032
 8739SOL     OW37852   0.783   1.483  11.070  0.1548  0.3831 -0.2580
 8739SOL    HW137853   0.812   1.444  11.152  1.0837 -2.3316 -1.8641
 8739SOL    HW237854   0.771   1.575  11.095 -0.0567  0.4150 -0.4797
 8740SOL     OW37855   2.257   1.881  16.367 -0.4241 -0.0658 -0.1952
 8740SOL    HW137856   2.207   1.831  16.303  1.0244 -1.3063 -0.3411
 8740SOL    HW237857   2.333   1.824  16.378 -0.0935  0.1679 -1.3377
 8741SOL     OW37858   3.161   3.792   6.773  0.3239 -0.3221 -0.3336
 8741SOL    HW137859   3.221   3.728   6.810 -0.3357  0.3515  1.9215
 8741SOL    HW237860   3.217   3.853   6.725  1.2518 -2.3751 -1.8298
 8742SOL     OW37861   0.555   3.216   9.223 -0.1645 -0.1025 -0.5615
 8742SOL    HW137862   0.596   3.278   9.162  0.2602 -0.5942 -0.7711
 8742SOL    HW237863   0.487   3.277   9.253 -0.0356 -0.2408  0.0081
 8743SOL     OW37864   0.017   3.981   7.133  0.2463 -0.0428  0.2308
 8743SOL    HW137865   0.031   3.934   7.215 -0.5617  1.2662  1.1348
 8743SOL    HW237866   4.735   3.897   7.092  0.1667  0.1540 -0.1419
 8744SOL     OW37867   4.237   3.163   4.249  0.5783 -0.0050  0.1312
 8744SOL    HW137868   4.180   3.239   4.233 -0.1501 -1.0685 -2.3241
 8744SOL    HW237869   4.163   3.107   4.273  1.6104 -0.4425  2.2843
 8745SOL     OW37870   1.478   2.920  12.497 -0.3859  0.0745 -0.7335
 8745SOL    HW137871   1.518   2.898  12.581 -0.4534 -0.7750 -0.9235
 8745SOL    HW237872   1.383   2.922  12.510 -0.3964 -1.4905 -0.5913
 8746SOL     OW37873   4.061   4.667   6.097 -0.6894  1.0189 -0.5372
 8746SOL    HW137874   4.132   4.680   6.159 -2.2919  2.0687  1.0753
 8746SOL    HW237875   4.019   4.587   6.131  1.7443 -0.9830 -2.2578
 8747SOL     OW37876   2.269   3.017   3.436  0.1764  0.1318 -0.3483
 8747SOL    HW137877   2.213   3.092   3.413 -2.6567 -0.9884  2.8226
 8747SOL    HW237878   2.227   2.945   3.389 -2.8011  2.8527 -1.8778
 8748SOL     OW37879   1.339   1.043   3.882 -0.1861 -0.3041  0.9822
 8748SOL    HW137880   1.374   1.083   3.801 -0.8656 -1.4436  0.1284
 8748SOL    HW237881   1.310   0.956   3.857 -0.1497 -0.4323  1.3936
 8749SOL     OW37882   1.177   0.173   5.798 -0.3510  0.0870 -0.9195
 8749SOL    HW137883   1.086   0.156   5.773 -0.6907  0.9570 -0.2780
 8749SOL    HW237884   1.183   0.250   5.742 -0.4382  0.5699 -0.2539
 8750SOL     OW37885   0.567   0.212   5.934  0.1243  0.0223 -0.1547
 8750SOL    HW137886   0.556   0.255   6.019  1.6083  0.1835 -0.0356
 8750SOL    HW237887   0.476   0.206   5.906 -0.0608 -1.6874  0.8538
 8751SOL     OW37888   1.121   3.295   0.134  0.2343 -0.2092 -0.1415
 8751SOL    HW137889   1.168   3.378   0.129  1.8086 -1.2092 -2.0107
 8751SOL    HW237890   1.091   3.286   0.043 -1.0267 -0.6799  0.3265
 8752SOL     OW37891   3.644   3.819   2.554 -0.0075 -0.4298  0.1080
 8752SOL    HW137892   3.598   3.799   2.472 -3.6898  3.5357  1.1490
 8752SOL    HW237893   3.726   3.773   2.538  1.0411  0.2315  3.5951
 8753SOL     OW37894   3.150   1.420   5.624  0.6922  0.3157  0.2093
 8753SOL    HW137895   3.245   1.422   5.626  0.6917  1.2198 -0.5249
 8753SOL    HW237896   3.124   1.452   5.710  0.2724 -0.4031  0.3529
 8754SOL     OW37897   4.655   2.021   4.292  0.1689  0.3512 -0.3747
 8754SOL    HW137898   4.677   1.950   4.352 -0.8611  1.1862  1.0044
 8754SOL    HW237899   4.688   2.091   4.348 -0.6790  0.5556 -0.1347
 8755SOL     OW37900   0.992   2.834   2.992 -0.6308 -0.1790 -0.1426
 8755SOL    HW137901   0.908   2.877   3.011 -1.2917 -1.0913 -0.9949
 8755SOL    HW237902   1.032   2.897   2.932  0.5945  0.2607  1.1361
 8756SOL     OW37903   3.959   1.732  13.808 -0.2305 -0.1662  0.1809
 8756SOL    HW137904   4.047   1.696  13.818  0.0040  1.0271  2.4052
 8756SOL    HW237905   3.945   1.776  13.892  1.5715 -1.0778  0.9612
 8757SOL     OW37906   1.990   1.352  16.564 -0.0203  0.2113  0.2292
 8757SOL    HW137907   1.988   1.360  16.469  0.9263  0.0462  0.1956
 8757SOL    HW237908   1.931   1.278  16.576  0.9614 -0.4075  1.2184
 8758SOL     OW37909   1.125   2.660   7.929  0.5696 -0.2068 -0.0598
 8758SOL    HW137910   1.049   2.615   7.893 -0.6340  0.6299  1.4172
 8758SOL    HW237911   1.170   2.589   7.973  0.7453  1.4652  2.4528
 8759SOL     OW37912   3.314   2.829   9.777  0.2137 -0.2107 -0.0640
 8759SOL    HW137913   3.241   2.885   9.803 -0.9323 -1.6472 -0.1892
 8759SOL    HW237914   3.389   2.888   9.780 -0.8871  1.0732  1.8775
 8760SOL     OW37915   1.210   4.062   6.545 -0.0227  0.1380 -0.1322
 8760SOL    HW137916   1.281   4.005   6.515  1.1464  1.8657 -0.6044
 8760SOL    HW237917   1.205   4.115   6.465  1.4557  2.5113  1.3613
 8761SOL     OW37918   2.154   3.587   5.398  0.6285  0.0357 -0.4821
 8761SOL    HW137919   2.217   3.602   5.469  0.5549 -2.5326  0.1195
 8761SOL    HW237920   2.159   3.671   5.353 -1.9540  0.4219 -0.0432
 8762SOL     OW37921   2.783   1.531   6.738 -1.2269 -0.4342 -0.1266
 8762SOL    HW137922   2.724   1.472   6.691 -0.0894 -2.1398  0.5903
 8762SOL    HW237923   2.829   1.573   6.665  0.4289  0.2845  1.3609
 8763SOL     OW37924   4.141   4.449   5.809 -0.1569  0.1732  0.2326
 8763SOL    HW137925   4.127   4.400   5.889 -2.6455 -1.8146 -1.4276
 8763SOL    HW237926   4.087   4.528   5.820  1.8955  1.2291  2.6655
 8764SOL     OW37927   4.544   3.944  12.891 -1.0932  0.1131  0.2443
 8764SOL    HW137928   4.529   3.856  12.857 -1.2113 -0.0283  0.6657
 8764SOL    HW237929   4.477   3.996  12.847 -0.9695 -0.9854 -1.2341
 8765SOL     OW37930   2.494   1.846   9.025 -0.3692 -0.0060  0.3928
 8765SOL    HW137931   2.564   1.911   9.018 -0.9747  0.5095 -0.7576
 8765SOL    HW237932   2.539   1.778   9.075  1.5900  1.3276  0.4539
 8766SOL     OW37933   1.072   1.753   2.990  0.4948  0.0804 -0.0217
 8766SOL    HW137934   1.004   1.688   3.007  0.6992  0.0512  0.6647
 8766SOL    HW237935   1.038   1.822   3.047  0.1745  0.5660 -0.7898
 8767SOL     OW37936   0.460   1.329  16.905 -0.3304 -0.0546 -0.0067
 8767SOL    HW137937   0.503   1.301  16.986 -1.9139  1.2825  1.2977
 8767SOL    HW237938   0.496   1.418  16.900  2.6072 -1.4160 -3.3835
 8768SOL     OW37939   2.617   1.144   6.063 -0.2882  0.4106  0.5042
 8768SOL    HW137940   2.650   1.190   5.985 -0.3515 -0.9351 -0.3291
 8768SOL    HW237941   2.525   1.169   6.069 -0.2236  0.4400  1.3661
 8769SOL     OW37942   0.543   4.056   4.090  0.2876 -0.2320  0.4583
 8769SOL    HW137943   0.516   4.141   4.056 -0.2691 -0.6482 -0.1291
 8769SOL    HW237944   0.608   4.069   4.160  0.5877  0.5906  0.0306
 8770SOL     OW37945   3.776   0.169   2.997  0.2440 -0.5344 -0.0629
 8770SOL    HW137946   3.685   0.174   2.967 -0.3742 -0.3518  1.8748
 8770SOL    HW237947   3.774   0.152   3.091  0.2114 -0.3555 -0.0323
 8771SOL     OW37948   1.636   1.122   7.733 -0.2881  0.2868  0.0249
 8771SOL    HW137949   1.713   1.065   7.737 -0.5672  0.0114  1.5395
 8771SOL    HW237950   1.570   1.054   7.747 -0.4196  0.2607 -0.7009
 8772SOL     OW37951   0.929   0.132  15.392 -0.3288 -0.5187 -0.0000
 8772SOL    HW137952   0.853   0.190  15.387  0.6937  0.8758  0.4422
 8772SOL    HW237953   0.970   0.155  15.309  1.7636  0.9026  1.4138
 8773SOL     OW37954   3.141   2.137   7.592 -0.5442  0.1817 -0.2456
 8773SOL    HW137955   3.203   2.090   7.647  0.4538  0.1438 -1.3856
 8773SOL    HW237956   3.103   2.059   7.551  1.3550 -1.3449  0.9159
 8774SOL     OW37957   3.162   1.628   3.990  0.5530 -0.0609  0.0064
 8774SOL    HW137958   3.204   1.654   3.909  1.5132  0.6470  0.7335
 8774SOL    HW237959   3.199   1.541   4.007  1.0646 -0.0744 -1.2055
 8775SOL     OW37960   1.157   2.659   2.601 -0.0928  0.2559  0.3046
 8775SOL    HW137961   1.128   2.651   2.692  0.2119  0.6906  0.4411
 8775SOL    HW237962   1.178   2.566   2.589 -0.9884  0.4416 -2.6720
 8776SOL     OW37963   2.206   4.469   2.872 -0.3959 -0.2030 -0.6952
 8776SOL    HW137964   2.209   4.496   2.780  0.7130  1.0020 -0.2978
 8776SOL    HW237965   2.126   4.509   2.904  1.3748  3.3239 -0.7183
 8777SOL     OW37966   0.831   2.472   4.953  0.1650 -0.2493 -0.0053
 8777SOL    HW137967   0.744   2.487   4.988  0.6099  1.4680  0.3712
 8777SOL    HW237968   0.877   2.411   5.011 -0.1841 -0.9068 -0.4228
 8778SOL     OW37969   1.582   1.805   7.741 -0.5201  0.3142  0.6535
 8778SOL    HW137970   1.601   1.759   7.659 -0.2359 -0.5636  1.2076
 8778SOL    HW237971   1.625   1.887   7.720 -0.5255  0.4924  1.3459
 8779SOL     OW37972   4.007   0.786  11.717  0.4141  0.0126  0.2194
 8779SOL    HW137973   3.926   0.761  11.761  1.0760 -0.7213  1.0281
 8779SOL    HW237974   4.074   0.739  11.768 -1.3934 -0.9200  1.7141
 8780SOL     OW37975   0.589   4.551   0.417 -0.2599 -0.5252  0.7594
 8780SOL    HW137976   0.522   4.613   0.388  0.4235  0.2418  0.8232
 8780SOL    HW237977   0.662   4.572   0.359  0.3421  0.0207  1.7120
 8781SOL     OW37978   2.865   3.564  15.657  0.2071  0.2587 -0.1142
 8781SOL    HW137979   2.770   3.553  15.656  0.1379  0.8796  0.0661
 8781SOL    HW237980   2.889   3.521  15.740 -1.0899  2.6103  1.4824
 8782SOL     OW37981   3.445   0.436   7.148 -0.0330 -0.3465 -0.5637
 8782SOL    HW137982   3.455   0.496   7.223 -2.0335  2.0778 -2.2300
 8782SOL    HW237983   3.417   0.503   7.086  1.3273  1.7124  1.0020
 8783SOL     OW37984   3.247   3.993   2.498 -0.4012 -0.0783 -0.2912
 8783SOL    HW137985   3.208   4.066   2.450  1.0680  1.5374  0.9732
 8783SOL    HW237986   3.192   4.007   2.575  0.2514 -1.7032  0.4592
 8784SOL     OW37987   2.199   3.164   1.006  0.8340 -0.5989  0.6774
 8784SOL    HW137988   2.120   3.174   0.954  0.9610 -2.6305  0.1027
 8784SOL    HW237989   2.154   3.148   1.089  1.6863  2.0583  1.6726
 8785SOL     OW37990   2.355   2.222   3.894 -0.2664  0.0349  0.2285
 8785SOL    HW137991   2.304   2.193   3.969  0.8753  3.0228  2.1714
 8785SOL    HW237992   2.428   2.260   3.942  0.6740 -0.4712 -0.8143
 8786SOL     OW37993   2.573   3.041   8.649  0.2059 -0.4792  0.2896
 8786SOL    HW137994   2.598   3.091   8.571  3.2676 -0.3715  1.3274
 8786SOL    HW237995   2.478   3.034   8.641  0.2835 -2.2524  0.8549
 8787SOL     OW37996   4.027   4.061  15.877  0.7514  0.3927 -0.4610
 8787SOL    HW137997   4.005   4.153  15.884  0.7668  0.3484  0.2006
 8787SOL    HW237998   4.074   4.053  15.960  0.1779  0.6796 -0.1168
 8788SOL     OW37999   1.455   0.980   2.947 -0.3196 -0.3127 -0.3971
 8788SOL    HW138000   1.525   1.003   3.008  1.2010  1.3766 -2.7786
 8788SOL    HW238001   1.394   0.940   3.009 -1.6041 -0.5550 -1.8148
 8789SOL     OW38002   0.738   2.828   8.705 -0.0746  0.0204  0.3620
 8789SOL    HW138003   0.779   2.748   8.671 -0.7311  0.0774 -0.5597
 8789SOL    HW238004   0.768   2.816   8.795 -1.7479 -0.6901  0.8342
 8790SOL     OW38005   2.663   0.253  11.557 -0.2632 -0.0734  0.2833
 8790SOL    HW138006   2.604   0.300  11.498  0.4762 -2.9236 -2.7125
 8790SOL    HW238007   2.697   0.313  11.623  0.1260  0.2636 -0.2328
 8791SOL     OW38008   0.887   2.105   2.203  0.1092  0.0490  0.3119
 8791SOL    HW138009   0.839   2.187   2.216 -0.5031 -0.0965 -1.0047
 8791SOL    HW238010   0.899   2.073   2.292 -1.6657  2.4213  1.3966
 8792SOL     OW38011   3.907   4.444  10.434  0.1188  0.3470 -0.6204
 8792SOL    HW138012   3.853   4.485  10.501  0.4318 -0.9312  0.4094
 8792SOL    HW238013   3.873   4.355  10.444  0.9829  0.3271  2.2445
 8793SOL     OW38014   2.644   1.943  12.560 -0.2285 -0.2697  0.5070
 8793SOL    HW138015   2.736   1.955  12.536 -1.1253  2.5590 -1.6310
 8793SOL    HW238016   2.634   1.949  12.655  0.3132  1.9208  0.4469
 8794SOL     OW38017   3.007   3.206   5.247  0.0330 -0.1229  0.6083
 8794SOL    HW138018   2.997   3.215   5.152  2.7052 -3.5849 -0.0109
 8794SOL    HW238019   3.102   3.214   5.251 -0.0346  0.2308  1.5359
 8795SOL     OW38020   1.676   4.591   2.437  0.3345 -0.6074  0.6035
 8795SOL    HW138021   1.677   4.686   2.447 -3.7430 -0.3866 -0.9820
 8795SOL    HW238022   1.682   4.593   2.342 -0.1588 -1.5366  0.5489
 8796SOL     OW38023   2.582   1.030   2.812  0.0263  0.1492  0.0172
 8796SOL    HW138024   2.554   1.024   2.721  0.0163  1.0896 -0.0340
 8796SOL    HW238025   2.673   1.058   2.808  0.8203 -2.3212  0.3449
 8797SOL     OW38026   1.507   1.452   2.977 -0.7621 -0.0577 -0.4954
 8797SOL    HW138027   1.460   1.402   3.044 -1.2190  0.2502 -0.5832
 8797SOL    HW238028   1.532   1.532   3.024  2.7272 -1.7404  0.5304
 8798SOL     OW38029   3.795   3.175  11.964  0.3898  0.1045  0.5369
 8798SOL    HW138030   3.842   3.242  11.915  1.2848  0.2479  1.5852
 8798SOL    HW238031   3.801   3.215  12.051  0.0635  0.6141  0.3242
 8799SOL     OW38032   2.656   2.623   6.684 -0.1465 -0.1429  0.1790
 8799SOL    HW138033   2.709   2.579   6.751  0.6840  0.7021  0.0711
 8799SOL    HW238034   2.725   2.677   6.647  0.1625  1.0612  2.5434
 8800SOL     OW38035   1.051   4.275  12.363  0.2928 -0.1490  0.3860
 8800SOL    HW138036   0.978   4.326  12.398  0.8947  0.0379  1.3768
 8800SOL    HW238037   1.072   4.321  12.282 -1.2008  0.3620  0.2910
 8801SOL     OW38038   3.396   1.820   8.177 -0.4408 -0.1382 -0.7416
 8801SOL    HW138039   3.369   1.728   8.182  2.4455 -0.9765 -0.6253
 8801SOL    HW238040   3.391   1.834   8.271 -0.7112 -0.2075 -0.7439
 8802SOL     OW38041   0.731   1.721   7.967 -0.4174  0.5928 -0.6876
 8802SOL    HW138042   0.759   1.764   8.048 -0.7099 -0.2696 -0.1290
 8802SOL    HW238043   0.748   1.628   7.978  1.1401  0.8087 -1.3552
 8803SOL     OW38044   2.540   1.754   4.858 -0.1243 -0.5231  0.4068
 8803SOL    HW138045   2.546   1.665   4.823 -0.9020  0.4407 -2.1786
 8803SOL    HW238046   2.524   1.796   4.774  0.3097 -0.9093  0.1327
 8804SOL     OW38047   2.155   2.783   6.285  0.1072  0.0337  0.5300
 8804SOL    HW138048   2.207   2.727   6.342 -1.7606 -2.0112  0.2412
 8804SOL    HW238049   2.112   2.834   6.353 -0.3257 -0.0639  0.3295
 8805SOL     OW38050   0.758   1.691  12.512 -0.2518 -0.1507  0.3845
 8805SOL    HW138051   0.683   1.653  12.557  1.2763  0.2527  3.2830
 8805SOL    HW238052   0.823   1.678  12.581 -1.6622 -0.5430  1.6393
 8806SOL     OW38053   3.038   2.756  16.093  0.2582  0.8267 -1.0515
 8806SOL    HW138054   3.079   2.843  16.100 -0.3473  0.6849  4.0359
 8806SOL    HW238055   2.962   2.769  16.036  1.3851  1.6058 -2.3778
 8807SOL     OW38056   4.305   0.852   2.910  0.1489 -0.5559 -0.2926
 8807SOL    HW138057   4.227   0.893   2.945  0.3266 -2.0277  1.8343
 8807SOL    HW238058   4.360   0.817   2.981 -0.5137  0.7923  0.8826
 8808SOL     OW38059   3.358   3.536  12.150  0.2763 -0.0179 -0.0177
 8808SOL    HW138060   3.443   3.493  12.141 -0.4459 -1.6487  0.9650
 8808SOL    HW238061   3.329   3.562  12.062  0.9537  2.2405  0.4380
 8809SOL     OW38062   2.896   0.006  16.862 -0.3966 -0.6073 -0.3475
 8809SOL    HW138063   2.819   0.014  16.918 -0.5267 -2.2781 -0.2837
 8809SOL    HW238064   2.898   4.647  16.843  0.6840 -0.7390  0.3655
 8810SOL     OW38065   2.938   3.760  15.308  0.1011 -0.2184  0.1682
 8810SOL    HW138066   2.957   3.777  15.401  1.6456  1.4742 -0.4650
 8810SOL    HW238067   2.923   3.667  15.320 -0.4424 -0.2204 -0.5658
 8811SOL     OW38068   3.048   3.110  14.129 -0.0691 -0.1161 -0.4291
 8811SOL    HW138069   3.008   3.155  14.204 -0.4108 -0.5815 -0.3261
 8811SOL    HW238070   3.127   3.162  14.113 -1.9333  3.2265  1.0701
 8812SOL     OW38071   2.626   4.649  13.488  0.1910 -0.3345  0.6495
 8812SOL    HW138072   2.576   4.583  13.536 -0.1875 -1.1190 -0.7837
 8812SOL    HW238073   2.555   4.712  13.475  0.4123  0.5083  3.7036
 8813SOL     OW38074   2.020   2.150  16.878 -0.5286 -0.0771 -0.0718
 8813SOL    HW138075   2.076   2.228  16.883 -0.8526 -0.1564  4.1618
 8813SOL    HW238076   2.015   2.135  16.783 -0.5549 -0.1822 -0.0529
 8814SOL     OW38077   3.345   2.067   3.214 -0.2476 -0.5408 -0.2705
 8814SOL    HW138078   3.394   1.993   3.251  1.6618  1.5097  1.3228
 8814SOL    HW238079   3.278   2.011   3.173 -0.3799 -1.1039  0.7200
 8815SOL     OW38080   3.949   1.044  16.780  0.2930 -0.3798 -0.3654
 8815SOL    HW138081   4.039   1.051  16.747 -0.2059  2.9463 -0.9849
 8815SOL    HW238082   3.961   0.975  16.846 -0.2776 -1.8397 -1.8006
 8816SOL     OW38083   1.437   2.954   1.508  0.5058 -0.1208  0.4711
 8816SOL    HW138084   1.462   2.861   1.506  0.6547 -0.0408 -1.0081
 8816SOL    HW238085   1.374   2.963   1.437 -0.6936  0.6932  1.6395
 8817SOL     OW38086   0.047   2.727   3.582 -0.0063 -0.0912  0.2499
 8817SOL    HW138087   0.046   2.734   3.486  0.8685 -3.8430 -0.0475
 8817SOL    HW238088   0.110   2.656   3.597  0.5337  0.4822  0.6637
 8818SOL     OW38089   4.291   0.068   3.213  0.4648  0.6307 -0.0083
 8818SOL    HW138090   4.355   0.051   3.145  0.3848  0.6767 -0.0964
 8818SOL    HW238091   4.295   0.164   3.210 -0.2931  0.6637 -0.0929
 8819SOL     OW38092   1.502   2.652   8.301 -0.2875  0.2822 -0.0244
 8819SOL    HW138093   1.523   2.675   8.210 -1.9980  0.1748 -0.4487
 8819SOL    HW238094   1.468   2.734   8.337  0.7015  0.7354 -0.1240
 8820SOL     OW38095   3.602   1.903  13.045  0.5959  0.6525  0.2593
 8820SOL    HW138096   3.524   1.851  13.027  0.2978  0.7731  1.2332
 8820SOL    HW238097   3.656   1.878  12.970 -0.7138 -2.9652  0.5466
 8821SOL     OW38098   4.673   1.370  12.238 -0.8841 -0.1117 -0.6819
 8821SOL    HW138099   0.000   1.353  12.168  1.0582 -0.0692  1.0582
 8821SOL    HW238100   4.656   1.281  12.269 -0.3500  0.2860  0.7154
 8822SOL     OW38101   3.020   1.887  10.306 -0.1446 -0.1917 -0.3946
 8822SOL    HW138102   3.092   1.825  10.303 -0.8668 -1.1427  1.6513
 8822SOL    HW238103   3.013   1.892  10.402 -0.7281 -2.3812 -0.3305
 8823SOL     OW38104   1.644   0.053  14.758  0.1960  0.2034 -0.1657
 8823SOL    HW138105   1.677   0.106  14.686 -2.3376  2.0576  0.0367
 8823SOL    HW238106   1.715   0.063  14.821  0.5625  0.3045 -0.5930
 8824SOL     OW38107   2.747   1.625   9.518 -0.3445  0.1019 -0.3781
 8824SOL    HW138108   2.805   1.693   9.483 -1.4650  1.0773 -0.3366
 8824SOL    HW238109   2.779   1.555   9.462  3.0990  0.5121  1.0815
 8825SOL     OW38110   2.409   1.716   0.167 -0.3152 -0.4778 -0.1612
 8825SOL    HW138111   2.470   1.649   0.135 -0.0715 -0.8240  1.0254
 8825SOL    HW238112   2.456   1.797   0.145  0.3440 -1.0433 -0.8372
 8826SOL     OW38113   0.551   0.756   4.194 -0.5592  0.2691  0.2133
 8826SOL    HW138114   0.630   0.726   4.239 -2.2542 -0.4851  2.6688
 8826SOL    HW238115   0.575   0.842   4.159 -0.1604  0.2956  0.5522
 8827SOL     OW38116   4.566   3.482  12.827 -0.5382 -0.2793  0.1928
 8827SOL    HW138117   4.623   3.479  12.750 -0.1511  1.1924  0.4282
 8827SOL    HW238118   4.585   3.401  12.874 -0.5036 -0.5784 -0.3410
 8828SOL     OW38119   2.077   0.265  16.609  0.1748  0.0589 -0.2787
 8828SOL    HW138120   2.084   0.298  16.699 -0.4267 -1.5606  0.3678
 8828SOL    HW238121   2.004   0.205  16.627  0.5151 -0.4048 -0.4654
 8829SOL     OW38122   2.150   3.947   7.491 -0.1706 -0.5934 -0.1117
 8829SOL    HW138123   2.084   3.882   7.516 -0.3246 -1.0406 -1.6156
 8829SOL    HW238124   2.187   3.898   7.416  0.8000  2.0516 -1.3546
 8830SOL     OW38125   4.078   2.504   7.576  0.0756 -0.0947 -0.5431
 8830SOL    HW138126   4.073   2.491   7.670  0.3656  2.0643 -0.2198
 8830SOL    HW238127   4.142   2.443   7.539 -0.6751 -0.9793 -0.3493
 8831SOL     OW38128   2.529   3.716   8.504  0.4105  0.8598  0.5552
 8831SOL    HW138129   2.547   3.765   8.584  1.8263  0.5310  0.4427
 8831SOL    HW238130   2.543   3.624   8.525  0.0717  0.8259  0.6269
 8832SOL     OW38131   0.221   0.734   6.840 -0.5197  0.5930  0.0834
 8832SOL    HW138132   0.258   0.680   6.909  2.5304  1.4673 -0.8574
 8832SOL    HW238133   0.127   0.736   6.856 -0.6770 -1.0770 -0.6693
 8833SOL     OW38134   4.483   1.045   4.933 -0.1662  0.3554  0.0181
 8833SOL    HW138135   4.391   1.021   4.944  0.1995 -2.0240 -2.3511
 8833SOL    HW238136   4.523   0.963   4.959  0.4221  1.2164  1.8405
 8834SOL     OW38137   3.749   2.940  15.246  0.0914  0.0808  0.8160
 8834SOL    HW138138   3.726   3.031  15.232  0.7713  0.4371  1.9941
 8834SOL    HW238139   3.809   2.932  15.172  1.3633  2.2182  1.6331
 8835SOL     OW38140   0.404   4.052   7.116 -0.0069 -0.1781  0.0780
 8835SOL    HW138141   0.398   4.079   7.208 -0.0921 -0.0547  0.0363
 8835SOL    HW238142   0.446   3.967   7.130 -0.0614 -0.5940 -2.3654
 8836SOL     OW38143   3.730   2.587   5.469  0.8444  0.6467  0.4400
 8836SOL    HW138144   3.749   2.501   5.509  2.3933  0.8093  0.0770
 8836SOL    HW238145   3.643   2.579   5.432  1.4569  1.9123 -1.2724
 8837SOL     OW38146   1.092   2.091  17.378 -0.4169  0.0608  0.7689
 8837SOL    HW138147   1.146   2.158  17.419  0.2958  0.5669 -1.0253
 8837SOL    HW238148   1.146   2.065  17.304 -0.8951 -1.2865  0.8783
 8838SOL     OW38149   1.171   3.530   4.181 -0.1060  0.1038 -0.0710
 8838SOL    HW138150   1.250   3.525   4.127 -0.3575  0.5905 -0.4840
 8838SOL    HW238151   1.188   3.619   4.212  0.7247  0.2444 -0.8928
 8839SOL     OW38152   3.513   0.715   6.764  0.1192  0.0595  0.0303
 8839SOL    HW138153   3.439   0.725   6.705  0.2155  1.7854  0.1952
 8839SOL    HW238154   3.578   0.700   6.696  1.4820  3.1365  0.6577
 8840SOL     OW38155   4.560   4.502   7.193 -0.3390 -0.2880 -0.2727
 8840SOL    HW138156   4.487   4.440   7.184  1.3354 -2.4977  1.2220
 8840SOL    HW238157   4.636   4.449   7.170  0.2601  1.7856 -3.1122
 8841SOL     OW38158   4.087   1.997  14.330  0.1294 -0.4525 -0.2478
 8841SOL    HW138159   4.019   1.934  14.354 -0.3406  0.4980  0.9090
 8841SOL    HW238160   4.083   2.060  14.402 -0.6083  0.1996 -0.8617
 8842SOL     OW38161   4.623   2.464   3.420 -0.3653 -0.2527 -0.6444
 8842SOL    HW138162   4.616   2.390   3.481 -1.7286 -0.1564 -0.6852
 8842SOL    HW238163   4.550   2.451   3.359 -1.0978 -2.1563  0.6061
 8843SOL     OW38164   2.586   4.248   5.703 -0.4650 -0.2489  0.7729
 8843SOL    HW138165   2.660   4.278   5.756  0.5032 -0.6130 -0.3782
 8843SOL    HW238166   2.518   4.308   5.734  1.9347  1.5380  2.4893
 8844SOL     OW38167   1.949   0.519  14.223  0.4643  0.0846  0.2274
 8844SOL    HW138168   1.874   0.556  14.270  0.8299 -0.6524  1.3880
 8844SOL    HW238169   2.022   0.569  14.262  0.6914  0.3853 -0.5791
 8845SOL     OW38170   1.201   3.691   3.862 -0.3861  0.0819 -0.5849
 8845SOL    HW138171   1.260   3.766   3.863 -1.2280  0.7785 -2.2446
 8845SOL    HW238172   1.266   3.622   3.849 -1.7869 -1.0053 -1.9110
 8846SOL     OW38173   2.389   2.207   2.343 -0.2773 -0.3174  0.1926
 8846SOL    HW138174   2.478   2.209   2.308 -0.3979  1.2525 -0.0190
 8846SOL    HW238175   2.375   2.120   2.306  2.9962 -0.8823  0.2717
 8847SOL     OW38176   0.792   3.088   9.204 -0.0398 -0.4979  0.7715
 8847SOL    HW138177   0.699   3.114   9.204 -1.0289 -4.0855  2.5782
 8847SOL    HW238178   0.789   3.031   9.280 -0.4556 -0.8606  0.4879
 8848SOL     OW38179   0.454   2.531   2.032  0.1294 -0.1270 -0.6149
 8848SOL    HW138180   0.378   2.491   1.990  0.4621  1.2320 -2.4973
 8848SOL    HW238181   0.509   2.533   1.954 -0.4540 -0.8766 -1.0528
 8849SOL     OW38182   0.721   3.153   6.296 -0.4172  0.6461 -0.0944
 8849SOL    HW138183   0.760   3.241   6.295 -1.1457  0.9779  0.5738
 8849SOL    HW238184   0.726   3.139   6.201 -0.6120  2.1318 -0.3394
 8850SOL     OW38185   3.802   0.975   7.808 -0.1977  0.3595  0.3315
 8850SOL    HW138186   3.829   1.057   7.767  2.0126  0.3804  1.8190
 8850SOL    HW238187   3.707   0.985   7.814  0.0258  2.4472  0.3804
 8851SOL     OW38188   4.306   4.535  16.430  0.5963 -0.5108  0.3650
 8851SOL    HW138189   4.345   4.565  16.512 -1.6464  0.4462  1.0976
 8851SOL    HW238190   4.225   4.496  16.463 -0.7910  1.6376 -0.4928
 8852SOL     OW38191   1.587   0.711  12.673  0.4300  0.3977  0.7442
 8852SOL    HW138192   1.673   0.740  12.642 -0.0446  0.5558 -0.4140
 8852SOL    HW238193   1.544   0.791  12.704 -0.3759  0.9938 -1.9195
 8853SOL     OW38194   3.991   3.703   7.328  0.1834 -0.3478 -0.0881
 8853SOL    HW138195   3.974   3.686   7.421 -0.9802  2.0808  0.1670
 8853SOL    HW238196   4.078   3.741   7.340  1.0744 -2.7247  0.8974
 8854SOL     OW38197   1.606   2.506   8.074 -0.0756  0.0307  0.4035
 8854SOL    HW138198   1.657   2.452   8.135 -0.5245 -1.1102 -0.2560
 8854SOL    HW238199   1.610   2.452   7.996  1.5747  3.1236 -1.6882
 8855SOL     OW38200   3.091   1.932   4.753  0.3375 -0.2755 -0.4906
 8855SOL    HW138201   3.074   1.919   4.846 -2.6889  4.7729 -0.3545
 8855SOL    HW238202   3.159   2.000   4.754 -0.8463  0.8819  0.5501
 8856SOL     OW38203   2.838   0.350   6.021  0.0119  0.0280 -0.2174
 8856SOL    HW138204   2.838   0.308   6.107 -0.6599  0.1501 -0.1563
 8856SOL    HW238205   2.801   0.276   5.974  1.1667 -1.5181  1.3194
 8857SOL     OW38206   0.639   0.665  17.180  0.0066 -0.2790  0.4655
 8857SOL    HW138207   0.686   0.666  17.097  0.0580  0.9215  0.5125
 8857SOL    HW238208   0.565   0.723  17.163 -1.1966 -1.2832  2.1905
 8858SOL     OW38209   0.606   1.833   9.127 -0.4013  0.4170 -0.5278
 8858SOL    HW138210   0.611   1.743   9.158 -0.1354 -0.3005 -2.6646
 8858SOL    HW238211   0.576   1.824   9.036  0.4118  2.0848 -0.9818
 8859SOL     OW38212   0.458   3.478   1.737 -0.7267  0.2695  0.3617
 8859SOL    HW138213   0.483   3.395   1.777 -0.7838 -0.4162 -1.0208
 8859SOL    HW238214   0.490   3.541   1.802 -0.1660 -0.7215  1.0343
 8860SOL     OW38215   1.968   2.192   4.436  0.4701  0.2684  0.5713
 8860SOL    HW138216   1.902   2.170   4.370  0.7872  0.7575  0.0941
 8860SOL    HW238217   1.940   2.284   4.443  1.7301  0.8690 -2.1896
 8861SOL     OW38218   1.707   1.050   9.262  0.0115  0.5817 -0.0693
 8861SOL    HW138219   1.651   1.117   9.301 -1.1990 -1.1016  1.0501
 8861SOL    HW238220   1.794   1.089   9.268  0.5992 -0.5283 -1.2149
 8862SOL     OW38221   3.240   0.302   0.887 -0.3828 -0.4377  0.5403
 8862SOL    HW138222   3.242   0.324   0.793  2.8321 -2.9076  0.0511
 8862SOL    HW238223   3.236   0.207   0.888  0.5391 -0.4866  0.1746
 8863SOL     OW38224   4.281   3.207   3.694  0.0012 -0.0636  0.3679
 8863SOL    HW138225   4.273   3.254   3.611  1.7183 -0.5097 -0.0346
 8863SOL    HW238226   4.374   3.187   3.687 -0.6046 -3.0844  1.1205
 8864SOL     OW38227   0.595   0.705  11.943  0.3856  0.8969 -0.4218
 8864SOL    HW138228   0.553   0.733  11.862  1.2186 -0.8061 -1.4318
 8864SOL    HW238229   0.547   0.624  11.955  1.6096  0.3575  0.8904
 8865SOL     OW38230   0.420   2.119   5.665  0.4884 -0.2042  0.7141
 8865SOL    HW138231   0.495   2.170   5.695  2.4504 -2.5193 -0.2929
 8865SOL    HW238232   0.458   2.048   5.614 -1.2547 -2.2589  2.2742
 8866SOL     OW38233   2.915   2.789   5.008  0.0676  0.2077  0.2055
 8866SOL    HW138234   2.870   2.868   5.040 -0.9933 -1.1176  1.9411
 8866SOL    HW238235   2.862   2.717   5.040  1.1685  0.3551  2.3191
 8867SOL     OW38236   2.511   3.085   5.850 -0.3998  0.6201 -0.5812
 8867SOL    HW138237   2.493   3.170   5.808  0.7400  1.9275  1.6014
 8867SOL    HW238238   2.422   3.068   5.881  1.0348 -0.8039  2.6666
 8868SOL     OW38239   2.178   1.015   1.405  0.0411 -0.2596  0.1882
 8868SOL    HW138240   2.200   1.036   1.496  0.1002  2.2910 -0.4186
 8868SOL    HW238241   2.252   0.960   1.380 -0.9627 -1.5744  0.0808
 8869SOL     OW38242   3.222   1.628   4.312  0.6232 -0.0069  0.3447
 8869SOL    HW138243   3.187   1.650   4.226  0.0181 -1.3450  0.2603
 8869SOL    HW238244   3.189   1.700   4.366  1.7438 -0.2916  1.4153
 8870SOL     OW38245   2.373   1.179   0.878  0.1722 -0.2534 -0.6151
 8870SOL    HW138246   2.451   1.137   0.842  0.1801  1.5272 -2.7244
 8870SOL    HW238247   2.301   1.159   0.817  0.0394  2.4082 -1.2931
 8871SOL     OW38248   2.594   4.534   4.283  0.5314  0.2429  0.3894
 8871SOL    HW138249   2.570   4.574   4.366  1.0558  3.1778 -0.8872
 8871SOL    HW238250   2.598   4.616   4.234 -0.3311  0.1410  0.1458
 8872SOL     OW38251   1.941   1.001   3.174 -0.0412 -0.1384 -0.2411
 8872SOL    HW138252   1.869   1.020   3.234  0.3182  2.0280 -0.4764
 8872SOL    HW238253   1.999   1.077   3.183  0.9997 -1.3662  3.2310
 8873SOL     OW38254   2.139   4.277   7.012 -0.1271  0.2246  0.2983
 8873SOL    HW138255   2.081   4.304   7.084  0.5790  0.3444  0.8214
 8873SOL    HW238256   2.215   4.240   7.058 -0.2496  0.0014  0.3225
 8874SOL     OW38257   4.055   3.574   4.540  0.0865 -0.0590  0.5832
 8874SOL    HW138258   4.009   3.578   4.456 -1.7791 -1.9382  1.5293
 8874SOL    HW238259   4.137   3.617   4.518  0.4617 -0.4317  1.2288
 8875SOL     OW38260   0.163   1.501  13.611  0.5165 -0.2513 -0.2066
 8875SOL    HW138261   0.110   1.571  13.650 -1.4075 -1.5216 -0.5814
 8875SOL    HW238262   0.111   1.423  13.630  2.0675 -1.6750 -1.8266
 8876SOL     OW38263   3.676   0.249   0.569  0.4782 -0.6484 -0.1400
 8876SOL    HW138264   3.675   0.343   0.549  0.2136 -1.0754 -2.0504
 8876SOL    HW238265   3.661   0.252   0.664  1.0079  0.4640 -0.0988
 8877SOL     OW38266   0.831   2.382  13.325  0.5217  0.0029 -0.4013
 8877SOL    HW138267   0.858   2.411  13.237 -1.6110 -2.3264 -1.8036
 8877SOL    HW238268   0.737   2.368  13.317  0.3958 -0.7233  2.5321
 8878SOL     OW38269   4.386   1.520   6.981 -0.1752 -0.0300 -0.0261
 8878SOL    HW138270   4.304   1.512   6.932 -1.4431 -0.0215  2.0543
 8878SOL    HW238271   4.453   1.558   6.924 -1.1148  2.0132  0.2321
 8879SOL     OW38272   2.199   4.303   5.119  0.3521 -0.3275 -0.3275
 8879SOL    HW138273   2.169   4.343   5.200  0.7786 -1.0485  0.1821
 8879SOL    HW238274   2.199   4.380   5.062 -0.8505 -1.8660 -2.4016
 8880SOL     OW38275   3.285   2.824   8.823 -0.1107 -0.1731  0.4604
 8880SOL    HW138276   3.250   2.887   8.887  1.0113  1.2520 -0.3178
 8880SOL    HW238277   3.329   2.890   8.769  1.7705 -1.2265  0.7053
 8881SOL     OW38278   3.757   2.705   6.724  0.1485  0.4873 -0.2805
 8881SOL    HW138279   3.821   2.641   6.693 -0.9559  0.4899 -2.5308
 8881SOL    HW238280   3.740   2.756   6.645  0.5668  0.5317 -0.3428
 8882SOL     OW38281   3.274   4.117   1.478  0.2411  0.0964  0.5326
 8882SOL    HW138282   3.310   4.104   1.566  0.8589  3.0616  0.7087
 8882SOL    HW238283   3.255   4.028   1.450  0.9835 -0.3303  1.3802
 8883SOL     OW38284   4.044   1.909   7.956  0.1258 -0.4552  0.1991
 8883SOL    HW138285   4.010   1.947   7.875 -0.2916  3.4330  2.2195
 8883SOL    HW238286   4.049   1.816   7.932  1.7040 -0.0789 -0.9345
 8884SOL     OW38287   4.271   0.124   7.015  0.1246 -0.3271 -0.0005
 8884SOL    HW138288   4.216   0.066   7.068  0.4548 -0.8153 -0.1851
 8884SOL    HW238289   4.357   0.081   7.009  0.6441  0.8179 -0.7515
 8885SOL     OW38290   1.652   4.426   5.381  0.0624 -0.3461  0.4867
 8885SOL    HW138291   1.661   4.365   5.455  1.8880 -0.9161 -0.2268
 8885SOL    HW238292   1.606   4.372   5.316  1.0903  0.5312 -0.9658
 8886SOL     OW38293   0.510   4.456   8.126 -0.1036  0.0458  0.6320
 8886SOL    HW138294   0.544   4.367   8.111  1.5802  0.5442  1.4080
 8886SOL    HW238295   0.484   4.446   8.218 -0.2833  3.9616  0.9843
 8887SOL     OW38296   1.822   4.379   7.618 -0.3901 -0.0647  0.0289
 8887SOL    HW138297   1.862   4.293   7.603 -0.8912 -0.7321  2.6438
 8887SOL    HW238298   1.733   4.345   7.629 -1.3683  1.5835 -2.7754
 8888SOL     OW38299   4.051   2.820  10.318 -0.0698 -0.6944  0.4731
 8888SOL    HW138300   4.016   2.749  10.264  1.0029 -0.9185  0.0629
 8888SOL    HW238301   4.145   2.806  10.302 -0.3507 -0.3519 -1.3670
 8889SOL     OW38302   4.374   4.672  14.590  0.4067  0.7012  0.2134
 8889SOL    HW138303   4.323   4.601  14.628 -0.1592  0.4837 -0.9525
 8889SOL    HW238304   4.416   4.621  14.521 -1.9759  0.4294 -1.0294
 8890SOL     OW38305   4.391   4.016   7.552  0.2278 -0.2462 -0.1414
 8890SOL    HW138306   4.316   4.061   7.590  2.2261  1.2880  1.9853
 8890SOL    HW238307   4.461   4.042   7.612 -1.3574 -2.1059  2.5533
 8891SOL     OW38308   0.298   3.196   9.105 -0.0843  0.0995  0.2493
 8891SOL    HW138309   0.287   3.247   9.185  2.4613  1.7033 -0.4328
 8891SOL    HW238310   0.270   3.259   9.038 -2.3482 -0.6498  0.4758
 8892SOL     OW38311   3.638   2.793   2.591  0.3175  0.5480  0.5739
 8892SOL    HW138312   3.589   2.749   2.660  0.1394  1.4438  1.0271
 8892SOL    HW238313   3.588   2.765   2.515  0.0008  4.8337 -0.8219
 8893SOL     OW38314   4.041   2.233   5.971 -0.3235 -0.1846  0.3691
 8893SOL    HW138315   4.129   2.203   5.992 -0.1247  0.5870  0.6687
 8893SOL    HW238316   4.034   2.301   6.038  1.5327 -0.3276  0.7244
 8894SOL     OW38317   2.044   3.623  15.300  0.1989 -0.1127 -0.6844
 8894SOL    HW138318   2.133   3.590  15.288  0.9135  1.4904  0.2240
 8894SOL    HW238319   2.059   3.717  15.301 -2.4238  0.3078 -1.3721
 8895SOL     OW38320   0.765   0.162   4.780 -0.1997 -0.0334  0.5931
 8895SOL    HW138321   0.825   0.087   4.773 -0.4974  0.0265 -2.3684
 8895SOL    HW238322   0.795   0.219   4.709  1.9991 -2.5426 -0.5170
 8896SOL     OW38323   2.870   4.418   2.466  0.1419  0.4689  0.0004
 8896SOL    HW138324   2.813   4.475   2.416  0.5537  0.5638 -0.3589
 8896SOL    HW238325   2.848   4.333   2.428  0.1216  0.6664 -0.4256
 8897SOL     OW38326   4.093   2.434  13.558  0.0438  0.3409 -0.3126
 8897SOL    HW138327   4.150   2.357  13.546  0.9256  0.9503 -0.0694
 8897SOL    HW238328   4.155   2.507  13.565 -0.3078  0.7969 -1.8807
 8898SOL     OW38329   3.460   0.620   7.828  0.1094 -0.1929  0.2199
 8898SOL    HW138330   3.550   0.651   7.841  0.3039 -0.5720 -0.2525
 8898SOL    HW238331   3.415   0.690   7.877  1.2141  0.2541  0.6123
 8899SOL     OW38332   0.278   1.811   6.792 -0.3786  0.0105 -0.0501
 8899SOL    HW138333   0.199   1.770   6.758  0.2060  0.6305 -2.1205
 8899SOL    HW238334   0.247   1.833   6.880 -0.1826  0.3681 -0.0678
 8900SOL     OW38335   0.885   0.155   8.415  0.4834 -0.3810 -0.3648
 8900SOL    HW138336   0.798   0.155   8.374 -0.4553 -0.0695  1.6464
 8900SOL    HW238337   0.873   0.199   8.499  0.4532 -0.9566 -0.0669
 8901SOL     OW38338   2.505   0.332  17.011  0.5050  0.0729  0.1987
 8901SOL    HW138339   2.538   0.409  17.057  1.8146 -1.3450  1.6018
 8901SOL    HW238340   2.456   0.292  17.082 -0.0821  1.6451  0.6730
 8902SOL     OW38341   3.818   2.436   4.919 -0.1441  0.2115  0.5282
 8902SOL    HW138342   3.911   2.413   4.921  0.2071  1.9357  2.6634
 8902SOL    HW238343   3.818   2.531   4.920  0.0474  0.2005  1.1349
 8903SOL     OW38344   0.170   1.814   2.028 -0.1313 -0.4156  0.2017
 8903SOL    HW138345   0.098   1.767   2.070  0.4290 -1.5841 -0.1401
 8903SOL    HW238346   0.234   1.824   2.099 -1.8206  0.4369  1.6020
 8904SOL     OW38347   1.353   2.197   8.023 -0.2760  0.3563  0.4955
 8904SOL    HW138348   1.318   2.267   8.078 -1.7087  0.5499 -0.6522
 8904SOL    HW238349   1.278   2.195   7.963  0.5957 -0.4398 -0.5808
 8905SOL     OW38350   0.612   4.463   5.597 -0.0457 -0.2993 -0.7075
 8905SOL    HW138351   0.563   4.514   5.661  0.4842  0.6933 -1.0919
 8905SOL    HW238352   0.652   4.391   5.647  1.8847  1.2479 -0.0453
 8906SOL     OW38353   2.449   3.387  10.866  0.1827  0.2114  0.1785
 8906SOL    HW138354   2.471   3.396  10.959 -2.3941 -0.3216  0.8456
 8906SOL    HW238355   2.396   3.464  10.846  1.8410  1.4079  0.3549
 8907SOL     OW38356   0.134   2.680  11.795  0.5178  0.4251  0.5393
 8907SOL    HW138357   0.134   2.587  11.816 -0.1607 -0.4481 -3.2032
 8907SOL    HW238358   0.215   2.689  11.745  0.2820 -0.4371 -0.0038
 8908SOL     OW38359   3.868   2.076   0.556 -0.2676  0.1422  0.2335
 8908SOL    HW138360   3.913   2.072   0.640 -0.4004  3.1067  0.4423
 8908SOL    HW238361   3.888   2.162   0.520  0.7841 -0.2109 -0.0168
 8909SOL     OW38362   3.451   4.385  15.464 -0.1925 -0.1492  0.0198
 8909SOL    HW138363   3.525   4.324  15.466  0.4451  0.4914 -3.4536
 8909SOL    HW238364   3.430   4.396  15.371 -1.8575 -0.2592  0.3834
 8910SOL     OW38365   3.873   1.296   0.717  0.0724  0.0021 -0.5763
 8910SOL    HW138366   3.800   1.359   0.720  0.6168  0.4605  2.9433
 8910SOL    HW238367   3.912   1.331   0.637  0.6814  2.3020  0.7355
 8911SOL     OW38368   4.482   1.261   7.068  0.2238 -0.5224  0.3227
 8911SOL    HW138369   4.424   1.334   7.048 -0.3547 -0.9462  0.4437
 8911SOL    HW238370   4.487   1.269   7.164 -2.0381  1.4331  0.2776
 8912SOL     OW38371   3.325   1.830   0.369 -0.1425  0.3987 -0.1795
 8912SOL    HW138372   3.258   1.854   0.304  0.2335 -0.7963 -1.0024
 8912SOL    HW238373   3.279   1.763   0.419  0.5904  0.4860  0.6209
 8913SOL     OW38374   0.893   2.008   7.790  0.3958 -0.0134 -0.1167
 8913SOL    HW138375   0.966   2.045   7.740 -0.3800  0.2347 -1.0698
 8913SOL    HW238376   0.931   1.961   7.864 -1.4791 -3.2441 -1.2093
 8914SOL     OW38377   2.408   0.034   1.132  0.1400  0.4901 -0.1104
 8914SOL    HW138378   2.485   4.713   1.141  0.8337  1.4614 -0.0028
 8914SOL    HW238379   2.360   4.734   1.057 -0.8480  0.3789  0.5899
 8915SOL     OW38380   1.982   2.006   7.238  0.1894  0.1993  0.0536
 8915SOL    HW138381   2.017   1.942   7.300 -0.8417  1.2090  1.6705
 8915SOL    HW238382   2.048   2.002   7.169 -0.2778  4.7113 -0.6691
 8916SOL     OW38383   3.538   3.260   6.457 -0.2173 -0.1923  0.0019
 8916SOL    HW138384   3.558   3.219   6.541  0.5433  1.2322  0.5195
 8916SOL    HW238385   3.563   3.352   6.471  0.0398 -0.4424  1.2570
 8917SOL     OW38386   4.303   0.750  15.550  0.3173  0.4205  0.6309
 8917SOL    HW138387   4.323   0.731  15.642 -1.2843 -2.1490  0.4438
 8917SOL    HW238388   4.291   0.844  15.562  1.6762  0.5963  0.6190
 8918SOL     OW38389   3.853   4.456   1.759  0.0813 -0.0097  0.4943
 8918SOL    HW138390   3.864   4.510   1.838  0.8953 -1.0279  1.0772
 8918SOL    HW238391   3.784   4.508   1.718  1.1380  1.6291  0.7942
 8919SOL     OW38392   0.102   3.262   2.563  0.0098 -0.2508  0.1342
 8919SOL    HW138393   0.141   3.207   2.631  3.8012  3.1578  0.7538
 8919SOL    HW238394   0.047   3.193   2.526 -1.8170  0.6347  1.2287
 8920SOL     OW38395   2.557   3.547   3.031 -0.5447 -0.5969  0.1077
 8920SOL    HW138396   2.510   3.622   2.993  0.2319 -1.1860 -2.0135
 8920SOL    HW238397   2.631   3.591   3.072 -0.6802  0.6265 -0.9390
 8921SOL     OW38398   0.035   1.527   2.699 -0.0145 -0.5010  0.0422
 8921SOL    HW138399   0.118   1.544   2.656  0.7511 -2.3332  0.8029
 8921SOL    HW238400   0.009   1.451   2.647  0.5333 -1.4537  1.1452
 8922SOL     OW38401   0.228   0.601   8.610  0.2735 -0.2333 -0.4029
 8922SOL    HW138402   0.259   0.687   8.639  1.1029 -0.1741 -1.4746
 8922SOL    HW238403   0.231   0.620   8.516  0.1464  0.5107 -0.2603
 8923SOL     OW38404   3.618   1.841   6.632 -0.0993 -0.3999  0.9446
 8923SOL    HW138405   3.531   1.860   6.667  0.0118 -1.2813  1.7078
 8923SOL    HW238406   3.675   1.915   6.655  0.5854 -1.1094  1.5096
 8924SOL     OW38407   3.369   2.925   9.326 -0.1548  0.1586  0.2653
 8924SOL    HW138408   3.446   2.956   9.279  1.0356  1.0058  2.8098
 8924SOL    HW238409   3.402   2.851   9.377  0.5106  1.4358  1.6940
 8925SOL     OW38410   2.442   1.172  15.343  0.6522 -0.1069 -0.0446
 8925SOL    HW138411   2.431   1.209  15.431 -1.2544 -1.4032  0.2397
 8925SOL    HW238412   2.364   1.118  15.331  0.6768  0.5826 -3.3602
 8926SOL     OW38413   1.879   0.996   7.716 -0.3925 -0.1746  0.7807
 8926SOL    HW138414   1.974   0.988   7.731 -0.2648  0.2783  0.2393
 8926SOL    HW238415   1.876   0.949   7.633  2.3031  1.8760 -0.4954
 8927SOL     OW38416   0.293   2.937   9.678  0.3633  0.0772  0.2558
 8927SOL    HW138417   0.379   2.917   9.641 -0.6222 -1.7142 -1.0770
 8927SOL    HW238418   0.257   2.958   9.592  0.2249 -0.5209  0.1663
 8928SOL     OW38419   3.016   0.583   1.907 -0.3114  0.1648 -0.3190
 8928SOL    HW138420   3.109   0.600   1.892  0.5475 -3.9531  0.3509
 8928SOL    HW238421   2.982   0.672   1.898  0.2854  0.2584 -1.7254
 8929SOL     OW38422   4.220   3.879   3.361  0.6566 -0.6862  0.2570
 8929SOL    HW138423   4.313   3.901   3.352  0.4124  0.0297 -0.5234
 8929SOL    HW238424   4.180   3.946   3.305 -0.2861 -2.0978 -0.7499
 8930SOL     OW38425   4.109   3.540   4.011 -0.5726  0.3365  0.2572
 8930SOL    HW138426   4.178   3.599   3.980  0.5532 -0.6812  0.7940
 8930SOL    HW238427   4.090   3.501   3.926 -1.8188  0.6131  0.4181
 8931SOL     OW38428   3.136   0.406   3.176  0.1040 -0.3544 -0.4414
 8931SOL    HW138429   3.068   0.473   3.185  1.3458  0.7790  0.5707
 8931SOL    HW238430   3.094   0.321   3.187 -1.3158  0.5593  1.1996
 8932SOL     OW38431   1.709   1.910   8.159  0.2856  0.1834  0.0896
 8932SOL    HW138432   1.639   1.868   8.209 -0.8812  2.9506  0.7523
 8932SOL    HW238433   1.669   1.984   8.115 -0.6178  0.3385  1.1642
 8933SOL     OW38434   4.599   4.395   8.707  0.4096  0.1786 -0.3202
 8933SOL    HW138435   4.549   4.476   8.694 -0.0189  0.0499  0.5177
 8933SOL    HW238436   4.684   4.436   8.726  1.3963 -1.6446 -0.7966
 8934SOL     OW38437   1.371   0.066   7.520 -0.0379 -0.0524  0.2295
 8934SOL    HW138438   1.294   0.025   7.559 -1.8471 -0.1439 -3.4060
 8934SOL    HW238439   1.347   0.087   7.429  1.2930  0.1014 -0.0803
 8935SOL     OW38440   0.079   2.043   4.840  0.4226 -0.2454  0.2213
 8935SOL    HW138441   0.083   1.976   4.908 -1.1064  0.2048  0.7447
 8935SOL    HW238442   0.142   2.108   4.870  0.0400  0.0782  0.3254
 8936SOL     OW38443   4.451   0.321  13.777 -0.0007 -0.0689 -0.2141
 8936SOL    HW138444   4.368   0.274  13.788 -0.3567 -0.1564 -3.1954
 8936SOL    HW238445   4.512   0.250  13.757 -2.6707 -1.9534 -1.6492
 8937SOL     OW38446   0.876   2.514   6.946 -0.0865  0.4330  0.2024
 8937SOL    HW138447   0.969   2.491   6.941  0.6379  2.9633  2.5481
 8937SOL    HW238448   0.873   2.607   6.923  3.1660  1.1066  2.4815
 8938SOL     OW38449   3.700   3.636   2.157 -0.5394 -0.2071  0.1991
 8938SOL    HW138450   3.640   3.686   2.213 -0.7715 -0.7396  0.4261
 8938SOL    HW238451   3.706   3.554   2.206 -0.0075  0.3388  1.0344
 8939SOL     OW38452   0.515   0.820   9.325  0.5234  0.0725 -0.0267
 8939SOL    HW138453   0.496   0.726   9.322  4.7277 -0.7813  0.8028
 8939SOL    HW238454   0.579   0.820   9.396  0.1497 -3.9017  0.2830
 8940SOL     OW38455   4.142   0.988  11.592 -0.7036 -0.8549 -0.4055
 8940SOL    HW138456   4.054   0.998  11.555 -0.5756  0.9028 -0.2304
 8940SOL    HW238457   4.125   0.921  11.659  3.7251 -0.9128  0.6257
 8941SOL     OW38458   1.481   3.264  11.957  0.0559  0.1480  0.0398
 8941SOL    HW138459   1.513   3.193  12.012 -3.4919  1.3396  3.6107
 8941SOL    HW238460   1.439   3.313  12.028  2.1676  0.5680  1.0153
 8942SOL     OW38461   1.610   0.732  13.745  0.3138 -0.1874  0.1938
 8942SOL    HW138462   1.629   0.693  13.660  1.3815 -1.4779  1.0247
 8942SOL    HW238463   1.572   0.653  13.781  0.7601 -0.1624  0.7193
 8943SOL     OW38464   3.500   0.446   8.626 -0.7190  0.2482 -0.1536
 8943SOL    HW138465   3.412   0.481   8.612 -1.3300 -1.0903  0.3347
 8943SOL    HW238466   3.498   0.453   8.721  2.3894 -2.7062  0.1315
 8944SOL     OW38467   2.699   0.661   7.060 -0.2037 -0.0927 -0.1081
 8944SOL    HW138468   2.638   0.720   7.014  0.5571 -1.1617 -2.4876
 8944SOL    HW238469   2.658   0.576   7.045  0.7212 -0.5062 -0.2928
 8945SOL     OW38470   0.327   2.460   7.212  0.1147  0.1642  0.5951
 8945SOL    HW138471   0.399   2.415   7.168  0.1439  0.0978  0.7112
 8945SOL    HW238472   0.377   2.477   7.292 -0.0304  0.1211  0.6948
 8946SOL     OW38473   2.849   1.536   0.046  0.6825 -0.1560 -0.3347
 8946SOL    HW138474   2.921   1.523   0.108  1.7655 -0.3317 -1.6255
 8946SOL    HW238475   2.872   1.623   0.014  0.5188  0.2459  0.6504
 8947SOL     OW38476   4.506   0.388   8.801 -0.0861 -0.2723  0.4374
 8947SOL    HW138477   4.525   0.386   8.895  1.1770 -3.8615  0.0970
 8947SOL    HW238478   4.597   0.394   8.774  0.3438 -1.0785  1.6815
 8948SOL     OW38479   3.638   4.365   6.014  0.7698  0.3454 -0.1360
 8948SOL    HW138480   3.716   4.357   5.958  1.4280 -1.8286  1.1138
 8948SOL    HW238481   3.589   4.406   5.943  2.1906 -1.4294 -2.1676
 8949SOL     OW38482   1.404   1.256   3.211 -0.3923  0.2354 -0.0674
 8949SOL    HW138483   1.330   1.317   3.209 -1.1641 -0.6628  1.3193
 8949SOL    HW238484   1.359   1.182   3.250 -2.8295  1.0434 -1.2882
 8950SOL     OW38485   0.946   1.783  17.022  0.6453  0.0143 -0.3881
 8950SOL    HW138486   0.999   1.849  16.979  2.2464 -1.1334 -0.1722
 8950SOL    HW238487   0.991   1.703  16.995  2.0515  0.6432  0.1381
 8951SOL     OW38488   3.875   3.139   6.087  0.2720  0.0078  0.3586
 8951SOL    HW138489   3.958   3.136   6.041  2.1209  0.6930  3.6720
 8951SOL    HW238490   3.817   3.127   6.012  0.4177 -1.7723  0.5464
 8952SOL     OW38491   0.235   1.239   7.368 -0.4233  0.0166 -0.3538
 8952SOL    HW138492   0.197   1.206   7.287 -0.1302 -1.6536  0.1867
 8952SOL    HW238493   0.226   1.160   7.420  0.3822  1.0078  1.2957
 8953SOL     OW38494   3.774   3.754   4.769 -0.1660 -0.3635 -0.4403
 8953SOL    HW138495   3.759   3.814   4.842  1.7115 -1.2068  0.6409
 8953SOL    HW238496   3.683   3.749   4.741 -1.0043 -2.0689  2.6041
 8954SOL     OW38497   3.244   4.236   0.556  0.4083 -0.0800 -0.2020
 8954SOL    HW138498   3.280   4.307   0.504  0.3291 -0.4351 -0.7396
 8954SOL    HW238499   3.154   4.245   0.523  0.4405 -1.9496 -0.8044
 8955SOL     OW38500   2.713   3.613   1.045  0.1604 -0.5925 -0.0268
 8955SOL    HW138501   2.671   3.645   1.125  2.4760  1.2345  0.4389
 8955SOL    HW238502   2.794   3.662   1.036 -0.3725  0.3132  0.1167
 8956SOL     OW38503   0.933   2.513   1.840 -0.1262  0.1295 -0.0785
 8956SOL    HW138504   1.020   2.484   1.811 -0.6005 -0.2318 -1.1284
 8956SOL    HW238505   0.874   2.447   1.806  2.1683 -2.3548  0.6976
 8957SOL     OW38506   0.047   1.955   1.841  0.1018  0.3947 -0.2020
 8957SOL    HW138507   0.075   1.916   1.924  0.6241 -0.6816 -0.8820
 8957SOL    HW238508   0.075   2.047   1.850  1.9431 -0.2959  1.1633
 8958SOL     OW38509   0.542   3.430   3.144 -0.2406 -0.4644 -0.2179
 8958SOL    HW138510   0.584   3.404   3.226 -1.8618 -1.0191  0.4399
 8958SOL    HW238511   0.449   3.415   3.160  0.2132 -1.0974  1.7843
 8959SOL     OW38512   3.168   4.639   5.195 -0.5898 -0.1853  0.4096
 8959SOL    HW138513   3.169   4.587   5.276 -1.3394  0.3486  0.7720
 8959SOL    HW238514   3.082   4.682   5.192  0.1741  1.3817  0.8989
 8960SOL     OW38515   1.341   1.374   4.673  0.3553  0.2150 -0.5888
 8960SOL    HW138516   1.375   1.330   4.751  1.2074  0.2950 -0.9109
 8960SOL    HW238517   1.423   1.412   4.641 -0.6578 -1.3896 -5.0741
 8961SOL     OW38518   0.828   1.256   4.655  0.0111 -0.1453 -0.0974
 8961SOL    HW138519   0.853   1.308   4.731 -0.0163 -1.0984  0.5593
 8961SOL    HW238520   0.751   1.210   4.689 -1.4485  2.2496 -0.1166
 8962SOL     OW38521   4.463   0.554  14.596  0.5628  0.0160  0.2043
 8962SOL    HW138522   4.453   0.486  14.663  0.3152  1.4510  1.6232
 8962SOL    HW238523   4.504   0.508  14.523  2.3143  2.6769 -0.4442
 8963SOL     OW38524   2.001   0.393   3.089 -0.3042 -0.2877  0.0556
 8963SOL    HW138525   1.981   0.306   3.055  0.5676 -0.3195 -0.3934
 8963SOL    HW238526   2.070   0.427   3.032  0.0141 -0.4061  0.3719
 8964SOL     OW38527   1.748   1.686   7.296 -0.9015  0.1318  0.5317
 8964SOL    HW138528   1.696   1.743   7.238  0.9744  2.1228  0.8153
 8964SOL    HW238529   1.690   1.684   7.372 -1.8673 -1.0518 -0.2347
 8965SOL     OW38530   1.932   3.110   3.958  0.5017 -0.2419  0.0381
 8965SOL    HW138531   2.017   3.067   3.957  1.8626  2.4048  1.5548
 8965SOL    HW238532   1.879   3.045   3.912 -0.5001 -0.4587  1.5225
 8966SOL     OW38533   3.320   4.397   2.161 -0.2329  0.4432  0.3762
 8966SOL    HW138534   3.365   4.323   2.203 -0.3608 -0.7944 -1.6799
 8966SOL    HW238535   3.249   4.422   2.220 -1.6538 -1.9378 -0.3469
 8967SOL     OW38536   3.695   4.714  11.251 -0.1645 -0.4069 -0.2355
 8967SOL    HW138537   3.751   0.045  11.214 -0.4969 -0.5574 -1.0029
 8967SOL    HW238538   3.610   4.735  11.212 -0.7183 -0.2799  1.0214
 8968SOL     OW38539   0.028   1.474   4.064  0.2947 -0.5191  0.0258
 8968SOL    HW138540   0.095   1.460   4.131 -0.8909  1.7569  1.6650
 8968SOL    HW238541   4.715   1.545   4.105 -0.7342 -0.2663 -1.5990
 8969SOL     OW38542   0.511   0.927  16.824  0.4106  0.0126  0.5129
 8969SOL    HW138543   0.525   0.834  16.807 -0.6881 -0.0372 -0.1189
 8969SOL    HW238544   0.536   0.948  16.914  1.1723 -0.4903  0.4186
 8970SOL     OW38545   1.225   4.524   6.944 -0.6291 -0.0218 -0.9182
 8970SOL    HW138546   1.193   4.568   6.865 -0.0243 -0.3976 -1.3696
 8970SOL    HW238547   1.230   4.433   6.915 -0.9736 -0.8453  1.6015
 8971SOL     OW38548   1.023   4.641   8.836 -1.0685  0.1865 -0.1308
 8971SOL    HW138549   1.036   4.590   8.916  0.0251  0.1817 -0.3160
 8971SOL    HW238550   0.988   4.577   8.774 -1.5148  0.3806 -0.0806
 8972SOL     OW38551   0.292   4.489   6.473  0.0775 -0.3421  0.0686
 8972SOL    HW138552   0.250   4.564   6.515 -0.2940  0.4478 -1.7037
 8972SOL    HW238553   0.376   4.522   6.441  0.8776 -2.8037 -0.3728
 8973SOL     OW38554   4.450   2.651  15.776 -0.0876  0.4089 -0.7097
 8973SOL    HW138555   4.451   2.561  15.744  1.3148  0.8023 -1.7360
 8973SOL    HW238556   4.424   2.698  15.697  1.0194  1.3687 -0.4995
 8974SOL     OW38557   3.180   3.941   4.380  0.2497 -1.0534  0.8976
 8974SOL    HW138558   3.174   3.856   4.424  2.2697 -2.2338 -1.1011
 8974SOL    HW238559   3.089   3.970   4.374  1.0845  1.2522 -0.5110
 8975SOL     OW38560   3.704   1.475   1.932 -0.4132 -0.6058 -0.1819
 8975SOL    HW138561   3.749   1.547   1.976 -0.2903 -1.0915  0.5013
 8975SOL    HW238562   3.774   1.416   1.902 -0.0879  0.6237 -1.7717
 8976SOL     OW38563   0.838   2.469   4.683  0.3702 -0.6948  0.0147
 8976SOL    HW138564   0.811   2.450   4.773 -0.3388 -0.6282 -0.1833
 8976SOL    HW238565   0.878   2.386   4.658 -1.7241 -1.0350 -2.2262
 8977SOL     OW38566   2.272   4.494  11.650  0.8856  0.2245  0.7255
 8977SOL    HW138567   2.319   4.578  11.648  1.4362 -0.0781  0.9410
 8977SOL    HW238568   2.316   4.443  11.718  0.3992  0.4966  1.2493
 8978SOL     OW38569   1.142   0.904   0.724  0.6235 -0.2605 -0.4022
 8978SOL    HW138570   1.162   0.882   0.815  1.0227  2.6970  0.2491
 8978SOL    HW238571   1.197   0.839   0.681  1.2389  0.2746 -0.4261
 8979SOL     OW38572   3.343   1.529   8.157 -0.0838  0.3692  0.0232
 8979SOL    HW138573   3.337   1.488   8.243  0.2242 -1.9706 -1.0934
 8979SOL    HW238574   3.258   1.512   8.117 -0.2522  0.3329  0.4010
 8980SOL     OW38575   0.610   4.414   7.063  0.0576  0.3581  0.3682
 8980SOL    HW138576   0.558   4.367   6.997 -1.4630  0.3236  1.6017
 8980SOL    HW238577   0.699   4.388   7.038 -0.5862 -0.3597 -1.1495
 8981SOL     OW38578   2.428   0.422   7.976 -0.4908 -0.4226 -0.2875
 8981SOL    HW138579   2.418   0.464   7.891  1.9071  0.6723 -0.0105
 8981SOL    HW238580   2.519   0.395   7.970  0.2579  1.3219  3.2888
 8982SOL     OW38581   1.959   0.758   5.564 -0.0284  0.2633  0.1713
 8982SOL    HW138582   2.045   0.791   5.590 -0.5295  1.2008  0.6326
 8982SOL    HW238583   1.980   0.761   5.471  2.3835  1.5212  0.7604
 8983SOL     OW38584   0.401   1.022  12.072  0.1842 -0.2205 -1.1395
 8983SOL    HW138585   0.462   1.010  12.144 -3.0351 -0.5716  1.5631
 8983SOL    HW238586   0.406   1.117  12.072  3.3373 -0.3877 -1.5486
 8984SOL     OW38587   4.235   1.229   7.938  0.4833 -0.0788 -0.5699
 8984SOL    HW138588   4.145   1.262   7.950  0.2396 -0.8439 -0.2622
 8984SOL    HW238589   4.220   1.160   7.874 -2.1482  0.0631 -0.1111
 8985SOL     OW38590   3.179   3.813  11.610 -0.2368  0.1184 -0.6304
 8985SOL    HW138591   3.134   3.887  11.570 -2.1862 -1.6691 -1.6995
 8985SOL    HW238592   3.269   3.845  11.611 -0.0426 -0.5170  1.5640
 8986SOL     OW38593   4.418   1.654   0.375  0.6343 -0.6648 -0.1015
 8986SOL    HW138594   4.424   1.667   0.280 -2.4737  1.3858 -0.0102
 8986SOL    HW238595   4.512   1.654   0.395 -0.0236  1.1240  2.8605
 8987SOL     OW38596   3.548   2.650   1.656 -0.4969 -0.0542  0.6603
 8987SOL    HW138597   3.508   2.566   1.632 -0.6945  0.3096 -0.2665
 8987SOL    HW238598   3.632   2.635   1.614 -2.1452  0.3856 -2.7265
 8988SOL     OW38599   0.647   1.837   6.437 -0.3874  0.2139 -0.2990
 8988SOL    HW138600   0.737   1.865   6.454 -0.7751  1.1375  0.2336
 8988SOL    HW238601   0.585   1.861   6.505 -1.2691  2.0007 -1.7195
 8989SOL     OW38602   3.710   3.992   7.789  0.4472  0.7333 -0.1697
 8989SOL    HW138603   3.774   3.975   7.720 -0.9648  1.6369 -1.7074
 8989SOL    HW238604   3.660   4.068   7.758 -1.3092 -1.2458 -2.1778
 8990SOL     OW38605   0.660   3.328   3.382 -0.3277 -0.2485  1.0084
 8990SOL    HW138606   0.750   3.307   3.408  0.3111  0.7564 -0.3595
 8990SOL    HW238607   0.613   3.347   3.463 -1.5919  0.7009  0.0509
 8991SOL     OW38608   4.318   4.310   1.841 -0.1543 -0.0973 -0.0916
 8991SOL    HW138609   4.246   4.354   1.795  0.2965 -0.3320 -1.0113
 8991SOL    HW238610   4.358   4.385   1.886 -0.6126 -0.2221  0.5215
 8992SOL     OW38611   3.129   1.851  13.045  0.1015  0.5372  0.6088
 8992SOL    HW138612   3.205   1.891  13.002 -0.9015 -0.3027 -1.9649
 8992SOL    HW238613   3.161   1.782  13.102  0.2462  0.7574  0.7951
 8993SOL     OW38614   0.489   2.090   4.843 -0.2718 -0.1697 -0.2251
 8993SOL    HW138615   0.498   1.996   4.828  0.3859 -0.1856  0.2758
 8993SOL    HW238616   0.483   2.114   4.750 -2.2860 -1.8081 -0.5019
 8994SOL     OW38617   3.117   2.061   0.603  0.4737 -0.1929 -0.0976
 8994SOL    HW138618   3.138   1.999   0.533 -2.9692 -0.8658 -0.5347
 8994SOL    HW238619   3.202   2.098   0.625 -0.1510  1.1848  0.0251
 8995SOL     OW38620   0.660   1.546   6.411 -0.1469 -0.7920  0.3398
 8995SOL    HW138621   0.657   1.641   6.403  1.2294 -0.6317  1.7928
 8995SOL    HW238622   0.603   1.535   6.487 -0.4627 -1.9628 -0.0682
 8996SOL     OW38623   0.234   1.579   6.301  0.5584 -0.5420 -0.0906
 8996SOL    HW138624   0.180   1.515   6.254  1.9387 -1.0125 -1.0445
 8996SOL    HW238625   0.289   1.620   6.234 -0.8302  2.4472  0.6033
 8997SOL     OW38626   4.605   4.346   5.117 -0.2192  0.0182 -0.2901
 8997SOL    HW138627   4.514   4.373   5.132  0.2469  2.2171 -1.4144
 8997SOL    HW238628   4.655   4.419   5.153  0.8401 -1.8406  1.9874
 8998SOL     OW38629   4.216   2.214  13.182 -0.2615  0.6246 -0.2099
 8998SOL    HW138630   4.291   2.255  13.138 -1.1456  1.8107 -0.6177
 8998SOL    HW238631   4.235   2.122  13.161  0.6292  1.2635 -2.2186
 8999SOL     OW38632   3.256   2.826  14.385  0.2301  0.3153  0.4145
 8999SOL    HW138633   3.265   2.869  14.470  1.2567 -0.9228  0.9317
 8999SOL    HW238634   3.324   2.758  14.392 -0.5105 -0.3799  0.7722
 9000SOL     OW38635   4.358   1.042  11.138  0.3687 -0.0455  0.0961
 9000SOL    HW138636   4.339   0.951  11.162  0.4185 -0.2668 -0.7047
 9000SOL    HW238637   4.355   1.085  11.223  2.9590 -0.5031  0.4194
 9001SOL     OW38638   3.263   4.699   4.829 -0.2014 -0.0531 -0.9855
 9001SOL    HW138639   3.170   4.678   4.836 -0.0725 -0.5399 -0.7117
 9001SOL    HW238640   3.263   0.058   4.843 -2.9316 -0.6028  2.6945
 9002SOL     OW38641   2.645   0.310   2.173 -0.4752  0.7652 -0.2612
 9002SOL    HW138642   2.709   0.278   2.110 -0.8318  1.4875 -0.9863
 9002SOL    HW238643   2.600   0.378   2.124  0.7765  0.2313 -2.1486
 9003SOL     OW38644   3.265   4.654  16.294 -0.0618  0.1748 -0.0450
 9003SOL    HW138645   3.259   0.010  16.322  0.4760  0.6065 -1.2993
 9003SOL    HW238646   3.336   4.629  16.353 -0.6733  0.6362  0.8913
 9004SOL     OW38647   2.853   0.113   7.761 -0.3000 -0.2959  0.1332
 9004SOL    HW138648   2.781   0.067   7.718  0.5762 -0.3919 -1.2207
 9004SOL    HW238649   2.899   0.135   7.680  1.7312  1.9216  1.8576
 9005SOL     OW38650   3.996   3.843   1.788  0.0060  0.0993  0.2580
 9005SOL    HW138651   3.928   3.828   1.854 -0.1658  0.2718  0.1208
 9005SOL    HW238652   4.083   3.841   1.829  0.3248  1.9806 -0.3228
 9006SOL     OW38653   2.725   2.367   4.421 -0.4022  0.4505 -0.1224
 9006SOL    HW138654   2.653   2.305   4.413  0.2142 -0.3162  0.2593
 9006SOL    HW238655   2.702   2.427   4.350 -0.9935 -1.0570 -1.2091
 9007SOL     OW38656   2.469   0.659   5.357 -0.2139 -0.1187  0.2734
 9007SOL    HW138657   2.423   0.614   5.286 -1.2499 -0.7277  1.3477
 9007SOL    HW238658   2.544   0.700   5.313 -1.4466  1.7218 -0.0770
 9008SOL     OW38659   0.463   3.291   4.377  0.0148 -0.5582  0.0122
 9008SOL    HW138660   0.390   3.350   4.400 -0.4922 -1.4194  0.6272
 9008SOL    HW238661   0.534   3.351   4.401  0.6489 -1.6397  0.8127
 9009SOL     OW38662   1.904   2.036   8.289  0.2248  0.5656 -0.0056
 9009SOL    HW138663   1.830   1.992   8.246  0.3276  0.0387  0.3503
 9009SOL    HW238664   1.869   2.045   8.377  1.4899 -1.3423  0.6710
 9010SOL     OW38665   1.424   1.423   2.361  0.7742 -0.6060 -0.3778
 9010SOL    HW138666   1.473   1.471   2.427 -2.8364  1.6989  0.6037
 9010SOL    HW238667   1.353   1.391   2.417  1.1202 -4.6294 -2.1792
 9011SOL     OW38668   0.249   0.791  11.163  0.1767  0.5351  0.2612
 9011SOL    HW138669   0.285   0.703  11.175 -3.2113 -1.3436 -3.1958
 9011SOL    HW238670   0.241   0.808  11.257 -1.9295  1.0459 -0.0079
 9012SOL     OW38671   0.143   2.150   6.544  0.6269 -0.5112 -0.2178
 9012SOL    HW138672   0.102   2.064   6.530  3.3015 -1.6032 -1.4348
 9012SOL    HW238673   0.148   2.160   6.639  2.2463 -1.9922 -0.1279
 9013SOL     OW38674   2.733   4.646  12.263  0.2026  0.1194  0.0393
 9013SOL    HW138675   2.714   0.003  12.248  1.5187  0.2200 -1.0425
 9013SOL    HW238676   2.643   4.613  12.265  1.4807 -3.4063  0.2620
 9014SOL     OW38677   4.108   1.456  15.894 -0.1315 -0.0402  0.1858
 9014SOL    HW138678   4.125   1.389  15.960 -1.3583  1.1825  1.7369
 9014SOL    HW238679   4.016   1.475  15.914 -0.1399 -0.3098  0.4190
 9015SOL     OW38680   2.432   0.502   4.191 -0.1932  0.1918  0.8008
 9015SOL    HW138681   2.432   0.598   4.186  0.0857 -0.0212 -3.2392
 9015SOL    HW238682   2.357   0.481   4.247  2.1421 -2.7470  2.8008
 9016SOL     OW38683   0.464   3.868  16.981  0.2821  0.0485 -0.7098
 9016SOL    HW138684   0.511   3.880  17.063  0.6237  1.3527 -1.0818
 9016SOL    HW238685   0.414   3.948  16.962  0.4055  0.1852 -0.4654
 9017SOL     OW38686   0.403   0.051  14.138  0.8035 -0.1852 -0.2585
 9017SOL    HW138687   0.440   0.009  14.060  1.9703 -0.1867  0.2956
 9017SOL    HW238688   0.447   0.004  14.209 -0.8862  0.1625  1.0077
 9018SOL     OW38689   4.159   1.819   2.123 -0.2754 -0.0750 -0.2845
 9018SOL    HW138690   4.191   1.904   2.152 -1.8904  0.0950  1.0475
 9018SOL    HW238691   4.150   1.768   2.204  1.0586  0.1577  0.0093
 9019SOL     OW38692   3.015   2.794  15.087  0.1866 -0.1560 -0.2140
 9019SOL    HW138693   3.096   2.838  15.114 -0.6592  0.1360  1.8319
 9019SOL    HW238694   3.047   2.708  15.060 -2.6950 -0.6045 -2.2017
 9020SOL     OW38695   0.262   3.825   8.139  0.0142 -0.1754 -0.7855
 9020SOL    HW138696   0.263   3.779   8.222 -1.6567  0.9510 -0.1502
 9020SOL    HW238697   0.178   3.796   8.104 -0.6268  0.3028  0.3678
 9021SOL     OW38698   4.689   4.149  13.413 -0.1619  0.3404 -0.0477
 9021SOL    HW138699   4.653   4.071  13.456 -0.6207  0.9684  0.7107
 9021SOL    HW238700   4.691   4.118  13.323  2.0633  1.3622 -0.3294
 9022SOL     OW38701   3.959   3.885   7.110  0.2191 -0.0821  0.3927
 9022SOL    HW138702   3.935   3.856   7.198  0.9245  0.2606  0.7032
 9022SOL    HW238703   4.029   3.822   7.090 -1.1744 -1.1714 -1.0749
 9023SOL     OW38704   4.098   0.723   0.591 -0.0845  0.1213  1.1791
 9023SOL    HW138705   4.092   0.664   0.665 -1.8147  1.0865  1.8145
 9023SOL    HW238706   4.045   0.797   0.620 -0.8097  0.3832 -0.8371
 9024SOL     OW38707   0.949   4.544   7.065  0.4692 -0.0213  0.2533
 9024SOL    HW138708   0.922   4.458   7.032 -0.2154 -0.4136  1.8192
 9024SOL    HW238709   1.019   4.562   7.003 -0.6087 -0.9536 -1.2445
 9025SOL     OW38710   2.487   3.436  15.498  0.3127  0.4363  0.2783
 9025SOL    HW138711   2.392   3.442  15.512  0.1324 -1.5528 -0.1106
 9025SOL    HW238712   2.523   3.457  15.584 -1.7885  1.5081  0.8999
 9026SOL     OW38713   0.214   1.508  14.479 -0.0436 -0.6724  0.6501
 9026SOL    HW138714   0.251   1.596  14.488  2.6539 -1.4431 -3.0442
 9026SOL    HW238715   0.128   1.516  14.437  0.5964 -0.5103 -0.6194
 9027SOL     OW38716   1.470   2.321   1.347  0.2308 -0.5456  0.1081
 9027SOL    HW138717   1.442   2.233   1.321  4.9254 -1.6868 -1.1155
 9027SOL    HW238718   1.563   2.321   1.322  0.1164  2.2166 -0.3375
 9028SOL     OW38719   2.684   0.234   6.941  0.3363  0.1714 -0.2303
 9028SOL    HW138720   2.690   0.229   7.036  0.7328  1.8408 -0.1761
 9028SOL    HW238721   2.640   0.152   6.917  0.6569  0.2802 -1.1843
 9029SOL     OW38722   3.862   2.342  13.324  0.2182  0.1235  0.3006
 9029SOL    HW138723   3.830   2.259  13.360  0.5262  0.3130  1.0184
 9029SOL    HW238724   3.902   2.387  13.398  0.4885 -1.2191  0.9777
 9030SOL     OW38725   3.799   3.511   7.482  0.1147 -0.1396 -0.0104
 9030SOL    HW138726   3.761   3.594   7.452 -1.8524  0.0849  3.0837
 9030SOL    HW238727   3.729   3.480   7.539 -0.6068 -0.0596 -0.8559
 9031SOL     OW38728   2.689   1.122   3.178  0.7196 -0.3190 -0.0359
 9031SOL    HW138729   2.623   1.150   3.113 -0.8346 -0.9966  1.2511
 9031SOL    HW238730   2.701   1.030   3.157 -1.4277 -0.6923  0.3409
 9032SOL     OW38731   4.015   2.285  17.265 -0.3074  0.3173  0.1252
 9032SOL    HW138732   4.082   2.273  17.197  0.3869 -1.8653  1.1635
 9032SOL    HW238733   3.993   2.377  17.252 -3.0467 -0.2953  0.4743
 9033SOL     OW38734   2.027   3.159   6.849  0.3369 -0.2061 -0.6182
 9033SOL    HW138735   1.977   3.094   6.899  0.3925 -1.4124 -2.1008
 9033SOL    HW238736   2.110   3.112   6.839 -0.4790 -1.8581  0.2608
 9034SOL     OW38737   2.295   2.380   7.189  0.3723 -0.2258  0.1716
 9034SOL    HW138738   2.318   2.460   7.237  1.6153 -0.7288  0.4105
 9034SOL    HW238739   2.255   2.427   7.116  0.8081 -0.8996 -0.5018
 9035SOL     OW38740   1.621   0.151   2.286 -0.9434 -0.2584  0.5637
 9035SOL    HW138741   1.534   0.181   2.310 -0.2783  3.3867 -1.4032
 9035SOL    HW238742   1.607   0.139   2.192 -1.6499 -0.7513  0.7372
 9036SOL     OW38743   2.495   1.671  10.198  0.6078 -0.1441  0.3229
 9036SOL    HW138744   2.497   1.576  10.213 -1.2614 -0.8477 -3.7579
 9036SOL    HW238745   2.588   1.693  10.208  0.3327  0.9289  0.4169
 9037SOL     OW38746   1.125   3.221   7.561  0.0048  0.2209 -0.6107
 9037SOL    HW138747   1.178   3.262   7.493 -2.0256  0.8260 -1.8331
 9037SOL    HW238748   1.190   3.217   7.631  1.3404 -1.4299 -1.9426
 9038SOL     OW38749   3.062   0.846  12.320 -0.1159 -0.9694  0.0995
 9038SOL    HW138750   3.017   0.765  12.342 -0.8793 -1.3715 -2.9071
 9038SOL    HW238751   3.099   0.862  12.407  2.3399 -0.0500 -1.1287
 9039SOL     OW38752   4.647   2.588   8.127 -0.4099 -0.2473 -0.2506
 9039SOL    HW138753   4.727   2.598   8.179  1.4960 -1.6254 -2.9590
 9039SOL    HW238754   4.589   2.529   8.175  0.1252 -0.3803  0.2339
 9040SOL     OW38755   3.701   1.505   0.500  0.6296 -0.3310  0.2779
 9040SOL    HW138756   3.661   1.516   0.414  1.1809  0.4168  0.1210
 9040SOL    HW238757   3.788   1.538   0.479  1.9755 -3.6948  0.5952
 9041SOL     OW38758   2.384   3.296   7.506 -0.2046  0.0535  0.3011
 9041SOL    HW138759   2.432   3.226   7.463  1.2697  0.3992  1.3788
 9041SOL    HW238760   2.347   3.346   7.433 -0.8623 -0.3915  0.3338
 9042SOL     OW38761   2.627   2.509   3.442 -0.1018 -0.4824 -0.1955
 9042SOL    HW138762   2.626   2.506   3.537 -0.0493 -0.9517 -0.2070
 9042SOL    HW238763   2.695   2.575   3.428 -0.0220 -0.6699 -0.6908
 9043SOL     OW38764   4.172   1.819   6.865  0.4452 -0.3634  0.3369
 9043SOL    HW138765   4.197   1.862   6.947  1.2324  1.1994 -0.7098
 9043SOL    HW238766   4.252   1.777   6.833  1.3961  0.6270  1.3686
 9044SOL     OW38767   1.973   3.454  11.278 -0.6318  0.0984 -0.2622
 9044SOL    HW138768   1.917   3.424  11.206 -1.4719  0.6337  0.1584
 9044SOL    HW238769   1.937   3.414  11.358 -1.6022  2.3344  0.4302
 9045SOL     OW38770   4.395   2.819   8.527  0.0798 -0.1046 -0.7369
 9045SOL    HW138771   4.338   2.760   8.479 -0.3889  0.3062 -0.6843
 9045SOL    HW238772   4.334   2.865   8.584 -1.2241 -0.2272 -2.0395
 9046SOL     OW38773   3.531   1.996   4.676  0.0828  0.1990  0.6345
 9046SOL    HW138774   3.555   2.012   4.584 -0.2920 -1.3104  0.2746
 9046SOL    HW238775   3.516   1.902   4.679  2.2544 -0.1546  0.2310
 9047SOL     OW38776   0.747   0.529   1.912  0.0400 -0.1909  0.2165
 9047SOL    HW138777   0.730   0.591   1.983  1.3241 -0.5186  0.7989
 9047SOL    HW238778   0.749   0.590   1.838  1.2313  0.3745  0.7194
 9048SOL     OW38779   3.445   2.625  13.838  0.2524  0.0270 -0.2194
 9048SOL    HW138780   3.368   2.647  13.891  0.2609 -2.0388  0.6661
 9048SOL    HW238781   3.493   2.706  13.823  0.4747  0.0598  0.6730
 9049SOL     OW38782   4.633   0.197  10.547 -0.6775 -0.5186  0.7115
 9049SOL    HW138783   4.679   0.114  10.558 -0.3985 -0.8601 -2.9825
 9049SOL    HW238784   4.642   0.223  10.638 -1.7679 -2.6310  1.4062
 9050SOL     OW38785   2.508   3.739  17.209  0.1095  0.1368 -0.4645
 9050SOL    HW138786   2.496   3.645  17.224  1.1058  0.1559  0.4461
 9050SOL    HW238787   2.594   3.741  17.167  1.0525 -0.8761  1.4164
 9051SOL     OW38788   1.086   3.816  11.569 -0.3324 -0.1435  0.1519
 9051SOL    HW138789   1.049   3.903  11.549 -0.0766  0.5003  2.4660
 9051SOL    HW238790   1.157   3.819  11.505  1.4168 -1.0909  2.0919
 9052SOL     OW38791   0.149   2.771   8.868 -0.2949 -0.4256 -0.2957
 9052SOL    HW138792   0.222   2.813   8.821 -1.0051  2.0864  0.8483
 9052SOL    HW238793   0.147   2.833   8.941  1.5667  1.3486 -1.7322
 9053SOL     OW38794   3.399   0.840   2.060  0.3501 -0.1442  0.1615
 9053SOL    HW138795   3.343   0.796   2.124  0.4215 -0.3158  0.1039
 9053SOL    HW238796   3.444   0.899   2.121  0.0089  1.0356 -0.7271
 9054SOL     OW38797   2.582   4.270   8.198 -0.5985 -0.5468 -0.1322
 9054SOL    HW138798   2.589   4.326   8.276 -1.2796 -1.0805  0.3207
 9054SOL    HW238799   2.569   4.182   8.235 -0.2176  0.3774  2.1924
 9055SOL     OW38800   2.189   3.101   7.164 -0.0348 -0.6431  0.4419
 9055SOL    HW138801   2.116   3.157   7.192  0.9477  0.1283  1.4704
 9055SOL    HW238802   2.169   3.081   7.073  1.2730  0.5979 -0.1241
 9056SOL     OW38803   4.246   3.268  13.738  0.4353 -0.5279  0.0991
 9056SOL    HW138804   4.281   3.241  13.823 -0.5219 -0.9788  0.3595
 9056SOL    HW238805   4.308   3.330  13.702 -0.2800  1.0451  1.5730
 9057SOL     OW38806   0.714   3.310   5.823 -0.3528 -0.4438 -0.3541
 9057SOL    HW138807   0.625   3.291   5.793 -1.6702  2.8914  1.4726
 9057SOL    HW238808   0.712   3.406   5.820 -2.3387 -0.5368 -1.8901
 9058SOL     OW38809   1.069   2.161   1.752 -0.3608  0.5238 -0.0961
 9058SOL    HW138810   1.033   2.129   1.834 -2.6662  1.5510 -0.6971
 9058SOL    HW238811   1.100   2.080   1.712  1.2329  0.1991  1.8195
 9059SOL     OW38812   3.048   2.710  14.698  0.0489 -0.5325 -0.5725
 9059SOL    HW138813   3.049   2.707  14.602 -0.0818 -1.5992 -0.5426
 9059SOL    HW238814   2.953   2.704  14.708 -0.1646  1.7055 -1.2365
 9060SOL     OW38815   3.587   3.931  11.304  0.2380  0.2009  0.9650
 9060SOL    HW138816   3.553   3.842  11.314  2.5919 -0.9303 -1.0725
 9060SOL    HW238817   3.598   3.963  11.394 -1.7158 -0.0472  1.2959
 9061SOL     OW38818   1.521   2.644  12.737  0.4925  0.0100  0.2159
 9061SOL    HW138819   1.506   2.555  12.771  0.0012  0.1118  0.2549
 9061SOL    HW238820   1.601   2.626  12.687 -0.1557 -0.6249 -0.5764
 9062SOL     OW38821   3.178   0.920   2.727  0.6278 -0.3093  0.4983
 9062SOL    HW138822   3.125   0.917   2.806  1.9007  0.3728  1.3745
 9062SOL    HW238823   3.270   0.923   2.754 -0.0707  2.2786  2.5524
 9063SOL     OW38824   4.353   3.672   3.908 -0.1742  0.8963  0.0775
 9063SOL    HW138825   4.406   3.728   3.851 -0.2866 -1.1351 -2.0010
 9063SOL    HW238826   4.409   3.692   3.984  0.8062 -2.2155  0.1638
 9064SOL     OW38827   0.643   4.501  14.258 -0.0142  0.0757  0.0675
 9064SOL    HW138828   0.557   4.465  14.278 -0.5791  0.4032 -1.8091
 9064SOL    HW238829   0.673   4.535  14.343  2.4263 -0.3977 -0.6019
 9065SOL     OW38830   0.121   2.666   8.314 -0.3356 -0.6139  0.0926
 9065SOL    HW138831   0.067   2.732   8.358 -3.2212 -3.2027  0.5064
 9065SOL    HW238832   0.157   2.630   8.395  0.7453  0.5745  0.1310
 9066SOL     OW38833   1.983   4.008   6.711 -0.6434  0.1006 -0.3726
 9066SOL    HW138834   1.980   3.933   6.769  0.2413  0.5574  0.2698
 9066SOL    HW238835   2.051   3.993   6.645 -1.7525  0.0715 -1.5136
 9067SOL     OW38836   3.508   3.145  10.131  0.4394 -0.5055  0.4898
 9067SOL    HW138837   3.449   3.106  10.196  0.7870  0.5640  1.4519
 9067SOL    HW238838   3.452   3.192  10.070  0.4432 -1.2868 -0.1114
 9068SOL     OW38839   4.632   3.976   8.564 -0.3070 -0.8084  0.2171
 9068SOL    HW138840   4.567   3.908   8.582 -1.8815  0.2010 -1.7725
 9068SOL    HW238841   4.676   3.930   8.492  1.9878 -0.3809  1.3448
 9069SOL     OW38842   2.362   3.927   6.277  0.0173 -0.5302  0.0337
 9069SOL    HW138843   2.377   3.932   6.372  3.0844  0.6656 -0.5415
 9069SOL    HW238844   2.378   4.020   6.258 -0.6737 -1.3088 -4.2685
 9070SOL     OW38845   2.543   3.290   9.993 -0.3794 -0.0205  0.6658
 9070SOL    HW138846   2.607   3.239   9.942  0.4546  1.4054  0.3136
 9070SOL    HW238847   2.588   3.272  10.075 -1.6479 -4.8068  0.3748
 9071SOL     OW38848   3.942   0.830   6.667 -0.5737 -0.4635 -0.3141
 9071SOL    HW138849   3.890   0.808   6.745  1.1663 -0.6748  0.7947
 9071SOL    HW238850   3.921   0.924   6.668 -2.0109 -0.7850  0.2934
 9072SOL     OW38851   2.299   0.778   9.976  0.2228 -0.5552  0.0540
 9072SOL    HW138852   2.301   0.853   9.917  3.0208 -0.6335  0.0403
 9072SOL    HW238853   2.262   0.715   9.914 -0.2422 -1.1258  0.9077
 9073SOL     OW38854   3.915   3.996   8.839 -1.0384  0.3098 -0.2902
 9073SOL    HW138855   3.935   3.974   8.748  0.4860 -1.5678  0.4938
 9073SOL    HW238856   3.952   3.915   8.875  0.5729  1.5708  0.9585
 9074SOL     OW38857   2.225   4.700   7.830  0.5441 -0.3170 -0.1398
 9074SOL    HW138858   2.192   4.685   7.919 -2.6352  1.6662 -1.0255
 9074SOL    HW238859   2.289   4.630   7.816 -1.2317 -2.2511  1.3823
 9075SOL     OW38860   1.226   4.130   8.228 -0.1644 -0.2126 -0.0534
 9075SOL    HW138861   1.265   4.084   8.303 -0.4499 -0.4255 -0.0355
 9075SOL    HW238862   1.258   4.219   8.243 -1.2987  0.2361 -0.2891
 9076SOL     OW38863   3.001   2.558   2.399  0.0850 -0.0100 -0.0363
 9076SOL    HW138864   2.954   2.608   2.466  1.6465 -0.3520  1.3135
 9076SOL    HW238865   3.086   2.543   2.441  0.8881  2.0997 -0.9069
 9077SOL     OW38866   2.526   1.012   1.141  0.2525  0.2139  0.0376
 9077SOL    HW138867   2.459   1.047   1.083 -0.1098 -2.1099 -0.9299
 9077SOL    HW238868   2.605   1.061   1.115  1.0323  0.6051  3.0651
 9078SOL     OW38869   4.112   1.126   6.430 -0.5737  0.1382 -0.4296
 9078SOL    HW138870   4.072   1.041   6.412 -0.3543 -0.3227  1.2144
 9078SOL    HW238871   4.039   1.188   6.428 -1.0976 -0.4678  0.0327
 9079SOL     OW38872   3.612   4.669   9.139  0.0217 -0.6332 -0.2643
 9079SOL    HW138873   3.692   4.709   9.105 -0.0778 -0.8619 -0.7561
 9079SOL    HW238874   3.553   4.688   9.067 -1.0122  0.3110  0.8274
 9080SOL     OW38875   1.548   1.634   2.538  0.0853  0.1403  0.3679
 9080SOL    HW138876   1.545   1.672   2.450  2.6659  1.6553  0.9346
 9080SOL    HW238877   1.514   1.711   2.583  0.5515  0.8957 -0.5556
 9081SOL     OW38878   0.179   0.740  13.692 -0.0383 -0.3526  0.1872
 9081SOL    HW138879   0.096   0.786  13.706  0.8450  1.1706  0.4797
 9081SOL    HW238880   0.221   0.744  13.777 -0.8702 -0.5093  0.6038
 9082SOL     OW38881   1.277   0.224   1.686 -0.2630 -0.3122 -0.2026
 9082SOL    HW138882   1.201   0.268   1.726  0.1683 -0.1069  0.3884
 9082SOL    HW238883   1.282   0.146   1.741  1.2897  2.4893  3.5484
 9083SOL     OW38884   1.948   1.938   0.012  0.1432  0.8957  0.3705
 9083SOL    HW138885   1.933   1.846  17.735 -0.0860  1.1991 -0.9904
 9083SOL    HW238886   1.901   1.971  17.676 -1.4291  0.2613  1.0688
 9084SOL     OW38887   2.420   0.402   8.527 -0.4110  0.7281 -0.3872
 9084SOL    HW138888   2.340   0.397   8.580  2.0218  0.4538  3.1820
 9084SOL    HW238889   2.389   0.338   8.462  1.6647 -0.7624  0.1209
 9085SOL     OW38890   1.823   1.907   4.553  0.0751 -0.5385  0.6529
 9085SOL    HW138891   1.858   1.915   4.465  0.7737  0.0203  0.9852
 9085SOL    HW238892   1.815   1.812   4.566  0.8881 -0.4378  1.9225
 9086SOL     OW38893   0.209   2.412  17.667 -0.3007  0.4602 -0.3701
 9086SOL    HW138894   0.289   2.402  17.615 -0.1097 -1.3136  0.2828
 9086SOL    HW238895   0.249   2.451   0.004 -2.1435 -1.1075  1.3373
 9087SOL     OW38896   2.372   2.349   8.912 -0.2236  0.0527 -0.5249
 9087SOL    HW138897   2.329   2.434   8.927 -0.5302 -0.6486  2.5847
 9087SOL    HW238898   2.343   2.331   8.823 -0.0907  1.3272 -0.8178
 9088SOL     OW38899   1.643   4.470   3.808  0.2123  0.3869 -0.2965
 9088SOL    HW138900   1.653   4.488   3.901  0.1466 -0.9321 -0.0269
 9088SOL    HW238901   1.733   4.443   3.789 -0.1659  0.1666 -1.8296
 9089SOL     OW38902   2.544   3.456   6.724 -0.1026 -0.3663  0.2913
 9089SOL    HW138903   2.592   3.396   6.667  0.8484  0.6756 -0.0075
 9089SOL    HW238904   2.455   3.426   6.707 -0.3865  1.4048 -1.2821
 9090SOL     OW38905   0.520   3.371  13.742  0.6336  0.0449  0.1672
 9090SOL    HW138906   0.479   3.440  13.793 -1.8690 -1.3703  0.0270
 9090SOL    HW238907   0.479   3.393  13.658 -1.0988 -0.6379  0.8470
 9091SOL     OW38908   3.833   1.529   5.607 -0.4103 -0.1201 -0.0653
 9091SOL    HW138909   3.899   1.586   5.647  0.2406  0.1200 -1.4954
 9091SOL    HW238910   3.813   1.585   5.532  0.1392  0.3358  0.1303
 9092SOL     OW38911   2.224   1.797   9.078 -0.3209 -0.8102 -0.2349
 9092SOL    HW138912   2.316   1.810   9.054 -0.7759 -0.8491 -2.0174
 9092SOL    HW238913   2.222   1.709   9.114 -0.6764 -1.1196 -1.0153
 9093SOL     OW38914   0.094   2.710   9.430 -0.1864  0.2889  0.5540
 9093SOL    HW138915   0.090   2.689   9.523  0.8739 -0.2437  0.4748
 9093SOL    HW238916   0.150   2.646   9.387  0.1666  0.3979  0.8533
 9094SOL     OW38917   3.664   2.727   1.880  0.6647  0.4108  0.3007
 9094SOL    HW138918   3.610   2.716   1.802  2.8424 -0.7967 -1.0466
 9094SOL    HW238919   3.751   2.728   1.839  1.8233  0.3626  2.7869
 9095SOL     OW38920   3.215   2.166   6.138  0.5884  0.0059  0.8267
 9095SOL    HW138921   3.281   2.148   6.205  0.0775  0.4189  1.4499
 9095SOL    HW238922   3.169   2.083   6.151  0.3966 -0.0568 -0.2415
 9096SOL     OW38923   3.442   3.519   5.981  0.4218  0.3003  0.0131
 9096SOL    HW138924   3.516   3.482   6.029 -0.8935 -1.0313  1.0206
 9096SOL    HW238925   3.459   3.613   5.984  0.6698  0.2974 -1.2924
 9097SOL     OW38926   3.040   2.183   2.357  0.1743 -0.5114  0.0984
 9097SOL    HW138927   2.990   2.125   2.301  1.6956 -2.1999  0.4744
 9097SOL    HW238928   3.094   2.231   2.295  0.5050  2.3353  2.5741
 9098SOL     OW38929   0.252   1.229   6.470  0.3748 -0.0435  0.2855
 9098SOL    HW138930   0.306   1.212   6.547  0.8772 -2.3121 -0.5648
 9098SOL    HW238931   0.319   1.252   6.407 -0.7904  1.4419 -0.4135
 9099SOL     OW38932   1.187   2.452   3.436  0.2373  0.4553  0.0305
 9099SOL    HW138933   1.256   2.400   3.476 -1.8343 -1.2204  1.4563
 9099SOL    HW238934   1.214   2.535   3.476  1.8987 -0.3163  0.4929
 9100SOL     OW38935   3.493   1.503   4.307  0.2597 -0.3137  0.2760
 9100SOL    HW138936   3.473   1.497   4.214  0.6780 -0.5247  0.1983
 9100SOL    HW238937   3.413   1.543   4.340 -0.5927 -1.6719 -0.1421
 9101SOL     OW38938   4.054   4.245   6.743 -0.7282 -0.4317 -0.5790
 9101SOL    HW138939   4.108   4.232   6.820  0.3685  1.5775 -1.0062
 9101SOL    HW238940   4.072   4.171   6.685  2.8354 -1.3711  1.7911
 9102SOL     OW38941   3.616   0.151   3.489 -0.1592  0.0552  0.2869
 9102SOL    HW138942   3.571   0.068   3.499 -1.8857  1.0134  0.3669
 9102SOL    HW238943   3.674   0.132   3.562 -1.2710  0.8046  1.3613
 9103SOL     OW38944   0.367   1.664  13.527 -0.1043 -0.3690 -0.1095
 9103SOL    HW138945   0.290   1.609  13.541 -0.8434  0.9282  0.8511
 9103SOL    HW238946   0.430   1.633  13.592 -3.9176 -3.2335  2.2352
 9104SOL     OW38947   1.294   1.303  16.046 -0.2709 -0.0498  0.6083
 9104SOL    HW138948   1.212   1.305  15.996  0.5097  0.1373 -0.6500
 9104SOL    HW238949   1.349   1.364  15.999 -1.7744  1.4989  0.8547
 9105SOL     OW38950   3.423   1.133  12.012 -0.0595 -0.1696 -0.2742
 9105SOL    HW138951   3.438   1.064  12.077  2.0131  0.7479  0.2203
 9105SOL    HW238952   3.509   1.176  12.017  0.2910 -0.9256  0.2397
 9106SOL     OW38953   3.297   2.285   9.632 -0.8041 -0.8901  0.0013
 9106SOL    HW138954   3.340   2.369   9.651  0.0117 -0.8651 -1.9567
 9106SOL    HW238955   3.306   2.249   9.720 -1.5114  1.0607  0.8738
 9107SOL     OW38956   1.280   0.625  10.894  0.1241  0.5519 -0.0903
 9107SOL    HW138957   1.209   0.646  10.834  0.8640 -0.4207 -1.3052
 9107SOL    HW238958   1.236   0.546  10.926  1.5417  0.8845  2.6308
 9108SOL     OW38959   1.434   2.935   6.584 -0.2484 -0.6028 -0.0639
 9108SOL    HW138960   1.390   2.971   6.508 -1.3779  0.0298  0.8884
 9108SOL    HW238961   1.369   2.948   6.654 -0.5171  0.0090 -0.4239
 9109SOL     OW38962   1.949   1.042   6.605 -0.9586 -0.1379 -1.1290
 9109SOL    HW138963   1.937   0.992   6.686  0.1288  0.5205 -0.5713
 9109SOL    HW238964   1.861   1.077   6.589 -0.7012  0.7665 -0.5314
 9110SOL     OW38965   1.148   2.053   3.651  0.4021 -0.2158 -0.0438
 9110SOL    HW138966   1.080   1.986   3.651 -1.7299  1.9159 -0.7513
 9110SOL    HW238967   1.120   2.108   3.725 -0.0994 -1.2251  0.5105
 9111SOL     OW38968   4.357   0.670   9.104  0.5429 -0.1544 -0.1502
 9111SOL    HW138969   4.414   0.727   9.155 -0.3795  0.1424  0.5555
 9111SOL    HW238970   4.359   0.593   9.161  0.1462 -0.4928 -0.5873
 9112SOL     OW38971   1.097   2.713  12.620 -0.4329  0.4107  0.2721
 9112SOL    HW138972   1.078   2.642  12.682  1.5537  1.0171  1.5733
 9112SOL    HW238973   1.109   2.667  12.537 -0.4502  1.6475 -0.4106
 9113SOL     OW38974   1.495   1.953   1.081  0.1085  0.3637  0.1928
 9113SOL    HW138975   1.436   1.878   1.068 -0.6187  0.3600  3.6987
 9113SOL    HW238976   1.537   1.916   1.158 -0.6422 -1.2104 -0.1548
 9114SOL     OW38977   1.019   0.309   5.186  0.8538  0.1769  0.5518
 9114SOL    HW138978   1.019   0.345   5.098 -0.0610 -1.8882 -0.2947
 9114SOL    HW238979   0.951   0.365   5.225  0.1496 -0.8996  0.8822
 9115SOL     OW38980   2.850   2.421   4.940  0.6030 -0.1820 -0.3469
 9115SOL    HW138981   2.929   2.371   4.922  0.2593 -0.5406 -0.8254
 9115SOL    HW238982   2.812   2.432   4.853 -0.9223  2.1381  0.6238
 9116SOL     OW38983   3.651   4.312   3.412  0.2541  0.1500 -0.1608
 9116SOL    HW138984   3.744   4.316   3.436  0.1124  1.3946  0.1796
 9116SOL    HW238985   3.642   4.392   3.361  0.6983 -0.0018 -0.4873
 9117SOL     OW38986   1.337   3.610   6.906 -0.0587 -0.1116 -0.1389
 9117SOL    HW138987   1.314   3.665   6.831  2.8470  3.2918  1.5259
 9117SOL    HW238988   1.335   3.663   6.986  0.4250  1.7201 -1.3419
 9118SOL     OW38989   0.527   3.182  10.008  0.0608  0.0520 -0.4788
 9118SOL    HW138990   0.504   3.114  10.072 -0.9920  0.7853 -0.0818
 9118SOL    HW238991   0.438   3.213   9.990  0.9636  2.1067 -1.3470
 9119SOL     OW38992   0.953   2.440   3.679 -0.1679 -0.1977  0.0173
 9119SOL    HW138993   1.007   2.519   3.681  0.3385 -0.4900 -2.2130
 9119SOL    HW238994   0.961   2.410   3.770 -0.2265 -0.5815 -0.1042
 9120SOL     OW38995   4.422   3.200   5.810  0.0356 -0.0897  0.6223
 9120SOL    HW138996   4.420   3.244   5.725  0.9650 -0.9706  0.1488
 9120SOL    HW238997   4.461   3.262   5.872 -1.1991 -0.1995  1.5221
 9121SOL     OW38998   1.777   4.515   8.405 -0.1106 -0.4705  0.1252
 9121SOL    HW138999   1.749   4.436   8.451  1.2296 -0.2590  1.2939
 9121SOL    HW239000   1.809   4.484   8.320 -0.0028 -0.6266  0.2236
 9122SOL     OW39001   2.253   0.873   2.078 -0.4461 -0.0517  0.5148
 9122SOL    HW139002   2.171   0.874   2.126 -0.8523  0.2120 -0.1870
 9122SOL    HW239003   2.280   0.788   2.112 -1.5828  0.1228  1.8039
 9123SOL     OW39004   3.447   2.890   5.981  0.2491 -0.3843  0.4990
 9123SOL    HW139005   3.463   2.811   6.033  0.8079 -0.5290  0.1140
 9123SOL    HW239006   3.511   2.948   6.022 -0.0138 -0.0704  0.4668
 9124SOL     OW39007   3.140   0.293   4.126  0.8236  0.3531  0.8814
 9124SOL    HW139008   3.093   0.210   4.120  0.2276  0.8337 -0.9003
 9124SOL    HW239009   3.075   0.337   4.073  1.9414  2.1075  0.9716
 9125SOL     OW39010   3.118   3.509  15.190 -0.9757  0.0381  0.3368
 9125SOL    HW139011   3.080   3.511  15.277  1.3557 -0.7992  1.3866
 9125SOL    HW239012   3.169   3.428  15.199  0.6081  1.1026  0.9667
 9126SOL     OW39013   0.917   4.161  10.079 -0.1738  0.0705 -0.7063
 9126SOL    HW139014   0.861   4.235  10.103 -1.6839 -0.9893 -1.0332
 9126SOL    HW239015   1.002   4.200  10.101  0.2506 -0.4005 -1.5242
 9127SOL     OW39016   2.164   1.663   8.495 -0.7340 -0.5247 -0.4332
 9127SOL    HW139017   2.218   1.742   8.503 -1.9302  0.3233 -0.8339
 9127SOL    HW239018   2.133   1.660   8.586  3.2635  1.7670  1.0302
 9128SOL     OW39019   1.590   2.253   2.765 -0.3139  0.1522  0.1296
 9128SOL    HW139020   1.519   2.257   2.701  0.8922  1.7634 -1.1462
 9128SOL    HW239021   1.548   2.305   2.833  0.6034  3.6897 -2.0102
 9129SOL     OW39022   3.649   0.182   5.141  0.3109 -0.4431  0.5437
 9129SOL    HW139023   3.714   0.113   5.138 -2.1690 -2.7360 -0.3969
 9129SOL    HW239024   3.566   0.138   5.125  0.8388 -1.7336  1.3939
 9130SOL     OW39025   0.651   4.629   4.661  0.4593  0.1196 -0.0243
 9130SOL    HW139026   0.654   4.533   4.664  0.5584  0.1540  1.1973
 9130SOL    HW239027   0.742   4.638   4.690  0.5416 -0.3686 -0.1350
 9131SOL     OW39028   2.073   1.772  12.746 -0.0087 -0.1834 -0.4749
 9131SOL    HW139029   2.141   1.705  12.738 -0.4476 -0.6683 -0.1427
 9131SOL    HW239030   2.041   1.783  12.656  1.8866  0.6204 -1.0409
 9132SOL     OW39031   0.703   1.667   2.514  0.3507 -0.3616  0.0535
 9132SOL    HW139032   0.743   1.724   2.448  1.6255 -2.0769 -0.6781
 9132SOL    HW239033   0.711   1.583   2.468  3.5636  0.4676 -0.8943
 9133SOL     OW39034   2.963   1.761  17.684  0.3773 -0.0047  0.5091
 9133SOL    HW139035   2.979   1.819   0.017 -0.1061 -0.6573  1.1309
 9133SOL    HW239036   3.047   1.715  17.673  1.4356  1.5722  2.1372
 9134SOL     OW39037   2.603   3.177   7.311 -0.3663  0.9059 -0.0444
 9134SOL    HW139038   2.659   3.239   7.263 -1.0982  1.2544 -0.4531
 9134SOL    HW239039   2.662   3.171   7.386  1.2414 -0.7369 -1.4456
 9135SOL     OW39040   0.765   1.666   0.965 -0.0986  0.1158  0.1358
 9135SOL    HW139041   0.720   1.661   1.049  0.0591 -1.2659  0.1486
 9135SOL    HW239042   0.807   1.580   0.961  0.1276  0.3243 -2.0135
 9136SOL     OW39043   4.088   0.301   3.696 -0.2143 -0.8097  0.2034
 9136SOL    HW139044   3.994   0.310   3.707 -0.3126  0.9151 -2.1868
 9136SOL    HW239045   4.110   0.211   3.723 -1.3382 -0.6024  1.8195
 9137SOL     OW39046   3.933   3.334   3.266 -0.2087 -0.2142 -0.2162
 9137SOL    HW139047   3.841   3.321   3.291 -0.4198 -0.0112 -0.8851
 9137SOL    HW239048   3.963   3.244   3.254  0.9670  0.1126  0.2328
 9138SOL     OW39049   4.051   3.353   8.906  0.4462  0.3204 -0.3708
 9138SOL    HW139050   4.138   3.374   8.871 -0.0100  1.4578 -0.8200
 9138SOL    HW239051   3.995   3.412   8.855  1.0886  0.7686 -0.5683
 9139SOL     OW39052   2.754   1.986   0.971 -0.1878  0.7932  0.3969
 9139SOL    HW139053   2.686   1.991   1.038  0.2824  2.8787  0.7164
 9139SOL    HW239054   2.816   2.046   1.012  0.4239 -0.9164  1.9561
 9140SOL     OW39055   0.582   3.964   3.068 -0.7167  0.0516  0.2865
 9140SOL    HW139056   0.584   4.055   3.099 -0.1954  0.3033 -0.5091
 9140SOL    HW239057   0.558   3.929   3.154 -0.2177 -0.9135  0.0212
 9141SOL     OW39058   0.010   2.442   2.795 -1.0757 -0.8098 -0.1028
 9141SOL    HW139059   0.059   2.448   2.713  2.4976  2.3405  2.2527
 9141SOL    HW239060   0.028   2.353   2.826  2.7871  0.3660  1.0836
 9142SOL     OW39061   4.575   0.597   3.977  0.0465  0.7182 -0.3260
 9142SOL    HW139062   4.665   0.621   3.999  0.7598  0.7658 -3.2585
 9142SOL    HW239063   4.560   0.646   3.896 -2.7461 -0.1917 -0.3472
 9143SOL     OW39064   2.889   2.427  10.983  0.0244 -0.1874  0.0162
 9143SOL    HW139065   2.827   2.356  10.996 -0.9760  0.6815 -0.0089
 9143SOL    HW239066   2.888   2.482  11.062 -2.4062  0.8405 -0.7332
 9144SOL     OW39067   4.651   0.366  13.536  0.1918  0.1494  0.2623
 9144SOL    HW139068   4.577   0.327  13.582  0.1141 -1.2068 -1.0060
 9144SOL    HW239069   4.617   0.375  13.447 -0.1711 -1.5222  0.2159
 9145SOL     OW39070   3.455   0.240   7.347 -0.0338  0.4913  0.1280
 9145SOL    HW139071   3.418   0.308   7.404  2.0554  0.0257  2.0258
 9145SOL    HW239072   3.463   0.299   7.272 -0.4165 -1.5519 -1.4890
 9146SOL     OW39073   1.223   3.329  16.389 -0.8063 -0.3105  0.0336
 9146SOL    HW139074   1.169   3.406  16.411 -1.9532 -0.4579 -2.3154
 9146SOL    HW239075   1.222   3.298  16.480 -0.5322 -2.7187 -0.7868
 9147SOL     OW39076   0.356   2.077   4.589 -0.1460 -1.0131 -0.4398
 9147SOL    HW139077   0.292   2.126   4.640  1.8807  0.7225  0.4710
 9147SOL    HW239078   0.301   2.012   4.546 -0.9996  1.5530 -3.2366
 9148SOL     OW39079   2.612   1.645   6.927 -0.1090 -0.0191 -0.0866
 9148SOL    HW139080   2.651   1.625   6.842  0.5146 -0.2103  0.2446
 9148SOL    HW239081   2.582   1.557   6.950 -0.4842  0.0505 -0.3053
 9149SOL     OW39082   3.763   0.348   5.807  0.0456 -0.3043  0.0683
 9149SOL    HW139083   3.803   0.287   5.869  0.8072  1.0702  0.9079
 9149SOL    HW239084   3.785   0.313   5.720 -2.2327  0.1621 -0.7095
 9150SOL     OW39085   1.488   1.257  10.035  0.2037 -0.7007 -0.3637
 9150SOL    HW139086   1.455   1.326  10.093  2.4996  1.9938 -2.2781
 9150SOL    HW239087   1.573   1.240  10.075 -0.4971  1.1053  1.9182
 9151SOL     OW39088   1.768   1.892   2.684  0.2383  0.5616  0.1489
 9151SOL    HW139089   1.766   1.825   2.752 -0.9757 -0.0923 -0.5176
 9151SOL    HW239090   1.675   1.916   2.685  0.2884  0.8618 -1.3208
 9152SOL     OW39091   3.790   4.340   9.649 -0.1892 -0.0766  0.3643
 9152SOL    HW139092   3.751   4.397   9.583 -2.3322  0.2861  1.9633
 9152SOL    HW239093   3.718   4.320   9.708  0.6761 -1.7721  0.8656
 9153SOL     OW39094   3.138   2.199   4.337  0.1074  0.4064 -0.0135
 9153SOL    HW139095   3.195   2.245   4.399 -0.8668 -0.3300  1.4450
 9153SOL    HW239096   3.142   2.106   4.362 -1.4240  0.5992  0.9799
 9154SOL     OW39097   4.620   2.612   1.989  0.2120 -0.5210 -0.4429
 9154SOL    HW139098   4.625   2.564   2.072 -0.1844  1.7223  0.8941
 9154SOL    HW239099   4.697   2.578   1.943 -0.7129 -0.1337 -2.2566
 9155SOL     OW39100   2.385   3.501  10.095 -0.2362 -0.0168 -0.4919
 9155SOL    HW139101   2.333   3.429  10.131  1.0043  0.2046  1.8055
 9155SOL    HW239102   2.450   3.452  10.045  2.0744  1.3336  1.1724
 9156SOL     OW39103   0.875   0.536   7.514  0.0170  0.2344  0.0192
 9156SOL    HW139104   0.855   0.449   7.550  0.1150  0.0361 -0.4049
 9156SOL    HW239105   0.952   0.518   7.461  0.2659  0.4949  0.2961
 9157SOL     OW39106   3.189   2.495   5.943 -0.1889 -0.4537  0.3121
 9157SOL    HW139107   3.237   2.416   5.967 -0.5005 -0.6866  0.1688
 9157SOL    HW239108   3.155   2.516   6.030 -1.4249 -0.0384 -0.2696
 9158SOL     OW39109   4.279   3.915   4.240  0.2548  0.1877  0.1017
 9158SOL    HW139110   4.346   3.869   4.189  0.2751  1.4338 -1.0190
 9158SOL    HW239111   4.251   3.979   4.174  1.5187  1.7769  1.1080
 9159SOL     OW39112   1.145   3.390  12.349  0.5418  0.0633  0.7281
 9159SOL    HW139113   1.154   3.481  12.377  1.9774  0.3011 -0.4579
 9159SOL    HW239114   1.078   3.410  12.283  0.4941 -1.0153  0.4523
 9160SOL     OW39115   0.493   2.926   7.051  0.1307 -0.2729 -0.5588
 9160SOL    HW139116   0.506   2.833   7.066  0.9337 -0.2527 -1.1288
 9160SOL    HW239117   0.495   2.954   7.143 -0.8613  1.4087 -1.0414
 9161SOL     OW39118   3.120   2.902   9.258  0.0333 -0.4120  0.2779
 9161SOL    HW139119   3.133   2.820   9.211  2.5621  0.9139 -1.3526
 9161SOL    HW239120   3.215   2.911   9.266  0.0472  0.0664 -0.4162
 9162SOL     OW39121   0.844   4.276   6.113 -0.1032 -0.0762 -0.1049
 9162SOL    HW139122   0.826   4.365   6.143  1.4648 -0.7611  2.8126
 9162SOL    HW239123   0.792   4.225   6.174 -2.4831 -0.7223 -2.6765
 9163SOL     OW39124   0.419   1.407   5.211 -0.2924  0.3521  0.0734
 9163SOL    HW139125   0.336   1.418   5.165 -1.2840 -2.3687  1.1864
 9163SOL    HW239126   0.481   1.384   5.141 -0.9650  2.2238 -1.1375
 9164SOL     OW39127   1.602   3.073   4.400 -0.1493  0.2554  0.1153
 9164SOL    HW139128   1.590   3.108   4.488  1.7520  2.3951 -0.4745
 9164SOL    HW239129   1.534   3.005   4.398 -0.4680  0.6477 -2.1007
 9165SOL     OW39130   3.732   0.995  11.593  0.2207 -0.6488 -0.7111
 9165SOL    HW139131   3.798   1.017  11.528 -0.6130  2.0547 -0.6833
 9165SOL    HW239132   3.650   1.005  11.546  0.4358  0.7407 -0.7970
 9166SOL     OW39133   2.468   3.720   7.067 -0.2944 -0.1634 -0.3880
 9166SOL    HW139134   2.554   3.693   7.035  0.0162  1.3241 -0.8003
 9166SOL    HW239135   2.436   3.777   6.997 -0.7023  1.7371  1.3456
 9167SOL     OW39136   1.731   0.113   2.537 -0.4641 -0.0064  0.2336
 9167SOL    HW139137   1.738   0.141   2.445  1.1083  1.3698  0.7786
 9167SOL    HW239138   1.783   0.182   2.578 -0.4849  0.1632 -0.0238
 9168SOL     OW39139   1.273   3.107   4.187  0.0559 -0.5235 -0.3497
 9168SOL    HW139140   1.248   3.172   4.254  1.4325 -1.1569  0.7852
 9168SOL    HW239141   1.240   3.148   4.107  0.4373  0.0792 -0.2012
 9169SOL     OW39142   1.805   1.743   7.953  0.2795  0.3143 -0.1438
 9169SOL    HW139143   1.827   1.813   7.891  0.4161  1.1139  0.8160
 9169SOL    HW239144   1.759   1.789   8.023 -1.1840  0.8914 -1.4692
 9170SOL     OW39145   1.275   1.917  11.774  0.0890 -0.0683  0.4817
 9170SOL    HW139146   1.314   1.988  11.722 -2.5161 -0.8158 -2.4813
 9170SOL    HW239147   1.290   1.939  11.866  0.5221  1.3130  0.0773
 9171SOL     OW39148   1.905   3.137   9.895 -0.0491 -0.2499  0.5988
 9171SOL    HW139149   1.817   3.171   9.877  0.5593  0.0482 -1.8203
 9171SOL    HW239150   1.929   3.152   9.803 -2.4553 -1.5963 -0.2386
 9172SOL     OW39151   0.997   4.172   5.569 -0.1773  0.2948  0.6575
 9172SOL    HW139152   1.038   4.210   5.646 -1.6083 -1.7618  2.4137
 9172SOL    HW239153   1.052   4.095   5.557  0.4301  0.7260  0.6764
 9173SOL     OW39154   4.191   2.342  17.495 -0.1510  1.0465 -0.4330
 9173SOL    HW139155   4.147   2.291  17.563  0.0787  1.1853 -0.1791
 9173SOL    HW239156   4.157   2.300  17.417  0.4907 -0.3596  0.0558
 9174SOL     OW39157   0.784   4.197   8.420 -0.2893  0.3714 -0.4028
 9174SOL    HW139158   0.849   4.261   8.391 -0.7786  0.6598 -0.8746
 9174SOL    HW239159   0.853   4.137   8.446 -0.0738  0.0667 -1.6501
 9175SOL     OW39160   1.990   0.169   6.202 -0.5778  0.0187 -0.2174
 9175SOL    HW139161   1.897   0.148   6.193 -0.8873  0.7930  1.1199
 9175SOL    HW239162   2.014   0.096   6.260 -0.2703  0.8396  0.6930
 9176SOL     OW39163   3.341   1.652   1.133 -0.4993  0.0844 -0.5112
 9176SOL    HW139164   3.426   1.680   1.167 -0.5948 -2.1024  1.5187
 9176SOL    HW239165   3.300   1.618   1.213  1.5815 -1.6307 -0.2038
 9177SOL     OW39166   3.083   4.662  14.193  0.2902 -0.2518 -0.1568
 9177SOL    HW139167   3.098   4.583  14.244 -0.4410  0.5937  1.3512
 9177SOL    HW239168   3.175   4.685  14.185  0.3030  0.4511  2.2522
 9178SOL     OW39169   3.136   1.919  11.987 -0.1051  0.4524  0.0694
 9178SOL    HW139170   3.049   1.918  12.028  0.7414 -2.2563  1.7758
 9178SOL    HW239171   3.195   1.949  12.057  1.1852 -0.0734 -0.8065
 9179SOL     OW39172   0.774   0.538   4.376  0.2099 -0.2891  0.3764
 9179SOL    HW139173   0.850   0.496   4.415  0.6127 -0.1426 -0.2550
 9179SOL    HW239174   0.770   0.482   4.298  1.1753  1.0435 -0.6171
 9180SOL     OW39175   3.151   4.700   5.964 -0.6239  0.1461 -0.2161
 9180SOL    HW139176   3.237   4.733   5.938 -0.8684 -0.0356 -1.2619
 9180SOL    HW239177   3.175   4.613   5.997 -2.9419 -0.4454 -0.0748
 9181SOL     OW39178   1.934   2.112   4.103  0.3425 -0.0946 -0.5119
 9181SOL    HW139179   1.918   2.182   4.039  1.1062  0.0752 -0.5194
 9181SOL    HW239180   1.843   2.082   4.110  0.2357  0.9524  2.5968
 9182SOL     OW39181   1.124   3.265  12.033 -0.3340  0.1815 -0.6500
 9182SOL    HW139182   1.146   3.326  11.962  2.4304  0.6210  0.5623
 9182SOL    HW239183   1.051   3.309  12.076 -1.3234  0.4575 -2.6399
 9183SOL     OW39184   2.336   2.749   7.081  0.4604  0.2904 -0.0029
 9183SOL    HW139185   2.342   2.701   6.998 -0.6558 -0.3536  0.2898
 9183SOL    HW239186   2.418   2.718   7.119  0.7431 -0.0521 -0.8841
 9184SOL     OW39187   1.693   2.289  15.494 -0.1748  0.3957 -0.3732
 9184SOL    HW139188   1.780   2.329  15.496 -0.8777  1.8311  2.0631
 9184SOL    HW239189   1.642   2.352  15.546 -0.2317 -3.0834  3.7394
 9185SOL     OW39190   3.873   2.907   9.797 -0.3492 -0.0733 -0.5238
 9185SOL    HW139191   3.891   2.968   9.868 -2.6974  0.8220 -0.7281
 9185SOL    HW239192   3.957   2.886   9.754 -0.6652  0.8830 -1.6110
 9186SOL     OW39193   1.864   2.765   4.836  0.0103 -0.1921  0.4916
 9186SOL    HW139194   1.928   2.784   4.768  2.2175 -0.2454  2.5310
 9186SOL    HW239195   1.864   2.856   4.868  0.3493 -0.4524  1.2417
 9187SOL     OW39196   1.850   1.150   6.988 -0.2956 -0.5231 -0.0930
 9187SOL    HW139197   1.875   1.064   6.955  1.5040  0.4022 -1.1482
 9187SOL    HW239198   1.930   1.201   6.976  0.3906 -0.7166  3.4412
 9188SOL     OW39199   0.625   1.028   8.044  0.0122 -0.1329  0.3839
 9188SOL    HW139200   0.596   0.939   8.021  1.5984 -0.8413  1.1312
 9188SOL    HW239201   0.636   1.005   8.136  2.0530  1.0282  0.4220
 9189SOL     OW39202   2.496   1.687   5.664  0.4519  0.1793 -0.1162
 9189SOL    HW139203   2.546   1.608   5.646 -0.0909 -0.0442 -0.6063
 9189SOL    HW239204   2.451   1.706   5.582 -2.2258 -0.5627  1.1608
 9190SOL     OW39205   1.037   1.368   2.062 -0.2106  0.1147 -0.0708
 9190SOL    HW139206   1.041   1.425   1.986  0.3912  2.6776  1.9176
 9190SOL    HW239207   1.117   1.319   2.047  1.0269  2.4305 -0.8955
 9191SOL     OW39208   0.111   1.654   3.813  0.0745  0.4242 -0.2831
 9191SOL    HW139209   0.067   1.609   3.884 -0.3911  1.8507  0.3378
 9191SOL    HW239210   0.111   1.746   3.842  0.5520  0.5767 -0.7549
 9192SOL     OW39211   3.325   4.000  15.367  0.2438  0.3646 -0.1718
 9192SOL    HW139212   3.403   4.020  15.314  0.4446  1.5314  0.5456
 9192SOL    HW239213   3.255   4.005  15.302 -0.3597 -2.1735  0.2971
 9193SOL     OW39214   3.774   4.705   2.552  0.7583  0.0699 -0.4037
 9193SOL    HW139215   3.827   4.629   2.528  0.1439 -0.5775  0.2643
 9193SOL    HW239216   3.767   0.013   2.468  3.3626  2.7001  0.7364
 9194SOL     OW39217   2.070   3.558   5.805  0.4873 -0.5676 -0.3238
 9194SOL    HW139218   2.019   3.546   5.725  1.3369 -0.2177 -0.9234
 9194SOL    HW239219   2.055   3.650   5.829 -0.6682 -0.5637 -1.0354
 9195SOL     OW39220   2.386   1.232   4.880 -0.1917 -0.8466 -0.3216
 9195SOL    HW139221   2.385   1.136   4.884 -0.0200 -0.8436 -0.1971
 9195SOL    HW239222   2.312   1.266   4.929  0.1989 -0.4209 -0.0232
 9196SOL     OW39223   2.057   4.370   9.314  0.5094  0.2068  0.0906
 9196SOL    HW139224   2.098   4.427   9.379  2.9418 -0.7110 -0.6406
 9196SOL    HW239225   1.995   4.433   9.279 -0.5135 -1.5360 -1.2649
 9197SOL     OW39226   0.267   3.784  13.762  0.4099 -0.2556 -0.3127
 9197SOL    HW139227   0.232   3.870  13.783 -1.3662 -1.0874  0.2261
 9197SOL    HW239228   0.227   3.773  13.676  0.2626 -0.2502 -0.2450
 9198SOL     OW39229   0.596   0.772  13.953  0.1342 -0.0852 -0.3347
 9198SOL    HW139230   0.511   0.803  13.983  0.4160  0.3731  0.0006
 9198SOL    HW239231   0.579   0.682  13.925 -0.7596 -0.4371  1.3754
 9199SOL     OW39232   2.142   0.144   8.971 -0.6542  0.0490 -0.0346
 9199SOL    HW139233   2.192   0.112   9.046  0.4338  0.6017 -0.5227
 9199SOL    HW239234   2.081   0.071   8.958  0.0120 -0.2798 -1.3312
 9200SOL     OW39235   1.937   2.736  17.049  1.2714 -0.1158  0.6646
 9200SOL    HW139236   2.010   2.778  17.003  2.1229 -1.2260  1.0043
 9200SOL    HW239237   1.923   2.649  17.011  2.1327  0.1096 -0.1699
 9201SOL     OW39238   1.702   1.318  16.473  0.2869  0.0017  0.8349
 9201SOL    HW139239   1.687   1.408  16.444 -1.3486 -0.7178 -0.5308
 9201SOL    HW239240   1.651   1.280  16.401  0.4823  1.0793  0.1136
 9202SOL     OW39241   0.266   4.721   7.191  0.4291  0.0678  0.0786
 9202SOL    HW139242   0.354   0.012   7.165  0.1614 -0.6075 -1.5336
 9202SOL    HW239243   0.270   4.626   7.177 -0.2292  0.3154 -1.8041
 9203SOL     OW39244   2.463   2.589   6.896  0.3397  0.1424 -0.1386
 9203SOL    HW139245   2.508   2.610   6.813 -0.4348  0.8375 -0.3853
 9203SOL    HW239246   2.468   2.494   6.896  0.9832  0.1723 -1.3098
 9204SOL     OW39247   3.470   1.801   3.273  0.2866 -0.6131 -0.3063
 9204SOL    HW139248   3.533   1.816   3.344 -1.6514  1.2111  1.0285
 9204SOL    HW239249   3.428   1.721   3.307 -1.1006  0.0096 -0.5897
 9205SOL     OW39250   3.314   2.820   6.751 -0.1448 -0.5272 -0.1429
 9205SOL    HW139251   3.347   2.884   6.814  0.0450  1.8844 -2.7197
 9205SOL    HW239252   3.386   2.758   6.767  0.8928  1.1731  1.7519
 9206SOL     OW39253   3.667   1.368   7.658  0.0719 -0.0024  0.4754
 9206SOL    HW139254   3.635   1.294   7.606  2.1041 -1.3145  1.0790
 9206SOL    HW239255   3.611   1.357   7.735 -1.7373 -1.4709 -1.0195
 9207SOL     OW39256   1.533   3.713   2.910  0.3992  0.0661 -1.0409
 9207SOL    HW139257   1.540   3.807   2.926 -1.0978 -0.0516  0.2221
 9207SOL    HW239258   1.443   3.712   2.880 -1.0943 -1.2685  3.4440
 9208SOL     OW39259   2.476   3.031  16.972  0.2836 -0.3957 -0.2145
 9208SOL    HW139260   2.506   2.966  16.908  0.1833  1.2450 -1.9269
 9208SOL    HW239261   2.515   2.994  17.051  1.8517 -0.2902 -0.9462
 9209SOL     OW39262   0.896   2.266   6.084  0.0620  0.4439 -0.1853
 9209SOL    HW139263   0.901   2.360   6.102 -3.5576  0.6337 -0.1709
 9209SOL    HW239264   0.896   2.226   6.170 -0.8070 -1.4638 -1.0777
 9210SOL     OW39265   4.040   3.458   7.653  0.1149  0.0104  0.3244
 9210SOL    HW139266   3.955   3.436   7.616 -0.1133  1.6149 -0.1051
 9210SOL    HW239267   4.102   3.416   7.593 -1.5534 -0.6549 -0.9104
 9211SOL     OW39268   4.238   0.323   7.451  0.0104  0.3758  0.3899
 9211SOL    HW139269   4.212   0.313   7.543 -1.5022  0.1249 -0.0706
 9211SOL    HW239270   4.284   0.240   7.435  0.4280  0.9548 -1.3808
 9212SOL     OW39271   1.084   0.111   1.035  0.4799  0.1268  0.4694
 9212SOL    HW139272   1.025   0.037   1.050  0.0217  0.5970  1.0219
 9212SOL    HW239273   1.160   0.086   1.087 -0.6657 -2.6279  0.8293
 9213SOL     OW39274   2.407   2.402   4.418 -0.1326 -0.3568 -0.2232
 9213SOL    HW139275   2.327   2.452   4.403  1.2876  2.3761  1.3598
 9213SOL    HW239276   2.376   2.312   4.418 -3.3639  0.7623 -1.1210
 9214SOL     OW39277   3.685   0.230   7.222  0.3341 -0.3415 -0.3245
 9214SOL    HW139278   3.660   0.226   7.130 -1.0588  0.6989  0.0052
 9214SOL    HW239279   3.598   0.222   7.262  1.1505  1.6408  1.8878
 9215SOL     OW39280   4.256   3.039  13.941  0.2114 -0.6264  0.0212
 9215SOL    HW139281   4.261   3.045  14.037 -1.3145  0.2663  0.0325
 9215SOL    HW239282   4.161   3.042  13.930  0.5627 -0.3875 -2.8487
 9216SOL     OW39283   3.369   0.217   1.802 -0.1800  0.2423  0.0007
 9216SOL    HW139284   3.410   0.280   1.861  1.9403 -1.0220 -0.1438
 9216SOL    HW239285   3.279   0.249   1.801 -1.1109 -2.3931 -2.4615
 9217SOL     OW39286   2.216   2.957   6.912  0.5853 -0.0095  0.0906
 9217SOL    HW139287   2.274   2.904   6.968 -2.7882 -1.7298  1.9183
 9217SOL    HW239288   2.188   2.888   6.852  1.5897  0.5360 -0.9983
 9218SOL     OW39289   2.957   3.395  17.306 -0.3416 -0.2072 -0.7036
 9218SOL    HW139290   2.909   3.468  17.346  1.4706  0.8473 -0.4407
 9218SOL    HW239291   2.981   3.340  17.380 -0.9498 -1.2455 -1.2707
 9219SOL     OW39292   0.924   1.060  17.451 -0.1439  0.0244 -0.3182
 9219SOL    HW139293   0.970   1.142  17.466  1.6298 -1.2951  1.3782
 9219SOL    HW239294   0.981   0.987  17.476 -0.2217 -0.0701 -0.4134
 9220SOL     OW39295   4.339   0.916   3.301  0.1475  0.0200  0.5341
 9220SOL    HW139296   4.264   0.873   3.258  1.3383 -0.2976 -1.2266
 9220SOL    HW239297   4.346   0.993   3.245 -0.1690 -0.9766 -0.8775
 9221SOL     OW39298   0.550   2.491  16.473 -0.6261  0.0309 -0.3293
 9221SOL    HW139299   0.518   2.578  16.451 -0.3647  0.1712 -0.1581
 9221SOL    HW239300   0.626   2.490  16.415 -1.1776  0.2527 -1.0494
 9222SOL     OW39301   4.224   0.774   6.700 -0.2593 -0.3772 -0.1534
 9222SOL    HW139302   4.133   0.798   6.683 -0.1759 -0.2640 -0.4406
 9222SOL    HW239303   4.233   0.680   6.712 -0.8217 -0.1588  1.9869
 9223SOL     OW39304   0.168   1.680   8.743 -0.2701 -0.1752  0.1439
 9223SOL    HW139305   0.164   1.741   8.669 -1.7278  0.9943  1.1564
 9223SOL    HW239306   0.251   1.636   8.726  1.2537  3.1924 -1.1133
 9224SOL     OW39307   1.386   3.211  13.557 -0.2011 -0.4165  0.1582
 9224SOL    HW139308   1.429   3.135  13.518  0.7154  0.0169  0.3340
 9224SOL    HW239309   1.454   3.278  13.560  0.9457 -1.5642 -0.3836
 9225SOL     OW39310   2.126   2.439  13.150  0.3472  0.1533  0.0244
 9225SOL    HW139311   2.091   2.517  13.193  1.5262  0.8900 -0.3698
 9225SOL    HW239312   2.209   2.422  13.195  1.4561  0.4797 -1.8975
 9226SOL     OW39313   2.541   3.394   9.580  0.6086  0.4175 -0.4019
 9226SOL    HW139314   2.513   3.390   9.488 -1.2598 -1.6837  0.2549
 9226SOL    HW239315   2.629   3.357   9.573  0.5650  0.1651  0.4279
 9227SOL     OW39316   4.531   2.020  11.809 -0.4444  0.6982  0.4140
 9227SOL    HW139317   4.602   2.016  11.872 -2.1429  1.5663  2.3663
 9227SOL    HW239318   4.513   2.114  11.807 -0.0482  0.7739  0.5227
 9228SOL     OW39319   2.495   3.788  14.489  0.4829 -0.2846 -0.0680
 9228SOL    HW139320   2.524   3.727  14.421  1.0379  0.0775 -0.1539
 9228SOL    HW239321   2.462   3.726  14.555  0.1969  0.6689  0.6742
 9229SOL     OW39322   3.253   2.917   5.201 -0.3616  0.9306  0.3335
 9229SOL    HW139323   3.216   2.960   5.278 -0.3186  0.3014  0.7064
 9229SOL    HW239324   3.341   2.956   5.203  1.3081 -2.7065 -1.1161
 9230SOL     OW39325   2.875   2.316   4.091 -0.0741 -0.0632 -0.5118
 9230SOL    HW139326   2.865   2.282   4.180  1.1539  0.2782 -0.2452
 9230SOL    HW239327   2.967   2.336   4.073  0.0749  0.8859  1.2871
 9231SOL     OW39328   1.322   0.314   3.090 -0.2192  0.1368  0.1381
 9231SOL    HW139329   1.288   0.254   3.156  0.5964  2.0840  2.3173
 9231SOL    HW239330   1.335   0.401   3.129 -0.6813 -0.1065  0.8204
 9232SOL     OW39331   3.434   4.692   1.839  0.1655 -0.0105  0.0256
 9232SOL    HW139332   3.402   4.697   1.929  0.6667 -3.4699  0.4131
 9232SOL    HW239333   3.404   0.040   1.805 -0.2356 -0.0318  0.3266
 9233SOL     OW39334   2.004   2.229   2.237  0.6554  0.4698 -0.0453
 9233SOL    HW139335   1.921   2.275   2.235 -0.5608 -1.6888  0.3331
 9233SOL    HW239336   2.027   2.230   2.144  1.2374 -0.2402  0.0823
 9234SOL     OW39337   0.190   0.889   4.715  0.0124  0.4928 -0.0803
 9234SOL    HW139338   0.224   0.827   4.650 -2.0252 -0.1732 -0.4898
 9234SOL    HW239339   0.099   0.861   4.722  0.2612 -0.6245 -1.2373
 9235SOL     OW39340   0.056   2.082   3.621 -0.1372  0.3664 -0.1686
 9235SOL    HW139341   0.100   2.010   3.575 -1.0298 -1.1924  1.4012
 9235SOL    HW239342   0.096   2.082   3.708 -2.0199  0.9879  0.7069
 9236SOL     OW39343   0.955   3.141   1.821 -0.1327 -0.0319 -0.5075
 9236SOL    HW139344   0.961   3.122   1.914 -2.0610  0.1628 -0.3471
 9236SOL    HW239345   1.023   3.086   1.782  1.0694  0.6040  0.6956
 9237SOL     OW39346   1.749   4.049  10.510  0.2373  0.4410 -0.1892
 9237SOL    HW139347   1.769   3.990  10.437 -0.3497 -0.0255  0.0328
 9237SOL    HW239348   1.728   4.132  10.467 -0.1717 -0.9990 -2.8090
 9238SOL     OW39349   3.082   2.431   9.817 -0.6431  0.2556  0.2656
 9238SOL    HW139350   2.994   2.467   9.807 -0.1266  1.7604  1.0098
 9238SOL    HW239351   3.106   2.436   9.910  0.1216  0.4657  0.0589
 9239SOL     OW39352   2.776   1.440   4.216 -0.0335  0.2683  0.8246
 9239SOL    HW139353   2.796   1.379   4.146 -1.8023  0.9542 -0.2623
 9239SOL    HW239354   2.856   1.491   4.200 -0.6601  0.0845 -2.7161
 9240SOL     OW39355   2.449   3.532  11.441 -0.3025 -0.3043 -0.6193
 9240SOL    HW139356   2.409   3.610  11.478 -1.6142 -1.6715  0.8751
 9240SOL    HW239357   2.493   3.499  11.520 -1.4847 -0.3134  0.0332
 9241SOL     OW39358   1.315   2.150   8.502 -0.3615 -0.3210  0.3330
 9241SOL    HW139359   1.306   2.171   8.595  1.3512 -0.3411  0.5069
 9241SOL    HW239360   1.371   2.073   8.516  2.2514  1.6715  0.8802
 9242SOL     OW39361   1.371   0.388   7.591  1.3678 -0.0399 -0.3508
 9242SOL    HW139362   1.276   0.375   7.597  1.3082  0.6534  0.2194
 9242SOL    HW239363   1.416   0.306   7.607  1.1540 -0.1310 -0.2166
 9243SOL     OW39364   2.015   0.897   2.184  0.5531  0.0143 -0.2304
 9243SOL    HW139365   2.035   0.984   2.218 -1.3032 -0.4819  2.1670
 9243SOL    HW239366   1.980   0.915   2.097  2.8787  0.6471 -1.0367
 9244SOL     OW39367   2.937   2.437  13.194 -0.2763  0.6674 -0.6814
 9244SOL    HW139368   2.897   2.470  13.113 -1.8718  0.8027  0.1653
 9244SOL    HW239369   2.885   2.361  13.219 -0.2554  1.7079  2.5105
 9245SOL     OW39370   2.373   2.360  13.241 -0.3183 -0.5849 -0.4376
 9245SOL    HW139371   2.457   2.351  13.196 -0.4150 -4.2963  0.1481
 9245SOL    HW239372   2.408   2.370  13.329 -0.2352 -0.4272 -0.4878
 9246SOL     OW39373   3.730   3.798   1.654  0.0237  0.3371  0.1055
 9246SOL    HW139374   3.818   3.804   1.615 -0.6106  2.2659 -1.0298
 9246SOL    HW239375   3.743   3.780   1.747  0.8260 -2.1308 -0.4717
 9247SOL     OW39376   2.299   3.998  15.396  0.0549  0.0183 -0.1124
 9247SOL    HW139377   2.305   3.922  15.453 -0.4456  0.2643  0.2623
 9247SOL    HW239378   2.224   3.985  15.339  0.6284 -0.1148 -0.8404
 9248SOL     OW39379   3.795   3.434   6.909 -0.1940 -0.1780 -0.2740
 9248SOL    HW139380   3.785   3.524   6.877  4.1656  1.5774  3.1721
 9248SOL    HW239381   3.800   3.448   7.004 -1.0025 -0.4943 -0.1843
 9249SOL     OW39382   4.016   3.742   8.874 -0.0139 -0.2528 -0.3554
 9249SOL    HW139383   4.108   3.721   8.893 -0.2167  0.1407  1.0500
 9249SOL    HW239384   3.995   3.670   8.815  1.4307 -0.1167 -1.0439
 9250SOL     OW39385   2.715   3.404  10.711 -0.1539 -0.4072 -0.4266
 9250SOL    HW139386   2.620   3.390  10.716 -0.0315 -0.0366  2.9957
 9250SOL    HW239387   2.735   3.374  10.800  0.8159 -0.9805 -0.8389
 9251SOL     OW39388   0.599   2.711   5.587 -0.2273 -0.0453 -0.7810
 9251SOL    HW139389   0.570   2.792   5.629  2.4570  0.6215 -0.2277
 9251SOL    HW239390   0.565   2.717   5.498  2.0579  1.2900 -1.5764
 9252SOL     OW39391   4.451   4.203   6.001  0.3375 -0.6338  0.5176
 9252SOL    HW139392   4.506   4.279   5.980 -0.0934 -0.3836  0.3044
 9252SOL    HW239393   4.503   4.163   6.070 -0.5696  0.6300  1.9217
 9253SOL     OW39394   1.225   1.001   5.525  0.2861 -0.1479  0.3052
 9253SOL    HW139395   1.159   0.977   5.460 -0.5890  1.9052  0.4218
 9253SOL    HW239396   1.302   1.011   5.469 -0.0030  1.6149  0.2129
 9254SOL     OW39397   3.794   2.894   0.898  0.0584 -0.3650 -0.1752
 9254SOL    HW139398   3.715   2.949   0.902  1.2976  1.3681  0.4441
 9254SOL    HW239399   3.765   2.820   0.843  0.4994  0.6883 -1.8297
 9255SOL     OW39400   4.368   3.342  11.649  0.7889 -0.0857  0.2394
 9255SOL    HW139401   4.414   3.389  11.719  1.5110  1.4352 -1.2307
 9255SOL    HW239402   4.381   3.402  11.576 -1.6326  0.9619  0.6513
 9256SOL     OW39403   0.076   3.003   0.861  0.2949  0.1054 -0.0525
 9256SOL    HW139404   0.030   2.982   0.943 -2.3172 -1.1098 -1.8440
 9256SOL    HW239405   0.006   2.979   0.801 -1.0649 -0.4585  1.7815
 9257SOL     OW39406   2.944   0.953   4.005 -0.2802 -0.4628 -0.7391
 9257SOL    HW139407   2.862   1.000   3.987  1.2957  2.1433 -0.9953
 9257SOL    HW239408   2.992   0.949   3.922 -1.2131  0.4623 -1.3255
 9258SOL     OW39409   1.407   3.112   6.195 -0.5015  0.2001 -0.3379
 9258SOL    HW139410   1.432   3.194   6.150 -1.6991  1.1374  0.7072
 9258SOL    HW239411   1.491   3.081   6.228  0.6585 -0.2542 -3.6724
 9259SOL     OW39412   2.525   1.395   7.009 -0.1729  0.4269 -0.4130
 9259SOL    HW139413   2.571   1.344   7.076 -1.4649  2.6332  2.1432
 9259SOL    HW239414   2.475   1.323   6.971  1.7775  0.7197 -3.4446
 9260SOL     OW39415   0.266   1.462   4.207 -0.2043  0.2070  0.3137
 9260SOL    HW139416   0.299   1.429   4.124 -1.1705  1.7563 -0.6709
 9260SOL    HW239417   0.344   1.462   4.262  0.5766  0.8823 -0.8204
 9261SOL     OW39418   0.592   1.328   6.705 -0.2301  0.3905  0.1834
 9261SOL    HW139419   0.533   1.372   6.645  1.6653  2.2160 -0.3592
 9261SOL    HW239420   0.547   1.243   6.708  0.6148  0.0123  2.8036
 9262SOL     OW39421   2.915   0.730   1.423  0.0499 -0.5654 -0.2345
 9262SOL    HW139422   2.821   0.739   1.435  0.0123  0.2244 -1.1165
 9262SOL    HW239423   2.922   0.637   1.445 -1.0677 -0.3046  1.1727
 9263SOL     OW39424   0.930   3.531   4.287  0.2658 -0.0442  0.1328
 9263SOL    HW139425   0.893   3.597   4.229 -0.3201  0.7119  1.3633
 9263SOL    HW239426   1.016   3.513   4.249  0.7017  2.7140 -0.2022
 9264SOL     OW39427   1.706   4.617   6.465  0.0149  0.1520  0.2926
 9264SOL    HW139428   1.765   4.588   6.534  1.2632 -0.3011 -0.9786
 9264SOL    HW239429   1.740   4.567   6.391 -3.3953 -3.4065  1.1568
 9265SOL     OW39430   3.782   1.445  12.407  0.1808  0.5854  0.1231
 9265SOL    HW139431   3.762   1.352  12.393  1.5348  0.1175  1.2484
 9265SOL    HW239432   3.696   1.479  12.385 -0.2192  1.8505  3.7350
 9266SOL     OW39433   3.193   3.313   6.510 -0.0392 -0.1180  0.0203
 9266SOL    HW139434   3.272   3.346   6.467  1.0166 -1.2602  1.0871
 9266SOL    HW239435   3.202   3.328   6.604  0.7735 -0.6600  0.0387
 9267SOL     OW39436   4.396   0.583  10.244 -0.4848 -0.1964 -0.6956
 9267SOL    HW139437   4.386   0.610  10.153 -0.2766 -0.8524 -0.9144
 9267SOL    HW239438   4.481   0.539  10.250 -0.2638  0.2489 -0.5376
 9268SOL     OW39439   4.479   2.721   3.433 -0.2699 -0.1924 -0.2711
 9268SOL    HW139440   4.540   2.647   3.440 -0.0314  0.0880  0.6407
 9268SOL    HW239441   4.516   2.756   3.352 -0.3975  1.8968  0.5701
 9269SOL     OW39442   2.390   1.300   7.337  0.2143  0.4517  1.1498
 9269SOL    HW139443   2.475   1.341   7.320  1.0131 -1.3744  0.7747
 9269SOL    HW239444   2.400   1.249   7.417 -1.0988 -1.3389  0.1700
 9270SOL     OW39445   2.229   0.057   8.154  0.0302  0.0567  0.8645
 9270SOL    HW139446   2.317   0.034   8.124 -1.2089 -2.5074 -0.8139
 9270SOL    HW239447   2.219   4.734   8.229 -0.2283  0.2761  0.9995
 9271SOL     OW39448   2.063   2.844   4.654  0.2879 -1.2258 -0.0427
 9271SOL    HW139449   2.104   2.916   4.702 -0.5085 -1.8082  1.5037
 9271SOL    HW239450   2.013   2.877   4.579 -0.2003 -0.8333  0.4491
 9272SOL     OW39451   0.036   0.453  12.905 -0.3807  0.0105 -0.2389
 9272SOL    HW139452   0.080   0.537  12.887 -0.3519 -0.0334 -0.3746
 9272SOL    HW239453   0.112   0.395  12.903 -1.0174 -0.7946 -0.9940
 9273SOL     OW39454   0.448   4.458   8.390 -0.6665 -0.7606  0.4560
 9273SOL    HW139455   0.367   4.494   8.425 -0.4295 -0.5609  0.7953
 9273SOL    HW239456   0.476   4.392   8.453  0.2488  0.9117  1.8127
 9274SOL     OW39457   4.338   4.546   3.310  0.2815  0.3558  0.3312
 9274SOL    HW139458   4.320   4.633   3.274 -0.5963 -0.0789 -0.2827
 9274SOL    HW239459   4.254   4.533   3.355  0.8913  1.1934  1.7041
 9275SOL     OW39460   2.735   1.267   5.821 -0.1827  0.0980  0.4234
 9275SOL    HW139461   2.760   1.293   5.732 -0.2572  0.5185  0.5257
 9275SOL    HW239462   2.673   1.337   5.840  0.6584  0.7953  0.5797
 9276SOL     OW39463   1.397   1.371  12.867 -0.1229 -0.4248 -0.4845
 9276SOL    HW139464   1.469   1.369  12.930 -1.3920  0.6196  1.0049
 9276SOL    HW239465   1.384   1.465  12.863 -1.8031 -0.6842 -1.3437
 9277SOL     OW39466   3.339   1.525   8.497 -0.0580 -0.2191  0.5282
 9277SOL    HW139467   3.257   1.524   8.545  0.4456 -0.5522  1.3905
 9277SOL    HW239468   3.402   1.506   8.567  0.4199 -1.0418 -0.1199
 9278SOL     OW39469   1.593   0.931  16.270 -0.4079 -0.5637 -0.2108
 9278SOL    HW139470   1.554   0.957  16.353  1.0188 -0.1852  0.3539
 9278SOL    HW239471   1.545   0.851  16.251  0.4357 -1.0075 -0.4918
 9279SOL     OW39472   3.969   1.331   7.955  0.1440 -0.6774 -0.0581
 9279SOL    HW139473   3.907   1.314   8.025 -0.9804  1.0827 -0.6328
 9279SOL    HW239474   3.982   1.422   7.982  1.1520 -1.0632  0.7786
 9280SOL     OW39475   2.941   3.138   8.372  0.5188  0.9311 -0.0959
 9280SOL    HW139476   2.872   3.180   8.321  0.6106  0.5377 -0.5476
 9280SOL    HW239477   2.943   3.183   8.457  0.6545  1.2566 -0.2693
 9281SOL     OW39478   4.062   4.557  15.005  0.1892  0.4229  0.1810
 9281SOL    HW139479   4.127   4.620  14.973 -0.3961  0.4561 -0.9643
 9281SOL    HW239480   4.120   4.498  15.053 -0.7456 -0.3368  0.3643
 9282SOL     OW39481   4.656   1.509   4.862 -0.5347  0.1324 -0.2173
 9282SOL    HW139482   4.671   1.463   4.779 -0.2519 -1.5981  0.8106
 9282SOL    HW239483   4.657   1.431   4.916  0.8775 -1.4837 -2.5484
 9283SOL     OW39484   4.330   4.236   7.348  0.1086  1.0115 -0.2847
 9283SOL    HW139485   4.383   4.180   7.292 -0.1766  0.0074  0.4403
 9283SOL    HW239486   4.373   4.229   7.433 -1.8478 -0.5866  0.5739
 9284SOL     OW39487   2.095   1.421   2.690 -0.6167  0.3333 -0.1546
 9284SOL    HW139488   2.082   1.510   2.720 -2.1184 -0.0210  0.2126
 9284SOL    HW239489   2.106   1.373   2.772  2.3530  0.8151 -0.2711
 9285SOL     OW39490   4.525   4.567   2.713  0.0837 -0.2104  0.0488
 9285SOL    HW139491   4.457   4.499   2.711  1.0656 -1.1671 -0.8304
 9285SOL    HW239492   4.466   4.637   2.738  1.0186  1.4305 -2.3540
 9286SOL     OW39493   1.810   0.420  13.711  0.1771 -0.1146  0.2627
 9286SOL    HW139494   1.726   0.385  13.740 -0.0037  0.4064  0.3624
 9286SOL    HW239495   1.830   0.466  13.792 -1.0533 -2.3275  1.8145
 9287SOL     OW39496   1.068   4.539  11.105  0.0200  0.3786  0.3858
 9287SOL    HW139497   1.036   4.570  11.190  1.0989 -1.1445  1.3568
 9287SOL    HW239498   1.144   4.595  11.088 -1.5887  2.6929  0.8397
 9288SOL     OW39499   3.129   3.456  12.733 -0.2750 -0.5016  0.4399
 9288SOL    HW139500   3.135   3.418  12.645 -0.9151  2.7507 -1.0197
 9288SOL    HW239501   3.175   3.386  12.778 -0.2146 -0.9691 -0.3382
 9289SOL     OW39502   1.771   2.129   4.714  0.1662 -0.2328 -0.0902
 9289SOL    HW139503   1.720   2.168   4.642  0.8560 -2.3380 -1.6897
 9289SOL    HW239504   1.771   2.040   4.679  0.8237  0.4849 -1.9186
 9290SOL     OW39505   3.803   0.815  17.563  0.1839 -0.4394 -1.0070
 9290SOL    HW139506   3.788   0.761  17.485 -1.4315 -1.3295 -0.0725
 9290SOL    HW239507   3.767   0.759  17.632  1.3896 -1.0829 -0.8981
 9291SOL     OW39508   3.761   2.355   4.330 -0.4464  0.3123 -0.2016
 9291SOL    HW139509   3.771   2.448   4.350  2.9982  0.2280 -1.5447
 9291SOL    HW239510   3.839   2.335   4.278  1.6663  1.9923  2.3147
 9292SOL     OW39511   3.137   1.928   0.875  0.3000 -0.6335  0.2669
 9292SOL    HW139512   3.081   1.851   0.877 -1.0627  0.4063  3.0581
 9292SOL    HW239513   3.095   1.978   0.805  0.6877 -0.5286  0.1090
 9293SOL     OW39514   4.613   2.237  13.191  0.2180 -0.3476 -0.5016
 9293SOL    HW139515   4.583   2.234  13.100 -0.2533  1.2406 -0.4003
 9293SOL    HW239516   4.694   2.186  13.194 -0.9257 -2.0260  2.1000
 9294SOL     OW39517   2.193   2.793   3.857 -0.0839  0.0265  0.1926
 9294SOL    HW139518   2.223   2.765   3.943  1.5019 -1.1624 -0.7394
 9294SOL    HW239519   2.108   2.750   3.846  0.5504 -1.5247  1.3112
 9295SOL     OW39520   2.644   0.703   8.771 -0.4285  0.5498  0.2286
 9295SOL    HW139521   2.614   0.620   8.808 -0.0441 -0.2506 -1.2487
 9295SOL    HW239522   2.617   0.693   8.680  0.8686 -0.1409 -0.0841
 9296SOL     OW39523   0.557   1.898  11.880 -0.4289  0.0191  0.4313
 9296SOL    HW139524   0.641   1.854  11.870 -0.9591 -0.6128 -1.2753
 9296SOL    HW239525   0.577   1.983  11.840  0.6137 -0.6674 -0.5015
 9297SOL     OW39526   2.678   3.336   4.953  0.6308 -0.1304 -0.5587
 9297SOL    HW139527   2.700   3.393   4.879 -1.4804 -1.0561 -1.8908
 9297SOL    HW239528   2.730   3.259   4.932 -2.0097 -1.9326 -0.4584
 9298SOL     OW39529   3.865   1.370  12.655 -0.4233 -0.0221  0.1169
 9298SOL    HW139530   3.835   1.446  12.705 -0.9298  0.6691 -1.2196
 9298SOL    HW239531   3.847   1.402  12.566  1.4054  3.0467  0.8432
 9299SOL     OW39532   4.170   2.005   4.894  0.2733 -0.3741  0.3067
 9299SOL    HW139533   4.075   2.018   4.902  0.2669 -0.8128  0.9666
 9299SOL    HW239534   4.188   1.914   4.918  0.0657 -0.5212 -0.0985
 9300SOL     OW39535   4.638   3.056   5.225 -0.1366  0.0755 -0.1719
 9300SOL    HW139536   4.698   3.109   5.277 -0.0084  1.4875 -1.7506
 9300SOL    HW239537   4.697   2.991   5.187 -1.0382 -1.2592  0.6879
 9301SOL     OW39538   1.268   0.057   7.235  0.1032  0.2723 -1.0935
 9301SOL    HW139539   1.220   0.086   7.157 -0.7230  1.4560 -0.1416
 9301SOL    HW239540   1.209   4.723   7.266 -0.9500  2.4249  1.7166
 9302SOL     OW39541   3.266   3.265   5.203 -0.1068 -0.0225  0.0628
 9302SOL    HW139542   3.258   3.249   5.109 -0.0370  0.7698 -0.0772
 9302SOL    HW239543   3.352   3.307   5.216  0.7290 -2.0659  1.1059
 9303SOL     OW39544   0.994   0.004   5.162 -0.1904  0.2732  0.0353
 9303SOL    HW139545   0.994   0.099   5.150 -1.5353  0.2594  0.0113
 9303SOL    HW239546   0.921   4.708   5.109 -1.2462 -0.6662  2.0641
 9304SOL     OW39547   4.248   2.816   3.773 -0.0167 -0.2291  0.0850
 9304SOL    HW139548   4.343   2.822   3.772 -0.0809  1.0258  1.0326
 9304SOL    HW239549   4.222   2.875   3.844  1.6261  0.3894  0.1603
 9305SOL     OW39550   3.968   4.612   0.820  0.0462  0.2150 -0.9425
 9305SOL    HW139551   3.931   4.582   0.736  1.9112  0.5848 -1.8880
 9305SOL    HW239552   3.990   4.702   0.798  0.3265  0.1777 -0.8086
 9306SOL     OW39553   4.381   3.918   5.597  0.3214  0.2250 -0.1477
 9306SOL    HW139554   4.361   3.865   5.674 -0.2734  2.1609  1.0454
 9306SOL    HW239555   4.354   4.002   5.635 -0.5314 -0.5011  0.8563
 9307SOL     OW39556   2.428   0.317  17.612 -0.2471 -0.5164 -0.4625
 9307SOL    HW139557   2.446   0.403  17.650  0.3406 -1.5195  1.5473
 9307SOL    HW239558   2.430   0.345  17.521  1.9629  0.6756 -0.0366
 9308SOL     OW39559   1.969   0.332   2.459  0.5849  0.1078 -0.0878
 9308SOL    HW139560   2.010   0.329   2.373 -1.0951  2.4992 -0.9844
 9308SOL    HW239561   1.880   0.366   2.451 -0.0284 -1.3041  0.5820
 9309SOL     OW39562   3.913   0.168   1.979 -0.3953 -0.0088  0.6357
 9309SOL    HW139563   3.923   0.073   1.971 -1.6224 -0.0790 -0.0743
 9309SOL    HW239564   3.941   0.202   1.893 -1.6326  0.4655  0.4199
 9310SOL     OW39565   0.062   2.648   2.999  0.1155 -0.3475 -0.0202
 9310SOL    HW139566   0.043   2.620   2.910  0.9190 -2.6446  0.5363
 9310SOL    HW239567   0.019   2.733   2.998 -1.0199 -0.8706  2.8864
 9311SOL     OW39568   1.503   4.306   3.305  0.5318  0.1360  0.5365
 9311SOL    HW139569   1.531   4.223   3.345  1.4198 -0.2059 -0.7884
 9311SOL    HW239570   1.545   4.379   3.351  0.3166  1.4222 -1.3307
 9312SOL     OW39571   1.078   3.907   4.514  0.0955 -0.0574  0.3779
 9312SOL    HW139572   1.112   3.873   4.431 -1.3806 -0.2449 -0.1647
 9312SOL    HW239573   1.112   3.833   4.563 -2.4340 -0.7879  1.0312
 9313SOL     OW39574   0.931   4.564  12.195  0.5581 -0.7326 -0.6269
 9313SOL    HW139575   0.993   4.634  12.175  0.0646 -0.3477 -0.8058
 9313SOL    HW239576   0.981   4.484  12.183  1.3157 -0.4821  0.9385
 9314SOL     OW39577   2.020   0.895   2.900  0.0059 -0.1366 -0.0985
 9314SOL    HW139578   1.942   0.950   2.892 -0.7169 -0.5421  4.2373
 9314SOL    HW239579   2.079   0.951   2.951 -1.4288 -1.3825  2.9281
 9315SOL     OW39580   0.341   0.546   0.958  0.0159  0.1230 -0.5181
 9315SOL    HW139581   0.287   0.513   0.886 -1.2964  0.9964  0.0671
 9315SOL    HW239582   0.424   0.503   0.937 -0.2435 -1.8966  2.5466
 9316SOL     OW39583   1.455   3.731  16.420  0.7408  0.0446  0.2482
 9316SOL    HW139584   1.490   3.662  16.362  0.0233  2.1062 -2.6186
 9316SOL    HW239585   1.525   3.740  16.484  1.5324 -0.7733 -0.4989
 9317SOL     OW39586   2.132   2.926   8.426 -0.5696  0.3420  0.0704
 9317SOL    HW139587   2.112   2.854   8.366  0.8258 -1.3053  1.5747
 9317SOL    HW239588   2.145   2.994   8.359 -0.5384 -3.0703 -3.4136
 9318SOL     OW39589   1.849   0.857  12.230  0.3608  0.1338  0.2809
 9318SOL    HW139590   1.915   0.790  12.248  1.6808  1.5376  0.6728
 9318SOL    HW239591   1.901   0.937  12.215 -0.1393  0.0246 -2.0361
 9319SOL     OW39592   1.193   4.680   2.112 -0.1365 -0.4994  0.0096
 9319SOL    HW139593   1.213   4.622   2.185  2.3826  1.6298  0.9897
 9319SOL    HW239594   1.146   0.015   2.158  1.8854  1.0537 -0.3169
 9320SOL     OW39595   4.478   1.157   3.543 -0.6433 -0.1694 -0.3675
 9320SOL    HW139596   4.531   1.159   3.463 -0.7900 -1.9007 -0.4981
 9320SOL    HW239597   4.545   1.178   3.608 -0.9867 -0.5232  0.0959
 9321SOL     OW39598   1.380   3.648   8.315 -0.4916 -0.2367  0.6780
 9321SOL    HW139599   1.369   3.611   8.227  2.6521  1.8151 -0.6051
 9321SOL    HW239600   1.292   3.645   8.351 -0.5573 -1.1311  0.4445
 9322SOL     OW39601   4.649   2.330  15.815 -0.1794 -0.1585 -0.6431
 9322SOL    HW139602   4.689   2.402  15.863  1.5136 -1.7586  0.3821
 9322SOL    HW239603   4.556   2.343  15.828  0.3704  0.0436  2.9531
 9323SOL     OW39604   0.369   1.661   3.369  0.1363  0.2946 -0.0868
 9323SOL    HW139605   0.464   1.674   3.373  0.3434 -2.1713  3.0552
 9323SOL    HW239606   0.335   1.741   3.410 -0.2773  0.1865 -0.2158
 9324SOL     OW39607   1.086   4.502   0.121  0.0530  0.1587  0.7959
 9324SOL    HW139608   1.053   4.429   0.174 -1.7393  0.9975  0.8293
 9324SOL    HW239609   1.029   4.509   0.045  1.3898 -1.4339 -0.3540
 9325SOL     OW39610   0.358   3.092   8.384  0.0827 -0.2780  0.7800
 9325SOL    HW139611   0.301   3.037   8.330  0.6568  0.7811 -0.8881
 9325SOL    HW239612   0.397   3.034   8.449 -0.9370 -2.2763 -0.3771
 9326SOL     OW39613   3.963   1.959   0.814 -0.5073  0.0911 -0.1452
 9326SOL    HW139614   3.901   1.947   0.886  1.6584 -0.4854  1.6517
 9326SOL    HW239615   3.967   1.869   0.781  2.3084  0.4501 -0.7837
 9327SOL     OW39616   2.261   0.556   6.808  0.0657 -0.1318 -0.2333
 9327SOL    HW139617   2.261   0.487   6.874  2.3651  0.8542  0.8043
 9327SOL    HW239618   2.214   0.520   6.732 -0.5331 -1.0192  0.5668
 9328SOL     OW39619   3.956   1.456   4.713 -0.0354 -0.5416 -0.0892
 9328SOL    HW139620   3.913   1.533   4.675  1.1585 -0.1674 -0.6703
 9328SOL    HW239621   3.898   1.385   4.683  0.6131 -0.4695 -1.4918
 9329SOL     OW39622   3.506   1.795   3.802 -0.1593  0.2194 -0.1142
 9329SOL    HW139623   3.422   1.808   3.844 -1.5014 -0.8183 -2.4712
 9329SOL    HW239624   3.514   1.869   3.742  0.2337  0.1626 -0.1328
 9330SOL     OW39625   0.820   2.074  17.047 -0.5025  0.2468 -0.4620
 9330SOL    HW139626   0.828   1.987  17.086  0.2847 -0.2642 -1.7711
 9330SOL    HW239627   0.725   2.071  17.034 -0.4768 -2.5663  0.1242
 9331SOL     OW39628   1.966   0.616   0.940 -0.3075 -0.0388 -0.2808
 9331SOL    HW139629   2.014   0.663   0.871  2.0141 -0.3208  1.1164
 9331SOL    HW239630   1.896   0.680   0.947 -2.2834 -2.2088 -0.3750
 9332SOL     OW39631   3.435   3.351   7.420  0.2490  0.6182  0.1659
 9332SOL    HW139632   3.369   3.407   7.379 -0.7218 -0.7233 -0.0992
 9332SOL    HW239633   3.472   3.411   7.484  0.4717  0.9501 -0.2740
 9333SOL     OW39634   4.523   0.377   6.060 -0.0737  0.1703 -0.6769
 9333SOL    HW139635   4.610   0.359   6.097  0.0757 -0.8156 -1.5037
 9333SOL    HW239636   4.515   0.472   6.068  3.2309  0.2349  1.6474
 9334SOL     OW39637   4.151   1.452   0.748 -0.0024 -0.1315 -0.2068
 9334SOL    HW139638   4.089   1.382   0.729 -0.6232  0.4524 -0.3377
 9334SOL    HW239639   4.222   1.423   0.690  1.3155 -0.3310  1.4940
 9335SOL     OW39640   2.353   1.891   8.418 -0.5897 -0.1308 -0.1424
 9335SOL    HW139641   2.435   1.913   8.373  0.3694 -1.1408  1.1392
 9335SOL    HW239642   2.368   1.943   8.496  1.7899  2.3880 -2.2787
 9336SOL     OW39643   2.526   3.224   8.432  0.5117  0.2304 -0.2831
 9336SOL    HW139644   2.450   3.266   8.392  0.1638  1.1716  1.3985
 9336SOL    HW239645   2.550   3.166   8.359 -4.5618 -0.6190 -1.3278
 9337SOL     OW39646   1.347   1.529  13.605 -0.2825  0.2812 -0.5394
 9337SOL    HW139647   1.304   1.493  13.684 -2.2699  2.7140 -0.5050
 9337SOL    HW239648   1.302   1.614  13.606  0.2806  0.5790  0.2711
 9338SOL     OW39649   2.785   2.804  11.030 -0.2169 -0.3680 -0.1230
 9338SOL    HW139650   2.875   2.802  10.997 -0.3066 -0.9669 -0.3283
 9338SOL    HW239651   2.786   2.722  11.079 -1.7973 -0.2456  0.1170
 9339SOL     OW39652   3.446   3.036   3.382  0.2279 -0.2108 -0.4568
 9339SOL    HW139653   3.456   2.990   3.298 -0.5795 -1.2911  0.0350
 9339SOL    HW239654   3.409   3.118   3.351  1.4704  1.3759  2.2781
 9340SOL     OW39655   4.156   4.624  16.030  0.0975 -0.3196  0.4116
 9340SOL    HW139656   4.247   4.650  16.018 -0.2695 -0.0095 -1.7537
 9340SOL    HW239657   4.137   4.601  15.939 -0.6802  0.4588  0.3758
 9341SOL     OW39658   2.606   2.557   7.461 -0.1247 -0.4688 -0.1794
 9341SOL    HW139659   2.630   2.468   7.438  1.9073  0.4466 -1.6988
 9341SOL    HW239660   2.689   2.584   7.499 -1.5035  3.6995 -0.0917
 9342SOL     OW39661   2.517   3.385  15.952 -0.0492 -0.3498  0.3898
 9342SOL    HW139662   2.542   3.450  16.017  0.8580 -1.5698  1.2522
 9342SOL    HW239663   2.487   3.320  16.015 -1.8670  0.5082  0.4274
 9343SOL     OW39664   4.218   4.101   4.042  0.4837  0.5372  0.1580
 9343SOL    HW139665   4.268   4.080   3.963 -0.2686 -1.9104  0.3302
 9343SOL    HW239666   4.131   4.067   4.022  0.9361 -0.1600 -0.6491
 9344SOL     OW39667   2.659   0.330  10.920  0.6231 -0.3353  0.0605
 9344SOL    HW139668   2.627   0.415  10.891 -0.6462 -0.0393  2.3856
 9344SOL    HW239669   2.653   0.351  11.013 -1.5253 -0.4466 -0.0449
 9345SOL     OW39670   2.288   2.949   8.667 -0.6097 -0.3688  0.4688
 9345SOL    HW139671   2.236   2.932   8.746 -1.8820  0.2576 -0.2216
 9345SOL    HW239672   2.237   2.899   8.603  0.7981  0.1739 -1.0703
 9346SOL     OW39673   0.152   2.935   2.486 -0.1204 -0.6065  0.2991
 9346SOL    HW139674   0.234   2.896   2.513  0.2262 -0.2366 -0.2134
 9346SOL    HW239675   0.111   2.946   2.572  0.9398 -2.2727  1.0092
 9347SOL     OW39676   2.621   4.087  14.797 -0.0089  0.2594  0.4148
 9347SOL    HW139677   2.647   4.125  14.712  0.4184  0.9082  0.8342
 9347SOL    HW239678   2.666   4.003  14.792 -0.6808 -0.0642 -0.1387
 9348SOL     OW39679   2.470   0.236   4.063  0.5956 -0.2780  0.1029
 9348SOL    HW139680   2.460   0.254   3.969  0.2087  2.5625  0.6706
 9348SOL    HW239681   2.415   0.303   4.104  2.1089  0.1677  1.3924
 9349SOL     OW39682   1.934   0.732  15.065  0.1401 -0.4181  0.1704
 9349SOL    HW139683   1.952   0.819  15.030 -1.7444  0.0229  0.3046
 9349SOL    HW239684   1.980   0.670  15.009  2.4546  1.1401  0.3357
 9350SOL     OW39685   0.410   2.721   7.637 -0.3728  0.0832  0.2553
 9350SOL    HW139686   0.444   2.787   7.577  1.0986 -0.3778  0.5898
 9350SOL    HW239687   0.443   2.755   7.720  2.8837 -0.1189 -0.9814
 9351SOL     OW39688   4.489   2.776  10.388 -0.2572 -0.2604 -0.9041
 9351SOL    HW139689   4.411   2.752  10.437  0.9149 -0.8837  0.6367
 9351SOL    HW239690   4.519   2.688  10.366 -0.1548 -1.0649  2.4978
 9352SOL     OW39691   4.426   0.146  13.526  0.4042  0.1820  0.1257
 9352SOL    HW139692   4.407   0.070  13.471  1.0853 -0.3668  0.6305
 9352SOL    HW239693   4.340   0.168  13.560  0.9923 -1.5139  2.7145
 9353SOL     OW39694   4.356   2.028   3.624  0.0322  0.3702  0.3145
 9353SOL    HW139695   4.349   2.026   3.720  1.1617 -0.9340  0.3850
 9353SOL    HW239696   4.327   2.117   3.607 -3.1678 -0.8351 -0.5041
 9354SOL     OW39697   3.379   4.562   7.717  0.0701 -0.0744 -0.2794
 9354SOL    HW139698   3.393   4.648   7.756  1.1792  0.2357 -1.3530
 9354SOL    HW239699   3.293   4.545   7.755 -0.3173 -1.6635 -1.8514
 9355SOL     OW39700   0.845   4.610   7.603  0.4095 -0.3951 -0.1460
 9355SOL    HW139701   0.799   4.526   7.606 -0.6473  0.1927  0.1766
 9355SOL    HW239702   0.825   4.633   7.693 -3.7440 -1.9860 -0.6522
 9356SOL     OW39703   3.851   3.505   7.197 -0.4093  0.3317 -0.0795
 9356SOL    HW139704   3.888   3.572   7.255  1.1154  0.4309 -1.1750
 9356SOL    HW239705   3.765   3.480   7.231  0.6994  0.4797  2.9027
 9357SOL     OW39706   0.045   1.865   7.358  0.4099  0.1245  0.1012
 9357SOL    HW139707   4.703   1.857   7.414 -0.1378  1.1167 -0.5132
 9357SOL    HW239708   0.015   1.857   7.267 -0.0486  1.2752  0.1590
 9358SOL     OW39709   0.953   1.923   3.169 -0.3104 -0.6088  0.2542
 9358SOL    HW139710   0.858   1.917   3.179 -0.1703 -1.1662  1.2564
 9358SOL    HW239711   0.955   2.018   3.164 -0.4157 -0.7136 -1.7682
 9359SOL     OW39712   3.850   0.255   7.436  0.7090 -0.0605 -0.1953
 9359SOL    HW139713   3.902   0.178   7.456  1.5414  1.1790  2.5153
 9359SOL    HW239714   3.799   0.218   7.364  0.0780 -3.1367  1.8387
 9360SOL     OW39715   0.542   1.189   5.302  0.0958  0.0817  0.1459
 9360SOL    HW139716   0.491   1.268   5.285  0.9390  0.3019 -1.3985
 9360SOL    HW239717   0.623   1.229   5.334 -0.8231  1.3122  0.9342
 9361SOL     OW39718   0.801   3.264  16.872 -0.1352 -0.0901 -0.5122
 9361SOL    HW139719   0.777   3.353  16.845  2.2876  1.2883  1.9204
 9361SOL    HW239720   0.866   3.283  16.940  0.6570 -1.1748 -0.9790
 9362SOL     OW39721   4.693   2.348   3.167 -0.1197  0.0907 -0.4649
 9362SOL    HW139722   0.045   2.385   3.156  0.4838 -0.8891  0.9927
 9362SOL    HW239723   4.664   2.414   3.229 -1.3810 -0.8804 -0.0387
 9363SOL     OW39724   3.540   3.852   7.583  0.2149 -0.5701  0.5441
 9363SOL    HW139725   3.514   3.938   7.616  1.4686  1.1082 -2.8947
 9363SOL    HW239726   3.546   3.874   7.490  3.5186  0.4728  1.0028
 9364SOL     OW39727   3.361   0.569   4.081 -0.0693  0.0842  0.0445
 9364SOL    HW139728   3.287   0.606   4.130 -0.0650 -1.2571  1.0438
 9364SOL    HW239729   3.313   0.561   3.998  0.8926 -1.9512 -0.3132
 9365SOL     OW39730   2.220   2.149   3.398 -0.2432  0.1791 -0.2016
 9365SOL    HW139731   2.290   2.086   3.385 -1.1870 -1.3455  2.1110
 9365SOL    HW239732   2.257   2.173   3.483  0.1494 -0.4472 -0.1997
 9366SOL     OW39733   3.103   2.070  16.824 -0.0629  0.4637  0.2274
 9366SOL    HW139734   3.071   2.140  16.767 -0.4754 -2.3941 -3.0619
 9366SOL    HW239735   3.167   2.118  16.876 -1.2076  2.1268  0.0955
 9367SOL     OW39736   2.707   1.087   9.163  0.3811  0.4963  0.4712
 9367SOL    HW139737   2.712   1.076   9.069  0.7399 -1.2791  0.6961
 9367SOL    HW239738   2.789   1.045   9.190 -0.1960 -1.3690 -0.6366
 9368SOL     OW39739   3.929   1.121   9.157 -0.4818 -0.8156 -0.4224
 9368SOL    HW139740   3.871   1.057   9.200 -1.7392  0.9034  0.4200
 9368SOL    HW239741   3.974   1.165   9.229 -0.1011 -0.4916 -0.8568
 9369SOL     OW39742   4.297   0.822   5.090  0.1588  0.1502  0.4056
 9369SOL    HW139743   4.278   0.813   5.183 -0.3814  1.0606  0.3853
 9369SOL    HW239744   4.215   0.862   5.061  1.3778  2.7145  0.4219
 9370SOL     OW39745   2.609   4.467   3.248  0.5479 -0.0306 -0.1175
 9370SOL    HW139746   2.517   4.441   3.253  0.4529  0.2432 -0.4892
 9370SOL    HW239747   2.607   4.476   3.153  1.1194  0.2742 -0.0975
 9371SOL     OW39748   0.139   1.903   1.545 -0.4006 -0.9304  0.0054
 9371SOL    HW139749   0.069   1.888   1.482  0.7127 -2.5336 -0.8608
 9371SOL    HW239750   0.095   1.890   1.629  0.0834  2.2216  0.7423
 9372SOL     OW39751   2.827   4.690   2.297 -0.3880 -0.1621  0.6052
 9372SOL    HW139752   2.741   4.732   2.301 -0.0002  0.4287  2.7339
 9372SOL    HW239753   2.884   0.030   2.282 -0.0390 -0.6537 -0.5940
 9373SOL     OW39754   0.795   4.584  11.954 -0.7034  0.2437 -0.6471
 9373SOL    HW139755   0.759   4.496  11.942  1.1266 -0.4335 -1.1436
 9373SOL    HW239756   0.820   4.590  12.047  0.3031  1.4481 -0.9977
 9374SOL     OW39757   0.305   4.119   8.073 -0.2141 -0.1787 -0.0896
 9374SOL    HW139758   0.391   4.152   8.098  0.6524  0.0681 -3.3733
 9374SOL    HW239759   0.290   4.036   8.117  0.4907  0.0475  0.5799
 9375SOL     OW39760   2.410   3.256   5.008 -0.1845  0.3385  0.0291
 9375SOL    HW139761   2.498   3.293   5.001  0.0956  0.2401  2.8612
 9375SOL    HW239762   2.366   3.301   5.080 -1.7724 -0.8328 -0.1999
 9376SOL     OW39763   2.716   3.938  16.003 -0.4460 -0.0267  0.5028
 9376SOL    HW139764   2.651   3.984  16.055 -1.7736  0.6616 -1.7827
 9376SOL    HW239765   2.746   4.009  15.947 -0.9567 -0.8532 -0.8312
 9377SOL     OW39766   1.015   0.708   4.054  0.0763 -0.4151  0.2549
 9377SOL    HW139767   0.955   0.765   4.101 -2.4728 -0.9720 -2.3098
 9377SOL    HW239768   0.947   0.652   4.017 -0.1031  0.9357 -1.4530
 9378SOL     OW39769   2.062   2.714   2.223  0.0172  0.0720  0.5861
 9378SOL    HW139770   1.992   2.738   2.285 -0.2660 -0.6501  0.5384
 9378SOL    HW239771   2.012   2.669   2.155  0.5952  1.2149 -0.6058
 9379SOL     OW39772   1.774   1.551   2.670 -0.6357 -0.5635 -0.2518
 9379SOL    HW139773   1.800   1.482   2.610  2.2941  0.2141  0.1311
 9379SOL    HW239774   1.707   1.590   2.614 -1.6824 -0.3625  1.1191
 9380SOL     OW39775   4.087   2.878  12.617 -0.2832  0.5622 -0.1344
 9380SOL    HW139776   4.152   2.809  12.623  0.5401  1.1867 -1.7239
 9380SOL    HW239777   4.085   2.900  12.524  1.0239 -0.5061 -0.4097
 9381SOL     OW39778   1.685   3.102   6.388  0.2520 -0.1313 -0.2411
 9381SOL    HW139779   1.730   3.091   6.305 -0.9768  1.1491 -1.0724
 9381SOL    HW239780   1.687   3.198   6.392  1.3524 -0.1607 -0.1702
 9382SOL     OW39781   0.880   1.882   1.663  0.9382  0.1147 -0.1361
 9382SOL    HW139782   0.892   1.860   1.571 -1.9298  0.7499 -0.6437
 9382SOL    HW239783   0.960   1.932   1.676  0.6703  0.5957 -0.3474
 9383SOL     OW39784   3.653   1.500   0.782  0.0496 -0.5408 -0.0351
 9383SOL    HW139785   3.604   1.434   0.733 -1.2639  2.2425 -2.4875
 9383SOL    HW239786   3.661   1.567   0.713 -0.2070  0.4724  0.9100
 9384SOL     OW39787   3.996   3.043   6.721  0.1925  0.2864  0.1041
 9384SOL    HW139788   3.991   2.950   6.742 -0.6196  0.4422  0.5932
 9384SOL    HW239789   3.909   3.058   6.758 -0.0146  0.4716 -0.4678
 9385SOL     OW39790   4.099   1.469   7.162  0.0590  0.1682  0.1590
 9385SOL    HW139791   4.089   1.500   7.072 -2.9090  0.9548  0.7523
 9385SOL    HW239792   4.012   1.494   7.193 -0.0794 -0.9687  0.6748
 9386SOL     OW39793   2.231   2.921   8.002  0.3998  0.2418  0.0264
 9386SOL    HW139794   2.237   2.860   7.928 -1.0480  0.5421 -0.3428
 9386SOL    HW239795   2.305   2.981   7.990 -2.0775  2.8107 -2.4229
 9387SOL     OW39796   1.984   0.817   1.675  0.2075 -0.0645 -0.1260
 9387SOL    HW139797   2.067   0.808   1.723  0.5663 -0.1726 -0.7581
 9387SOL    HW239798   1.965   0.724   1.659 -1.6987  0.0491  1.5788
 9388SOL     OW39799   0.448   3.070   6.265  0.0075  0.6902  0.7669
 9388SOL    HW139800   0.451   3.064   6.169  3.0957  3.4328  0.7066
 9388SOL    HW239801   0.532   3.112   6.284  0.7102 -0.8155  0.9774
 9389SOL     OW39802   1.266   4.075  15.760  0.4807  0.2229  0.6062
 9389SOL    HW139803   1.299   4.124  15.835  1.3621 -0.9191  0.9695
 9389SOL    HW239804   1.318   4.105  15.686  0.6823  3.0655  1.8958
 9390SOL     OW39805   3.929   1.129   7.384  0.1546 -0.1198  0.2244
 9390SOL    HW139806   3.969   1.153   7.300  1.0643 -1.3268  0.3190
 9390SOL    HW239807   3.850   1.184   7.389 -1.2637 -1.7902 -3.8474
 9391SOL     OW39808   3.572   1.499   3.237  0.5880 -0.1127 -0.1629
 9391SOL    HW139809   3.490   1.494   3.188  0.5759  1.8756 -0.3582
 9391SOL    HW239810   3.615   1.566   3.183 -0.8660 -0.3093 -1.5612
 9392SOL     OW39811   0.111   4.730   5.765 -0.0819  0.7200  0.0388
 9392SOL    HW139812   0.094   0.036   5.681  2.8669  0.5326 -0.6590
 9392SOL    HW239813   0.034   0.013   5.818 -0.3911 -0.9163  0.1717
 9393SOL     OW39814   2.495   3.773  10.541 -0.0372 -0.0256 -0.1042
 9393SOL    HW139815   2.492   3.750  10.448  1.4845 -0.9185  0.0684
 9393SOL    HW239816   2.465   3.693  10.584  2.0534  0.0282  1.4525
 9394SOL     OW39817   1.588   1.164   1.925 -0.1011 -0.5771 -0.1425
 9394SOL    HW139818   1.559   1.152   2.016  1.0827  0.9530  0.4443
 9394SOL    HW239819   1.614   1.256   1.917 -0.6993 -0.3353  0.6117
 9395SOL     OW39820   1.604   4.490  13.630 -0.0241 -0.0577  0.1827
 9395SOL    HW139821   1.635   4.506  13.720  1.4759 -0.8658 -0.1919
 9395SOL    HW239822   1.515   4.460  13.649 -0.2914  0.7319  0.1932
 9396SOL     OW39823   4.243   1.376   1.960 -0.7376 -0.0904  0.1120
 9396SOL    HW139824   4.172   1.344   2.016  1.2526 -2.6235  1.1903
 9396SOL    HW239825   4.204   1.457   1.927 -1.6831 -1.1427 -1.3450
 9397SOL     OW39826   1.243   2.108  12.151 -0.7427 -0.1628  0.0783
 9397SOL    HW139827   1.250   2.155  12.068  0.0018  1.6515  1.1881
 9397SOL    HW239828   1.302   2.036  12.127  1.1242  0.9645  1.3236
 9398SOL     OW39829   1.617   3.285  13.828  0.1055  0.3692 -0.1706
 9398SOL    HW139830   1.607   3.280  13.732 -1.1218 -1.0115  0.0218
 9398SOL    HW239831   1.559   3.213  13.851 -0.1000  0.3183 -0.8250
 9399SOL     OW39832   1.630   1.202   2.494 -0.3094 -1.0637  0.7618
 9399SOL    HW139833   1.706   1.254   2.521  0.4240 -0.0785 -3.1668
 9399SOL    HW239834   1.569   1.209   2.567 -0.1864 -1.5671  0.9099
 9400SOL     OW39835   0.552   2.004  12.274  0.3042  0.4712 -0.0788
 9400SOL    HW139836   0.645   1.995  12.255  0.2091 -3.7192  1.4582
 9400SOL    HW239837   0.519   2.061  12.205  0.3222  0.4996 -0.0638
 9401SOL     OW39838   1.349   0.676   5.672  0.6889 -0.4355  0.1904
 9401SOL    HW139839   1.295   0.636   5.605  0.7249  1.6712 -1.0992
 9401SOL    HW239840   1.411   0.610   5.704  1.9287  1.1324  1.0748
 9402SOL     OW39841   0.432   1.255   6.272  0.1194 -0.2057  0.1240
 9402SOL    HW139842   0.508   1.295   6.230  0.4744  0.4748  1.4188
 9402SOL    HW239843   0.371   1.259   6.198 -0.4204  2.3168  0.6905
 9403SOL     OW39844   0.277   3.343   2.105  0.3885  0.0284  0.5401
 9403SOL    HW139845   0.233   3.320   2.187 -0.1219  0.2676  0.3376
 9403SOL    HW239846   0.228   3.278   2.053 -0.8559  1.6285 -0.2869
 9404SOL     OW39847   2.325   1.706   6.878 -0.4096  0.0524  0.1517
 9404SOL    HW139848   2.394   1.756   6.922 -0.3152  0.8908 -0.9548
 9404SOL    HW239849   2.358   1.686   6.790 -2.7837 -0.7514 -0.5515
 9405SOL     OW39850   3.846   3.246   1.401  0.9400  0.2526  0.2955
 9405SOL    HW139851   3.757   3.279   1.406  0.7779 -0.3334  1.3891
 9405SOL    HW239852   3.835   3.191   1.323 -1.6142  0.7343  0.3151
 9406SOL     OW39853   3.877   3.126   8.986  0.5087  0.0997 -0.1662
 9406SOL    HW139854   3.917   3.182   8.919  1.9095 -1.0638 -0.3083
 9406SOL    HW239855   3.811   3.190   9.011  2.1260  2.3853 -1.7613
 9407SOL     OW39856   2.166   2.016  12.319 -0.5443  0.5511  0.4971
 9407SOL    HW139857   2.192   2.066  12.397 -1.2760 -0.9447  1.6984
 9407SOL    HW239858   2.185   1.926  12.347 -3.4155  0.3799  1.8613
 9408SOL     OW39859   4.576   2.127   3.097 -0.4099 -0.1826 -0.2037
 9408SOL    HW139860   4.484   2.150   3.107 -0.4255  0.4953 -2.0744
 9408SOL    HW239861   4.607   2.216   3.112 -2.2130  0.3436  0.4573
 9409SOL     OW39862   4.629   2.763   4.442  0.6274  0.3177 -0.3003
 9409SOL    HW139863   4.649   2.856   4.438  2.1633 -0.0715 -1.9576
 9409SOL    HW239864   4.540   2.753   4.407  0.7554  0.5720 -0.7010
 9410SOL     OW39865   3.984   2.829   5.944  0.1330 -0.4158 -0.4510
 9410SOL    HW139866   4.060   2.842   6.001 -0.8615  0.5162  0.6620
 9410SOL    HW239867   3.998   2.900   5.881 -1.0833  1.0674  0.9539
 9411SOL     OW39868   3.287   1.758   2.516  0.4760  0.2608  0.1361
 9411SOL    HW139869   3.333   1.792   2.439  0.3144 -1.7448 -0.8541
 9411SOL    HW239870   3.326   1.810   2.586  1.7460 -2.3982  1.4317
 9412SOL     OW39871   1.801   1.820   9.174 -0.1633  0.3960  0.0682
 9412SOL    HW139872   1.832   1.842   9.262  2.3879  0.2917 -0.8007
 9412SOL    HW239873   1.777   1.903   9.134 -1.0367  0.7209  1.2660
 9413SOL     OW39874   4.368   4.320   3.944 -0.0535 -0.8879 -0.3222
 9413SOL    HW139875   4.449   4.325   3.993 -0.9866  0.3912  1.0845
 9413SOL    HW239876   4.333   4.241   3.985 -0.2703 -2.5340 -3.6756
 9414SOL     OW39877   2.526   3.866  10.058  0.0502 -0.0910  0.3002
 9414SOL    HW139878   2.571   3.943  10.023 -0.4684  0.1847  0.2338
 9414SOL    HW239879   2.442   3.877  10.012 -0.8678  0.8899  2.2164
 9415SOL     OW39880   2.837   0.449   0.322 -0.2447 -0.1988 -0.3933
 9415SOL    HW139881   2.861   0.410   0.238 -0.1040  0.2456 -0.5558
 9415SOL    HW239882   2.794   0.528   0.290  1.0442  0.4292 -0.5783
 9416SOL     OW39883   2.550   0.972   6.982  0.0120 -0.4470 -0.0777
 9416SOL    HW139884   2.639   1.005   6.968 -0.2678  0.6480  0.7010
 9416SOL    HW239885   2.549   0.896   6.925  1.8330 -1.1610  0.8196
 9417SOL     OW39886   2.404   0.164   7.018 -0.4822  0.2113  0.1316
 9417SOL    HW139887   2.348   0.150   6.941 -1.6035 -0.5366  1.0887
 9417SOL    HW239888   2.369   0.111   7.089 -1.1045 -0.7426 -0.8950
 9418SOL     OW39889   0.453   4.265   6.518 -0.1156 -0.0330  0.0029
 9418SOL    HW139890   0.381   4.321   6.488 -0.6919  0.3102  2.0837
 9418SOL    HW239891   0.392   4.199   6.550  1.2762 -1.1192  0.4099
 9419SOL     OW39892   4.700   1.612   6.449  0.0434  0.3880 -0.0789
 9419SOL    HW139893   0.047   1.612   6.400  0.4891 -0.0399  0.6787
 9419SOL    HW239894   4.694   1.519   6.470  1.0824  0.5061  0.7370
 9420SOL     OW39895   3.488   0.021  11.088  0.1541 -0.1590  0.0722
 9420SOL    HW139896   3.547   0.003  11.015 -0.8771  2.2885 -1.3859
 9420SOL    HW239897   3.405   0.022  11.039  0.1949  2.2348  0.0348
 9421SOL     OW39898   3.622   3.323   2.949 -0.7480  0.0162 -0.2627
 9421SOL    HW139899   3.592   3.286   2.866  1.6470  0.8461 -1.4955
 9421SOL    HW239900   3.544   3.373   2.972 -0.0266  1.2624 -0.5312
 9422SOL     OW39901   0.846   2.891  10.168 -0.3081  0.1035 -0.6466
 9422SOL    HW139902   0.752   2.880  10.158 -0.4643  1.9389 -1.1387
 9422SOL    HW239903   0.868   2.859  10.081 -1.9137 -0.8920 -0.6793
 9423SOL     OW39904   0.982   3.792   6.965 -0.1214  0.6036  0.2032
 9423SOL    HW139905   0.973   3.887   6.976 -3.2092  0.4691 -1.2244
 9423SOL    HW239906   1.066   3.778   7.007 -0.4124  1.6140  1.1407
 9424SOL     OW39907   3.578   1.545   9.601  0.3539 -0.1106 -0.0940
 9424SOL    HW139908   3.654   1.592   9.634  1.3729 -0.9050 -1.2912
 9424SOL    HW239909   3.603   1.540   9.508  1.1435  1.0267  0.0719
 9425SOL     OW39910   0.681   3.480  16.308 -0.2381  0.2725  0.8423
 9425SOL    HW139911   0.592   3.486  16.343 -0.2430 -1.1236  1.0786
 9425SOL    HW239912   0.717   3.569  16.313  0.4707 -0.0462  1.4376
 9426SOL     OW39913   1.314   2.667   5.941  0.3127  0.4830 -0.2416
 9426SOL    HW139914   1.275   2.749   5.912  0.8587  1.1917  1.0000
 9426SOL    HW239915   1.238   2.617   5.969  0.7035  0.2447  0.4146
 9427SOL     OW39916   3.775   2.758   7.283 -0.3860 -0.0517  0.2869
 9427SOL    HW139917   3.834   2.709   7.226 -1.3971  1.5675 -2.1605
 9427SOL    HW239918   3.688   2.723   7.263 -0.1786  0.3751 -1.3628
 9428SOL     OW39919   1.332   4.609   8.588 -0.3272 -0.3692  0.2366
 9428SOL    HW139920   1.261   4.561   8.545 -0.4970  0.5211 -0.4850
 9428SOL    HW239921   1.305   4.699   8.567  1.2466  0.1215  0.2693
 9429SOL     OW39922   4.510   2.819   5.602 -0.0136 -0.1348  0.0345
 9429SOL    HW139923   4.508   2.724   5.589 -1.5941 -0.3409  1.8353
 9429SOL    HW239924   4.435   2.846   5.550  0.6684  0.2319 -0.7734
 9430SOL     OW39925   2.369   4.269   8.688  0.3096  0.3479 -0.1397
 9430SOL    HW139926   2.419   4.189   8.699  0.8281  0.9128  1.6658
 9430SOL    HW239927   2.414   4.326   8.750 -0.4096  0.7194  0.0478
 9431SOL     OW39928   1.005   1.422   5.329 -0.2494 -0.0079 -0.1069
 9431SOL    HW139929   0.996   1.332   5.299 -0.5588  0.7160 -2.1668
 9431SOL    HW239930   1.100   1.422   5.330 -0.2802 -1.3675  3.0859
 9432SOL     OW39931   2.655   1.706   5.303  0.1449  0.1278 -0.2124
 9432SOL    HW139932   2.633   1.754   5.383  0.1645  0.1741 -0.2352
 9432SOL    HW239933   2.584   1.744   5.252 -0.6144 -1.6344 -0.4947
 9433SOL     OW39934   1.307   3.988   2.606 -0.1254  0.1592  0.1425
 9433SOL    HW139935   1.272   3.980   2.695 -0.7611 -1.4973 -0.2406
 9433SOL    HW239936   1.233   3.950   2.558 -1.1930 -0.8770  2.5514
 9434SOL     OW39937   1.924   4.208  16.387  0.5852  0.2029  0.6620
 9434SOL    HW139938   1.880   4.291  16.408 -0.7214  0.1385 -1.7972
 9434SOL    HW239939   1.893   4.201  16.296 -0.7247  1.0199  1.0544
 9435SOL     OW39940   0.208   0.867   8.692 -0.3918 -0.2988 -0.3960
 9435SOL    HW139941   0.140   0.928   8.662  1.9753  2.2850 -0.4420
 9435SOL    HW239942   0.237   0.899   8.777 -0.9086  2.8621 -1.4202
 9436SOL     OW39943   3.751   2.111   4.756 -0.2853 -0.1412 -0.4262
 9436SOL    HW139944   3.669   2.070   4.727  0.9085 -2.4200 -0.5528
 9436SOL    HW239945   3.777   2.043   4.818 -0.1869  0.7878  0.5496
 9437SOL     OW39946   2.192   2.586   4.450  0.4307 -0.1710  0.1326
 9437SOL    HW139947   2.147   2.670   4.447  1.8716  0.6751  1.9955
 9437SOL    HW239948   2.155   2.552   4.532  0.2766 -0.2747  0.0179
 9438SOL     OW39949   0.283   3.760   8.408  0.1170 -0.3576  0.3418
 9438SOL    HW139950   0.370   3.734   8.440 -0.5600 -1.5732  1.2041
 9438SOL    HW239951   0.234   3.700   8.465  1.1990  0.5174  2.2205
 9439SOL     OW39952   4.261   2.805   2.482 -0.5633  0.1496 -0.8623
 9439SOL    HW139953   4.168   2.806   2.459 -0.8895  1.0189  0.5252
 9439SOL    HW239954   4.289   2.864   2.412  0.8261 -0.4883 -0.8641
 9440SOL     OW39955   3.703   0.267   4.813  0.4850  0.4293  0.0005
 9440SOL    HW139956   3.646   0.323   4.866 -0.4214  0.2413 -0.7736
 9440SOL    HW239957   3.791   0.295   4.839  0.6070 -0.3780  0.4532
 9441SOL     OW39958   2.196   3.003   4.006 -0.4305 -0.4717  0.1450
 9441SOL    HW139959   2.239   2.941   4.065  0.4665  0.0689  0.0553
 9441SOL    HW239960   2.206   2.943   3.932  1.0228 -0.9842  0.7520
 9442SOL     OW39961   2.557   1.900   6.985  0.1290 -0.1541  0.1434
 9442SOL    HW139962   2.573   1.808   6.965 -3.4414 -1.0386  1.3419
 9442SOL    HW239963   2.619   1.943   6.927 -0.2449 -0.7656 -0.7199
 9443SOL     OW39964   2.282   1.351   8.073  0.6727 -0.4695  0.3902
 9443SOL    HW139965   2.188   1.365   8.061  0.2222 -2.0721  2.1248
 9443SOL    HW239966   2.316   1.431   8.033  0.3972 -0.1854  0.7306
 9444SOL     OW39967   3.226   0.208   4.507  0.3383 -0.6371  0.2571
 9444SOL    HW139968   3.165   0.181   4.576 -3.0513 -0.1648 -2.5105
 9444SOL    HW239969   3.180   0.286   4.476 -0.5017 -0.6201  1.5290
 9445SOL     OW39970   1.284   1.968  10.342  0.1498 -0.5093 -0.2155
 9445SOL    HW139971   1.253   1.987  10.430 -0.4082  0.8390 -0.7039
 9445SOL    HW239972   1.214   1.912  10.309  2.1157 -3.8570  1.3081
 9446SOL     OW39973   1.605   3.586   3.547  0.6268 -0.2382  0.0646
 9446SOL    HW139974   1.619   3.524   3.619  0.2679  0.5469  0.8003
 9446SOL    HW239975   1.642   3.541   3.471  2.8877  0.4885  0.7126
 9447SOL     OW39976   2.138   4.484   4.923 -0.2846  0.4564  0.1216
 9447SOL    HW139977   2.081   4.539   4.869 -1.6537  0.7430  1.8455
 9447SOL    HW239978   2.208   4.484   4.858 -0.7488 -1.4332 -0.3850
 9448SOL     OW39979   4.702   0.989   5.659  0.0732 -0.2378  0.5290
 9448SOL    HW139980   0.029   0.997   5.587  0.0867 -1.0379  0.4494
 9448SOL    HW239981   4.628   0.950   5.613 -1.1282  1.9007  0.6393
 9449SOL     OW39982   0.364   2.398   3.360  0.3339  0.3531 -0.7034
 9449SOL    HW139983   0.426   2.349   3.305  0.9666 -1.0227  1.2403
 9449SOL    HW239984   0.310   2.437   3.292 -1.0035  0.8689  0.6770
 9450SOL     OW39985   0.038   3.460   5.408  0.9312  0.1386 -0.5621
 9450SOL    HW139986   0.075   3.372   5.412  1.2501  0.3212  0.5610
 9450SOL    HW239987   0.110   3.512   5.441 -1.4778  3.4829 -0.5853
 9451SOL     OW39988   1.442   2.538  17.512 -0.4611 -0.2516 -0.5376
 9451SOL    HW139989   1.440   2.444  17.531  1.7890 -0.5675 -1.9362
 9451SOL    HW239990   1.529   2.562  17.481 -0.6869  1.1176 -0.1453
 9452SOL     OW39991   3.487   1.308   7.846  0.0609 -0.1713  0.2490
 9452SOL    HW139992   3.421   1.273   7.787 -1.0805  0.2875  1.2645
 9452SOL    HW239993   3.451   1.303   7.934  0.3418  1.3619  0.4570
 9453SOL     OW39994   0.058   3.430   9.154  0.0275  0.4878 -0.1084
 9453SOL    HW139995   0.135   3.471   9.195  1.7991 -2.6020 -0.3858
 9453SOL    HW239996   4.727   3.455   9.218  0.5137 -1.9778  1.3755
 9454SOL     OW39997   3.604   1.338  17.565  0.0604  0.4658 -0.5179
 9454SOL    HW139998   3.558   1.278  17.506 -0.0564  0.3447 -0.3006
 9454SOL    HW239999   3.683   1.284  17.565 -1.4624 -1.6876  1.5880
 9455SOL     OW40000   3.394   2.566   8.327  0.3603 -0.2103  0.2394
 9455SOL    HW140001   3.432   2.528   8.406  0.8800  0.1350  0.1547
 9455SOL    HW240002   3.343   2.494   8.290 -1.6644  1.1603  0.3580
 9456SOL     OW40003   4.413   0.150  14.185  0.0439  0.8804  0.8510
 9456SOL    HW140004   4.473   0.109  14.123 -2.0109  0.7936 -1.0817
 9456SOL    HW240005   4.375   0.075  14.230  0.2337  2.0720  2.9702
 9457SOL     OW40006   1.814   3.172   8.383  0.5210  0.3025  0.0108
 9457SOL    HW140007   1.745   3.213   8.435 -0.4536  0.0369 -1.0811
 9457SOL    HW240008   1.817   3.231   8.307  2.0222 -0.9304 -0.8974
 9458SOL     OW40009   0.629   2.509  17.406 -0.0065 -0.1505  0.1137
 9458SOL    HW140010   0.573   2.473  17.337 -2.0434  0.5965  1.3845
 9458SOL    HW240011   0.640   2.449  17.480 -1.7686  1.5580  1.7640
 9459SOL     OW40012   2.314   4.209  14.222 -0.3690  0.1121 -0.3196
 9459SOL    HW140013   2.220   4.190  14.217  0.1718 -2.4517 -0.8493
 9459SOL    HW240014   2.349   4.141  14.279  0.3306 -0.6614 -1.6670
 9460SOL     OW40015   3.249   0.911  11.877  0.0087  0.1834 -0.3317
 9460SOL    HW140016   3.214   0.878  11.959 -0.0011  2.3159  0.5325
 9460SOL    HW240017   3.313   0.978  11.902 -0.6370  0.5828  0.2520
 9461SOL     OW40018   2.327   0.995   8.119  0.0047  0.2377 -0.5677
 9461SOL    HW140019   2.253   1.034   8.074 -0.5970 -1.9170 -1.4651
 9461SOL    HW240020   2.327   0.913   8.070  0.0266  0.7029 -1.3352
 9462SOL     OW40021   1.987   3.258   5.933  0.2948 -0.1656 -0.3013
 9462SOL    HW140022   1.947   3.324   5.877 -1.2442  0.1357  1.1504
 9462SOL    HW240023   2.016   3.196   5.866 -2.1649  0.5942 -2.0820
 9463SOL     OW40024   1.363   4.416   5.429 -0.6047 -0.1989 -0.1861
 9463SOL    HW140025   1.439   4.450   5.382 -1.3268  0.2327 -1.0481
 9463SOL    HW240026   1.296   4.470   5.388 -0.1594  0.1533 -0.4512
 9464SOL     OW40027   2.209   3.409   1.831  0.3933  0.4847  0.2309
 9464SOL    HW140028   2.182   3.374   1.916 -1.8106  0.4191 -0.4729
 9464SOL    HW240029   2.151   3.483   1.815 -1.5233 -1.7664 -3.2962
 9465SOL     OW40030   1.381   0.076   1.105  0.2356 -0.0549 -0.0839
 9465SOL    HW140031   1.350   0.034   1.025  4.8588 -0.4119 -1.6878
 9465SOL    HW240032   1.445   0.008   1.128  0.5365 -0.4086 -1.9656
 9466SOL     OW40033   1.975   0.554   0.240 -0.3099 -0.2075  0.2257
 9466SOL    HW140034   1.950   0.543   0.149  0.7143  2.5857 -0.3839
 9466SOL    HW240035   1.904   0.608   0.276  1.5413  0.6340  2.6176
 9467SOL     OW40036   4.452   0.882   3.534  0.0358  0.3181 -0.4410
 9467SOL    HW140037   4.444   0.977   3.544  2.0849  0.1188  3.1710
 9467SOL    HW240038   4.434   0.868   3.441 -1.8000  2.2416 -0.3850
 9468SOL     OW40039   1.263   1.031   5.802  0.6086  0.4007 -0.1056
 9468SOL    HW140040   1.259   0.943   5.839  1.6985  0.5366  0.3392
 9468SOL    HW240041   1.260   1.010   5.709 -0.1518 -1.6964  0.3775
 9469SOL     OW40042   1.970   1.209   7.375 -0.3510  0.3862  0.1163
 9469SOL    HW140043   1.932   1.237   7.292 -2.9505 -1.9913  0.4757
 9469SOL    HW240044   2.006   1.295   7.398 -0.5976  0.5163  0.0218
 9470SOL     OW40045   4.241   0.333  15.065 -0.5424 -0.3483  0.2858
 9470SOL    HW140046   4.332   0.321  15.094 -0.4062 -0.6022 -0.2298
 9470SOL    HW240047   4.216   0.245  15.093 -1.0863 -0.1418  0.4425
 9471SOL     OW40048   3.891   3.733  12.701 -0.6549 -0.4540  0.4561
 9471SOL    HW140049   3.858   3.692  12.781 -2.0616  0.1198  0.1630
 9471SOL    HW240050   3.807   3.760  12.664 -0.2784 -1.0790 -0.8940
 9472SOL     OW40051   2.819   3.773   8.504 -0.1014  0.5845  0.2561
 9472SOL    HW140052   2.856   3.699   8.552 -2.1201 -1.7467 -1.7416
 9472SOL    HW240053   2.758   3.811   8.567 -0.7841 -2.4584  1.4410
 9473SOL     OW40054   1.593   3.651   6.636 -0.3149 -0.3462  0.2452
 9473SOL    HW140055   1.582   3.703   6.715 -0.0243 -1.5490  1.0802
 9473SOL    HW240056   1.504   3.623   6.616 -0.3758  0.4135 -0.5542
 9474SOL     OW40057   2.312   0.020   7.261  0.1436 -0.3901 -0.0370
 9474SOL    HW140058   2.266   4.723   7.337 -0.7112  0.2776 -0.2731
 9474SOL    HW240059   2.268   0.104   7.248  2.5591  0.7841 -0.7759
 9475SOL     OW40060   3.447   2.505   9.473  0.5157  0.7077 -0.6489
 9475SOL    HW140061   3.526   2.459   9.501  0.3110  0.9417  0.3315
 9475SOL    HW240062   3.485   2.584   9.436  0.7533  0.8917 -0.0047
 9476SOL     OW40063   1.745   3.435   7.811  0.2791  0.1760 -0.2978
 9476SOL    HW140064   1.713   3.425   7.721 -1.8167 -1.9488  0.6748
 9476SOL    HW240065   1.707   3.522   7.825  0.4131  0.0172  1.0631
 9477SOL     OW40066   2.023   4.657   4.459 -0.2935 -0.1980 -0.6307
 9477SOL    HW140067   1.955   4.722   4.438 -2.0845 -1.3988  1.4230
 9477SOL    HW240068   2.005   4.577   4.409 -0.6651  0.6549 -1.8664
 9478SOL     OW40069   2.003   3.157   1.199  0.1169  0.4838  0.0392
 9478SOL    HW140070   1.939   3.087   1.188  0.5056  0.2390 -0.6908
 9478SOL    HW240071   1.996   3.169   1.294  1.9049 -0.7667  0.3190
 9479SOL     OW40072   0.877   3.175   7.639  0.4534 -0.2919  0.5124
 9479SOL    HW140073   0.903   3.119   7.712  0.8161 -0.3152  0.3681
 9479SOL    HW240074   0.960   3.209   7.606  1.6530 -3.9121 -0.2592
 9480SOL     OW40075   2.977   1.909   3.891 -0.2498  0.1635  0.5616
 9480SOL    HW140076   2.964   1.967   3.816  3.4482 -0.0948 -0.2890
 9480SOL    HW240077   3.072   1.908   3.898 -0.1588 -1.1711 -0.7772
 9481SOL     OW40078   1.519   1.729   4.371 -0.4000 -0.2274  0.1308
 9481SOL    HW140079   1.603   1.700   4.337 -1.0386  1.2235 -2.7065
 9481SOL    HW240080   1.494   1.796   4.307 -2.4993 -0.0347  1.1323
 9482SOL     OW40081   3.792   1.712   8.016 -0.4344  0.1985 -0.0657
 9482SOL    HW140082   3.762   1.781   8.075 -0.0217 -1.3603  1.9709
 9482SOL    HW240083   3.725   1.645   8.031  0.2309 -0.7677 -1.3901
 9483SOL     OW40084   4.595   4.353   5.751 -1.1001 -0.2054  0.5040
 9483SOL    HW140085   4.533   4.423   5.728 -0.8851 -0.8019 -1.8478
 9483SOL    HW240086   4.649   4.344   5.673 -3.1662 -1.0099 -0.8253
 9484SOL     OW40087   1.147   2.392  14.124 -0.4470 -0.2872  0.1522
 9484SOL    HW140088   1.133   2.324  14.190 -1.0632 -0.7805 -0.4864
 9484SOL    HW240089   1.057   2.413  14.097  0.2898 -0.4765 -2.4638
 9485SOL     OW40090   2.315   1.317   2.263 -0.2022 -0.5072 -0.5602
 9485SOL    HW140091   2.220   1.304   2.274 -0.4721  1.1514 -0.8753
 9485SOL    HW240092   2.342   1.348   2.349 -3.2851 -1.6383  0.8107
 9486SOL     OW40093   0.728   0.107   0.376  0.1069  0.1887  0.7183
 9486SOL    HW140094   0.794   0.099   0.307 -0.1660  1.5712  0.3034
 9486SOL    HW240095   0.770   0.074   0.456  1.3195  2.0846  0.8435
 9487SOL     OW40096   0.976   4.618  13.430 -0.4662  0.0318 -0.4647
 9487SOL    HW140097   1.061   4.578  13.449 -0.6442  0.2038  0.7272
 9487SOL    HW240098   0.945   4.614  13.521 -1.6202  1.2151 -0.8115
 9488SOL     OW40099   0.140   0.972   7.202 -0.1562 -0.0097 -0.2851
 9488SOL    HW140100   0.132   0.985   7.107  0.2697  0.6259 -0.2354
 9488SOL    HW240101   0.227   0.935   7.214 -0.2364  0.0008  0.3230
 9489SOL     OW40102   3.502   4.508   5.806 -0.5574  0.1283  0.4746
 9489SOL    HW140103   3.451   4.589   5.815 -1.5405 -0.3978 -0.4323
 9489SOL    HW240104   3.558   4.537   5.733 -0.2481 -0.2371  0.5646
 9490SOL     OW40105   4.559   3.875  17.521  0.5294  0.8743  0.3565
 9490SOL    HW140106   4.506   3.888  17.599  0.8845  0.5745  0.6466
 9490SOL    HW240107   4.629   3.939  17.535  2.9975 -1.5794 -0.8486
 9491SOL     OW40108   3.947   0.104  16.934 -0.5117 -0.2534  0.3766
 9491SOL    HW140109   3.963   0.198  16.926 -1.5329 -0.2034 -1.1911
 9491SOL    HW240110   4.001   0.078  17.008 -1.5273  0.0459  1.2225
 9492SOL     OW40111   2.145   0.624   5.031 -0.3271 -0.0387  0.0986
 9492SOL    HW140112   2.171   0.696   5.089 -0.4536 -0.7528  1.0574
 9492SOL    HW240113   2.202   0.560   5.075 -0.1864 -0.8852 -1.3180
 9493SOL     OW40114   0.670   0.267   7.227  0.3095 -0.1833  0.2977
 9493SOL    HW140115   0.714   0.198   7.178  1.4640  1.1411 -0.5450
 9493SOL    HW240116   0.715   0.342   7.188 -1.0393 -0.0210 -0.9350
 9494SOL     OW40117   1.699   0.382   3.391 -0.3559 -0.1689 -0.2678
 9494SOL    HW140118   1.705   0.428   3.307  3.0565  0.7962  0.5049
 9494SOL    HW240119   1.736   0.448   3.449 -1.0478 -0.1703  0.1682
 9495SOL     OW40120   3.948   4.324  15.818 -0.6291  0.4786  0.5651
 9495SOL    HW140121   4.000   4.403  15.809 -1.0111  0.4930 -1.5518
 9495SOL    HW240122   3.900   4.327  15.735  0.4615 -1.4056 -0.1466
 9496SOL     OW40123   3.576   3.372   0.872 -0.4235 -0.0020 -0.1595
 9496SOL    HW140124   3.645   3.371   0.938 -1.6211 -0.2100  1.0800
 9496SOL    HW240125   3.508   3.319   0.914 -0.8455  0.1996 -0.5793
 9497SOL     OW40126   0.226   3.962  11.001  0.1832  0.5582 -0.4743
 9497SOL    HW140127   0.292   3.935  11.064  0.7593  1.5700 -0.6466
 9497SOL    HW240128   0.188   4.041  11.041  0.1647  0.1879  0.2449
 9498SOL     OW40129   2.832   2.320   2.014  0.0103 -0.1911  0.3176
 9498SOL    HW140130   2.883   2.364   1.946  0.2147 -2.0184 -0.7280
 9498SOL    HW240131   2.866   2.231   2.001  4.6588  1.4694  1.2441
 9499SOL     OW40132   2.026   1.164   1.777  0.3172  0.1260 -0.3067
 9499SOL    HW140133   2.064   1.250   1.798  2.2159 -0.7389 -0.1219
 9499SOL    HW240134   2.102   1.116   1.744  0.6325 -0.3973  1.1520
 9500SOL     OW40135   1.401   1.813   3.342 -0.3062  0.3271  0.2967
 9500SOL    HW140136   1.490   1.809   3.378  0.1274  0.8281 -0.7341
 9500SOL    HW240137   1.411   1.880   3.275  1.2099 -1.0475 -0.8399
 9501SOL     OW40138   0.272   3.282  15.406  0.8674 -0.4008 -0.1074
 9501SOL    HW140139   0.334   3.271  15.478  0.1475  0.4698  0.6402
 9501SOL    HW240140   0.251   3.188  15.403  2.3456 -0.8125  2.4346
 9502SOL     OW40141   0.739   3.999  15.674 -0.5068 -0.1689  0.3862
 9502SOL    HW140142   0.818   3.990  15.620  0.2209  1.6221  1.1420
 9502SOL    HW240143   0.672   4.032  15.614  1.1309 -1.0491 -1.9361
 9503SOL     OW40144   1.038   4.690   6.776 -0.0066 -0.0692  0.3172
 9503SOL    HW140145   1.006   4.639   6.702 -0.5860  0.7142  0.0238
 9503SOL    HW240146   1.027   0.042   6.739  1.7185  0.5865  1.3547
 9504SOL     OW40147   0.388   0.889   1.968 -0.1254  0.2926 -0.0341
 9504SOL    HW140148   0.478   0.914   1.986 -0.1585 -0.8351  1.7092
 9504SOL    HW240149   0.341   0.966   2.001 -0.3681  1.8405 -4.0170
 9505SOL     OW40150   3.853   0.074   4.076  0.1833  0.1985  0.3856
 9505SOL    HW140151   3.864   4.715   4.089 -0.2683 -0.2935 -2.7952
 9505SOL    HW240152   3.928   0.112   4.121  1.1670  1.6050 -2.4370
 9506SOL     OW40153   3.226   3.405   8.372  0.3739  0.2314 -0.2726
 9506SOL    HW140154   3.191   3.357   8.297  1.5983  1.5833 -1.7337
 9506SOL    HW240155   3.226   3.327   8.427 -0.1279 -0.5205 -1.3414
 9507SOL     OW40156   0.136   0.758   6.048 -0.1257 -0.2086  0.4259
 9507SOL    HW140157   0.141   0.845   6.007 -1.2644 -0.7898 -0.9560
 9507SOL    HW240158   0.120   0.775   6.141 -1.5704 -0.8040  0.2807
 9508SOL     OW40159   1.239   3.006  10.389  0.0487 -0.0995  0.3950
 9508SOL    HW140160   1.202   2.936  10.335 -2.4940  2.3889 -1.0895
 9508SOL    HW240161   1.176   3.025  10.459  2.0379  2.1282  1.5684
 9509SOL     OW40162   0.971   4.093   3.747  0.7567  0.5874 -0.2861
 9509SOL    HW140163   1.018   4.130   3.822 -1.0903  0.4714  0.9258
 9509SOL    HW240164   1.033   4.103   3.675  0.9055 -2.3487 -0.5774
 9510SOL     OW40165   4.120   0.559  16.916  0.2060  0.0392  0.0285
 9510SOL    HW140166   4.082   0.483  16.872 -0.8597  0.1131  0.8241
 9510SOL    HW240167   4.212   0.554  16.890  1.1352  2.0019  2.9132
 9511SOL     OW40168   3.006   1.881  10.585 -0.3257  0.2371  0.2247
 9511SOL    HW140169   2.984   1.788  10.576 -1.0047  0.2081  2.2399
 9511SOL    HW240170   2.917   1.917  10.592 -0.7463 -1.0883  1.5558
 9512SOL     OW40171   1.588   0.003   3.809  0.2853 -0.0938 -0.3266
 9512SOL    HW140172   1.673   0.024   3.846 -0.7710  3.7290 -0.0342
 9512SOL    HW240173   1.602   4.644   3.804 -0.0556 -0.1579 -0.0798
 9513SOL     OW40174   2.366   3.164   6.717  0.8049  0.1161  0.5035
 9513SOL    HW140175   2.372   3.199   6.806  1.3628  2.9910 -0.6652
 9513SOL    HW240176   2.379   3.070   6.728 -1.2322 -0.1428  0.6504
 9514SOL     OW40177   0.205   1.359   5.005  0.4810  0.1129 -0.1944
 9514SOL    HW140178   0.112   1.358   4.985  0.3587  3.2541  0.1723
 9514SOL    HW240179   0.236   1.270   5.021  0.5288  0.4448  1.6459
 9515SOL     OW40180   3.736   4.513   4.600 -0.0183  0.4482  0.2683
 9515SOL    HW140181   3.664   4.489   4.659 -0.8533  2.5038  0.0961
 9515SOL    HW240182   3.789   4.572   4.655  0.4824 -1.2805  1.6347
 9516SOL     OW40183   3.692   1.349   7.201 -0.1834  0.1723  0.8687
 9516SOL    HW140184   3.739   1.431   7.205 -0.9683  0.6091  1.1871
 9516SOL    HW240185   3.724   1.318   7.116 -0.3662 -2.3842  1.7131
 9517SOL     OW40186   2.576   0.489   9.481 -0.5475 -0.4527 -0.1248
 9517SOL    HW140187   2.593   0.517   9.571 -0.4463  4.1125 -1.5624
 9517SOL    HW240188   2.514   0.418   9.495 -2.3378  0.9312 -1.0306
 9518SOL     OW40189   1.503   0.895   5.640 -0.7470  0.5413 -0.7959
 9518SOL    HW140190   1.444   0.823   5.620 -0.4675  0.1419 -0.1882
 9518SOL    HW240191   1.520   0.864   5.729  1.5245 -2.2141 -2.1667
 9519SOL     OW40192   3.931   2.411  14.291 -0.3520 -0.0490  0.2180
 9519SOL    HW140193   3.900   2.337  14.343  0.1373 -0.3228  0.1218
 9519SOL    HW240194   3.997   2.366  14.239 -0.0471 -1.2874  1.6754
 9520SOL     OW40195   2.008   0.414   6.931 -0.0173  0.1574  0.0896
 9520SOL    HW140196   2.005   0.344   6.866  1.1398  0.7724 -0.6192
 9520SOL    HW240197   1.971   0.361   7.002 -0.4972  2.1628  1.3229
 9521SOL     OW40198   3.125   4.496   3.690 -0.1818 -0.1725  0.2361
 9521SOL    HW140199   3.059   4.438   3.728 -1.6764  0.1757 -1.8346
 9521SOL    HW240200   3.068   4.570   3.669  0.2909  0.3046  0.6262
 9522SOL     OW40201   0.802   3.696   6.757  0.2524 -0.0518  0.0344
 9522SOL    HW140202   0.868   3.703   6.826  1.0766  0.9617 -0.8496
 9522SOL    HW240203   0.731   3.714   6.819  2.1264 -0.9162  2.4288
 9523SOL     OW40204   0.020   0.895   2.066 -0.0667 -0.2101  0.5103
 9523SOL    HW140205   4.702   0.904   1.988  2.4305 -4.0811 -1.6696
 9523SOL    HW240206   0.075   0.973   2.065 -1.1430  0.5573  2.1782
 9524SOL     OW40207   0.165   1.886   8.181 -0.4071  0.3666 -0.0176
 9524SOL    HW140208   0.195   1.952   8.118 -2.7704  1.2530 -0.1918
 9524SOL    HW240209   0.211   1.805   8.156 -1.6926 -0.3771  0.0206
 9525SOL     OW40210   2.701   2.305   7.414 -0.7137  0.3880  0.4566
 9525SOL    HW140211   2.628   2.268   7.365 -1.2070  1.9312  0.0182
 9525SOL    HW240212   2.732   2.230   7.464 -0.3001  1.3044  1.5704
 9526SOL     OW40213   4.049   0.883  17.604  0.6469 -1.0726 -0.0760
 9526SOL    HW140214   4.058   0.915  17.514 -1.5748  0.9000  0.4351
 9526SOL    HW240215   3.964   0.840  17.602  1.1393 -1.9694 -2.6710
 9527SOL     OW40216   3.149   1.538   4.693  0.0586  0.4856  0.8142
 9527SOL    HW140217   3.119   1.542   4.784  3.9570  2.5672  1.9900
 9527SOL    HW240218   3.160   1.631   4.676 -0.7900  0.4533  0.0580
 9528SOL     OW40219   1.975   1.217   5.672  0.0610 -0.5288 -0.0048
 9528SOL    HW140220   2.010   1.155   5.736 -1.4138 -1.0243  0.3259
 9528SOL    HW240221   1.890   1.219   5.715  0.2923 -2.8565  0.5744
 9529SOL     OW40222   0.513   4.025   9.486 -0.1715  0.1592  0.1082
 9529SOL    HW140223   0.570   4.066   9.551  1.3522 -2.9388  0.7571
 9529SOL    HW240224   0.471   4.098   9.441 -0.0376  0.3412  0.2763
 9530SOL     OW40225   3.889   1.887   6.925  0.2827  0.0565 -0.2816
 9530SOL    HW140226   3.963   1.897   6.985  0.4006 -0.7168 -0.3011
 9530SOL    HW240227   3.848   1.802   6.939 -1.7515  1.4096  2.1254
 9531SOL     OW40228   0.169   2.056   7.857  0.1408 -0.1183  0.6132
 9531SOL    HW140229   0.243   2.065   7.796  1.0407 -1.4094  1.5008
 9531SOL    HW240230   0.210   2.071   7.942 -0.2136  1.5085  0.4805
 9532SOL     OW40231   1.018   0.376   1.066 -0.4335  0.5104 -0.7392
 9532SOL    HW140232   0.934   0.377   1.112 -0.3515 -0.5173 -0.5751
 9532SOL    HW240233   1.033   0.283   1.051  1.1260  0.4009  1.4159
 9533SOL     OW40234   3.549   1.546   5.917 -0.6704  0.7731 -0.0769
 9533SOL    HW140235   3.639   1.539   5.951  0.1670  1.2588 -2.1915
 9533SOL    HW240236   3.502   1.476   5.963  2.5327 -2.2651 -1.3297
 9534SOL     OW40237   2.903   1.218  12.328 -1.6980  0.1790 -0.0349
 9534SOL    HW140238   2.904   1.223  12.232 -1.4023  0.2853 -0.0279
 9534SOL    HW240239   2.996   1.238  12.342 -2.2841  3.3109 -0.6111
 9535SOL     OW40240   4.151   3.149   5.981 -0.3436 -0.1289 -0.0907
 9535SOL    HW140241   4.207   3.223   6.002 -0.7442  0.8964 -2.6946
 9535SOL    HW240242   4.210   3.092   5.930 -0.7919 -1.7082  1.1565
 9536SOL     OW40243   1.928   1.382  14.850 -0.0070 -0.0837 -0.4267
 9536SOL    HW140244   1.911   1.294  14.816 -0.6078 -0.0536 -0.2126
 9536SOL    HW240245   1.947   1.439  14.776 -0.0078  2.2819  1.3971
 9537SOL     OW40246   2.172   3.421  12.773 -0.4660 -0.4813  0.1022
 9537SOL    HW140247   2.144   3.442  12.862  1.2446 -0.5114  0.6378
 9537SOL    HW240248   2.248   3.365  12.788  0.6524  0.6117 -1.4149
 9538SOL     OW40249   3.982   3.702   9.259  0.0330  0.9891 -0.0433
 9538SOL    HW140250   3.945   3.712   9.171  1.4387  1.7591 -0.5609
 9538SOL    HW240251   3.922   3.732   9.327 -0.7614  0.2385 -0.4151
 9539SOL     OW40252   3.259   1.656  12.584 -0.4917  0.1344  0.4558
 9539SOL    HW140253   3.326   1.722  12.564 -2.3339  2.5332  2.2618
 9539SOL    HW240254   3.178   1.707  12.592 -0.8969 -0.5090  0.4696
 9540SOL     OW40255   2.754   3.726  13.136  0.2815  0.0188 -0.3569
 9540SOL    HW140256   2.700   3.722  13.214 -2.3195  1.6092 -2.0920
 9540SOL    HW240257   2.838   3.753  13.174  0.5623 -0.2446 -0.7894
 9541SOL     OW40258   3.866   1.401   6.460 -0.0685  0.0108 -0.0788
 9541SOL    HW140259   3.819   1.482   6.480 -0.8215 -1.0705  2.5574
 9541SOL    HW240260   3.914   1.427   6.381 -0.6099 -0.4527 -0.5658
 9542SOL     OW40261   3.223   3.185   8.573  0.1861  0.2385  0.6086
 9542SOL    HW140262   3.206   3.240   8.650  1.3835 -1.0440  1.7825
 9542SOL    HW240263   3.270   3.110   8.609 -0.9105 -1.9344 -2.4186
 9543SOL     OW40264   1.360   3.414  16.039 -0.6591 -0.3036 -0.3098
 9543SOL    HW140265   1.276   3.367  16.041  0.0807 -1.5098  2.1080
 9543SOL    HW240266   1.341   3.478  15.970  1.9203 -0.3393 -1.0551
 9544SOL     OW40267   3.869   0.829   4.261  0.4365 -0.1008 -0.1111
 9544SOL    HW140268   3.949   0.882   4.252  0.8257 -1.2930 -3.4123
 9544SOL    HW240269   3.827   0.824   4.176 -1.3765  0.7336  0.7270
 9545SOL     OW40270   4.334   4.071   3.803  0.1044  0.4843 -0.5273
 9545SOL    HW140271   4.292   4.132   3.743  1.9719 -0.1099 -2.4357
 9545SOL    HW240272   4.400   4.028   3.748  0.6172 -0.2782  0.6983
 9546SOL     OW40273   4.155   4.294  16.027 -0.2056  0.1955  0.2182
 9546SOL    HW140274   4.175   4.278  15.935  2.0129 -1.7801  1.0464
 9546SOL    HW240275   4.125   4.385  16.027  1.2223  0.6748 -0.4746
 9547SOL     OW40276   0.304   3.273  14.554 -0.4341 -0.1212 -0.5027
 9547SOL    HW140277   0.213   3.295  14.574  0.6974  2.2887  1.8400
 9547SOL    HW240278   0.303   3.195  14.498  0.8038 -2.8448  3.2515
 9548SOL     OW40279   1.821   0.228  14.520 -0.1478  0.0227  0.4207
 9548SOL    HW140280   1.809   0.319  14.547  0.0307  1.0682 -2.9397
 9548SOL    HW240281   1.769   0.228  14.439 -1.0150 -3.2629  0.9940
 9549SOL     OW40282   4.017   3.469  12.475 -0.2963 -0.4540 -0.1290
 9549SOL    HW140283   4.018   3.376  12.496  0.1575 -0.4871 -0.3017
 9549SOL    HW240284   3.963   3.472  12.395  1.6678 -1.8761 -1.5134
 9550SOL     OW40285   1.678   2.212   1.080 -0.0877  0.6709 -0.4577
 9550SOL    HW140286   1.683   2.253   1.167  0.6295 -2.1159  0.8143
 9550SOL    HW240287   1.700   2.283   1.020 -3.1995  0.7174 -1.5260
 9551SOL     OW40288   1.330   0.758   0.349 -0.1721  0.1263  0.7470
 9551SOL    HW140289   1.239   0.772   0.376  0.3571 -1.0975  3.2058
 9551SOL    HW240290   1.323   0.663   0.362 -1.2026  0.3457  1.7277
 9552SOL     OW40291   3.923   0.556   4.230 -0.0861  0.5714 -0.7092
 9552SOL    HW140292   3.895   0.647   4.230  0.1722  0.6410  1.2455
 9552SOL    HW240293   3.841   0.507   4.238 -1.9714  3.9507  0.6022
 9553SOL     OW40294   1.426   1.550   0.303  0.7098 -0.1598 -0.0257
 9553SOL    HW140295   1.355   1.505   0.256  1.3192  0.7533 -1.8046
 9553SOL    HW240296   1.467   1.472   0.340 -0.4408 -0.7223  0.0628
 9554SOL     OW40297   0.867   3.169   0.107  0.3400  0.7070 -0.3794
 9554SOL    HW140298   0.948   3.219   0.117  0.3212  1.0871 -2.1355
 9554SOL    HW240299   0.831   3.157   0.195  0.8256 -1.6353 -0.5188
 9555SOL     OW40300   1.136   4.050   7.539 -1.0939  0.2253  0.2716
 9555SOL    HW140301   1.137   4.076   7.632 -2.7168 -0.1553  0.3840
 9555SOL    HW240302   1.120   3.956   7.543  2.2186 -0.2603  2.5718
 9556SOL     OW40303   2.490   2.621   2.684 -0.0433  0.4408 -0.3490
 9556SOL    HW140304   2.430   2.665   2.744 -1.3334 -0.7281 -0.7807
 9556SOL    HW240305   2.443   2.540   2.665 -2.0206  1.6061 -0.4810
 9557SOL     OW40306   3.437   0.683  17.421  0.1824  0.1629  0.3060
 9557SOL    HW140307   3.497   0.655  17.490  1.7200 -0.0979 -1.1516
 9557SOL    HW240308   3.493   0.736  17.366  0.0547 -0.3796 -0.3455
 9558SOL     OW40309   3.084   0.989   5.339 -0.4548 -0.1317  0.1023
 9558SOL    HW140310   3.086   0.910   5.394 -2.0997  0.9221  1.6889
 9558SOL    HW240311   3.084   0.955   5.249 -0.6087  0.9841 -0.3152
 9559SOL     OW40312   2.762   4.021  16.401  0.6838 -0.0009 -0.0876
 9559SOL    HW140313   2.846   4.066  16.401 -0.3449  1.9472  0.3676
 9559SOL    HW240314   2.712   4.071  16.466  1.0946 -0.5069  0.6098
 9560SOL     OW40315   4.690   3.307   9.430  0.5396 -0.3556  0.3102
 9560SOL    HW140316   4.629   3.289   9.501 -2.5362 -1.2312 -2.5470
 9560SOL    HW240317   4.655   3.389   9.395  1.4247  0.0300  0.3305
 9561SOL     OW40318   1.370   2.899  17.285  0.0938  0.1430  0.2460
 9561SOL    HW140319   1.347   2.887  17.377  0.2931 -1.0648  0.1406
 9561SOL    HW240320   1.376   2.806  17.262 -0.0087 -0.3143  2.1244
 9562SOL     OW40321   3.157   4.411   7.562 -0.1183 -0.2652 -0.4443
 9562SOL    HW140322   3.126   4.494   7.524 -0.2683 -0.7643 -1.3947
 9562SOL    HW240323   3.152   4.442   7.653 -0.1069 -1.6369  0.0219
 9563SOL     OW40324   2.076   3.698   9.162  0.0401  0.3116  0.7328
 9563SOL    HW140325   2.082   3.754   9.084  0.0515  0.6005  0.9402
 9563SOL    HW240326   1.993   3.658   9.138  0.2172  1.7901 -2.3854
 9564SOL     OW40327   0.893   0.284   8.658 -0.7866  0.1074 -0.0432
 9564SOL    HW140328   0.871   0.241   8.740  0.8724  0.7818  0.7437
 9564SOL    HW240329   0.857   0.367   8.687 -0.1249 -0.2797  1.8331
 9565SOL     OW40330   3.378   1.962  10.181  0.1018  0.2279  0.0298
 9565SOL    HW140331   3.335   1.889  10.225  0.3494  0.6492  0.9730
 9565SOL    HW240332   3.310   2.027  10.199 -1.9926 -1.1902 -2.7352
 9566SOL     OW40333   2.250   0.514  17.106  0.3734 -0.1385 -0.3905
 9566SOL    HW140334   2.155   0.511  17.116  0.8204 -1.1889  3.4038
 9566SOL    HW240335   2.277   0.434  17.152  0.1070  2.5219  4.3717
 9567SOL     OW40336   3.970   2.789  11.568  0.0008 -0.0456 -0.5218
 9567SOL    HW140337   3.914   2.798  11.645 -1.4704 -2.0805 -1.3570
 9567SOL    HW240338   3.963   2.699  11.536 -1.7637  0.6119 -1.9949
 9568SOL     OW40339   0.636   1.463   2.730 -0.0110  0.3089 -0.3605
 9568SOL    HW140340   0.671   1.534   2.676 -0.8042  0.8671 -0.1401
 9568SOL    HW240341   0.593   1.505   2.804  1.4443 -0.3528  0.8455
 9569SOL     OW40342   1.554   4.329   7.644  0.6160  0.7958  0.1197
 9569SOL    HW140343   1.509   4.397   7.694  1.9155 -0.4677  3.0310
 9569SOL    HW240344   1.495   4.315   7.570 -0.4124  2.4666  0.6184
   4.73558   4.73558  17.74102
