Membrane in water
40344
    1TMC1    C1    1   4.647   0.198  11.202  0.8798 -0.2841 -0.0949
    1TMC1    C2    2   4.660   0.195  11.070  0.7624  0.0051  0.1236
    1TMC1    C3    3   4.703   0.309  10.998  0.2094 -0.6943 -0.0893
    1TMC1    C4    4   4.676   0.309  11.271  0.1145  0.4134 -0.2594
    1TMC1    C5    5   4.710   0.425  11.201 -0.0427  0.0118 -0.2207
    1TMC1    C6    6   4.718   0.428  11.063 -0.6500  0.1690 -0.0824
    1TMC1     C    7   4.578   0.098  11.282  0.7203  0.2500  0.4893
    1TMC1     O    8   4.558   0.129  11.397  0.2611 -0.2632 -0.0339
    1TMC1     H    9   4.636   0.111  11.006  2.0827 -1.1664  1.1527
    1TMC1    H1   10   4.661   0.313  11.378  1.8297 -0.7957  0.0215
    1TMC1    H2   11   0.033   0.503  11.004 -1.1344  0.2454 -0.4044
    1TMC1    C7   12   0.045   0.527  11.272 -0.0465  0.3207  0.0753
    1TMC1    C8   13   4.674   0.318  10.850  0.3557  0.5223  0.9197
    1TMC1    O1   14   0.098   0.517  11.384  1.1767  0.2118  0.0791
    1TMC1    O2   15   4.600   0.400  10.800 -0.2011  0.0752  0.3497
    1TMC1    O3   16   4.697   0.633  11.244  0.0671 -0.5972 -0.0713
    1TMC1    H3   17   4.632   0.626  11.171  2.5008 -0.4629 -2.2430
    1TMC1    O5   18   0.015   0.228  10.786 -0.4238  0.2082  0.0358
    1TMC1    H5   19   0.071   0.180  10.850 -1.2043  1.4902  1.6814
    2MPD2     C   20   4.357   4.374  11.381 -0.2695  0.2235  0.6192
    2MPD2    C1   21   4.384   4.482  11.466 -0.1780  0.6970  0.0201
    2MPD2    C2   22   4.436   4.597  11.404  0.5693 -0.6917 -0.0807
    2MPD2    C3   23   4.467   4.608  11.271  0.6866  0.1760  0.1135
    2MPD2    C4   24   4.435   4.505  11.184  0.1489  0.3451  0.9028
    2MPD2    C5   25   4.386   4.391  11.246  0.1276 -0.2082  0.2036
    2MPD2     H   26   4.464   4.676  11.472 -1.8823 -0.2359  0.4197
    2MPD2    H1   27   4.457   4.511  11.078 -0.5024 -0.2789  0.7373
    2MPD2    H2   28   4.323   4.277  11.414 -0.8432 -0.3883 -1.7606
    2MPD2    H3   29   4.375   4.305  11.181  1.3130 -0.2116  0.0164
    2MPD2     N   30   4.529   4.723  11.212  0.5108 -0.0600 -0.8650
    2MPD2    H5   31   4.541   4.715  11.111 -3.1778  1.3121 -1.4317
    2MPD2    N1   32   4.361   4.487  11.606  0.0625 -0.0783 -0.0074
    2MPD2    H7   33   4.393   4.569  11.657 -0.8075  0.3357 -0.1228
    3TMC1    C1   34   3.513   0.407  10.523  0.0252  0.2439  0.2607
    3TMC1    C2   35   3.407   0.386  10.610  0.5064 -0.0412  0.5016
    3TMC1    C3   36   3.350   0.263  10.619  0.0317 -0.0195  0.4272
    3TMC1    C4   37   3.564   0.301  10.457  0.2647 -0.1952 -0.3023
    3TMC1    C5   38   3.491   0.193  10.441  0.3349 -0.2599 -0.5500
    3TMC1    C6   39   3.375   0.176  10.516 -0.4453  0.3752 -0.7140
    3TMC1     C   40   3.598   0.521  10.537  0.4548 -0.2500 -0.3019
    3TMC1     O   41   3.709   0.517  10.491 -0.2583  0.5052 -0.1456
    3TMC1     H   42   3.370   0.466  10.673 -0.0519 -0.4841  0.7477
    3TMC1    H1   43   3.649   0.312  10.390  0.4354  0.3796  0.0087
    3TMC1    H2   44   3.336   0.076  10.525 -1.2102  0.6626 -0.7812
    3TMC1    C7   45   3.522   0.085  10.355 -0.2418 -0.6271 -0.5946
    3TMC1    C8   46   3.212   0.260  10.650  0.2696 -0.8918  1.1374
    3TMC1    O1   47   3.452   0.012  10.286 -0.2726 -0.3811  0.0081
    3TMC1    O2   48   3.122   0.248  10.570  0.6859 -0.4347 -0.0661
    3TMC1    O3   49   3.657   0.070  10.356  0.2038 -0.4432  0.5682
    3TMC1    H3   50   3.701   0.114  10.432  1.4141  0.5963 -0.7642
    3TMC1    O5   51   3.205   0.313  10.776  0.3709  0.7179 -0.0691
    3TMC1    H5   52   3.293   0.313  10.819  0.8389  0.4529 -1.0169
    4MPD2     C   53   3.764   0.955  10.741  0.1964 -0.3576  0.0551
    4MPD2    C1   54   3.627   0.942  10.750 -0.2082 -0.4576  0.1783
    4MPD2    C2   55   3.549   0.830  10.723  0.5437 -0.2097  0.1987
    4MPD2    C3   56   3.617   0.728  10.665 -0.1786  0.5393  0.3867
    4MPD2    C4   57   3.756   0.728  10.667  0.2460 -0.2022 -0.0755
    4MPD2    C5   58   3.826   0.840  10.701 -0.4400  0.2596  0.3369
    4MPD2     H   59   3.441   0.837  10.724  0.6301  0.9439  0.4852
    4MPD2    H1   60   3.811   0.641  10.633 -1.9179 -1.5092 -0.3044
    4MPD2    H2   61   3.832   1.033  10.774  1.4121 -0.8058 -1.3436
    4MPD2    H3   62   3.932   0.846  10.679 -0.4310 -0.2862  0.2377
    4MPD2     N   63   3.539   0.624  10.607  0.3010  0.3562  0.1159
    4MPD2    H5   64   3.438   0.623  10.605  0.3626 -0.3564 -2.6579
    4MPD2    N1   65   3.555   1.059  10.782 -0.0920 -0.3218 -0.2225
    4MPD2    H7   66   3.455   1.044  10.791 -0.2106  1.9178  2.0870
    5TCq1    O1   67   0.325   2.347  12.446  0.0386 -0.2648  0.2730
    5TCq1    C1   68   0.299   2.318  12.312 -0.5696 -0.4900  0.0831
    5TCq1    O2   69   0.383   2.265  12.244  0.6515  0.0275 -0.2194
    5TCq1    C2   70   0.157   2.332  12.310  0.1440 -0.5460 -0.1383
    5TCq1    C3   71   0.091   2.410  12.410 -0.7703  0.2128  0.2806
    5TCq1    C4   72   4.687   2.422  12.393  0.4695  0.4322 -0.0943
    5TCq1    C5   73   4.619   2.352  12.297  0.4419  0.0674  0.2380
    5TCq1    C6   74   4.690   2.286  12.206  0.1645 -0.0110 -0.3498
    5TCq1    C7   75   0.092   2.275  12.207 -0.2954 -0.4618  0.3988
    5TCq1    C8   76   4.631   2.234  12.093 -0.3819 -0.4381 -0.4986
    5TCq1    O4   77   4.697   2.163  12.020  0.2771 -0.3698 -0.7401
    5TCq1    C9   78   4.616   2.490  12.495  0.0033 -0.4131 -0.2754
    5TCq1    O5   79   4.688   2.540  12.588  0.4292  0.3511 -0.1178
    5TCq1    O6   80   4.493   2.488  12.480  0.4229  0.3199 -0.0824
    5TCq1    H1   81   0.239   2.335  12.493 -1.2989  0.3448 -1.9938
    5TCq1    H2   82   0.137   2.465  12.491  1.3625 -0.7682 -0.2329
    5TCq1    H3   83   4.510   2.347  12.300  0.4843 -1.0946 -0.2790
    5TCq1    H4   84   0.139   2.224  12.123  0.0613 -2.4272  1.7834
    6MPD2     C   85   4.295   2.320  11.970  0.7387  0.3776  0.3254
    6MPD2    C1   86   4.419   2.259  11.957  0.1036 -0.0664  0.6406
    6MPD2    C2   87   4.443   2.182  11.849  0.1330 -0.7757 -0.2651
    6MPD2    C3   88   4.351   2.170  11.749  0.2178  0.6884  0.1769
    6MPD2    C4   89   4.236   2.247  11.749 -0.5683 -0.1019 -0.0122
    6MPD2    C5   90   4.213   2.317  11.866 -0.1033  0.0192  0.0857
    6MPD2     H   91   4.527   2.113  11.848 -1.3185 -2.5882  1.8109
    6MPD2    H1   92   4.159   2.240  11.674 -0.0946 -0.6970 -0.4440
    6MPD2    H2   93   4.259   2.374  12.057  0.4078 -1.3585  1.2639
    6MPD2    H3   94   4.124   2.378  11.869  0.3634  0.8579 -3.5401
    6MPD2     N   95   4.374   2.064  11.655  0.0277  0.7590  0.1475
    6MPD2    H5   96   4.465   2.020  11.663  0.1314  1.5142  2.8223
    6MPD2    N1   97   4.506   2.280  12.068 -0.2908 -0.4659 -0.2256
    6MPD2    H7   98   4.469   2.350  12.132  1.8109  0.8375 -0.4369
    7TCq1    O1   99   2.183   1.902  14.035  0.2108  0.8684 -0.5955
    7TCq1    C1  100   2.180   1.795  13.950 -0.2450 -0.1778 -1.0081
    7TCq1    O2  101   2.262   1.707  13.940 -0.4953 -0.9032 -0.7558
    7TCq1    C2  102   2.066   1.791  13.857 -0.8664 -0.0241  0.6030
    7TCq1    C3  103   2.002   1.906  13.836 -0.6828  0.4400  0.0665
    7TCq1    C4  104   1.883   1.905  13.764 -0.4910 -0.8784 -0.0464
    7TCq1    C5  105   1.821   1.786  13.731  0.6293  0.2406 -0.0797
    7TCq1    C6  106   1.900   1.672  13.752  0.1339  0.1576 -0.0023
    7TCq1    C7  107   2.016   1.671  13.819 -0.3250  0.4897  0.3065
    7TCq1    C8  108   1.853   1.548  13.699 -0.1117  0.1888 -0.1927
    7TCq1    O4  109   1.921   1.448  13.729  0.4766  0.3931 -0.4115
    7TCq1    C9  110   1.832   2.033  13.715 -0.1113  0.3313 -0.2546
    7TCq1    O5  111   1.737   2.035  13.632  0.3258  0.8895 -0.3564
    7TCq1    O6  112   1.910   2.130  13.740  0.6073 -0.0180 -0.3953
    7TCq1    H1  113   2.100   1.954  14.023 -0.8456 -0.7653 -0.3764
    7TCq1    H2  114   2.050   2.002  13.850 -2.4797  1.3089  0.3290
    7TCq1    H3  115   1.727   1.789  13.678  0.8234  0.2876 -0.4229
    7TCq1    H4  116   2.066   1.579  13.846 -1.9270 -0.1187  1.1897
    8MPD2     C  117   1.544   1.252  13.440 -0.0114  0.4920 -0.0743
    8MPD2    C1  118   1.673   1.234  13.467 -0.1878 -0.4792  0.2808
    8MPD2    C2  119   1.739   1.335  13.537 -0.5725 -0.3057  0.0364
    8MPD2    C3  120   1.676   1.456  13.559  0.1375  0.4227 -0.6586
    8MPD2    C4  121   1.541   1.463  13.530 -0.1587  0.0209 -0.7373
    8MPD2    C5  122   1.473   1.361  13.475  0.4493  1.2516 -0.0126
    8MPD2     H  123   1.847   1.330  13.547 -0.4794 -0.8012 -1.2468
    8MPD2    H1  124   1.482   1.551  13.549  0.2397 -0.0440  0.8561
    8MPD2    H2  125   1.487   1.189  13.374 -2.7917  0.6357  2.2036
    8MPD2    H3  126   1.371   1.376  13.440 -0.7497 -1.4802  2.2814
    8MPD2     N  127   1.738   1.562  13.625  0.1851 -0.1144  0.5408
    8MPD2    H5  128   1.704   1.658  13.615  0.9532  0.1229  0.1938
    8MPD2    N1  129   1.733   1.114  13.422  0.8130 -0.3700 -0.9593
    8MPD2    H7  130   1.668   1.052  13.374  0.3620 -1.2142  0.7330
    9TMC1    C1  131   0.552   0.911  11.599 -0.7329 -0.3844  0.1775
    9TMC1    C2  132   0.539   0.996  11.707 -0.1455 -0.0259  0.2094
    9TMC1    C3  133   0.627   1.100  11.711 -0.3386  0.7349 -0.0516
    9TMC1    C4  134   0.636   0.935  11.490  0.3602 -0.2746 -0.2921
    9TMC1    C5  135   0.698   1.054  11.495 -0.1148  0.0656  1.1119
    9TMC1    C6  136   0.694   1.140  11.601  0.3072 -0.2125 -0.3067
    9TMC1     C  137   0.487   0.786  11.605 -0.0725  0.5044  0.9278
    9TMC1     O  138   0.512   0.703  11.515  0.2113  0.0755  0.1075
    9TMC1     H  139   0.490   0.977  11.801  0.2057  1.5886  0.7171
    9TMC1    H1  140   0.646   0.866  11.407  0.2258  0.9291 -1.3039
    9TMC1    H2  141   0.769   1.218  11.611 -0.4961  0.3304  1.4606
    9TMC1    C7  142   0.811   1.069  11.413  0.0540 -0.6687 -0.1040
    9TMC1    C8  143   0.617   1.195  11.822  0.0434  0.4580  0.2527
    9TMC1    O1  144   0.903   1.149  11.424 -0.0728  0.0862 -0.2646
    9TMC1    O2  145   0.529   1.187  11.905  0.2283 -0.0124  0.5658
    9TMC1    O3  146   0.738   1.051  11.300 -0.7360 -0.0866  0.2079
    9TMC1    H3  147   0.649   1.009  11.304 -1.8130  2.0996 -0.6554
    9TMC1    O5  148   0.743   1.250  11.846  0.2647  0.1756 -0.5334
    9TMC1    H5  149   0.817   1.222  11.787 -0.6347 -1.0709 -1.0695
   10MPD2     C  150   0.330   0.540  11.707 -0.2226  0.4317 -0.3788
   10MPD2    C1  151   0.323   0.669  11.757 -0.2491 -0.0626  0.1155
   10MPD2    C2  152   0.233   0.695  11.857  0.2671  0.4278 -0.1346
   10MPD2    C3  153   0.158   0.576  11.904 -0.5784  0.4111 -0.0622
   10MPD2    C4  154   0.171   0.455  11.846 -0.3902  0.4155 -0.0277
   10MPD2    C5  155   0.255   0.429  11.744  0.1176 -0.2242  0.1391
   10MPD2     H  156   0.217   0.797  11.889 -2.2375 -0.4067  1.3099
   10MPD2    H1  157   0.109   0.368  11.864  0.9753  0.0288  2.7144
   10MPD2    H2  158   0.409   0.520  11.637 -0.7284  0.6130 -1.0063
   10MPD2    H3  159   0.255   0.340  11.683 -0.4760 -0.1962  0.0972
   10MPD2     N  160   0.063   0.586  12.005  0.4321  0.2928  0.3529
   10MPD2    H5  161   0.027   0.500  12.046 -0.0376  0.2279 -0.1845
   10MPD2    N1  162   0.407   0.777  11.719  0.4261 -0.3830 -0.2184
   10MPD2    H7  163   0.388   0.866  11.764 -1.7611 -1.0325  0.1502
   11TCq1    O1  164   4.006   0.084  13.937 -0.3833  0.1918 -0.3367
   11TCq1    C1  165   4.003   4.710  14.015 -0.1444  0.5548 -0.8662
   11TCq1    O2  166   3.923   4.616  14.009  0.2700 -0.1151  0.1711
   11TCq1    C2  167   4.139   4.679  14.052  0.1944 -0.3088  0.3283
   11TCq1    C3  168   4.243   4.687  13.965  0.0949 -0.4413 -0.0747
   11TCq1    C4  169   4.357   4.626  13.993  0.5226  0.8156  0.1354
   11TCq1    C5  170   4.380   4.568  14.115  0.3004  0.1141 -0.2716
   11TCq1    C6  171   4.272   4.561  14.202  0.1154 -0.2714  0.2873
   11TCq1    C7  172   4.147   4.612  14.171  0.8078 -0.4757  0.3095
   11TCq1    C8  173   4.282   4.462  14.307 -0.0363 -0.1131 -0.4378
   11TCq1    O4  174   4.206   4.488  14.399  0.2556 -0.1524  0.5033
   11TCq1    C9  175   4.464   4.622  13.895  0.5156 -0.7072  0.4055
   11TCq1    O5  176   4.441   4.697  13.793 -0.9369 -0.1561  1.0963
   11TCq1    O6  177   4.568   4.552  13.920  0.1436  0.5231  0.0333
   11TCq1    H1  178   4.082   0.139  13.966 -0.1354 -1.5975  2.4448
   11TCq1    H2  179   4.235   4.731  13.867 -3.3447 -1.9988 -0.4934
   11TCq1    H3  180   4.483   4.537  14.132  0.9750  2.9259  0.8633
   11TCq1    H4  181   4.057   4.608  14.233 -0.2101 -0.9603 -1.1995
   12MPD2     C  182   4.308   4.239  14.495  0.1506 -0.1755  0.2206
   12MPD2    C1  183   4.363   4.248  14.371  0.1748 -0.2384  0.2701
   12MPD2    C2  184   4.435   4.138  14.324  0.3841  0.5621  0.3651
   12MPD2    C3  185   4.465   4.029  14.407 -0.6156 -0.0538  0.4873
   12MPD2    C4  186   4.422   4.030  14.535 -0.1590  0.1459 -0.0396
   12MPD2    C5  187   4.335   4.132  14.574  0.0424 -0.9498 -0.2361
   12MPD2     H  188   4.479   4.137  14.225  0.5382  2.3677  0.4201
   12MPD2    H1  189   4.445   3.942  14.595  2.3303  1.2481  0.6237
   12MPD2    H2  190   4.237   4.315  14.526  2.5585  2.2844 -0.2788
   12MPD2    H3  191   4.281   4.124  14.668  1.4842  0.5517  0.7122
   12MPD2     N  192   4.570   3.938  14.360  0.4704 -0.2116  0.7847
   12MPD2    H5  193   4.598   3.942  14.263 -2.4776  2.4573  0.0323
   12MPD2    N1  194   4.349   4.351  14.281  0.6924  0.5180  0.0155
   12MPD2    H7  195   4.410   4.346  14.200 -0.2089 -0.8852 -0.5872
   13TCq1    O1  196   4.117   0.636  10.855  0.3013 -0.5670  0.7310
   13TCq1    C1  197   4.141   0.547  10.763  0.2855 -0.3638  0.2301
   13TCq1    O2  198   4.230   0.552  10.675  0.0822 -0.5234  0.1728
   13TCq1    C2  199   4.041   0.443  10.783  0.6309 -0.1972  0.0436
   13TCq1    C3  200   4.017   0.364  10.671  0.0980 -0.1949 -0.7763
   13TCq1    C4  201   3.929   0.255  10.684  0.7188 -0.0925 -0.7283
   13TCq1    C5  202   3.884   0.221  10.808 -0.9269  0.2390  0.1589
   13TCq1    C6  203   3.917   0.296  10.917  0.6165  0.4050  0.3300
   13TCq1    C7  204   3.993   0.411  10.911  0.0922 -0.1565  0.2287
   13TCq1    C8  205   3.875   0.258  11.051 -0.1446 -0.3368  0.3977
   13TCq1    O4  206   3.867   0.349  11.136  0.3656 -0.2400  0.1398
   13TCq1    C9  207   3.890   0.193  10.560  0.4629  0.6052 -0.6426
   13TCq1    O5  208   3.803   0.105  10.565 -0.3617  0.6008 -0.1880
   13TCq1    O6  209   3.943   0.238  10.452  0.0656  0.0435 -0.0367
   13TCq1    H1  210   4.033   0.620  10.902  1.0095 -4.1436  0.8575
   13TCq1    H2  211   4.043   0.400  10.572 -1.4061  0.4581 -0.9319
   13TCq1    H3  212   3.806   0.145  10.809  0.0269 -0.7468 -1.3624
   13TCq1    H4  213   4.030   0.455  11.003  0.9219  2.4535 -1.3563
   14MPD2     C  214   3.719   4.693  11.168  0.0337 -0.1366 -0.1737
   14MPD2    C1  215   3.781   0.077  11.180  0.2535 -0.1118 -0.4812
   14MPD2    C2  216   3.785   0.132  11.309  0.3533 -0.7109 -0.0304
   14MPD2    C3  217   3.743   0.064  11.422  1.1505  0.3329  0.1650
   14MPD2    C4  218   3.698   4.673  11.407 -0.5380  0.4514 -0.4967
   14MPD2    C5  219   3.683   4.620  11.278 -0.2153  0.3124 -0.5060
   14MPD2     H  220   3.828   0.231  11.316  0.9873 -0.7510 -3.0865
   14MPD2    H1  221   3.654   4.614  11.486 -2.3492  2.1996 -0.2036
   14MPD2    H2  222   3.708   4.642  11.073 -0.6990 -0.0919 -0.1069
   14MPD2    H3  223   3.643   4.519  11.273  1.0130 -0.1660 -0.6040
   14MPD2     N  224   3.757   0.120  11.552  0.3181  0.4751  0.1146
   14MPD2    H5  225   3.793   0.215  11.555  1.1404  0.2184 -1.4571
   14MPD2    N1  226   3.825   0.131  11.061  0.9434  0.1650  0.0295
   14MPD2    H7  227   3.832   0.070  10.980 -1.8488 -0.4669  0.2763
   15TCq1    O1  228   2.099   0.148   1.758 -0.5041  0.2502  0.0167
   15TCq1    C1  229   2.140   0.027   1.713 -0.8054  0.3727 -0.3364
   15TCq1    O2  230   2.184   4.671   1.777 -0.1774 -0.2038  0.0433
   15TCq1    C2  231   2.141   0.026   1.566  0.1576  0.1292  0.5571
   15TCq1    C3  232   2.143   0.142   1.491  0.8128  0.3092  0.2809
   15TCq1    C4  233   2.184   0.131   1.360 -0.0148 -0.2105 -0.9827
   15TCq1    C5  234   2.219   0.016   1.297  0.2348  0.0094  0.1304
   15TCq1    C6  235   2.211   4.637   1.366  0.2046 -0.5344 -0.5558
   15TCq1    C7  236   2.173   4.643   1.500  0.1952  0.4718  0.1855
   15TCq1    C8  237   2.270   4.514   1.316  0.5732  0.4354 -0.5855
   15TCq1    O4  238   2.273   4.416   1.388  0.3536  0.1742 -0.0712
   15TCq1    C9  239   2.183   0.247   1.267 -0.2322  0.1323 -0.2834
   15TCq1    O5  240   2.182   0.356   1.327  0.3144  0.2622 -0.2732
   15TCq1    O6  241   2.210   0.229   1.142 -0.3203 -0.1603  0.5243
   15TCq1    H1  242   2.034   0.187   1.696 -0.0885 -1.4797 -1.4950
   15TCq1    H2  243   2.115   0.243   1.519 -2.0776 -0.3654 -0.1801
   15TCq1    H3  244   2.237   0.019   1.191  1.7583  2.4874  0.4568
   15TCq1    H4  245   2.192   4.551   1.555 -0.3976  1.4448  2.0257
   16MPD2     C  246   2.430   4.455   0.994 -0.4910 -0.5550  0.6747
   16MPD2    C1  247   2.386   4.415   1.115  0.4600 -0.7611  1.2938
   16MPD2    C2  248   2.399   4.284   1.165 -0.3656 -0.0242 -0.4044
   16MPD2    C3  249   2.460   4.194   1.079 -0.6750 -0.2311 -0.1685
   16MPD2    C4  250   2.494   4.236   0.953 -0.1084 -0.0479 -0.2283
   16MPD2    C5  251   2.482   4.365   0.911 -0.6279 -0.6884  0.2535
   16MPD2     H  252   2.366   4.252   1.262 -0.0430 -0.6219 -0.4954
   16MPD2    H1  253   2.530   4.167   0.879 -1.0168 -0.7174 -0.0443
   16MPD2    H2  254   2.396   4.550   0.954 -2.2689 -0.5271  2.2645
   16MPD2    H3  255   2.504   4.397   0.810 -1.5429  1.5483  0.7560
   16MPD2     N  256   2.471   4.062   1.125 -0.5314 -0.0053  0.6439
   16MPD2    H5  257   2.427   4.037   1.214 -1.6768  0.2626  0.1586
   16MPD2    N1  258   2.323   4.519   1.191 -0.3080 -0.4605 -0.1208
   16MPD2    H7  259   2.343   4.610   1.150  0.4122 -0.0031  1.2612
   17TMC1    C1  260   3.814   4.468  12.263 -0.0085  0.1002 -0.2985
   17TMC1    C2  261   3.850   4.389  12.368 -0.2175 -0.5040 -0.3732
   17TMC1    C3  262   3.753   4.290  12.395 -1.1516  0.5415  0.2609
   17TMC1    C4  263   3.697   4.468  12.198  0.7922  0.2031 -0.0807
   17TMC1    C5  264   3.610   4.374  12.227  0.2006  0.1451  0.2919
   17TMC1    C6  265   3.641   4.281  12.319 -0.0327  0.3595 -0.1136
   17TMC1     C  266   3.920   4.553  12.206 -0.5216 -0.3715 -0.1021
   17TMC1     O  267   4.019   4.587  12.273 -0.1456  0.1410 -0.1464
   17TMC1     H  268   3.956   4.389  12.393  0.2755 -0.2700 -2.3951
   17TMC1    H1  269   3.665   4.546  12.130  0.2297 -1.4773 -1.7449
   17TMC1    H2  270   3.561   4.214  12.347  0.4942  0.1161  0.7980
   17TMC1    C7  271   3.469   4.375  12.179 -0.1459 -0.6223 -0.3200
   17TMC1    C8  272   3.746   4.226  12.523  0.2719 -0.5759  0.5372
   17TMC1    O1  273   3.379   4.299  12.224  0.0249  0.5854 -0.6999
   17TMC1    O2  274   3.670   4.133  12.553  0.3055  0.3164  0.1471
   17TMC1    O3  275   3.453   4.455  12.070  0.0028 -0.1631  0.0386
   17TMC1    H3  276   3.539   4.486  12.034 -0.4754  0.8396 -0.2423
   17TMC1    O5  277   3.805   4.320  12.605  0.0033 -0.2922  0.1727
   17TMC1    H5  278   3.858   4.382  12.551  0.4826 -1.1530 -0.3581
   18MPD2     C  279   4.047   0.004  12.015 -0.1127 -0.6616  0.2138
   18MPD2    C1  280   3.988   4.621  11.985  0.9318  0.3365 -0.5241
   18MPD2    C2  281   3.986   4.586  11.852  1.1036  0.1529 -0.7857
   18MPD2    C3  282   4.044   4.661  11.754 -0.2731  0.2513  0.1421
   18MPD2    C4  283   4.089   0.045  11.785  0.0052 -0.8791 -0.0221
   18MPD2    C5  284   4.089   0.085  11.916  0.2564  0.5014  0.5165
   18MPD2     H  285   3.930   4.495  11.833  0.5146  0.1431  1.0084
   18MPD2    H1  286   4.134   0.102  11.705 -1.5284 -1.7029 -1.4713
   18MPD2    H2  287   4.058   0.038  12.117  2.8727  0.7640 -0.5657
   18MPD2    H3  288   4.142   0.179  11.930  0.2991  0.4923  0.4174
   18MPD2     N  289   4.051   4.624  11.619 -0.8361  0.1236  0.6012
   18MPD2    H5  290   4.081   4.703  11.562  0.4436 -1.0571 -0.3699
   18MPD2    N1  291   3.910   4.539  12.074 -0.2842 -0.0610 -0.0089
   18MPD2    H7  292   3.844   4.470  12.043 -2.2219  1.4419  0.7883
   19TMC2    C1  293   1.365   4.632  14.005 -0.4410 -0.0692  0.3347
   19TMC2    C2  294   1.267   4.718  13.967 -0.1192 -0.4714  0.0216
   19TMC2    C3  295   1.147   4.694  14.015 -0.0988  0.2833 -1.1260
   19TMC2    C4  296   1.340   4.539  14.105  0.2296 -0.2345  0.1703
   19TMC2    C5  297   1.219   4.533  14.161 -0.2503 -0.3450  0.4647
   19TMC2    C6  298   1.125   4.612  14.122  0.0109  0.6731  0.0051
   19TMC2     C  299   1.469   4.616  13.902 -0.4892 -0.5152  0.2429
   19TMC2     O  300   1.469   4.674  13.795  0.4125 -0.4203 -0.6008
   19TMC2     H  301   1.277   0.044  13.879  4.7637 -0.8541  0.3190
   19TMC2    H1  302   1.415   4.467  14.136 -1.2082 -0.8640  2.1647
   19TMC2    H2  303   1.024   4.594  14.159  0.0063  1.2569  0.2846
   19TMC2    C7  304   1.186   4.402  14.215 -0.1529  0.1753  0.4841
   19TMC2    C8  305   1.033   4.736  13.929  0.1939  0.5735 -0.2436
   19TMC2    O1  306   1.242   4.305  14.175 -0.3086  0.2122  0.0120
   19TMC2    O2  307   0.923   4.695  13.958 -0.0858  0.8087 -0.2879
   19TMC2    O5  308   1.059   0.136  13.929  0.0026 -0.3986  0.0413
   19TMC2    H5  309   1.153   0.163  13.936  1.3657 -4.5851 -2.3369
   20MPD2     C  310   1.729   4.532  13.769  0.0989  0.0189 -0.2915
   20MPD2    C1  311   1.681   4.484  13.891  0.0768 -0.8456 -0.1627
   20MPD2    C2  312   1.771   4.403  13.960  0.3039 -0.1741  0.0252
   20MPD2    C3  313   1.899   4.376  13.923  0.2877 -0.0672  0.3096
   20MPD2    C4  314   1.946   4.427  13.805 -0.2472  0.0252 -1.0128
   20MPD2    C5  315   1.857   4.502  13.730 -0.0474 -0.3617 -0.0528
   20MPD2     H  316   1.737   4.346  14.045 -0.6670 -0.5211 -0.5989
   20MPD2    H1  317   2.046   4.414  13.765  0.5981  1.2778  0.7035
   20MPD2    H2  318   1.674   4.600  13.705 -1.0076 -0.7068 -0.1113
   20MPD2    H3  319   1.880   4.526  13.627 -2.2929  0.3141 -0.3985
   20MPD2     N  320   1.994   4.316  14.011  0.4623  0.2444 -0.3721
   20MPD2    H5  321   2.092   4.312  13.983  0.6943 -0.5386  0.5369
   20MPD2    N1  322   1.558   4.518  13.951 -0.3451 -0.4586  0.0853
   20MPD2    H7  323   1.538   4.475  14.041 -0.7927  1.5751  0.9727
   21TMC2    C1  324   3.480   0.277  14.661 -0.1134 -0.1345  0.4691
   21TMC2    C2  325   3.578   0.191  14.713  0.3252  0.1048 -0.8356
   21TMC2    C3  326   3.555   0.153  14.843  0.0918 -0.0612  0.6768
   21TMC2    C4  327   3.362   0.311  14.724 -0.0121 -0.0315 -0.3547
   21TMC2    C5  328   3.357   0.276  14.857  0.5249 -0.0884 -0.2608
   21TMC2    C6  329   3.457   0.209  14.916  0.6458 -0.0794  0.8678
   21TMC2     C  330   3.531   0.381  14.571  0.2324  0.5808  0.1159
   21TMC2     O  331   3.634   0.354  14.517  0.2407  0.0860  0.3184
   21TMC2     H  332   3.674   0.183  14.663 -0.1173 -1.6814 -1.3689
   21TMC2    H1  333   3.273   0.344  14.672  0.3511  1.2825 -0.1339
   21TMC2    H2  334   3.463   0.201  15.024  4.0309 -2.2767  0.5346
   21TMC2    C7  335   3.278   0.362  14.943 -0.1396 -0.4250  0.1056
   21TMC2    C8  336   3.665   0.097  14.920  0.3279 -0.3937  0.3772
   21TMC2    O1  337   3.275   0.333  15.064 -0.0039 -0.1533 -0.1629
   21TMC2    O2  338   3.688   0.141  15.035  0.3761 -0.2635  0.3606
   21TMC2    O5  339   3.741   0.024  14.836 -0.4501 -0.2081 -0.5432
   21TMC2    H5  340   3.693   4.729  14.757 -1.3881 -0.0926 -0.0249
   22MPD2     C  341   3.597   0.880  14.583  0.1324 -0.1978  0.5209
   22MPD2    C1  342   3.681   0.777  14.593  0.3515  0.5383 -0.2976
   22MPD2    C2  343   3.639   0.651  14.570  0.3730 -0.1686 -0.0068
   22MPD2    C3  344   3.505   0.624  14.550  0.2389  0.0868 -0.7745
   22MPD2    C4  345   3.414   0.731  14.544 -0.5105  0.6082  0.1586
   22MPD2    C5  346   3.467   0.859  14.557 -0.0276 -0.3619 -0.1099
   22MPD2     H  347   3.710   0.569  14.577  0.4023 -0.0465  1.0932
   22MPD2    H1  348   3.308   0.715  14.530 -0.8375  2.3205  0.7506
   22MPD2    H2  349   3.640   0.979  14.593 -1.0126  0.3722 -0.2700
   22MPD2    H3  350   3.393   0.939  14.554  1.9083  1.4841  1.8092
   22MPD2     N  351   3.453   0.499  14.572  0.1037 -0.0099 -0.0785
   22MPD2    H5  352   3.353   0.485  14.578 -0.1296  1.5648 -0.1417
   22MPD2    N1  353   3.816   0.800  14.636  0.1997 -0.7221  0.1017
   22MPD2    H7  354   3.879   0.722  14.622  0.7312 -0.4675  1.0835
   23TMC2    C1  355   0.015   1.792  14.815 -0.9953  0.7370 -0.0835
   23TMC2    C2  356   4.669   1.899  14.792 -0.2791  0.4211 -0.2300
   23TMC2    C3  357   4.567   1.878  14.700 -0.7981 -0.4615 -0.8224
   23TMC2    C4  358   4.726   1.664  14.770 -0.0213 -0.3474  0.8583
   23TMC2    C5  359   4.626   1.651  14.681  0.0178  0.5908  0.2454
   23TMC2    C6  360   4.551   1.758  14.638 -0.0036  0.2866  0.6227
   23TMC2     C  361   0.082   1.797  14.939 -0.0486 -0.2093 -0.6179
   23TMC2     O  362   0.080   1.696  15.010 -0.1538  0.1213  0.2453
   23TMC2     H  363   4.672   1.997  14.838 -2.0330  0.4897 -0.2557
   23TMC2    H1  364   0.055   1.585  14.803  0.3893 -0.8815 -1.2284
   23TMC2    H2  365   4.479   1.758  14.557  0.5734 -3.4319  0.0978
   23TMC2    C7  366   4.603   1.517  14.622 -0.3283 -0.3146 -0.1372
   23TMC2    C8  367   4.496   2.002  14.642  0.4551  0.4740  0.0046
   23TMC2    O1  368   4.683   1.425  14.648 -0.1450 -0.0844  0.2843
   23TMC2    O2  369   4.541   2.115  14.660  0.3644 -0.1349 -0.6421
   23TMC2    O5  370   4.368   1.970  14.601 -0.2342  0.8782 -0.1830
   23TMC2    H5  371   4.357   1.874  14.616  2.3854  0.7659  1.0231
   24MPD2     C  372   0.242   2.039  15.359  1.0369  0.2739 -0.5104
   24MPD2    C1  373   0.262   1.905  15.321  0.3111 -0.4540 -0.2195
   24MPD2    C2  374   0.228   1.871  15.193 -0.2234 -0.0294 -0.1013
   24MPD2    C3  375   0.164   1.958  15.102  0.5305  0.1627  0.0442
   24MPD2    C4  376   0.160   2.095  15.135 -0.1027  0.1888  0.4659
   24MPD2    C5  377   0.187   2.131  15.271  0.4918  0.0375  0.1678
   24MPD2     H  378   0.244   1.766  15.170 -0.2333 -0.0951  0.1964
   24MPD2    H1  379   0.111   2.172  15.076 -1.0567 -1.1571 -0.4946
   24MPD2    H2  380   0.267   2.058  15.463 -0.0317 -0.4927 -0.1093
   24MPD2    H3  381   0.163   2.233  15.298  1.9738 -0.0256  1.7715
   24MPD2     N  382   0.113   1.925  14.978  0.2214  0.4109  0.4636
   24MPD2    H5  383   0.106   1.998  14.909  1.9774  2.2917  2.2660
   24MPD2    N1  384   0.331   1.820  15.410  0.2572 -0.0503 -0.7605
   24MPD2    H7  385   0.373   1.859  15.494 -0.0776 -2.5806  0.5589
   25TMC2    C1  386   4.039   3.719  11.606 -0.4414 -0.1159 -0.4931
   25TMC2    C2  387   4.150   3.693  11.683  0.4182 -0.0985 -0.6047
   25TMC2    C3  388   4.159   3.743  11.808 -0.2700 -0.3923 -0.4755
   25TMC2    C4  389   3.938   3.806  11.647  0.3290 -0.6238 -1.0941
   25TMC2    C5  390   3.956   3.852  11.778 -0.2770  0.8766  0.5374
   25TMC2    C6  391   4.065   3.830  11.861 -0.5481 -0.1042  0.3459
   25TMC2     C  392   4.016   3.632  11.492  0.0210  0.8097 -0.1762
   25TMC2     O  393   4.112   3.602  11.428 -0.9222 -0.1143 -0.4898
   25TMC2     H  394   4.224   3.630  11.634 -0.9767 -2.5055  0.3843
   25TMC2    H1  395   3.847   3.818  11.590 -0.5161 -3.5191 -0.3590
   25TMC2    H2  396   4.061   3.865  11.964  0.3501 -2.2897  1.1278
   25TMC2    C7  397   3.846   3.934  11.827 -0.8223 -0.2775 -0.4075
   25TMC2    C8  398   4.286   3.760  11.871 -0.2775 -0.2736  0.1887
   25TMC2    O1  399   3.779   3.992  11.736  0.5818 -0.6263 -0.0767
   25TMC2    O2  400   4.377   3.683  11.855 -0.2056 -0.4795 -0.1129
   25TMC2    O5  401   4.305   3.887  11.916 -0.4760  0.2667  0.6786
   25TMC2    H5  402   4.234   3.948  11.888 -0.5610 -0.8666 -1.5554
   26MPD2     C  403   3.722   3.425  11.144 -0.4961  0.1935  0.0355
   26MPD2    C1  404   3.644   3.443  11.258  0.5474 -0.1595  0.6702
   26MPD2    C2  405   3.700   3.516  11.360 -0.2861  0.2279 -0.0049
   26MPD2    C3  406   3.832   3.564  11.352 -0.4976  0.1352  0.7187
   26MPD2    C4  407   3.906   3.544  11.233 -0.5158  0.5914  0.3184
   26MPD2    C5  408   3.852   3.472  11.134  0.2278 -0.4901 -0.0309
   26MPD2     H  409   3.643   3.525  11.451  1.4666  2.5911  0.8441
   26MPD2    H1  410   4.009   3.577  11.229 -1.3387  3.4693  2.3272
   26MPD2    H2  411   3.685   3.373  11.057 -0.1261  1.0310 -0.6194
   26MPD2    H3  412   3.918   3.441  11.053 -1.2769 -0.3565 -1.3009
   26MPD2     N  413   3.886   3.623  11.466 -0.2464 -0.0793 -0.7602
   26MPD2    H5  414   3.829   3.636  11.549  0.9198 -0.4369  0.0959
   26MPD2    N1  415   3.517   3.386  11.245  0.2664 -0.5354  0.3367
   26MPD2    H7  416   3.486   3.357  11.153  5.2054 -0.3119 -1.3865
   27TMC2    C1  417   3.119   1.387  12.463 -0.0812  0.3763  0.7669
   27TMC2    C2  418   3.179   1.462  12.369 -0.3652 -0.2415  1.0029
   27TMC2    C3  419   3.256   1.572  12.410  0.4780  0.9031 -0.4889
   27TMC2    C4  420   3.124   1.412  12.595  0.4043  0.2145 -0.0031
   27TMC2    C5  421   3.191   1.528  12.634 -0.8088  0.0758  0.1810
   27TMC2    C6  422   3.243   1.619  12.542  0.1391 -0.0235  0.1417
   27TMC2     C  423   3.033   1.287  12.403 -0.8281  0.1296  0.7948
   27TMC2     O  424   3.073   1.238  12.299  0.0472 -0.0887 -0.0483
   27TMC2     H  425   3.174   1.428  12.266  0.0793  3.7423 -0.3262
   27TMC2    H1  426   3.061   1.352  12.661 -0.3408  0.0805 -0.8370
   27TMC2    H2  427   3.289   1.713  12.567 -0.6667  0.2655  0.5239
   27TMC2    C7  428   3.152   1.588  12.762 -0.6200 -0.0552 -0.4607
   27TMC2    C8  429   3.312   1.666  12.312  0.6351  1.2495  0.1377
   27TMC2    O1  430   3.153   1.715  12.767 -0.2644 -0.2270  0.4868
   27TMC2    O2  431   3.384   1.760  12.347  0.4760  0.8341  0.0408
   27TMC2    O5  432   3.227   1.663  12.203  0.1163  0.1087 -0.0791
   27TMC2    H5  433   3.148   1.606  12.212 -0.6986  1.3576  0.8735
   28MPD2     C  434   2.600   1.016  12.331 -0.1401 -0.5585  0.2571
   28MPD2    C1  435   2.588   1.092  12.441 -0.4111 -0.9103  0.1532
   28MPD2    C2  436   2.690   1.178  12.470 -0.5451 -0.2042  0.8779
   28MPD2    C3  437   2.813   1.183  12.402  0.3639 -0.0548 -0.2885
   28MPD2    C4  438   2.824   1.096  12.294  0.6153 -0.3862  0.0573
   28MPD2    C5  439   2.712   1.019  12.254 -0.2807 -0.5319 -0.2217
   28MPD2     H  440   2.692   1.235  12.561  0.0262 -0.4813  1.0417
   28MPD2    H1  441   2.908   1.079  12.228  0.4001 -0.2388 -0.2557
   28MPD2    H2  442   2.519   0.957  12.289  0.6328 -1.7285  0.4258
   28MPD2    H3  443   2.723   0.964  12.161 -0.9336  0.9769 -1.1828
   28MPD2     N  444   2.911   1.269  12.458  0.0339  0.5333  0.1726
   28MPD2    H5  445   2.886   1.311  12.547 -0.5816  0.6758 -0.0674
   28MPD2    N1  446   2.475   1.072  12.523 -0.2830  0.4633  0.4326
   28MPD2    H7  447   2.406   1.001  12.499  0.3453 -0.0928  0.2812
   29TMC2    C1  448   2.215   3.475  14.486 -0.0652  0.2422 -0.4442
   29TMC2    C2  449   2.216   3.496  14.630 -0.5571  0.3029 -0.2157
   29TMC2    C3  450   2.286   3.597  14.685 -0.1537 -0.1808 -0.2109
   29TMC2    C4  451   2.272   3.571  14.405 -1.0310 -0.4445 -0.1568
   29TMC2    C5  452   2.340   3.675  14.467  0.2441 -0.0450 -0.4439
   29TMC2    C6  453   2.357   3.678  14.602 -0.0671 -0.4482 -0.2423
   29TMC2     C  454   2.185   3.343  14.432  0.1106  0.1947 -0.3268
   29TMC2     O  455   2.179   3.256  14.513  0.5589  0.9516 -0.1153
   29TMC2     H  456   2.154   3.432  14.692 -1.0055 -0.6983 -1.6796
   29TMC2    H1  457   2.258   3.580  14.298 -2.0971 -1.9178 -0.1330
   29TMC2    H2  458   2.392   3.768  14.651 -1.9971 -0.4154  1.0582
   29TMC2    C7  459   2.420   3.774  14.386 -0.3836  0.2120 -0.2567
   29TMC2    C8  460   2.289   3.623  14.826 -0.2049  0.3617  0.2514
   29TMC2    O1  461   2.389   3.786  14.268  0.2094 -0.2284 -0.9273
   29TMC2    O2  462   2.337   3.722  14.878 -0.2067 -0.1920  0.5813
   29TMC2    O5  463   2.260   3.515  14.895 -0.4195 -0.1381  0.0912
   29TMC2    H5  464   2.257   3.426  14.853  0.3577  0.6622 -1.6148
   30MPD2     C  465   2.160   3.009  14.054 -0.1955  0.6465  0.4899
   30MPD2    C1  466   2.214   2.991  14.173 -0.3939  0.1234  0.2892
   30MPD2    C2  467   2.217   3.099  14.255 -0.0463  0.3610  0.3038
   30MPD2    C3  468   2.188   3.224  14.206 -0.4660 -0.7153 -0.1120
   30MPD2    C4  469   2.160   3.245  14.074  0.2628 -0.0298  0.2751
   30MPD2    C5  470   2.135   3.133  13.999  0.5155  0.7994 -0.6206
   30MPD2     H  471   2.244   3.095  14.360 -0.3215  0.6041  0.3840
   30MPD2    H1  472   2.149   3.347  14.038  1.1673 -0.1378 -0.3184
   30MPD2    H2  473   2.140   2.926  13.986  1.3640  0.6971 -0.0222
   30MPD2    H3  474   2.112   3.139  13.893  0.1127  0.9018 -0.5300
   30MPD2     N  475   2.176   3.336  14.298  0.0286 -0.4639 -0.0795
   30MPD2    H5  476   2.159   3.424  14.250 -1.3951 -0.5837  0.1890
   30MPD2    N1  477   2.223   2.868  14.240 -0.1898 -0.6279  0.5125
   30MPD2    H7  478   2.238   2.863  14.341 -1.0622  0.3854  0.7015
   31TMC2    C1  479   4.629   2.393  15.878 -0.5303  0.4322 -0.2642
   31TMC2    C2  480   4.500   2.426  15.855  0.0365  1.0370 -0.3037
   31TMC2    C3  481   4.417   2.460  15.963  0.1145 -0.1865 -0.5720
   31TMC2    C4  482   4.684   2.398  16.003 -0.0528  0.2559  0.2990
   31TMC2    C5  483   4.606   2.430  16.110 -0.5858 -0.4641  0.5972
   31TMC2    C6  484   4.479   2.471  16.087 -0.3112  0.3816 -0.0843
   31TMC2     C  485   4.712   2.392  15.760  0.0698  0.5115  0.9303
   31TMC2     O  486   4.652   2.403  15.652 -0.2237  0.6361 -0.0604
   31TMC2     H  487   4.456   2.411  15.757  0.6065 -0.8819 -0.2829
   31TMC2    H1  488   0.056   2.390  16.012 -0.1880 -0.4001  1.3477
   31TMC2    H2  489   4.422   2.514  16.168  0.6805 -1.7269  1.7305
   31TMC2    C7  490   4.669   2.460  16.238 -0.2577  0.0884  0.1115
   31TMC2    C8  491   4.295   2.535  15.948  0.1168  0.3917 -1.2413
   31TMC2    O1  492   4.613   2.542  16.307  0.0142  0.5599 -0.1522
   31TMC2    O2  493   4.217   2.551  16.041  0.8717  0.2342 -0.3314
   31TMC2    O5  494   4.334   2.624  15.855 -0.0078  0.1748  0.0617
   31TMC2    H5  495   4.366   2.577  15.775 -0.7824  1.5956 -1.0947
   32MPD2     C  496   0.413   2.412  15.502  0.3650 -0.5328 -0.8289
   32MPD2    C1  497   0.287   2.445  15.453 -0.5557  0.6668  0.1195
   32MPD2    C2  498   0.184   2.442  15.548 -0.9938 -0.0969 -0.3590
   32MPD2    C3  499   0.208   2.411  15.682  0.0270  0.2366 -0.1969
   32MPD2    C4  500   0.334   2.383  15.727 -0.6265 -0.5498 -0.3245
   32MPD2    C5  501   0.437   2.379  15.637  0.0417 -0.6915  0.0213
   32MPD2     H  502   0.081   2.455  15.518 -0.3539  4.9937 -0.4521
   32MPD2    H1  503   0.355   2.354  15.829 -4.8578 -1.6692  0.2338
   32MPD2    H2  504   0.502   2.420  15.439  1.9131  1.0834  1.5618
   32MPD2    H3  505   0.537   2.354  15.670  0.0160  0.3589  0.8809
   32MPD2     N  506   0.111   2.395  15.785  0.4089 -0.8351 -0.5479
   32MPD2    H5  507   0.152   2.385  15.878 -1.1232 -0.9269  0.1143
   32MPD2    N1  508   0.271   2.479  15.319 -0.5778 -0.5777 -0.6227
   32MPD2    H7  509   0.357   2.474  15.266  0.6808  0.0790  1.3640
   33TMC2    C1  510   4.300   0.252  10.540  0.1236  0.3287  1.1997
   33TMC2    C2  511   4.222   0.203  10.447  0.4310  0.5723  0.3512
   33TMC2    C3  512   4.226   0.266  10.324  0.4062  0.7964  0.0385
   33TMC2    C4  513   4.390   0.355  10.521  0.0752 -0.2556 -0.4720
   33TMC2    C5  514   4.382   0.418  10.400 -0.2942  0.4210  0.4510
   33TMC2    C6  515   4.299   0.376  10.298  0.8235  0.1855 -0.8606
   33TMC2     C  516   4.292   0.189  10.673  0.1411  0.2435  0.3724
   33TMC2     O  517   4.234   0.081  10.686  0.1905  0.4830  0.0065
   33TMC2     H  518   4.154   0.120  10.460  0.5242  0.3630 -0.4709
   33TMC2    H1  519   4.462   0.380  10.597 -1.6521 -1.1387  1.4474
   33TMC2    H2  520   4.295   0.432  10.205  0.5265  2.0558  0.2677
   33TMC2    C7  521   4.465   0.535  10.394 -0.2774 -0.6265 -0.4395
   33TMC2    C8  522   4.145   0.225  10.213 -0.0927 -0.7346  0.4059
   33TMC2    O1  523   4.572   0.527  10.453  0.2638  0.4094  0.2533
   33TMC2    O2  524   4.173   0.247  10.095  0.2171  0.0953 -0.1028
   33TMC2    O5  525   4.049   0.140  10.255  0.3841  0.0813  0.4944
   33TMC2    H5  526   4.019   0.175  10.342  1.3421 -1.8441  1.6021
   34MPD2     C  527   4.285   0.228  11.180 -0.2785 -0.2294 -0.6392
   34MPD2    C1  528   4.228   0.128  11.102  0.6474 -1.3699 -0.5805
   34MPD2    C2  529   4.245   0.140  10.965 -0.3585 -0.1174  0.5058
   34MPD2    C3  530   4.313   0.249  10.916  0.2436 -0.3812 -0.0827
   34MPD2    C4  531   4.365   0.352  10.999  0.5120  0.6385 -0.2144
   34MPD2    C5  532   4.354   0.339  11.132 -0.2287 -0.2023  0.1709
   34MPD2     H  533   4.192   0.067  10.905 -0.3978 -0.1285  0.5536
   34MPD2    H1  534   4.419   0.436  10.958 -0.1523  0.9219 -0.5134
   34MPD2    H2  535   4.261   0.236  11.285 -3.5738  0.0208 -1.4249
   34MPD2    H3  536   4.388   0.413  11.204  2.5221 -0.0764 -1.2929
   34MPD2     N  537   4.343   0.267  10.779  0.6762  0.1241  0.1642
   34MPD2    H5  538   4.367   0.360  10.745  1.6698 -0.9176 -2.0112
   34MPD2    N1  539   4.160   0.028  11.170 -0.1772  0.4889 -0.5559
   34MPD2    H7  540   4.151   0.039  11.270  1.1779 -2.0371 -0.1477
   35TMC2    C1  541   1.220   1.629  11.606  0.2857 -0.6002  0.6220
   35TMC2    C2  542   1.107   1.702  11.593  0.2621  0.1450 -0.0164
   35TMC2    C3  543   0.983   1.654  11.627  0.1232  0.1796 -0.3923
   35TMC2    C4  544   1.217   1.504  11.659  0.5420 -0.6394 -0.5098
   35TMC2    C5  545   1.088   1.452  11.683 -0.2740  0.0816  0.4140
   35TMC2    C6  546   0.972   1.525  11.678  0.1950  0.8148 -0.1768
   35TMC2     C  547   1.348   1.693  11.561  0.2197  0.5004  0.4003
   35TMC2     O  548   1.343   1.780  11.475 -0.5795 -0.2452  0.2059
   35TMC2     H  549   1.110   1.801  11.550  0.0828 -0.1475 -0.7068
   35TMC2    H1  550   1.305   1.441  11.654  1.2790  0.4121 -0.8395
   35TMC2    H2  551   0.872   1.483  11.689  0.4298  0.5195  0.8060
   35TMC2    C7  552   1.080   1.310  11.725 -0.1362  0.1390 -0.1183
   35TMC2    C8  553   0.876   1.745  11.653 -0.7343 -0.0422 -0.2800
   35TMC2    O1  554   0.967   1.260  11.726 -0.1262  0.0072 -0.1483
   35TMC2    O2  555   0.897   1.859  11.690 -0.4182 -0.0921 -0.1276
   35TMC2    O5  556   0.758   1.679  11.662 -0.0656 -0.6423  0.0698
   35TMC2    H5  557   0.748   1.587  11.628  2.0678 -0.3955 -1.2004
   36MPD2     C  558   1.866   1.758  11.543 -0.2835 -0.6221 -0.0855
   36MPD2    C1  559   1.835   1.655  11.626 -0.1605  0.5170 -0.2244
   36MPD2    C2  560   1.707   1.602  11.645  0.0745 -0.2153  0.4824
   36MPD2    C3  561   1.600   1.665  11.580  0.3504  1.1017  0.3221
   36MPD2    C4  562   1.626   1.773  11.494 -0.0643  0.4752 -0.7196
   36MPD2    C5  563   1.759   1.811  11.472 -0.0316  0.0012  0.8036
   36MPD2     H  564   1.686   1.534  11.726  2.7773  0.8052  2.0308
   36MPD2    H1  565   1.557   1.832  11.434  0.0185  0.3675 -0.9197
   36MPD2    H2  566   1.967   1.772  11.508 -1.2043 -0.0971 -2.5410
   36MPD2    H3  567   1.776   1.891  11.401 -0.8874  1.0503  1.7938
   36MPD2     N  568   1.461   1.632  11.609  0.1561  0.5092  0.5237
   36MPD2    H5  569   1.450   1.560  11.679 -1.2428  0.6061  0.4067
   36MPD2    N1  570   1.941   1.607  11.706  0.2736 -0.2080 -0.4889
   36MPD2    H7  571   2.024   1.662  11.691  0.4405 -0.1834  0.4862
   37TMC2    C1  572   3.876   0.798  11.976  0.2072 -0.4141  0.2630
   37TMC2    C2  573   3.893   0.664  11.981 -1.1749 -0.1928 -1.1690
   37TMC2    C3  574   4.004   0.614  11.913  0.3619 -0.3456 -0.7928
   37TMC2    C4  575   3.943   0.884  11.900 -0.3554 -0.0423  1.0489
   37TMC2    C5  576   4.050   0.830  11.830  0.2211  0.6259  0.1404
   37TMC2    C6  577   4.085   0.701  11.857  0.7615 -0.0027  0.0001
   37TMC2     C  578   3.821   0.855  12.093  0.0405  0.3218 -0.4348
   37TMC2     O  579   3.746   0.781  12.157  0.0055 -0.1349 -0.1086
   37TMC2     H  580   3.828   0.607  12.046 -2.1442 -0.0296 -1.9808
   37TMC2    H1  581   3.906   0.983  11.875  2.9698  1.1192  0.8293
   37TMC2    H2  582   4.182   0.667  11.824  1.8087 -0.5021  3.5786
   37TMC2    C7  583   4.130   0.926  11.762 -0.2980  0.4937 -0.8612
   37TMC2    C8  584   4.031   0.477  11.926 -0.5989  0.4276  0.5992
   37TMC2    O1  585   4.114   1.043  11.792 -0.3196 -0.6487 -0.8045
   37TMC2    O2  586   3.980   0.408  12.010 -0.1085  0.0797  0.4726
   37TMC2    O5  587   4.047   0.438  11.798 -0.2353  0.0806 -0.3921
   37TMC2    H5  588   4.082   0.506  11.737 -0.5433  0.6499  0.0696
   38MPD2     C  589   3.881   1.218  12.453 -0.2076  0.2215  0.1024
   38MPD2    C1  590   3.964   1.245  12.347 -0.1652 -0.3647  0.4901
   38MPD2    C2  591   3.956   1.169  12.232 -0.3924  0.6842 -0.3294
   38MPD2    C3  592   3.877   1.054  12.225  0.5582  0.9113 -0.0304
   38MPD2    C4  593   3.812   1.014  12.338 -0.4874  0.3562  0.2067
   38MPD2    C5  594   3.809   1.101  12.448 -0.3190 -0.2509 -0.7210
   38MPD2     H  595   4.009   1.189  12.140 -0.2013 -2.1818 -0.8436
   38MPD2    H1  596   3.749   0.926  12.346  2.1682 -1.3786  1.9078
   38MPD2    H2  597   3.883   1.282  12.541 -0.0513 -0.2357  0.4365
   38MPD2    H3  598   3.755   1.069  12.536  1.6132 -0.9770  0.2061
   38MPD2     N  599   3.878   0.977  12.104 -0.5781  0.5382 -0.0450
   38MPD2    H5  600   3.951   0.997  12.037 -0.7526 -3.0447 -1.2935
   38MPD2    N1  601   4.042   1.364  12.335 -0.4144  0.6486 -0.1026
   38MPD2    H7  602   4.076   1.387  12.242  2.7725 -0.3465  0.7980
   39TMC2    C1  603   2.024   3.318   1.897 -0.0295  0.0869  0.2287
   39TMC2    C2  604   2.128   3.234   1.926 -0.2089 -0.2493 -0.1534
   39TMC2    C3  605   2.253   3.283   1.914 -0.2981  0.3652  0.0492
   39TMC2    C4  606   2.049   3.458   1.882 -0.2059  0.9221  0.5228
   39TMC2    C5  607   2.175   3.498   1.868 -0.1648 -0.3437 -0.7749
   39TMC2    C6  608   2.277   3.416   1.880 -0.1097  0.3669  0.0499
   39TMC2     C  609   1.882   3.281   1.887 -0.0192  0.3911  0.3117
   39TMC2     O  610   1.803   3.367   1.867  0.0650 -0.2193 -0.3411
   39TMC2     H  611   2.114   3.128   1.943  1.6920 -0.5009 -0.0720
   39TMC2    H1  612   1.967   3.519   1.847 -0.0159 -0.1177 -1.7621
   39TMC2    H2  613   2.379   3.451   1.879  0.6207 -1.7860  2.1240
   39TMC2    C7  614   2.195   3.638   1.844  0.1163  0.6497 -0.4334
   39TMC2    C8  615   2.358   3.180   1.909 -0.4621 -0.1092 -1.1175
   39TMC2    O1  616   2.101   3.711   1.869  0.2570 -0.7722  0.6674
   39TMC2    O2  617   2.319   3.067   1.936 -0.0353  0.0850  0.3227
   39TMC2    O5  618   2.425   3.214   1.798  1.0146 -0.8878 -0.7020
   39TMC2    H5  619   2.416   3.306   1.763  0.5845 -0.7412 -0.1968
   40MPD2     C  620   1.759   2.940   1.899  0.0262  0.0962 -0.3120
   40MPD2    C1  621   1.752   3.072   1.882 -1.2253  0.2032 -0.3773
   40MPD2    C2  622   1.641   3.129   1.830  0.4179  0.6677  1.1760
   40MPD2    C3  623   1.532   3.045   1.798 -0.4132  0.2904 -0.8526
   40MPD2    C4  624   1.542   2.908   1.798  0.8768 -0.0117  0.3751
   40MPD2    C5  625   1.659   2.858   1.856  0.1425 -0.1668  0.0633
   40MPD2     H  626   1.629   3.236   1.822  2.5968  0.6455 -2.1594
   40MPD2    H1  627   1.452   2.854   1.772  0.7788  0.8630 -1.1170
   40MPD2    H2  628   1.840   2.896   1.956 -1.3631  0.3471  1.8937
   40MPD2    H3  629   1.669   2.753   1.883  0.3546 -0.0960  0.2641
   40MPD2     N  630   1.410   3.110   1.758 -0.4042 -0.4558  0.3463
   40MPD2    H5  631   1.335   3.051   1.722 -0.2661 -0.9723  0.9118
   40MPD2    N1  632   1.860   3.151   1.921 -0.2050  0.5645 -0.1239
   40MPD2    H7  633   1.937   3.105   1.968 -0.1312  0.1353 -0.6604
   41TMC2    C1  634   1.191   1.835  13.159 -0.5304 -0.1767  0.0861
   41TMC2    C2  635   1.107   1.910  13.077 -0.0060 -0.2034  0.6482
   41TMC2    C3  636   1.155   2.034  13.037 -0.0771  0.5488 -0.1810
   41TMC2    C4  637   1.306   1.881  13.219 -0.3904  0.2219 -0.3798
   41TMC2    C5  638   1.336   2.008  13.185 -0.3340 -0.2251  0.3257
   41TMC2    C6  639   1.263   2.083  13.101  0.0627  0.0646  0.6341
   41TMC2     C  640   1.133   1.707  13.201  0.3406  0.2494 -0.1646
   41TMC2     O  641   1.069   1.639  13.122  0.4853  0.1739 -0.0051
   41TMC2     H  642   1.010   1.869  13.054  0.1906 -0.1655 -0.2758
   41TMC2    H1  643   1.369   1.810  13.271  0.7316 -0.9953 -3.3688
   41TMC2    H2  644   1.303   2.180  13.074 -0.5293  0.3972  0.9457
   41TMC2    C7  645   1.479   2.026  13.166 -0.7248  0.2965 -0.0607
   41TMC2    C8  646   1.071   2.121  12.959 -0.3660 -0.1735  0.5588
   41TMC2    O1  647   1.510   2.144  13.166  0.5165  0.2624  0.3400
   41TMC2    O2  648   1.074   2.244  12.974  0.2930  0.3559 -0.0149
   41TMC2    O5  649   0.987   2.044  12.881  0.0551 -0.2281  0.6485
   41TMC2    H5  650   1.021   1.952  12.885 -0.7386 -0.6124 -1.6438
   42MPD2     C  651   1.121   1.447  13.336  0.4211 -0.1098 -0.0595
   42MPD2    C1  652   1.121   1.566  13.403 -0.1009 -0.5404 -0.0461
   42MPD2    C2  653   1.110   1.566  13.542 -0.1835  0.6774 -0.6827
   42MPD2    C3  654   1.095   1.445  13.610 -0.0664  0.2530 -0.1640
   42MPD2    C4  655   1.103   1.327  13.536 -0.1294  0.0322 -0.1055
   42MPD2    C5  656   1.111   1.332  13.400 -0.0926  0.1346  0.5499
   42MPD2     H  657   1.087   1.660  13.591 -1.6080 -0.6871  1.2919
   42MPD2    H1  658   1.096   1.228  13.579 -2.2612 -0.1114 -0.7934
   42MPD2    H2  659   1.144   1.433  13.231 -0.2662 -0.1812 -0.2035
   42MPD2    H3  660   1.112   1.242  13.340  0.4120  0.0909  0.6319
   42MPD2     N  661   1.083   1.431  13.752  0.7717 -0.1275  0.0012
   42MPD2    H5  662   1.089   1.337  13.790  0.3125 -0.2885 -0.3200
   42MPD2    N1  663   1.146   1.684  13.337 -0.9802 -0.0436  0.2402
   42MPD2    H7  664   1.158   1.765  13.396  1.1914 -0.4498  0.3460
   43TMC2    C1  665   2.240   4.703   0.715  0.0734  0.1941  0.2737
   43TMC2    C2  666   2.123   4.680   0.780 -0.1577 -0.5228 -0.0320
   43TMC2    C3  667   2.068   0.058   0.839 -0.1407 -0.2035  0.4100
   43TMC2    C4  668   2.314   0.079   0.724  0.1696 -0.1343  0.3788
   43TMC2    C5  669   2.255   0.179   0.790 -0.5083  0.1154 -0.7995
   43TMC2    C6  670   2.136   0.170   0.858  0.3189 -0.7665 -0.2954
   43TMC2     C  671   2.306   4.594   0.639  0.8713 -0.2915 -0.7946
   43TMC2     O  672   2.379   4.634   0.549  0.2481  1.1301 -0.2564
   43TMC2     H  673   2.065   4.589   0.779  1.3483 -1.4933  0.6572
   43TMC2    H1  674   2.393   0.103   0.653 -0.2858  1.2121  0.3348
   43TMC2    H2  675   2.081   0.257   0.891 -0.2540 -2.3869  3.0132
   43TMC2    C7  676   2.338   0.300   0.793 -0.1199 -0.2501 -0.0112
   43TMC2    C8  677   1.968   0.027   0.925 -0.3456  0.2286 -0.3559
   43TMC2    O1  678   2.414   0.317   0.697 -0.1909  0.1668  0.5748
   43TMC2    O2  679   1.884   4.680   0.903  0.1741  0.1603  0.4086
   43TMC2    O5  680   2.032   0.052   1.048 -0.7730  0.4969  0.1498
   43TMC2    H5  681   2.107   0.113   1.032 -0.5557  0.0641 -0.4772
   44MPD2     C  682   2.398   4.118   0.495  0.1969 -0.2856 -0.6199
   44MPD2    C1  683   2.466   4.235   0.473 -0.0518  0.1284 -0.7957
   44MPD2    C2  684   2.421   4.344   0.537  0.0507  0.5923 -0.4417
   44MPD2    C3  685   2.304   4.344   0.618 -0.4875 -1.0253 -0.9045
   44MPD2    C4  686   2.246   4.226   0.642 -0.1053 -0.2459  0.4693
   44MPD2    C5  687   2.292   4.108   0.587 -0.0097 -0.0095  0.3302
   44MPD2     H  688   2.465   4.437   0.504 -1.8948  2.1757  1.3550
   44MPD2    H1  689   2.156   4.223   0.703 -1.0621 -1.8344 -1.0253
   44MPD2    H2  690   2.434   4.021   0.463 -0.3514 -0.2394 -1.3746
   44MPD2    H3  691   2.244   4.012   0.596  2.3943 -1.1209  1.2266
   44MPD2     N  692   2.256   4.466   0.672 -0.3673 -0.2214  0.5773
   44MPD2    H5  693   2.192   4.461   0.751  0.7608  0.0312  1.5088
   44MPD2    N1  694   2.576   4.249   0.388 -0.0208  0.2776 -0.2299
   44MPD2    H7  695   2.624   4.338   0.384 -0.5899  0.5043 -2.2194
   45TMC2    C1  696   2.538   1.957   9.931  0.5085  0.4842 -0.0904
   45TMC2    C2  697   2.438   1.993   9.838  0.2391 -0.3501 -0.4314
   45TMC2    C3  698   2.455   2.096   9.756 -0.2296  0.1665  0.4229
   45TMC2    C4  699   2.658   2.028   9.930 -0.5584  0.0931  0.7009
   45TMC2    C5  700   2.672   2.132   9.850 -0.1323 -0.2102 -0.0290
   45TMC2    C6  701   2.574   2.171   9.767  0.5282  0.4514  0.2829
   45TMC2     C  702   2.546   1.825   9.996 -0.2362 -0.2187 -0.4827
   45TMC2     O  703   2.657   1.776  10.017  0.1436 -0.3301  0.4261
   45TMC2     H  704   2.338   1.953   9.837  0.6786 -1.4726  1.1862
   45TMC2    H1  705   2.731   2.004  10.006 -0.0836 -0.8186 -0.0399
   45TMC2    H2  706   2.584   2.260   9.707 -1.7491  0.1195 -0.6002
   45TMC2    C7  707   2.790   2.222   9.873 -0.1099  0.5272 -0.4999
   45TMC2    C8  708   2.338   2.148   9.692  0.5209  0.2789  0.3442
   45TMC2    O1  709   2.858   2.204   9.977  0.1680  0.0182  0.0731
   45TMC2    O2  710   2.259   2.065   9.650 -0.1595  0.2195  0.3548
   45TMC2    O5  711   2.336   2.267   9.638 -0.4658  0.4412  0.1546
   45TMC2    H5  712   2.396   2.332   9.680  1.0752 -0.6732 -0.3468
   46MPD2     C  713   2.471   1.538  10.055  0.7953  0.2187  0.1711
   46MPD2    C1  714   2.388   1.641  10.032 -0.0748 -0.0110 -0.2255
   46MPD2    C2  715   2.250   1.619  10.029  0.4712 -0.2457 -0.6103
   46MPD2    C3  716   2.189   1.495  10.043  0.2877 -0.4125 -0.9563
   46MPD2    C4  717   2.276   1.389  10.053  0.5888  0.7004  0.3488
   46MPD2    C5  718   2.411   1.409  10.055 -0.7318  0.1377  0.2681
   46MPD2     H  719   2.185   1.705  10.017 -0.0613 -0.3225  1.6805
   46MPD2    H1  720   2.244   1.286  10.052 -1.5711  1.3752 -0.0994
   46MPD2    H2  721   2.579   1.540  10.058  0.8097 -1.5113  1.2751
   46MPD2    H3  722   2.479   1.325  10.059 -1.0350 -0.1623 -0.9073
   46MPD2     N  723   2.046   1.483  10.041  0.1058  0.0712 -0.8281
   46MPD2    H5  724   1.990   1.564  10.018 -1.2847 -0.6655  0.0173
   46MPD2    N1  725   2.423   1.775  10.006 -0.3523  0.1638  0.0052
   46MPD2    H7  726   2.351   1.845   9.990  1.2156  1.9621  0.8174
   47TMC2    C1  727   4.552   2.352   9.345 -0.2622 -0.3463 -0.4116
   47TMC2    C2  728   4.595   2.222   9.324 -0.6285 -0.4930 -0.3209
   47TMC2    C3  729   4.523   2.147   9.233 -0.1097 -0.2399  0.0185
   47TMC2    C4  730   4.442   2.415   9.286 -0.0498  0.8652 -0.2107
   47TMC2    C5  731   4.379   2.337   9.197 -0.2912  0.0693  0.5818
   47TMC2    C6  732   4.415   2.207   9.173  0.1731 -0.9088  0.0833
   47TMC2     C  733   4.639   2.444   9.421  0.6810  0.0159 -0.3961
   47TMC2     O  734   4.597   2.559   9.444 -0.2994 -0.3281 -0.1950
   47TMC2     H  735   4.673   2.174   9.382  0.0777  0.2134 -0.6955
   47TMC2    H1  736   4.413   2.514   9.318 -0.0146  0.3785  1.3029
   47TMC2    H2  737   4.356   2.157   9.097 -1.3656  0.7773  0.1753
   47TMC2    C7  738   4.251   2.375   9.150  0.1361  0.0854 -0.2701
   47TMC2    C8  739   4.528   1.998   9.241  0.1399 -0.8006  0.4275
   47TMC2    O1  740   4.164   2.295   9.116 -0.0722  0.3160  0.0669
   47TMC2    O2  741   4.426   1.938   9.211 -0.3415 -0.1836  0.6793
   47TMC2    O5  742   4.647   1.947   9.281 -0.1421 -0.6919  0.1661
   47TMC2    H5  743   4.713   2.007   9.321 -0.7422  1.0536 -1.4739
   48MPD2     C  744   0.120   2.595   9.570  0.2621  0.3625  0.1948
   48MPD2    C1  745   0.116   2.455   9.553 -1.0451  0.2484 -0.2966
   48MPD2    C2  746   0.217   2.378   9.605  0.7593  0.3206 -0.1460
   48MPD2    C3  747   0.308   2.431   9.688 -0.1252 -0.3999  0.2998
   48MPD2    C4  748   0.314   2.570   9.698  0.0981  0.6138 -0.1512
   48MPD2    C5  749   0.225   2.651   9.629  0.6147 -0.0435  0.2062
   48MPD2     H  750   0.234   2.274   9.579 -1.2952 -0.2218  0.7129
   48MPD2    H1  751   0.393   2.628   9.744  0.3733 -0.9231  1.2721
   48MPD2    H2  752   0.040   2.649   9.521  2.3829  1.1681 -2.3907
   48MPD2    H3  753   0.232   2.759   9.625 -2.3625  0.2156  2.0414
   48MPD2     N  754   0.393   2.336   9.755  0.2975  0.4983 -0.1728
   48MPD2    H5  755   0.394   2.236   9.736  0.6920  0.1927  1.4029
   48MPD2    N1  756   0.027   2.391   9.463  0.0700 -0.4564  0.2923
   48MPD2    H7  757   0.041   2.293   9.441 -2.3718 -1.2291  2.0835
   49TMC2    C1  758   2.561   3.416  10.553 -0.6413 -0.0831 -0.2367
   49TMC2    C2  759   2.506   3.385  10.434  0.0423 -0.1847  0.4734
   49TMC2    C3  760   2.398   3.302  10.445 -0.0576 -0.1939 -0.1895
   49TMC2    C4  761   2.532   3.352  10.672  0.0165  1.0394  0.4283
   49TMC2    C5  762   2.431   3.259  10.670  0.5677 -0.0856  0.3223
   49TMC2    C6  763   2.357   3.243  10.559  0.0017  0.2022 -0.4729
   49TMC2     C  764   2.675   3.509  10.541 -0.0044 -0.1073 -0.7566
   49TMC2     O  765   2.710   3.541  10.428 -0.3795  0.2717  0.4937
   49TMC2     H  766   2.552   3.425  10.345 -0.3308 -0.2367  0.2594
   49TMC2    H1  767   2.575   3.377  10.768  0.6197  0.0657  0.4023
   49TMC2    H2  768   2.271   3.177  10.562  0.3077 -0.1479  0.3799
   49TMC2    C7  769   2.386   3.199  10.791 -0.2119  0.0679  0.7324
   49TMC2    C8  770   2.295   3.316  10.340  0.0383  0.3356 -0.0075
   49TMC2    O1  771   2.272   3.156  10.786  0.1691  0.5180  0.1312
   49TMC2    O2  772   2.179   3.309  10.364 -0.4601  0.5805 -0.5298
   49TMC2    O5  773   2.361   3.337  10.229  0.5598  0.3564 -0.3077
   49TMC2    H5  774   2.455   3.311  10.223 -0.0177 -1.5109 -1.2442
   50MPD2     C  775   2.893   3.719  10.575 -0.6511 -0.6288 -0.4586
   50MPD2    C1  776   2.801   3.684  10.675 -0.5898 -0.6886 -0.4508
   50MPD2    C2  777   2.782   3.772  10.783  0.3072  0.8049  1.5289
   50MPD2    C3  778   2.876   3.882  10.802 -0.4579  0.0961 -0.8953
   50MPD2    C4  779   2.972   3.896  10.700 -0.7357 -0.2495  0.3696
   50MPD2    C5  780   2.984   3.816  10.593  0.0389 -0.3141 -0.3390
   50MPD2     H  781   2.700   3.763  10.853 -1.3321 -2.0903 -0.8107
   50MPD2    H1  782   3.051   3.970  10.703 -0.9286 -0.0582  0.7788
   50MPD2    H2  783   2.883   3.677  10.476 -3.7622  0.0417 -0.4339
   50MPD2    H3  784   3.062   3.839  10.522  0.1734 -0.5690 -0.2697
   50MPD2     N  785   2.881   3.978  10.909 -0.1336  0.3010 -0.5350
   50MPD2    H5  786   2.956   4.047  10.914 -0.2709  0.4558 -0.6042
   50MPD2    N1  787   2.708   3.577  10.657  0.0191  0.2156  0.3051
   50MPD2    H7  788   2.661   3.552  10.744 -0.0632  1.1183  0.5165
   51TMC2    C1  789   0.304   3.033   2.251  0.3900 -0.5503 -0.1709
   51TMC2    C2  790   0.406   3.041   2.346 -0.7195 -0.5111 -0.2244
   51TMC2    C3  791   0.393   3.126   2.449  0.7324  0.0508  0.0112
   51TMC2    C4  792   0.189   3.107   2.261 -0.2567  0.1699  0.0283
   51TMC2    C5  793   0.183   3.190   2.372  0.4879  0.0558  0.9141
   51TMC2    C6  794   0.284   3.211   2.457  0.1352  0.0524 -0.5721
   51TMC2     C  795   0.300   2.922   2.159 -0.1490  0.2563 -0.6301
   51TMC2     O  796   0.218   2.923   2.069  0.4714  0.1853  0.0487
   51TMC2     H  797   0.499   2.989   2.325 -0.5433 -0.6001  0.7680
   51TMC2    H1  798   0.110   3.094   2.187  1.0038  0.3108 -1.3450
   51TMC2    H2  799   0.267   3.291   2.529 -1.6055  0.7825 -1.8044
   51TMC2    C7  800   0.058   3.256   2.406 -0.8763 -0.3286 -0.2402
   51TMC2    C8  801   0.495   3.122   2.552  0.4549 -0.1912  0.9561
   51TMC2    O1  802   0.063   3.362   2.465 -0.3690 -0.4549 -0.1876
   51TMC2    O2  803   0.544   3.016   2.589  0.3433 -0.2298  0.1113
   51TMC2    O5  804   0.482   3.235   2.617 -0.4984  0.3087  0.2268
   51TMC2    H5  805   0.446   3.318   2.579 -1.4566  0.3355  1.1917
   52MPD2     C  806   0.484   2.478   1.983  0.3186  0.2405  0.3253
   52MPD2    C1  807   0.403   2.563   1.924  0.1758  0.6129  0.0767
   52MPD2    C2  808   0.369   2.679   1.992 -0.3067 -0.6948  0.5057
   52MPD2    C3  809   0.428   2.708   2.119  0.0604  0.5799 -0.6522
   52MPD2    C4  810   0.514   2.618   2.174 -0.1102  0.6232 -0.2290
   52MPD2    C5  811   0.540   2.503   2.107  0.7097  0.5702  0.1331
   52MPD2     H  812   0.298   2.743   1.943  0.7434 -0.7478 -1.0723
   52MPD2    H1  813   0.553   2.637   2.274 -1.8667 -0.8250  0.7268
   52MPD2    H2  814   0.528   2.399   1.923  0.2429  0.9548 -0.6781
   52MPD2    H3  815   0.603   2.428   2.154  0.1290  0.8080  1.2963
   52MPD2     N  816   0.396   2.826   2.191 -0.4513  0.7379 -0.2858
   52MPD2    H5  817   0.451   2.847   2.274  0.2547  1.5724 -0.9670
   52MPD2    N1  818   0.348   2.556   1.789  0.0315  0.4806  0.1587
   52MPD2    H7  819   0.283   2.630   1.765  0.2015  0.4464 -0.4168
   53TMC2    C1  820   4.619   1.443  11.688 -0.1985 -1.1138  0.2871
   53TMC2    C2  821   0.007   1.469  11.735 -0.1726  0.3594  0.2460
   53TMC2    C3  822   0.014   1.553  11.846  0.7170  0.6966  0.3125
   53TMC2    C4  823   4.503   1.499  11.736  0.0752  0.1383 -0.3358
   53TMC2    C5  824   4.520   1.586  11.837 -0.0470  0.8683 -0.0941
   53TMC2    C6  825   4.640   1.612  11.897  0.0437  0.2166 -0.0224
   53TMC2     C  826   4.608   1.327  11.607 -0.1889 -0.5612 -0.1847
   53TMC2     O  827   4.708   1.297  11.540  0.2758 -0.2765 -0.0315
   53TMC2     H  828   0.094   1.417  11.698 -1.0747 -1.9410  1.3209
   53TMC2    H1  829   4.403   1.478  11.697 -1.6002  0.0641  4.0784
   53TMC2    H2  830   4.645   1.680  11.981  0.1378 -0.8057  0.7874
   53TMC2    C7  831   4.397   1.629  11.902  0.3605 -0.2377 -0.6710
   53TMC2    C8  832   0.138   1.578  11.916  0.1285  0.9433 -0.3456
   53TMC2    O1  833   4.320   1.540  11.933  0.1461  0.1420  0.1666
   53TMC2    O2  834   0.142   1.658  12.011 -0.1126  0.3711 -0.2661
   53TMC2    O5  835   0.250   1.526  11.867  0.4284 -0.2532 -0.8828
   53TMC2    H5  836   0.231   1.462  11.795  0.2434 -1.4896  0.2618
   54MPD2     C  837   4.510   1.090  11.464  0.2239 -0.0360 -0.4490
   54MPD2    C1  838   4.447   1.140  11.572  0.0591 -0.0115 -0.0527
   54MPD2    C2  839   4.350   1.076  11.638 -0.0421 -0.4015  0.9228
   54MPD2    C3  840   4.317   0.953  11.599 -0.2271 -0.7430  0.3186
   54MPD2    C4  841   4.378   0.890  11.496 -0.4429 -0.3005 -0.3225
   54MPD2    C5  842   4.474   0.962  11.421 -0.2229  0.6488 -0.3132
   54MPD2     H  843   4.309   1.117  11.730  0.6788  1.8567  0.2423
   54MPD2    H1  844   4.354   0.788  11.469 -0.8533 -0.1783 -0.4184
   54MPD2    H2  845   4.581   1.156  11.416 -1.3133  1.7184 -0.2796
   54MPD2    H3  846   4.526   0.917  11.338  0.3626  1.5710 -0.4463
   54MPD2     N  847   4.222   0.877  11.670  0.3940 -0.0953 -0.0696
   54MPD2    H5  848   4.213   0.778  11.650 -0.5231 -0.2899  1.2783
   54MPD2    N1  849   4.497   1.259  11.636  0.3077  0.4743  0.4877
   54MPD2    H7  850   4.451   1.281  11.724 -0.3801 -1.4987  0.6337
   55TMC2    C1  851   0.631   0.003   0.589  0.1046  0.0644  0.2599
   55TMC2    C2  852   0.665   4.693   0.464 -0.8170 -0.4809  1.3056
   55TMC2    C3  853   0.723   4.574   0.459  0.5449  0.0057  0.1025
   55TMC2    C4  854   0.633   4.665   0.703 -1.2035 -0.6123 -0.3841
   55TMC2    C5  855   0.681   4.542   0.688  0.9317  0.2723  0.6965
   55TMC2    C6  856   0.719   4.496   0.569  0.0636  0.2073  0.6469
   55TMC2     C  857   0.565   0.125   0.600 -0.4732  1.5911 -0.4028
   55TMC2     O  858   0.491   0.134   0.696  0.2234  0.2361  0.3389
   55TMC2     H  859   0.658   0.021   0.376 -2.3818 -1.3834  0.7781
   55TMC2    H1  860   0.598   4.703   0.798  0.3069  1.4825 -0.6779
   55TMC2    H2  861   0.756   4.395   0.557  0.0543  0.0719  1.8080
   55TMC2    C7  862   0.676   4.445   0.798  0.0592  0.2933 -0.4468
   55TMC2    C8  863   0.780   4.532   0.336 -0.4124 -0.7996 -0.1526
   55TMC2    O1  864   0.733   4.340   0.779  0.4459 -0.5285  0.1476
   55TMC2    O2  865   0.869   4.450   0.351  0.1677 -0.2185  0.1186
   55TMC2    O5  866   0.690   4.546   0.232 -0.0503  0.7670  0.6382
   55TMC2    H5  867   0.598   4.577   0.243 -0.0213  0.6868  1.0834
   56MPD2     C  868   0.573   0.420   0.377 -1.1736 -0.3010 -0.2746
   56MPD2    C1  869   0.521   0.329   0.468 -0.2268 -0.7602  0.2824
   56MPD2    C2  870   0.406   0.363   0.531 -0.5763  0.0472 -0.3265
   56MPD2    C3  871   0.338   0.478   0.508  0.5814 -0.1865 -0.4824
   56MPD2    C4  872   0.395   0.571   0.426  0.1857  0.5570 -0.3135
   56MPD2    C5  873   0.510   0.540   0.363  0.1029 -0.2209 -0.0657
   56MPD2     H  874   0.358   0.290   0.597 -1.1534 -1.2677 -2.1945
   56MPD2    H1  875   0.364   0.673   0.405 -2.6171 -0.6837 -2.1879
   56MPD2    H2  876   0.658   0.398   0.314 -0.8591 -0.9923  0.3933
   56MPD2    H3  877   0.549   0.615   0.295 -3.4021  0.8543 -0.9253
   56MPD2     N  878   0.220   0.509   0.580  0.8368  0.5688  0.8125
   56MPD2    H5  879   0.177   0.440   0.640 -0.5190 -1.3811 -2.4099
   56MPD2    N1  880   0.597   0.215   0.497  0.3255  0.0373  0.1041
   56MPD2    H7  881   0.676   0.201   0.436 -0.1675  4.2197 -1.4886
   57TMC2    C1  882   0.068   0.430  14.307 -0.4857 -0.3481 -0.4149
   57TMC2    C2  883   0.151   0.384  14.411 -0.3561 -0.0027  0.3753
   57TMC2    C3  884   0.287   0.392  14.396 -0.3897 -0.5703 -0.1280
   57TMC2    C4  885   0.123   0.500  14.200 -0.4397  0.3798 -0.3204
   57TMC2    C5  886   0.254   0.521  14.199 -0.4371  0.2345 -0.0226
   57TMC2    C6  887   0.341   0.466  14.293  0.1529 -0.0670 -0.0644
   57TMC2     C  888   4.655   0.396  14.308  0.7578 -0.1794  0.2862
   57TMC2     O  889   4.594   0.424  14.207 -0.6592 -0.1671 -0.0077
   57TMC2     H  890   0.115   0.324  14.494 -0.0234 -2.0558 -0.9761
   57TMC2    H1  891   0.050   0.527  14.126 -2.1154  0.9316  1.5277
   57TMC2    H2  892   0.445   0.466  14.265  0.2302  2.2243  0.2293
   57TMC2    C7  893   0.309   0.543  14.068  0.4708  0.0662  0.5880
   57TMC2    C8  894   0.371   0.302  14.471  0.6277  0.0236  0.6834
   57TMC2    O1  895   0.416   0.599  14.066  0.2229 -0.2746 -0.5142
   57TMC2    O2  896   0.330   0.187  14.501 -0.4091 -0.0939  0.4204
   57TMC2    O5  897   0.424   0.389  14.559 -0.0506 -0.0253 -0.2803
   57TMC2    H5  898   0.445   0.476  14.518  0.1367 -0.3630 -0.9075
   58MPD2     C  899   4.216   0.495  14.557  0.7344 -0.0451  0.1416
   58MPD2    C1  900   4.250   0.499  14.421 -0.4744 -0.6416 -0.3540
   58MPD2    C2  901   4.369   0.443  14.384  0.5716  0.1197  0.7192
   58MPD2    C3  902   4.465   0.402  14.480  0.2063  0.0315  0.0102
   58MPD2    C4  903   4.432   0.402  14.613  0.0520 -0.6483  0.4827
   58MPD2    C5  904   4.306   0.446  14.644 -0.1908  0.5436  0.0072
   58MPD2     H  905   4.386   0.440  14.277 -1.1168 -0.0614  0.4482
   58MPD2    H1  906   4.506   0.366  14.683 -0.4240 -1.8801  0.3631
   58MPD2    H2  907   4.124   0.522  14.607 -0.3453 -0.1408 -1.8229
   58MPD2    H3  908   4.279   0.439  14.749 -1.0686  2.0553 -0.1209
   58MPD2     N  909   4.599   0.382  14.434 -0.3346 -0.1670 -0.7276
   58MPD2    H5  910   4.660   0.367  14.513 -0.1546 -1.8212 -1.1703
   58MPD2    N1  911   4.157   0.542  14.322  0.8626 -0.2654  0.3078
   58MPD2    H7  912   4.194   0.563  14.230  0.5289  0.0295  0.2421
   59TMC2    C1  913   2.188   0.606  12.705  0.2009 -0.2765 -0.1196
   59TMC2    C2  914   2.146   0.474  12.739  0.2780  0.4897  0.3202
   59TMC2    C3  915   2.098   0.396  12.641  0.1910 -0.4480  0.2219
   59TMC2    C4  916   2.188   0.647  12.576  0.3705 -0.2031 -0.1855
   59TMC2    C5  917   2.146   0.556  12.483 -0.3211  0.1318  0.1869
   59TMC2    C6  918   2.095   0.430  12.511  0.2314  0.3590 -0.3052
   59TMC2     C  919   2.234   0.703  12.805 -0.5417  0.4298 -0.2193
   59TMC2     O  920   2.271   0.815  12.768  0.2485 -0.0565  0.1939
   59TMC2     H  921   2.113   0.451  12.840 -1.5599  1.2944 -0.0944
   59TMC2    H1  922   2.228   0.739  12.534 -0.4454  0.6639  0.9336
   59TMC2    H2  923   2.047   0.361  12.443  0.8408 -1.3240  0.9872
   59TMC2    C7  924   2.146   0.578  12.340  0.3195 -0.1290  0.3016
   59TMC2    C8  925   2.049   0.265  12.676 -0.0812  0.2593  0.0069
   59TMC2    O1  926   2.160   0.481  12.265  0.1191  0.6904  0.3320
   59TMC2    O2  927   1.980   0.202  12.599  0.3764 -0.2699 -0.1589
   59TMC2    O5  928   2.115   0.219  12.787 -0.6232  0.0792 -0.5533
   59TMC2    H5  929   2.183   0.277  12.827 -2.1644  1.1491  0.4939
   60MPD2     C  930   2.254   0.867  13.041  0.2377  0.5307  0.7149
   60MPD2    C1  931   2.248   0.731  13.053  0.0668  0.8518 -0.4974
   60MPD2    C2  932   2.285   0.662  13.168  0.0728 -0.2901  0.3886
   60MPD2    C3  933   2.312   0.744  13.282 -0.7450 -0.2344 -0.2244
   60MPD2    C4  934   2.297   0.881  13.269 -0.0109 -0.0592  0.5164
   60MPD2    C5  935   2.273   0.942  13.155 -0.2272  0.3930 -0.6033
   60MPD2     H  936   2.286   0.554  13.176 -1.1463 -0.4280 -1.2940
   60MPD2    H1  937   2.319   0.955  13.345 -0.1298  0.4650  0.0426
   60MPD2    H2  938   2.212   0.928  12.961 -0.4901 -1.9316 -0.7778
   60MPD2    H3  939   2.252   1.048  13.145 -0.9088  0.4706  1.6384
   60MPD2     N  940   2.360   0.700  13.409  0.1168  0.1753  0.0118
   60MPD2    H5  941   2.400   0.779  13.459 -1.6628  0.5302  0.8816
   60MPD2    N1  942   2.224   0.656  12.933 -0.1399 -0.2564  0.2296
   60MPD2    H7  943   2.213   0.555  12.936  0.6944 -0.3437  0.2607
   61TMC2    C1  944   0.976   2.077  15.661  0.6305 -0.0168  0.0647
   61TMC2    C2  945   0.856   2.124  15.709 -0.9873 -0.5344 -0.5775
   61TMC2    C3  946   0.853   2.224  15.802  0.2602 -0.2747 -0.4547
   61TMC2    C4  947   1.092   2.127  15.713 -0.3628  0.2169 -0.1902
   61TMC2    C5  948   1.081   2.221  15.812 -0.6696 -0.3642 -0.7278
   61TMC2    C6  949   0.969   2.275  15.865 -0.9685  0.0476 -0.0417
   61TMC2     C  950   0.982   1.981  15.552  0.2752 -0.3400 -0.1898
   61TMC2     O  951   0.880   1.914  15.534 -0.1749 -0.3301  0.2089
   61TMC2     H  952   0.760   2.090  15.671 -0.1864 -3.3196 -0.1254
   61TMC2    H1  953   1.188   2.095  15.673 -0.3941  0.3819 -0.3950
   61TMC2    H2  954   0.963   2.344  15.948  1.0186 -1.0631  1.0355
   61TMC2    C7  955   1.203   2.293  15.825 -0.1230  0.1657  0.0880
   61TMC2    C8  956   0.727   2.281  15.842 -0.5550  0.0452 -0.0765
   61TMC2    O1  957   1.278   2.290  15.726  0.0197  0.2236 -0.6013
   61TMC2    O2  958   0.619   2.223  15.850 -0.1931 -0.6557 -0.0222
   61TMC2    O5  959   0.741   2.410  15.851  0.6702 -0.4780 -0.1129
   61TMC2    H5  960   0.829   2.446  15.827  1.0804 -0.6047  1.1519
   62MPD2     C  961   1.048   1.797  15.325 -0.1230 -0.5891  0.2317
   62MPD2    C1  962   1.124   1.907  15.363  0.1565  0.4517  0.7229
   62MPD2    C2  963   1.231   1.948  15.287  0.4113 -0.5705 -0.6160
   62MPD2    C3  964   1.253   1.894  15.158  0.3223 -0.4176 -0.7485
   62MPD2    C4  965   1.163   1.797  15.118 -0.8315 -0.2162  0.0597
   62MPD2    C5  966   1.075   1.741  15.205  0.1042  0.4724  0.3355
   62MPD2     H  967   1.291   2.030  15.325 -0.8829 -1.0652  2.4526
   62MPD2    H1  968   1.166   1.750  15.020 -2.8828 -1.6883  0.7036
   62MPD2    H2  969   0.979   1.744  15.390 -1.3341 -0.1946 -0.7373
   62MPD2    H3  970   1.031   1.645  15.183 -2.2996  1.8939 -1.1144
   62MPD2     N  971   1.357   1.939  15.067  0.7900  0.2509 -0.8539
   62MPD2    H5  972   1.360   1.889  14.978 -1.0876 -1.1581 -0.1426
   62MPD2    N1  973   1.094   1.990  15.476  0.0947 -0.3754  0.0476
   62MPD2    H7  974   1.161   2.065  15.489  0.6359 -0.5645 -1.6772
   63TMC2    C1  975   0.561   2.400  10.841  0.2446 -0.6541 -0.1869
   63TMC2    C2  976   0.633   2.375  10.948 -0.2553  0.2260 -0.2893
   63TMC2    C3  977   0.744   2.449  10.965 -0.1095  0.4650  0.3899
   63TMC2    C4  978   0.597   2.491  10.751 -0.1963 -0.0618  0.4032
   63TMC2    C5  979   0.708   2.571  10.772 -1.0003  0.0832 -0.1586
   63TMC2    C6  980   0.783   2.550  10.880  0.3224  0.2483  0.0168
   63TMC2     C  981   0.449   2.314  10.815  0.3034 -0.6482  0.4564
   63TMC2     O  982   0.361   2.361  10.741 -0.4996 -0.2983 -0.4140
   63TMC2     H  983   0.594   2.317  11.031  1.1321 -1.0607 -0.5349
   63TMC2    H1  984   0.533   2.501  10.664  0.6862  1.6855 -0.0306
   63TMC2    H2  985   0.883   2.589  10.892  0.4351 -0.6751  1.9758
   63TMC2    C7  986   0.775   2.610  10.657 -0.6999  0.3364 -0.2349
   63TMC2    C8  987   0.824   2.420  11.085  0.3379 -0.4385 -0.5694
   63TMC2    O1  988   0.728   2.563  10.557 -0.1561  0.2466 -0.1859
   63TMC2    O2  989   0.943   2.405  11.087  0.2121 -0.4476  0.7669
   63TMC2    O5  990   0.747   2.475  11.179 -0.4164 -0.1717 -0.4200
   63TMC2    H5  991   0.663   2.505  11.139 -0.5258  0.2655  0.1337
   64MPD2     C  992   0.173   1.891  10.863 -0.2470 -0.1375 -0.3962
   64MPD2    C1  993   0.291   1.862  10.920 -0.2093  0.1700  0.2450
   64MPD2    C2  994   0.388   1.962  10.922 -0.8152  0.0293  0.9439
   64MPD2    C3  995   0.359   2.088  10.872 -0.1596  0.0339 -0.1295
   64MPD2    C4  996   0.229   2.107  10.820  0.0991 -0.4186 -0.3223
   64MPD2    C5  997   0.140   2.010  10.807  0.0352  0.4253 -0.1547
   64MPD2     H  998   0.481   1.937  10.972 -0.6771  1.7644  1.5678
   64MPD2    H1  999   0.203   2.203  10.776  1.6520  0.3750  0.5029
   64MPD2    H2 1000   0.097   1.814  10.866 -0.9033  0.4753 -1.4161
   64MPD2    H3 1001   0.044   2.020  10.757 -0.4127 -0.4255  0.5148
   64MPD2     N 1002   0.466   2.188  10.875 -0.7007 -0.3186  0.1423
   64MPD2    H5 1003   0.553   2.169  10.923 -0.1548  1.5170 -0.1167
   64MPD2    N1 1004   0.325   1.740  10.973  0.6898 -0.0514  0.2150
   64MPD2    H7 1005   0.421   1.717  10.998  1.6909  1.2133 -2.4366
   65TMC2    C1 1006   1.905   2.018  15.299 -0.2128  0.6450  0.2759
   65TMC2    C2 1007   2.010   1.966  15.232 -0.6161 -0.2734 -0.5232
   65TMC2    C3 1008   2.122   2.042  15.219 -0.0415 -0.2677  0.5836
   65TMC2    C4 1009   1.904   2.141  15.357  0.9518 -0.4393 -0.1184
   65TMC2    C5 1010   2.023   2.213  15.344 -0.4127 -0.7372  0.5734
   65TMC2    C6 1011   2.132   2.163  15.265  0.3982 -0.4824  0.5817
   65TMC2     C 1012   1.780   1.937  15.315 -1.2462  0.2064  0.2125
   65TMC2     O 1013   1.713   1.963  15.415  0.8011 -0.0536 -0.0757
   65TMC2     H 1014   2.015   1.863  15.199  2.2010 -0.4049  0.2460
   65TMC2    H1 1015   1.811   2.176  15.400  0.7658 -2.2862  0.9601
   65TMC2    H2 1016   2.232   2.204  15.274  0.9633 -1.4396 -1.2796
   65TMC2    C7 1017   2.037   2.344  15.407 -0.3514 -0.5967  0.2730
   65TMC2    C8 1018   2.223   1.981  15.127  0.1088  0.3562 -0.2775
   65TMC2    O1 1019   2.122   2.416  15.357  0.8145  0.0808  0.5785
   65TMC2    O2 1020   2.183   1.884  15.062  0.1187 -0.7632 -0.8928
   65TMC2    O5 1021   2.320   2.072  15.092  0.2385  0.0009  0.1129
   65TMC2    H5 1022   2.335   2.145  15.155  0.0649 -0.5859  0.8293
   66MPD2     C 1023   1.608   1.698  15.326  0.4799  0.1854 -0.0967
   66MPD2    C1 1024   1.653   1.755  15.206  0.2066 -0.9902  0.6881
   66MPD2    C2 1025   1.634   1.689  15.084  0.4627 -0.1699  0.0072
   66MPD2    C3 1026   1.539   1.583  15.083  0.8209 -0.1197 -0.1061
   66MPD2    C4 1027   1.490   1.531  15.199  0.1135 -0.2416  0.0289
   66MPD2    C5 1028   1.524   1.587  15.315 -0.4363  0.8592 -0.3984
   66MPD2     H 1029   1.673   1.724  14.990 -0.3190 -1.9267 -0.9705
   66MPD2    H1 1030   1.413   1.456  15.202  0.2069 -0.3108  0.8187
   66MPD2    H2 1031   1.633   1.741  15.423 -3.3409 -1.0369  1.4467
   66MPD2    H3 1032   1.494   1.533  15.405 -2.0547  0.5032 -1.1615
   66MPD2     N 1033   1.489   1.532  14.963  0.1795  0.2815 -0.0784
   66MPD2    H5 1034   1.430   1.451  14.981 -0.2922  0.8890  1.0866
   66MPD2    N1 1035   1.750   1.856  15.205 -0.1038  0.6283  0.0246
   66MPD2    H7 1036   1.812   1.860  15.125  1.8216 -0.7238  1.4687
   67TMC2    C1 1037   2.492   0.731  14.601  0.6751 -0.2126  0.0829
   67TMC2    C2 1038   2.569   0.775  14.704 -0.9650  0.8040  0.0465
   67TMC2    C3 1039   2.504   0.833  14.807 -0.0888  0.4727  0.6200
   67TMC2    C4 1040   2.359   0.760  14.593 -0.3835 -0.0421 -0.4278
   67TMC2    C5 1041   2.301   0.815  14.704  0.3477 -0.1815 -0.2929
   67TMC2    C6 1042   2.373   0.857  14.814  0.6908  0.3438 -0.3793
   67TMC2     C 1043   2.556   0.671  14.480  0.3704  0.0483 -0.3196
   67TMC2     O 1044   2.676   0.695  14.454  0.4257  0.1101  0.0239
   67TMC2     H 1045   2.676   0.761  14.704 -1.1611 -0.6547  0.6547
   67TMC2    H1 1046   2.300   0.722  14.510  0.5160 -1.0051 -0.6357
   67TMC2    H2 1047   2.329   0.908  14.899 -0.1700  1.0355 -1.2400
   67TMC2    C7 1048   2.185   0.893  14.670  0.6979  0.2493  1.1465
   67TMC2    C8 1049   2.581   0.824  14.931 -0.2357  0.5772  0.4566
   67TMC2    O1 1050   2.179   0.923  14.552  0.3233 -0.3488 -0.1044
   67TMC2    O2 1051   2.683   0.889  14.949  0.2515  0.4057 -0.2493
   67TMC2    O5 1052   2.502   0.774  15.023 -0.1207 -0.5900  0.0255
   67TMC2    H5 1053   2.436   0.734  14.962  0.6659  0.0113 -1.2318
   68MPD2     C 1054   2.589   0.575  14.199  0.1424 -0.4421  0.1375
   68MPD2    C1 1055   2.493   0.531  14.288  0.0580  1.0185  0.1516
   68MPD2    C2 1056   2.402   0.433  14.245  0.6037 -1.2050  0.0595
   68MPD2    C3 1057   2.407   0.374  14.119  0.0651 -0.2814 -0.1212
   68MPD2    C4 1058   2.506   0.421  14.033 -0.1999  0.6702 -0.3416
   68MPD2    C5 1059   2.587   0.519  14.074  0.2288 -0.0459  0.2928
   68MPD2     H 1060   2.318   0.417  14.311  0.0480 -0.3114 -0.4308
   68MPD2    H1 1061   2.511   0.395  13.928  0.2665 -0.0539 -0.1385
   68MPD2    H2 1062   2.674   0.634  14.228  2.2781 -2.3071 -2.2975
   68MPD2    H3 1063   2.673   0.540  14.010  0.2567  0.3121  0.4474
   68MPD2     N 1064   2.305   0.291  14.066  0.4932  0.4446  0.5607
   68MPD2    H5 1065   2.312   0.263  13.969  0.2453 -0.5733  0.8333
   68MPD2    N1 1066   2.476   0.581  14.419  0.1199 -0.1834 -0.7463
   68MPD2    H7 1067   2.396   0.540  14.466  1.2623 -1.0289  0.4548
   69TMC2    C1 1068   4.657   2.216  13.018  0.6290 -0.6055 -0.3740
   69TMC2    C2 1069   4.626   2.350  13.023  0.3328  0.2530 -0.1703
   69TMC2    C3 1070   4.686   2.426  12.928 -0.1001 -0.2104  0.1497
   69TMC2    C4 1071   4.717   2.160  12.907  0.0177  0.6005  0.1868
   69TMC2    C5 1072   0.045   2.240  12.822 -0.3260  0.3032 -0.3394
   69TMC2    C6 1073   0.033   2.377  12.830  0.7140 -0.6281 -0.4030
   69TMC2     C 1074   4.579   2.124  13.104  0.3495  0.2383  0.0258
   69TMC2     O 1075   4.641   2.028  13.151 -0.0637 -0.1122  0.4712
   69TMC2     H 1076   4.565   2.394  13.102 -2.0754 -0.8752 -1.4038
   69TMC2    H1 1077   4.722   2.053  12.892 -0.7422  0.9899 -2.7391
   69TMC2    H2 1078   0.107   2.431  12.771 -0.3002  1.1101 -0.0961
   69TMC2    C7 1079   0.084   2.181  12.695 -0.8357  0.2001  1.0857
   69TMC2    C8 1080   4.685   2.571  12.940 -0.0748 -0.5529 -0.3658
   69TMC2    O1 1081   0.176   2.230  12.632  0.1293 -0.2551  0.6997
   69TMC2    O2 1082   4.646   2.629  13.041  0.2011 -0.1869 -0.4265
   69TMC2    O5 1083   4.679   2.625  12.817  0.0429 -0.6357  0.4362
   69TMC2    H5 1084   4.682   2.567  12.739  3.4384  0.0032  0.0588
   70MPD2     C 1085   4.214   2.108  13.130 -0.1790  0.3036 -0.1564
   70MPD2    C1 1086   4.344   2.067  13.124  0.8508 -0.2390  0.3095
   70MPD2    C2 1087   4.373   1.930  13.109 -0.3539  0.7012 -0.3570
   70MPD2    C3 1088   4.267   1.843  13.086 -0.1551 -0.4029  0.6635
   70MPD2    C4 1089   4.143   1.895  13.084  0.3358  0.5794 -0.1240
   70MPD2    C5 1090   4.114   2.019  13.106  0.2549  0.1046 -0.1425
   70MPD2     H 1091   4.472   1.888  13.116 -0.7411  0.0275  1.1307
   70MPD2    H1 1092   4.054   1.838  13.060  0.3034  1.1452 -1.3569
   70MPD2    H2 1093   4.189   2.214  13.141 -1.0859 -0.0378  1.1448
   70MPD2    H3 1094   4.012   2.054  13.107  0.0430 -0.5203 -0.0815
   70MPD2     N 1095   4.298   1.703  13.077 -0.4400  0.0311 -0.0449
   70MPD2    H5 1096   4.397   1.682  13.073  0.0346  2.0430  1.2610
   70MPD2    N1 1097   4.450   2.161  13.125 -0.0264 -0.3752  0.6135
   70MPD2    H7 1098   4.418   2.256  13.109  0.2052 -0.1224  1.6973
   71TMC2    C1 1099   1.630   2.294   2.118 -0.4876  0.4360 -0.3540
   71TMC2    C2 1100   1.685   2.229   2.224 -0.5409 -0.3007 -0.1131
   71TMC2    C3 1101   1.602   2.177   2.316  0.8509  0.3165 -0.0917
   71TMC2    C4 1102   1.499   2.286   2.092 -0.5401 -0.0037 -0.4680
   71TMC2    C5 1103   1.424   2.210   2.175 -0.2940 -1.4249  0.2364
   71TMC2    C6 1104   1.472   2.158   2.286 -0.6087  0.2562 -0.2153
   71TMC2     C 1105   1.702   2.404   2.049  0.1363  0.3141  0.4168
   71TMC2     O 1106   1.631   2.464   1.969 -0.0488 -0.5981 -0.5747
   71TMC2     H 1107   1.788   2.255   2.248 -0.3567 -0.9503 -0.2145
   71TMC2    H1 1108   1.463   2.315   1.994  0.3597 -0.4751 -0.9366
   71TMC2    H2 1109   1.421   2.078   2.338 -2.0833  0.6630 -1.0582
   71TMC2    C7 1110   1.305   2.146   2.125 -0.4094 -0.4507  0.5589
   71TMC2    C8 1111   1.671   2.075   2.393  0.2243  0.1699  0.2810
   71TMC2    O1 1112   1.271   2.037   2.168 -0.0820  0.2576  0.1979
   71TMC2    O2 1113   1.760   2.014   2.334  0.2130 -0.1469 -0.0331
   71TMC2    O5 1114   1.579   2.013   2.472 -0.2332 -0.6720 -0.3900
   71TMC2    H5 1115   1.496   2.058   2.500  0.1209 -0.4290  0.2570
   72MPD2     C 1116   2.126   2.661   1.896  0.1159 -0.6147  0.3417
   72MPD2    C1 1117   1.995   2.678   1.854 -0.1624  0.1478 -0.0101
   72MPD2    C2 1118   1.899   2.598   1.915  0.4535  0.7295  0.7620
   72MPD2    C3 1119   1.933   2.503   2.013  0.2285  0.1250 -0.7145
   72MPD2    C4 1120   2.059   2.492   2.051 -0.2933  0.2614  0.2405
   72MPD2    C5 1121   2.161   2.574   1.997 -0.6866  0.4477 -0.4062
   72MPD2     H 1122   1.796   2.595   1.881  0.8804  2.8648 -0.7348
   72MPD2    H1 1123   2.083   2.411   2.119  0.1795 -0.2598 -0.5361
   72MPD2    H2 1124   2.201   2.712   1.836  0.3355 -0.0600  1.0836
   72MPD2    H3 1125   2.265   2.552   2.013 -0.7880  0.7451  0.6485
   72MPD2     N 1126   1.833   2.415   2.074 -0.3335 -0.0904  0.0484
   72MPD2    H5 1127   1.869   2.356   2.149  0.6346  0.4691  0.0220
   72MPD2    N1 1128   1.960   2.754   1.740  0.1193 -0.0414  0.9958
   72MPD2    H7 1129   1.870   2.723   1.705  0.3125  0.6739 -0.1307
   73TMC2    C1 1130   1.480   3.996  14.116 -0.3864  0.4058 -0.2588
   73TMC2    C2 1131   1.482   4.070  14.227  0.2805  0.4911 -0.1641
   73TMC2    C3 1132   1.578   4.044  14.324 -0.1086 -0.4192  0.6329
   73TMC2    C4 1133   1.567   3.887  14.112  0.2078 -0.0615  0.2490
   73TMC2    C5 1134   1.671   3.879  14.205 -0.3082 -0.9114 -0.2365
   73TMC2    C6 1135   1.676   3.952  14.320  0.5693 -0.3861 -0.1581
   73TMC2     C 1136   1.487   4.069  13.993  0.4687  0.0918  0.8226
   73TMC2     O 1137   1.566   4.008  13.915 -0.0218 -0.2194  0.1361
   73TMC2     H 1138   1.428   4.164  14.228 -1.1936 -0.3454 -1.2337
   73TMC2    H1 1139   1.569   3.816  14.030  1.4871  1.7599 -1.3058
   73TMC2    H2 1140   1.752   3.951  14.398  0.8997  0.4184 -0.4679
   73TMC2    C7 1141   1.801   3.859  14.145  0.1076 -0.0979 -0.7178
   73TMC2    C8 1142   1.582   4.133  14.436 -0.3125 -0.2030 -0.3461
   73TMC2    O1 1143   1.888   3.809  14.211 -0.6418 -0.4476 -0.4337
   73TMC2    O2 1144   1.682   4.137  14.511  0.4066  0.1740 -0.0637
   73TMC2    O5 1145   1.455   4.131  14.477  0.0442 -0.0693 -0.7978
   73TMC2    H5 1146   1.394   4.080  14.421 -1.4921 -0.0462  0.8401
   74MPD2     C 1147   1.351   4.378  13.613  0.3349  0.7102  0.6626
   74MPD2    C1 1148   1.448   4.285  13.618 -0.1897  0.1636  0.1446
   74MPD2    C2 1149   1.468   4.217  13.733 -0.2352  0.3053  0.6254
   74MPD2    C3 1150   1.379   4.232  13.837  0.1503  0.5014  0.5425
   74MPD2    C4 1151   1.272   4.313  13.829  0.0050  0.3038 -0.1743
   74MPD2    C5 1152   1.263   4.394  13.719 -0.3794 -0.4672  0.7664
   74MPD2     H 1153   1.552   4.152  13.753 -0.6000 -0.2453  0.3842
   74MPD2    H1 1154   1.197   4.323  13.906  0.0982  0.9305 -0.1604
   74MPD2    H2 1155   1.330   4.434  13.522 -0.4679  2.0665  1.6823
   74MPD2    H3 1156   1.188   4.471  13.707  1.3093  1.0220 -0.1587
   74MPD2     N 1157   1.396   4.168  13.963  0.3018 -0.1413  0.3674
   74MPD2    H5 1158   1.329   4.196  14.035  0.5111  1.3122 -0.0105
   74MPD2    N1 1159   1.538   4.294  13.508 -0.0575  0.3517  0.1269
   74MPD2    H7 1160   1.511   4.345  13.424  2.7732  2.9270  0.7864
   75TMC2    C1 1161   2.095   0.169  14.089 -0.3612  0.4946  0.2511
   75TMC2    C2 1162   2.037   0.067  14.162  0.0526 -0.5751 -0.2779
   75TMC2    C3 1163   1.927   0.007  14.103  0.6575 -0.4093 -0.6791
   75TMC2    C4 1164   2.051   0.219  13.966 -0.0363 -0.4463 -0.7545
   75TMC2    C5 1165   1.924   0.172  13.935  0.6043  0.3277 -0.0903
   75TMC2    C6 1166   1.862   0.071  13.997  0.6904 -0.5310  0.9833
   75TMC2     C 1167   2.204   0.232  14.150 -0.3257 -0.6549  0.4393
   75TMC2     O 1168   2.198   0.232  14.273  0.3074 -0.8381 -0.2078
   75TMC2     H 1169   2.087   0.024  14.249 -1.4691  1.2723  1.4915
   75TMC2    H1 1170   2.108   0.292  13.909  0.2826 -0.4004 -0.3810
   75TMC2    H2 1171   1.771   0.027  13.960  1.5204 -1.4353 -0.0044
   75TMC2    C7 1172   1.863   0.220  13.813  0.3221  0.1558  0.1447
   75TMC2    C8 1173   1.851   4.655  14.190 -0.1627 -0.3084 -0.1278
   75TMC2    O1 1174   1.785   0.142  13.752  0.6440 -0.3036  0.2879
   75TMC2    O2 1175   1.896   4.576  14.271  0.3020 -0.3683 -0.3160
   75TMC2    O5 1176   1.732   4.716  14.204  0.3509  0.1004  0.4184
   75TMC2    H5 1177   1.728   0.066  14.159 -1.5823 -0.5077 -0.5731
   76TMC2    C1 1178   1.013   1.025  12.068 -0.4201 -0.4534  0.4347
   76TMC2    C2 1179   0.924   0.920  12.094  0.3253 -0.1844 -0.0299
   76TMC2    C3 1180   0.978   0.802  12.134  0.6398 -0.1261  0.3739
   76TMC2    C4 1181   1.148   1.010  12.089 -0.0446  0.1154 -0.2913
   76TMC2    C5 1182   1.194   0.883  12.107 -0.0232 -0.3206  0.4592
   76TMC2    C6 1183   1.115   0.779  12.138  0.0039 -0.1158  0.0588
   76TMC2     C 1184   0.959   1.162  12.078 -0.1948  0.2192  0.0097
   76TMC2     O 1185   0.843   1.172  12.113  0.3197 -0.1223 -0.3149
   76TMC2     H 1186   0.824   0.951  12.065  0.0963 -2.3663 -1.5721
   76TMC2    H1 1187   1.209   1.096  12.064  0.4064 -0.4250 -1.0507
   76TMC2    H2 1188   1.145   0.680  12.171 -0.6395 -1.2402 -2.7252
   76TMC2    C7 1189   1.334   0.853  12.128  0.7504  0.1148  0.6456
   76TMC2    C8 1190   0.893   0.686  12.142  0.6445  0.1310 -0.6308
   76TMC2    O1 1191   1.369   0.739  12.136 -0.7193  0.0806 -0.0317
   76TMC2    O2 1192   0.944   0.575  12.123  0.1040  0.2365 -0.2480
   76TMC2    O5 1193   0.801   0.697  12.239  0.0746  0.4157 -0.4888
   76TMC2    H5 1194   0.760   0.782  12.267 -0.5359 -0.0466  0.0086
   77MPD2     C 1195   0.996   1.680  12.060  0.2423  0.3160  0.2786
   77MPD2    C1 1196   0.884   1.598  12.047  0.1105  0.3460  0.2898
   77MPD2    C2 1197   0.891   1.460  12.053 -0.5048  0.4804  0.0434
   77MPD2    C3 1198   1.018   1.400  12.061 -0.5205 -0.1234 -0.2878
   77MPD2    C4 1199   1.131   1.484  12.080  0.3131 -0.2973  0.0258
   77MPD2    C5 1200   1.117   1.623  12.073 -0.5629  0.2441 -0.1508
   77MPD2     H 1201   0.805   1.393  12.051 -0.8627  1.0195 -2.3095
   77MPD2    H1 1202   1.228   1.437  12.076  0.5977  0.4577 -1.9734
   77MPD2    H2 1203   1.000   1.788  12.073  1.5295  0.2332  0.5966
   77MPD2    H3 1204   1.203   1.686  12.056 -0.9261  1.1317  1.2951
   77MPD2     N 1205   1.048   1.266  12.067  0.0810 -0.2637 -0.0223
   77MPD2    H5 1206   1.144   1.234  12.071  0.0055 -0.7135 -1.8196
   77MPD2    N1 1207   0.754   1.656  12.024  0.3476 -0.4693 -0.3999
   77MPD2    H7 1208   0.681   1.595  11.987  1.8987 -2.2912 -0.4358
   78TMC2    C1 1209   1.266   2.120   1.593 -0.8650  0.3105 -0.0511
   78TMC2    C2 1210   1.183   2.231   1.584  1.1273 -0.3023  0.1318
   78TMC2    C3 1211   1.231   2.347   1.636 -0.2188  0.4174  0.1240
   78TMC2    C4 1212   1.394   2.128   1.645  0.5916  0.5001 -0.0099
   78TMC2    C5 1213   1.437   2.244   1.709  0.7484 -0.8005 -0.1079
   78TMC2    C6 1214   1.364   2.355   1.682 -0.3290  0.1441 -0.3118
   78TMC2     C 1215   1.210   1.991   1.558 -0.0991 -0.0867  0.7151
   78TMC2     O 1216   1.292   1.899   1.545  0.5840 -0.8282  0.0369
   78TMC2     H 1217   1.080   2.220   1.551  1.4681  0.6835 -1.2522
   78TMC2    H1 1218   1.445   2.033   1.659  0.5669  0.7134  1.4945
   78TMC2    H2 1219   1.402   2.456   1.693  0.1424 -0.1806  0.9247
   78TMC2    C7 1220   1.580   2.273   1.709 -0.2693 -0.0556  0.0294
   78TMC2    C8 1221   1.175   2.481   1.627 -0.4392 -0.4641 -0.3790
   78TMC2    O1 1222   1.608   2.366   1.639 -0.5949  0.0141  0.1139
   78TMC2    O2 1223   1.089   2.504   1.545  0.1678 -0.0805 -0.4281
   78TMC2    O5 1224   1.182   2.551   1.747  0.3521  0.0604 -0.6528
   78TMC2    H5 1225   1.255   2.521   1.806 -0.3265  0.5872  0.4618
   79MPD1     C 1226   0.810   1.669   1.525 -0.1966 -0.2149  0.2332
   79MPD1    C1 1227   0.941   1.632   1.499  0.4869  0.0582  0.6401
   79MPD1    C2 1228   1.031   1.738   1.516  0.1747  0.1978  0.4706
   79MPD1    C3 1229   0.993   1.869   1.538  0.0297  0.5802  0.1146
   79MPD1    C4 1230   0.860   1.898   1.544 -0.3412 -0.3516  0.2582
   79MPD1    C5 1231   0.767   1.795   1.540 -1.0085 -0.0897 -0.6173
   79MPD1     H 1232   1.137   1.714   1.506  0.1757 -0.1521  1.3424
   79MPD1    H1 1233   0.817   1.997   1.530 -0.2005 -0.7058 -2.6367
   79MPD1    H2 1234   0.733   1.594   1.506 -1.4743  0.6192  2.1367
   79MPD1    H3 1235   0.661   1.815   1.548 -0.6354  1.0138  1.4539
   79MPD1     N 1236   1.075   1.980   1.562 -0.4142 -0.2338  0.0645
   79MPD1    H5 1237   1.032   2.063   1.600 -0.2867  0.1159 -0.5504
   79MPD1    N1 1238   0.978   1.500   1.483  0.4644 -0.1165  0.2088
   79MPD1    H6 1239   1.064   1.486   1.431  0.9773  0.7503  0.8256
   79MPD1    H7 1240   0.905   1.434   1.456 -1.1360  2.3840 -1.6490
   80TMC2    C1 1241   0.072   0.988  11.761  0.5994  0.0822 -0.3520
   80TMC2    C2 1242   0.132   0.976  11.636 -0.1788  0.0943  0.2216
   80TMC2    C3 1243   0.085   0.892  11.543  0.1812 -0.9788 -0.9258
   80TMC2    C4 1244   4.701   0.904  11.791 -0.1698 -0.0573 -0.3350
   80TMC2    C5 1245   4.666   0.805  11.701  0.1608 -0.0130  0.1848
   80TMC2    C6 1246   4.724   0.802  11.572  0.8866 -0.1219 -0.4687
   80TMC2     C 1247   0.118   1.098  11.848 -0.6461  0.2102  0.6176
   80TMC2     O 1248   0.210   1.170  11.811 -0.3378 -0.1209  0.7266
   80TMC2     H 1249   0.218   1.037  11.609 -0.0733  1.4205  3.5590
   80TMC2    H1 1250   4.643   0.920  11.882  0.6006  0.8186 -0.0024
   80TMC2    H2 1251   4.695   0.725  11.501 -2.4336  1.7316 -1.1323
   80TMC2    C7 1252   4.583   0.694  11.732 -0.1482  0.0970  0.4794
   80TMC2    C8 1253   0.149   0.898  11.414  0.3020 -0.3845  0.6560
   80TMC2    O1 1254   4.563   0.603  11.652 -0.1249 -0.0133 -0.4043
   80TMC2    O2 1255   0.198   1.004  11.379 -0.5484 -0.4702 -1.2934
   80TMC2    O5 1256   0.200   0.777  11.387  0.3830 -0.1465 -0.2348
   80TMC2    H5 1257   0.140   0.700  11.393  1.8215 -1.1917  0.6059
   81MPD2     C 1258   0.181   1.252  12.083 -0.0874  0.0379  0.3445
   81MPD2    C1 1259   0.050   1.223  12.047  0.2444  0.3427 -0.2494
   81MPD2    C2 1260   4.677   1.279  12.122  0.6103 -0.2788  0.8034
   81MPD2    C3 1261   4.700   1.393  12.205 -0.8100 -0.1400  0.0923
   81MPD2    C4 1262   0.099   1.422  12.231 -0.0707 -0.1533 -0.1103
   81MPD2    C5 1263   0.203   1.357  12.173  0.2191 -0.1352 -0.6731
   81MPD2     H 1264   4.576   1.247  12.101 -0.0550  1.2435  1.6968
   81MPD2    H1 1265   0.123   1.502  12.300  1.9093  0.6670 -1.7432
   81MPD2    H2 1266   0.267   1.195  12.051  0.8100  0.4710  1.9824
   81MPD2    H3 1267   0.305   1.361  12.208  0.8132 -1.7649 -2.1637
   81MPD2     N 1268   4.603   1.472  12.272 -0.2072  0.1998 -0.0134
   81MPD2    H5 1269   4.635   1.549  12.329 -1.7158  0.4706  0.4620
   81MPD2    N1 1270   0.021   1.124  11.948 -0.4294  0.3679  0.8514
   81MPD2    H7 1271   4.663   1.094  11.924 -0.3040  0.2043  0.5591
   82TMC2    C1 1272   2.487   0.253  11.114 -0.4506  0.1030  0.0361
   82TMC2    C2 1273   2.625   0.259  11.123 -0.2185  0.1764 -0.1982
   82TMC2    C3 1274   2.684   0.137  11.133 -0.1048  0.1914 -0.0642
   82TMC2    C4 1275   2.420   0.132  11.095  0.2977  0.4670 -0.4864
   82TMC2    C5 1276   2.488   0.016  11.085  0.3357 -0.3767  0.8375
   82TMC2    C6 1277   2.622   0.019  11.116  0.3941 -0.4866  0.7565
   82TMC2     C 1278   2.400   0.371  11.106 -0.3334 -0.0551 -0.5067
   82TMC2     O 1279   2.283   0.342  11.090  0.0949 -0.1485 -0.4778
   82TMC2     H 1280   2.678   0.349  11.151  1.4060 -0.5634 -0.8933
   82TMC2    H1 1281   2.312   0.132  11.081  0.2618  0.0300 -0.2111
   82TMC2    H2 1282   2.679   4.663  11.112 -0.6868 -1.2730  3.5159
   82TMC2    C7 1283   2.402   4.639  11.122 -0.5663  0.1472 -0.4689
   82TMC2    C8 1284   2.829   0.141  11.124  1.0413  0.7300 -0.5584
   82TMC2    O1 1285   2.460   4.552  11.186  0.1895  0.0835 -0.2500
   82TMC2    O2 1286   2.890   0.242  11.090 -1.0486 -0.2462  0.2064
   82TMC2    O5 1287   2.880   0.053  11.219 -0.1940 -0.2128  0.3604
   82TMC2    H5 1288   2.811   0.014  11.277  0.1780  0.4013  1.2242
   83MPD2     C 1289   2.284   0.863  11.006  0.1312 -0.3061 -0.8419
   83MPD2    C1 1290   2.206   0.744  11.005 -0.0899  0.1564 -0.5396
   83MPD2    C2 1291   2.265   0.626  11.051 -0.1944  0.7615  0.4611
   83MPD2    C3 1292   2.396   0.617  11.085 -0.0813  0.0100 -0.1200
   83MPD2    C4 1293   2.477   0.732  11.084  0.2419 -0.4127 -0.0563
   83MPD2    C5 1294   2.414   0.849  11.045  0.6235 -0.1471 -0.6798
   83MPD2     H 1295   2.203   0.538  11.042  1.0149  0.0379 -0.8611
   83MPD2    H1 1296   2.583   0.738  11.103 -0.3049  0.9581  2.5003
   83MPD2    H2 1297   2.251   0.960  10.971 -0.1307  0.2923  1.0311
   83MPD2    H3 1298   2.477   0.937  11.055  0.3071  0.1706 -1.5436
   83MPD2     N 1299   2.460   0.493  11.117 -0.5257  0.1652 -0.0649
   83MPD2    H5 1300   2.560   0.494  11.136 -0.2531  0.4273 -1.4873
   83MPD2    N1 1301   2.067   0.747  10.975  0.1372 -0.5826  0.7384
   83MPD2    H7 1302   2.032   0.818  10.912 -0.1341 -2.4184 -1.1795
   84TMC2    C1 1303   2.907   4.295  11.174 -0.1280 -0.3270  0.4310
   84TMC2    C2 1304   2.854   4.281  11.301  0.5147  0.3212  0.0862
   84TMC2    C3 1305   2.788   4.164  11.326 -0.3334 -0.2329 -0.3916
   84TMC2    C4 1306   2.894   4.202  11.069  0.0670  1.1613  0.1883
   84TMC2    C5 1307   2.823   4.088  11.106 -0.0669  0.0988 -1.1587
   84TMC2    C6 1308   2.767   4.075  11.225  0.3199  0.5653 -1.2370
   84TMC2     C 1309   2.979   4.421  11.153  1.1835 -0.2902  0.6784
   84TMC2     O 1310   2.992   4.498  11.249 -0.1362 -0.3885 -0.0036
   84TMC2     H 1311   2.868   4.355  11.379  0.4539  0.3766  0.0443
   84TMC2    H1 1312   2.925   4.216  10.966 -0.2655 -0.9336 -0.1886
   84TMC2    H2 1313   2.734   3.975  11.249  1.8677 -0.1482 -2.0826
   84TMC2    C7 1314   2.806   3.974  11.019  0.1403  0.7324 -0.2750
   84TMC2    C8 1315   2.764   4.126  11.464 -0.0296 -0.1888  0.5346
   84TMC2    O1 1316   2.718   3.898  11.052  0.5920 -0.1317 -0.1940
   84TMC2    O2 1317   2.849   4.151  11.550  0.2971 -0.5507  0.1507
   84TMC2    O5 1318   2.681   4.014  11.477 -0.7256  0.2196 -0.2602
   84TMC2    H5 1319   2.628   3.996  11.396 -2.1743 -1.0729  0.9837
   85TMC2    C1 1320   4.236   2.917  16.180  0.1411  0.5520  0.2969
   85TMC2    C2 1321   4.185   2.863  16.066  0.8107 -0.7676 -0.2514
   85TMC2    C3 1322   4.197   2.938  15.950 -0.0726 -0.3121 -0.4540
   85TMC2    C4 1323   4.305   3.038  16.184  0.1838  0.3426 -0.4738
   85TMC2    C5 1324   4.322   3.100  16.062  0.1510  0.2834  0.1395
   85TMC2    C6 1325   4.266   3.056  15.944 -0.8074  1.1671  0.4082
   85TMC2     C 1326   4.234   2.845  16.306  0.1218  0.6329  0.1715
   85TMC2     O 1327   4.260   2.910  16.406  0.0159  0.2305  0.5884
   85TMC2     H 1328   4.112   2.783  16.073  1.9883 -1.7250  1.0062
   85TMC2    H1 1329   4.355   3.071  16.274 -0.6824 -0.9361  0.4787
   85TMC2    H2 1330   4.301   3.092  15.848 -1.6252 -0.8014 -0.6381
   85TMC2    C7 1331   4.375   3.230  16.064 -0.3674  0.2431 -0.2209
   85TMC2    C8 1332   4.138   2.893  15.828  0.1218 -0.0950 -0.7199
   85TMC2    O1 1333   4.416   3.266  16.174  0.6237 -0.5484 -0.0305
   85TMC2    O2 1334   4.182   2.931  15.719 -0.2131 -1.0850 -0.1472
   85TMC2    O5 1335   4.019   2.849  15.858 -0.1299  0.0664 -1.0142
   85TMC2    H5 1336   4.005   2.832  15.953 -0.2475  2.4752 -0.6166
   86MPD2     C 1337   4.116   2.429  16.594 -0.3936  0.4029  0.0220
   86MPD2    C1 1338   4.058   2.421  16.465  0.7945  0.5505 -0.0322
   86MPD2    C2 1339   4.095   2.508  16.373  0.2003 -0.4994 -0.0854
   86MPD2    C3 1340   4.166   2.624  16.399  0.1920  0.7232 -0.4056
   86MPD2    C4 1341   4.206   2.641  16.533 -0.1524  0.9643  0.1306
   86MPD2    C5 1342   4.188   2.539  16.630  0.3270  0.1193 -0.0349
   86MPD2     H 1343   4.055   2.489  16.274  1.0386  0.2531 -0.5677
   86MPD2    H1 1344   4.260   2.730  16.562  0.4183  0.9643 -0.9349
   86MPD2    H2 1345   4.098   2.357  16.673 -0.5611 -0.1931 -0.5567
   86MPD2    H3 1346   4.226   2.551  16.731  0.2390  0.0646  0.0044
   86MPD2     N 1347   4.190   2.714  16.290  0.0108  0.2879  0.3798
   86MPD2    H5 1348   4.160   2.681  16.199  0.9470 -2.9694  1.2697
   86MPD2    N1 1349   3.970   2.317  16.423 -0.7292  0.0806  0.0962
   86MPD2    H7 1350   3.938   2.312  16.327 -0.2184 -1.4219 -0.0090
   87TMC2    C1 1351   2.277   1.242   0.871 -0.1878  0.3793 -0.5555
   87TMC2    C2 1352   2.404   1.281   0.871 -0.3754 -0.0721  0.5171
   87TMC2    C3 1353   2.435   1.366   0.972  0.9387 -0.1253 -0.1442
   87TMC2    C4 1354   2.181   1.292   0.953 -0.0251 -0.6143  0.0517
   87TMC2    C5 1355   2.215   1.385   1.046 -0.4257  0.1646  0.7300
   87TMC2    C6 1356   2.354   1.419   1.067  0.2688 -0.5014 -0.0381
   87TMC2     C 1357   2.240   1.162   0.761 -1.1794  0.0420  0.7315
   87TMC2     O 1358   2.140   1.094   0.771 -0.0118 -0.1194 -0.2512
   87TMC2     H 1359   2.488   1.252   0.810  0.2693  1.1639  0.8249
   87TMC2    H1 1360   2.082   1.248   0.955  1.2140 -3.4463 -0.7566
   87TMC2    H2 1361   2.392   1.471   1.154 -0.2637  1.0798 -0.7556
   87TMC2    C7 1362   2.127   1.447   1.143 -0.1816  0.2068 -0.1994
   87TMC2    C8 1363   2.554   1.436   0.948  0.2532  0.1938  0.5809
   87TMC2    O1 1364   2.173   1.531   1.217 -0.2802  0.2056  0.2054
   87TMC2    O2 1365   2.668   1.392   0.948  0.0786 -0.6678 -0.0157
   87TMC2    O5 1366   2.517   1.504   0.839 -0.3597  0.1149 -0.2022
   87TMC2    H5 1367   2.423   1.527   0.826 -0.2931  0.7054  0.3447
   88MPD2     C 1368   1.764   1.442   1.161 -0.1862  0.3362  0.1003
   88MPD2    C1 1369   1.885   1.501   1.181  0.9986 -0.1197  0.4163
   88MPD2    C2 1370   1.902   1.608   1.268  0.5101 -0.0090  0.0287
   88MPD2    C3 1371   1.789   1.665   1.328  0.0914  0.1606  0.1790
   88MPD2    C4 1372   1.663   1.607   1.295 -0.4628  0.6041  0.0071
   88MPD2    C5 1373   1.653   1.489   1.216  0.7277 -0.1820 -0.0996
   88MPD2     H 1374   1.996   1.662   1.280 -0.5148  2.0667 -1.2245
   88MPD2    H1 1375   1.568   1.649   1.328 -1.6021 -2.6117  0.8285
   88MPD2    H2 1376   1.770   1.360   1.091 -2.2948  1.8092 -1.8169
   88MPD2    H3 1377   1.559   1.438   1.201 -0.0353  0.4627  2.5111
   88MPD2     N 1378   1.787   1.774   1.413  0.3194 -0.0695  0.1282
   88MPD2    H5 1379   1.698   1.810   1.444 -0.4746 -1.0630 -0.9888
   88MPD2    N1 1380   1.993   1.440   1.110  0.2596 -0.0041 -0.0828
   88MPD2    H7 1381   1.963   1.371   1.042 -0.3064 -0.9884  1.1549
   89TMC2    C1 1382   2.807   4.027   1.407 -0.0028  0.1318 -0.2582
   89TMC2    C2 1383   2.908   3.970   1.472 -0.2222  0.4206 -0.1536
   89TMC2    C3 1384   3.030   3.980   1.415  0.5369  0.2245 -0.0691
   89TMC2    C4 1385   2.815   4.091   1.285  0.6847  0.1339 -0.0881
   89TMC2    C5 1386   2.938   4.078   1.226 -1.1144  0.6575 -0.1050
   89TMC2    C6 1387   3.042   4.031   1.291  0.0688  0.3177 -0.1928
   89TMC2     C 1388   2.689   4.046   1.481 -0.3072  0.0695  0.0113
   89TMC2     O 1389   2.623   4.147   1.454 -0.3332  0.2115  0.2346
   89TMC2     H 1390   2.900   3.924   1.570  1.3831  0.6572  0.0933
   89TMC2    H1 1391   2.730   4.133   1.232 -0.7673 -2.3307  0.2772
   89TMC2    H2 1392   3.140   4.030   1.245 -0.5210 -0.1198 -1.4353
   89TMC2    C7 1393   2.951   4.126   1.098 -0.7268  0.4813  0.7465
   89TMC2    C8 1394   3.152   3.942   1.480 -0.2137  0.2622  0.0880
   89TMC2    O1 1395   3.031   4.071   1.021 -0.0494  0.1749  0.3507
   89TMC2    O2 1396   3.163   3.867   1.573  0.4427  0.1974  0.4223
   89TMC2    O5 1397   3.236   4.054   1.487 -0.0826  0.1736  0.1618
   89TMC2    H5 1398   3.195   4.123   1.431 -0.1137 -1.7722 -2.2261
   90MPD2     C 1399   2.319   3.905   1.813  0.3534  0.3998 -0.2037
   90MPD2    C1 1400   2.375   3.790   1.755  0.2963  0.8992 -1.0448
   90MPD2    C2 1401   2.482   3.801   1.668  0.2608  0.2104 -0.0538
   90MPD2    C3 1402   2.535   3.922   1.630  0.8096 -0.0606 -0.3758
   90MPD2    C4 1403   2.488   4.035   1.697 -0.5475  0.6756  0.0447
   90MPD2    C5 1404   2.380   4.023   1.779 -0.5047 -0.3974  0.0076
   90MPD2     H 1405   2.532   3.711   1.634 -0.2877 -0.1333  0.0484
   90MPD2    H1 1406   2.535   4.131   1.682 -0.1455  0.3779 -0.6201
   90MPD2    H2 1407   2.240   3.895   1.887 -0.5329 -1.6579 -1.4215
   90MPD2    H3 1408   2.344   4.116   1.823  2.5172  0.6623  0.2094
   90MPD2     N 1409   2.656   3.935   1.555  0.4863 -0.3340 -0.3359
   90MPD2    H5 1410   2.718   3.855   1.560 -0.2918 -0.8119  1.7367
   90MPD2    N1 1411   2.326   3.666   1.799 -0.0631  0.1144  0.1114
   90MPD2    H7 1412   2.371   3.582   1.763 -0.0449  0.4072 -0.5504
   91TMC2    C1 1413   4.087   3.860  17.036  0.4389  0.4114  0.4902
   91TMC2    C2 1414   4.163   3.952  16.967 -0.1668 -0.0929  0.2623
   91TMC2    C3 1415   4.153   3.960  16.832 -0.3297 -0.2650 -0.4536
   91TMC2    C4 1416   3.989   3.802  16.962  0.2390  0.0043 -0.5732
   91TMC2    C5 1417   3.974   3.822  16.824 -0.2688 -0.3908  0.5068
   91TMC2    C6 1418   4.063   3.890  16.761 -0.5984 -0.1189  0.5723
   91TMC2     C 1419   4.129   3.805  17.162  0.2416 -0.6381  0.7982
   91TMC2     O 1420   4.040   3.770  17.233 -0.3176  0.1196  0.0928
   91TMC2     H 1421   4.245   3.997  17.022  0.9969 -0.2487 -1.3524
   91TMC2    H1 1422   3.924   3.729  17.010  1.5543  0.2069  1.5396
   91TMC2    H2 1423   4.057   3.907  16.654 -0.7817  0.1263  0.6235
   91TMC2    C7 1424   3.860   3.762  16.762  0.3266 -0.1696 -0.2244
   91TMC2    C8 1425   4.236   4.047  16.766  0.2898  0.4264 -0.6319
   91TMC2    O1 1426   3.780   3.714  16.842  0.0924  0.0514 -0.5779
   91TMC2    O2 1427   4.289   4.022  16.658 -0.6672 -0.3409 -0.1253
   91TMC2    O5 1428   4.203   4.167  16.798 -0.1305 -0.2812 -0.5936
   91TMC2    H5 1429   4.138   4.184  16.869  0.6279  3.6787 -0.8276
   92MPD2     C 1430   4.268   3.680  17.402 -0.0606 -0.3691  0.4898
   92MPD2    C1 1431   4.335   3.725  17.287 -0.0335  0.1203  0.4497
   92MPD2    C2 1432   4.476   3.718  17.275  0.1847 -0.5091  0.3791
   92MPD2    C3 1433   4.548   3.661  17.385 -0.0317 -0.6614 -0.3005
   92MPD2    C4 1434   4.476   3.622  17.496  0.4869  0.3968 -0.6050
   92MPD2    C5 1435   4.342   3.632  17.504  0.0139  0.5378 -0.8038
   92MPD2     H 1436   4.539   3.764  17.200 -0.7408 -0.0140 -0.1019
   92MPD2    H1 1437   4.522   3.581  17.585  1.4940 -0.8761 -1.7147
   92MPD2    H2 1438   4.160   3.681  17.409 -0.1988  0.1088 -1.4783
   92MPD2    H3 1439   4.290   3.599  17.593  0.1859  0.3038 -0.7905
   92MPD2     N 1440   4.684   3.656  17.372 -0.6190  0.4531 -0.5220
   92MPD2    H5 1441   4.732   3.685  17.287 -0.4505 -2.4523 -1.4085
   92MPD2    N1 1442   4.266   3.786  17.178  0.1065  0.6405  0.1777
   92MPD2    H7 1443   4.321   3.792  17.093 -0.9305 -0.0456 -0.5565
   93TMC2    C1 1444   1.497   3.541  13.889  0.0436  0.1439 -0.5307
   93TMC2    C2 1445   1.520   3.414  13.941 -0.3375  0.1010  0.7034
   93TMC2    C3 1446   1.643   3.359  13.926 -0.2689  0.4465 -0.4110
   93TMC2    C4 1447   1.608   3.603  13.831 -0.1381 -0.2121  0.6798
   93TMC2    C5 1448   1.735   3.549  13.842  0.2317 -0.2201 -0.1446
   93TMC2    C6 1449   1.761   3.425  13.898 -0.2753 -0.1701  0.7744
   93TMC2     C 1450   1.380   3.626  13.924  0.6060 -0.1707 -0.2340
   93TMC2     O 1451   1.389   3.744  13.891 -0.1254  0.5871  0.2607
   93TMC2     H 1452   1.439   3.351  13.974 -0.4982 -0.0108  0.0995
   93TMC2    H1 1453   1.601   3.705  13.794 -0.6696  0.3841  2.4280
   93TMC2    H2 1454   1.860   3.384  13.911  1.0653  2.6036 -0.7546
   93TMC2    C7 1455   1.839   3.589  13.742  0.5688 -0.5729 -0.1969
   93TMC2    C8 1456   1.670   3.228  13.988  0.1052  0.2859  0.7775
   93TMC2    O1 1457   1.955   3.561  13.760 -0.4687 -0.3509  0.2090
   93TMC2    O2 1458   1.774   3.169  13.965 -0.2897 -0.1210 -0.0776
   93TMC2    O5 1459   1.629   3.257  14.109  0.1170 -0.0086  0.5134
   93TMC2    H5 1460   1.558   3.324  14.101  0.2719 -0.2349 -2.9925
   94MPD2     C 1461   1.149   3.754  14.054  0.3489  0.1700 -0.1237
   94MPD2    C1 1462   1.156   3.621  14.014 -0.1285 -0.5378 -0.0362
   94MPD2    C2 1463   1.034   3.549  14.025  0.6033  0.2228 -0.4499
   94MPD2    C3 1464   0.912   3.604  14.063  1.2126 -0.5266 -0.2397
   94MPD2    C4 1465   0.916   3.731  14.107 -0.5236  0.3263 -0.4201
   94MPD2    C5 1466   1.031   3.805  14.097 -0.2163 -0.1415 -0.4930
   94MPD2     H 1467   1.046   3.447  13.993 -1.7502 -1.3395  3.6680
   94MPD2    H1 1468   0.826   3.785  14.135  1.2399  1.4615  3.0379
   94MPD2    H2 1469   1.231   3.822  14.072 -1.4333  2.6278 -1.3875
   94MPD2    H3 1470   1.030   3.905  14.140  0.3684 -0.9856  1.4383
   94MPD2     N 1471   0.790   3.545  14.054 -0.0220 -0.5632  0.5265
   94MPD2    H5 1472   0.722   3.619  14.041  0.9805 -0.0398 -1.8895
   94MPD2    N1 1473   1.271   3.559  13.971 -0.0652  0.0696  0.6365
   94MPD2    H7 1474   1.273   3.457  13.975 -0.9147  0.0444  0.6153
   95TMC2    C1 1475   0.941   1.054  15.455  0.7663  0.4745  0.1727
   95TMC2    C2 1476   0.919   0.939  15.531  0.2534  0.4332 -0.1601
   95TMC2    C3 1477   0.910   0.952  15.669  0.3697 -0.3764 -0.1420
   95TMC2    C4 1478   0.950   1.173  15.521  0.2654  0.1849  0.2105
   95TMC2    C5 1479   0.943   1.175  15.660 -0.6107 -0.2048 -0.6319
   95TMC2    C6 1480   0.924   1.064  15.740  0.2480  0.2459  0.4306
   95TMC2     C 1481   1.015   1.052  15.331 -0.2406  0.9026  0.3843
   95TMC2     O 1482   1.077   1.154  15.312  1.0438 -0.1724  0.1089
   95TMC2     H 1483   0.913   0.841  15.486 -2.1834  0.2685  0.4884
   95TMC2    H1 1484   0.938   1.269  15.471  5.0537  0.7227  0.0925
   95TMC2    H2 1485   0.925   1.067  15.848  1.6170 -2.0127  0.4910
   95TMC2    C7 1486   0.986   1.295  15.736 -0.2783  0.8959  0.2277
   95TMC2    C8 1487   0.840   0.838  15.726  0.4843 -0.2648 -0.2778
   95TMC2    O1 1488   0.943   1.317  15.849 -0.5466  0.4451 -0.0256
   95TMC2    O2 1489   0.845   0.726  15.678 -0.1816 -0.2654 -0.2712
   95TMC2    O5 1490   0.764   0.864  15.833 -0.3524  0.0544  0.0213
   95TMC2    H5 1491   0.739   0.954  15.862 -1.1177  0.1300 -0.8801
   96MPD2     C 1492   1.111   0.891  14.848 -0.0861 -0.0237  0.1371
   96MPD2    C1 1493   1.138   1.012  14.909  0.3710  0.5854  0.1671
   96MPD2    C2 1494   1.114   1.023  15.047  0.3283 -0.4059 -0.0926
   96MPD2    C3 1495   1.060   0.921  15.120  0.1807 -0.4408  0.0196
   96MPD2    C4 1496   1.035   0.801  15.049 -1.0041 -0.4382  0.2373
   96MPD2    C5 1497   1.061   0.784  14.920 -0.2328  0.1774  0.5348
   96MPD2     H 1498   1.128   1.117  15.100 -2.2272 -0.1421  0.1433
   96MPD2    H1 1499   0.994   0.719  15.106 -1.6827  0.4805  1.0651
   96MPD2    H2 1500   1.130   0.881  14.741  2.1865 -0.3388  0.5739
   96MPD2    H3 1501   1.029   0.698  14.862  1.9659 -1.1088  1.2367
   96MPD2     N 1502   1.005   0.935  15.251 -0.0110 -0.0934  0.0605
   96MPD2    H5 1503   0.954   0.854  15.286 -1.3209  0.7068 -0.0067
   96MPD2    N1 1504   1.180   1.120  14.832 -0.1272 -0.4340 -0.3715
   96MPD2    H7 1505   1.173   1.106  14.732 -0.8533  1.3758 -0.5673
   97TMC2    C1 1506   3.241   4.077  17.601  0.2440  0.0863  0.0375
   97TMC2    C2 1507   3.202   4.147  17.490  0.2979  0.3066  0.7084
   97TMC2    C3 1508   3.290   4.240  17.435  0.3815  0.2944 -0.1382
   97TMC2    C4 1509   3.358   4.103  17.666  0.3499  0.4383  0.0793
   97TMC2    C5 1510   3.438   4.198  17.609 -0.5641  0.2316  0.2804
   97TMC2    C6 1511   3.413   4.262  17.491 -0.5501  0.1397  0.3079
   97TMC2     C 1512   3.136   4.021  17.684 -0.6368 -0.6291 -0.1316
   97TMC2     O 1513   3.140   4.039   0.061  0.7208  0.1011 -0.1593
   97TMC2     H 1514   3.105   4.138  17.443  0.9846 -0.1329 -0.6222
   97TMC2    H1 1515   3.371   4.053   0.017 -1.9638 -3.1891 -1.5273
   97TMC2    H2 1516   3.487   4.332  17.455 -1.2782  1.4246  1.3076
   97TMC2    C7 1517   3.579   4.183  17.637 -0.0343  0.0270  0.5218
   97TMC2    C8 1518   3.249   4.323  17.325  0.0574 -0.1923 -0.4013
   97TMC2    O1 1519   3.650   4.274  17.594 -1.0372 -0.0722  0.5560
   97TMC2    O2 1520   3.165   4.280  17.249  0.4779 -0.8199  0.2314
   97TMC2    O5 1521   3.256   4.447  17.373 -0.7844  0.0070 -0.1351
   97TMC2    H5 1522   3.309   4.454  17.456  2.6300  2.1402 -2.4672
   98MPD2     C 1523   2.736   3.724   0.067 -0.7745 -0.5446  0.7026
   98MPD2    C1 1524   2.861   3.752   0.117 -0.3010  0.1428 -0.3027
   98MPD2    C2 1525   2.952   3.825   0.051 -0.3076 -0.4942 -0.4801
   98MPD2    C3 1526   2.929   3.873  17.674 -0.4334 -0.0128  0.4464
   98MPD2    C4 1527   2.811   3.837  17.610 -0.3941 -0.1633 -0.5077
   98MPD2    C5 1528   2.715   3.764  17.681 -0.2626  0.7363  0.3006
   98MPD2     H 1529   3.041   3.864   0.098 -2.7354  2.4986  1.6560
   98MPD2    H1 1530   2.804   3.851  17.503  0.2146  0.0285 -0.5234
   98MPD2    H2 1531   2.661   3.676   0.129  1.0430 -3.0863  0.9032
   98MPD2    H3 1532   2.631   3.728  17.623  0.1609  0.5774 -0.2194
   98MPD2     N 1533   3.026   3.963  17.615  0.7391  0.9176  0.0793
   98MPD2    H5 1534   3.015   3.970  17.515 -1.6673  1.0914  0.3551
   98MPD2    N1 1535   2.896   3.706   0.248 -0.3245  0.0291 -0.1668
   98MPD2    H7 1536   2.816   3.679   0.303 -0.6394  0.6048 -0.3399
   99TMC2    C1 1537   2.465   0.776   1.474  0.4899  0.6243  0.5141
   99TMC2    C2 1538   2.553   0.822   1.571  0.1859 -0.2245  0.1472
   99TMC2    C3 1539   2.503   0.885   1.683  0.6442  0.2202 -0.8831
   99TMC2    C4 1540   2.328   0.771   1.499  0.1565 -0.2011  0.2659
   99TMC2    C5 1541   2.282   0.828   1.612 -0.5003  0.2900  0.2776
   99TMC2    C6 1542   2.370   0.900   1.696 -0.5490  0.7709 -0.0087
   99TMC2     C 1543   2.524   0.739   1.342 -0.2418 -0.1693 -0.2883
   99TMC2     O 1544   2.640   0.771   1.321  0.7779 -0.4505 -0.1534
   99TMC2     H 1545   2.658   0.814   1.547  0.8364  0.7139  2.6681
   99TMC2    H1 1546   2.259   0.742   1.420  1.6350 -1.1034 -0.7065
   99TMC2    H2 1547   2.327   0.944   1.785 -1.4695  1.9721 -1.0397
   99TMC2    C7 1548   2.144   0.882   1.613 -0.1701 -0.3318  0.9820
   99TMC2    C8 1549   2.590   0.958   1.768  0.4092  0.1208 -0.0567
   99TMC2    O1 1550   2.130   0.986   1.664 -0.2322 -0.1072  0.0905
   99TMC2    O2 1551   2.692   1.017   1.734 -0.1208 -0.5212 -0.0014
   99TMC2    O5 1552   2.541   0.928   1.887  0.1741  0.4669  0.0568
   99TMC2    H5 1553   2.465   0.868   1.873 -0.5035  0.9784  1.6261
  100MPD2     C 1554   2.590   0.643   1.077 -0.3854  0.2943  0.2903
  100MPD2    C1 1555   2.470   0.616   1.136  0.1095  0.4705 -0.4540
  100MPD2    C2 1556   2.375   0.531   1.075 -0.0067  0.3030 -0.0092
  100MPD2    C3 1557   2.408   0.473   0.951  0.7040 -0.2036  0.0986
  100MPD2    C4 1558   2.530   0.505   0.897  0.3979 -0.0665 -0.0187
  100MPD2    C5 1559   2.616   0.584   0.958  0.4419  0.2565  0.8311
  100MPD2     H 1560   2.279   0.522   1.123 -0.0908 -1.3954 -0.4740
  100MPD2    H1 1561   2.562   0.443   0.814  1.1306  0.5872 -0.2241
  100MPD2    H2 1562   2.669   0.708   1.111  0.8938 -1.5707  0.9050
  100MPD2    H3 1563   2.710   0.611   0.913  0.8872  0.7239  2.0414
  100MPD2     N 1564   2.319   0.379   0.902 -0.0391 -0.5607  0.0657
  100MPD2    H5 1565   2.245   0.353   0.966  0.4033 -0.0748  0.7814
  100MPD2    N1 1566   2.442   0.664   1.265 -0.2958 -0.0163  0.0480
  100MPD2    H7 1567   2.356   0.623   1.300  1.4115 -1.6249  2.3591
  101TMC2    C1 1568   3.309   0.992  13.328 -0.2278  0.2244  0.9182
  101TMC2    C2 1569   3.359   1.055  13.439  0.2713  0.0731  0.4668
  101TMC2    C3 1570   3.442   1.160  13.421  0.2283  0.3311  0.6869
  101TMC2    C4 1571   3.331   1.048  13.204 -1.1431 -0.7319 -0.5253
  101TMC2    C5 1572   3.424   1.145  13.193  0.3416  0.4885  0.1545
  101TMC2    C6 1573   3.488   1.200  13.301  0.2845 -0.3210  0.2691
  101TMC2     C 1574   3.208   0.893  13.351 -0.3262 -0.0686 -0.1178
  101TMC2     O 1575   3.116   0.921  13.431  0.0464  0.1236 -0.5495
  101TMC2     H 1576   3.324   1.032  13.539 -0.0182  1.4447  0.6783
  101TMC2    H1 1577   3.300   0.999  13.112  0.0782  0.1260 -1.3876
  101TMC2    H2 1578   3.563   1.277  13.288 -1.0754  1.3716  2.4132
  101TMC2    C7 1579   3.432   1.232  13.065  0.2264  1.0691  0.8522
  101TMC2    C8 1580   3.471   1.231  13.541  0.0377  0.3432 -0.0272
  101TMC2    O1 1581   3.414   1.170  12.964 -0.2083  0.1325  0.1795
  101TMC2    O2 1582   3.398   1.227  13.640 -0.2570  0.2439 -0.4574
  101TMC2    O5 1583   3.574   1.317  13.529  0.0123 -0.2337  0.3924
  101TMC2    H5 1584   3.623   1.291  13.448 -1.8684 -0.1514 -0.7771
  102MPD2     C 1585   3.195   0.574  13.176  0.1698  0.5915  0.5066
  102MPD2    C1 1586   3.163   0.671  13.265 -0.5461 -0.3049  0.1345
  102MPD2    C2 1587   3.061   0.643  13.357 -0.1439 -0.5307  0.6887
  102MPD2    C3 1588   2.985   0.533  13.341 -1.2961 -0.0693 -0.3444
  102MPD2    C4 1589   3.014   0.431  13.252  0.6131  0.3278 -0.6208
  102MPD2    C5 1590   3.126   0.456  13.168 -0.1689  0.3537 -0.1404
  102MPD2     H 1591   3.035   0.717  13.432  1.3698  0.0166  0.6728
  102MPD2    H1 1592   2.956   0.340  13.240 -1.4271  1.2709  2.0049
  102MPD2    H2 1593   3.273   0.608  13.109  0.9761 -3.9161 -0.8436
  102MPD2    H3 1594   3.147   0.383  13.091  0.9051  0.8103 -0.2719
  102MPD2     N 1595   2.879   0.520  13.437 -0.2586 -0.6713 -0.1982
  102MPD2    H5 1596   2.853   0.611  13.475  0.2718 -0.6369  0.0835
  102MPD2    N1 1597   3.242   0.785  13.274 -0.3865  0.3337 -1.0070
  102MPD2    H7 1598   3.330   0.795  13.224  0.1748  2.2195  0.3243
  103TMC2    C1 1599   1.830   1.381  12.488 -0.3804 -0.9273  0.1667
  103TMC2    C2 1600   1.970   1.368  12.482 -0.1793 -0.2961 -0.4026
  103TMC2    C3 1601   2.042   1.421  12.584  0.5164  0.5474 -0.1621
  103TMC2    C4 1602   1.775   1.445  12.597  0.3548 -0.4873  0.1536
  103TMC2    C5 1603   1.845   1.493  12.698 -0.5386 -0.3496  0.3668
  103TMC2    C6 1604   1.985   1.484  12.697  0.5938  0.0619 -0.2614
  103TMC2     C 1605   1.737   1.281  12.425 -0.3106  0.4351  0.0617
  103TMC2     O 1606   1.620   1.274  12.457 -0.0082  0.5144 -0.1463
  103TMC2     H 1607   2.022   1.334  12.393  0.4753 -0.7593  0.1617
  103TMC2    H1 1608   1.671   1.478  12.590  0.3412 -0.4261  0.6734
  103TMC2    H2 1609   2.037   1.524  12.784  1.3617  0.8779 -1.0853
  103TMC2    C7 1610   1.779   1.586  12.780 -0.6710  0.1216  0.0724
  103TMC2    C8 1611   2.182   1.424  12.552  0.7473  0.1266 -0.1893
  103TMC2    O1 1612   1.656   1.569  12.796 -0.4272  0.2674  0.3406
  103TMC2    O2 1613   2.233   1.355  12.463  0.1643  1.1037  0.2009
  103TMC2    O5 1614   2.244   1.520  12.629 -0.0034  0.3182  0.1729
  103TMC2    H5 1615   2.192   1.589  12.676  1.8918  1.3433  0.7865
  104MPD2     C 1616   1.821   0.963  12.258 -0.1220  0.4498 -0.3934
  104MPD2    C1 1617   1.740   1.070  12.287  0.4065  0.7584 -0.1070
  104MPD2    C2 1618   1.602   1.069  12.248  0.3067 -0.3343  0.2811
  104MPD2    C3 1619   1.548   0.964  12.189  0.6333 -0.5214  0.4548
  104MPD2    C4 1620   1.635   0.856  12.148  0.2830 -0.5754  0.1007
  104MPD2    C5 1621   1.765   0.847  12.196  0.6042  0.5188  0.0834
  104MPD2     H 1622   1.538   1.150  12.282 -0.7473 -0.1020 -2.2785
  104MPD2    H1 1623   1.599   0.774  12.086 -1.4526  0.6552 -0.5144
  104MPD2    H2 1624   1.926   0.956  12.281 -0.4112 -4.0024 -0.4289
  104MPD2    H3 1625   1.831   0.765  12.172  0.3261  0.9498 -2.1387
  104MPD2     N 1626   1.411   0.963  12.168  0.2550  0.5445  0.4039
  104MPD2    H5 1627   1.363   1.049  12.192 -1.4315 -0.6311  1.2700
  104MPD2    N1 1628   1.799   1.181  12.354 -0.2280 -0.3113 -0.0329
  104MPD2    H7 1629   1.900   1.185  12.348 -0.2068  1.6314  1.5389
  105TMC2    C1 1630   2.112   0.445   0.156  0.0520 -1.3287 -0.1038
  105TMC2    C2 1631   2.000   0.438   0.233 -0.0496  0.2860  0.7457
  105TMC2    C3 1632   1.969   0.548   0.309 -0.4684 -0.3001  0.2229
  105TMC2    C4 1633   2.194   0.550   0.162 -0.2892 -0.4429  0.4223
  105TMC2    C5 1634   2.156   0.666   0.232 -0.0114  0.3737 -1.0925
  105TMC2    C6 1635   2.049   0.662   0.318  0.0874  0.3393  0.4629
  105TMC2     C 1636   2.123   0.356   0.041  0.7167 -1.1525 -0.1504
  105TMC2     O 1637   2.041   0.266   0.028  0.6304 -0.2525  0.1246
  105TMC2     H 1638   1.933   0.353   0.224  1.1251 -0.3689 -1.8760
  105TMC2    H1 1639   2.290   0.555   0.113 -1.0368 -0.2417 -1.0120
  105TMC2    H2 1640   2.000   0.747   0.365  2.3771  1.3463  1.0050
  105TMC2    C7 1641   2.236   0.788   0.236  0.0575  0.6007  0.5031
  105TMC2    C8 1642   1.847   0.534   0.382  0.3288  0.0584 -0.4137
  105TMC2    O1 1643   2.312   0.805   0.143 -0.3524  0.1882  0.4770
  105TMC2    O2 1644   1.763   0.449   0.344  0.3130  0.0868  0.4582
  105TMC2    O5 1645   1.878   0.548   0.512 -0.0968 -0.0701 -1.0128
  105TMC2    H5 1646   1.955   0.606   0.530 -0.0115 -0.2988 -0.6523
  106MPD2     C 1647   2.394   0.158  17.391  0.1154 -0.2456 -0.4555
  106MPD2    C1 1648   2.426   0.294  17.404  0.3230 -1.1309  0.0350
  106MPD2    C2 1649   2.355   0.374  17.495  0.3550 -0.1619 -0.8097
  106MPD2    C3 1650   2.258   0.321  17.581 -0.6242  0.8115  0.1662
  106MPD2    C4 1651   2.234   0.185  17.568 -0.3097  0.0937 -0.1837
  106MPD2    C5 1652   2.310   0.105  17.482  0.0715 -0.1752  0.6068
  106MPD2     H 1653   2.371   0.481  17.496 -0.5662 -0.0248 -1.6716
  106MPD2    H1 1654   2.169   0.133  17.637 -0.0464  1.5129  1.1295
  106MPD2    H2 1655   2.453   0.093  17.328 -0.0507  1.1400 -2.0326
  106MPD2    H3 1656   2.270   0.005  17.473 -2.2621  0.9633 -1.7931
  106MPD2     N 1657   2.206   0.401  17.689  0.3086  0.3410 -0.0937
  106MPD2    H5 1658   2.229   0.500  17.679 -2.0978  0.8637 -0.5522
  106MPD2    N1 1659   2.519   0.360  17.315 -0.2034  0.2347 -0.1585
  106MPD2    H7 1660   2.542   0.456  17.336 -1.1380  0.4374 -0.0689
  107TMC2    C1 1661   3.460   0.299  11.377 -0.1121  0.2180 -0.7038
  107TMC2    C2 1662   3.517   0.415  11.347  0.6686  0.1119  0.9202
  107TMC2    C3 1663   3.545   0.451  11.215 -0.4868 -0.2123  0.5235
  107TMC2    C4 1664   3.418   0.214  11.279 -0.4176  0.8102  0.1604
  107TMC2    C5 1665   3.451   0.247  11.145  0.0290 -0.0461 -0.7027
  107TMC2    C6 1666   3.524   0.356  11.115  0.4346  0.4514  0.2135
  107TMC2     C 1667   3.414   0.271  11.514  0.1214  0.0266 -0.0370
  107TMC2     O 1668   3.393   0.364  11.589 -0.4593 -0.1439  0.2184
  107TMC2     H 1669   3.538   0.479  11.431  1.1996  1.6939 -0.4299
  107TMC2    H1 1670   3.346   0.137  11.305  1.8075 -2.3504 -3.0634
  107TMC2    H2 1671   3.557   0.381  11.015 -0.6222  3.2325  0.5597
  107TMC2    C7 1672   3.388   0.181  11.033  0.6472 -0.4865 -0.4030
  107TMC2    C8 1673   3.661   0.535  11.211 -0.0139  0.1267 -0.7175
  107TMC2    O1 1674   3.402   0.230  10.918  0.0862 -0.5092 -0.0660
  107TMC2    O2 1675   3.716   0.574  11.312  0.9710 -0.1676  0.4957
  107TMC2    O5 1676   3.650   0.616  11.103  0.1035 -0.0206  0.2833
  107TMC2    H5 1677   3.571   0.579  11.057 -0.2524  0.3121  0.6355
  108MPD2     C 1678   3.423   4.682  11.694 -0.5243 -0.7508  0.0173
  108MPD2    C1 1679   3.386   0.082  11.669  0.2727  0.3540  0.9076
  108MPD2    C2 1680   3.299   0.144  11.755 -0.4074  0.1078  0.9982
  108MPD2    C3 1681   3.240   0.070  11.863 -0.3536 -0.0825  0.0048
  108MPD2    C4 1682   3.291   4.681  11.893 -0.0810 -0.6371  0.2295
  108MPD2    C5 1683   3.377   4.622  11.803  0.7322  0.4542  0.0711
  108MPD2     H 1684   3.273   0.249  11.758  1.5732  0.6551 -0.7795
  108MPD2    H1 1685   3.267   4.626  11.984 -0.3836  0.0174  0.5492
  108MPD2    H2 1686   3.489   4.630  11.625 -0.9687 -1.1855 -0.0839
  108MPD2    H3 1687   3.421   4.525  11.819  1.4510  0.7730  0.0106
  108MPD2     N 1688   3.148   0.117  11.956  0.7532 -0.2011 -0.1866
  108MPD2    H5 1689   3.139   0.057  12.037 -0.7552 -0.6945 -0.7159
  108MPD2    N1 1690   3.414   0.134  11.544 -0.7589 -0.2286  0.4024
  108MPD2    H7 1691   3.449   0.077  11.468  1.5530  2.8962 -0.9099
  109TMC2    C1 1692   2.061   3.466   1.115 -0.6212 -0.5277 -0.1191
  109TMC2    C2 1693   2.010   3.595   1.104  0.9897 -0.0238  0.3171
  109TMC2    C3 1694   2.099   3.691   1.055 -0.3923 -0.7376 -0.0446
  109TMC2    C4 1695   2.188   3.432   1.066  0.9896  0.6390 -0.0161
  109TMC2    C5 1696   2.266   3.530   1.006  0.3346  0.2084 -0.0952
  109TMC2    C6 1697   2.222   3.660   0.993 -1.2453  0.7580 -0.4486
  109TMC2     C 1698   1.978   3.365   1.165 -0.1831 -0.2819  0.1921
  109TMC2     O 1699   1.864   3.396   1.191 -0.0767  0.2213  0.3727
  109TMC2     H 1700   1.922   3.631   1.156  0.7847  0.9765 -0.7288
  109TMC2    H1 1701   2.224   3.330   1.056 -0.9242 -0.3119  2.4896
  109TMC2    H2 1702   2.287   3.738   0.954  1.1672 -0.5034  0.9898
  109TMC2    C7 1703   2.408   3.512   0.990  0.0769 -0.4710 -0.3108
  109TMC2    C8 1704   2.065   3.832   1.064 -0.3676  1.0025 -0.2721
  109TMC2    O1 1705   2.455   3.606   0.935 -0.0768  0.5961 -0.1532
  109TMC2    O2 1706   2.026   3.893   1.161 -0.4818 -0.8608  0.3780
  109TMC2    O5 1707   2.087   3.885   0.945  0.0953  0.0083 -0.1604
  109TMC2    H5 1708   2.129   3.810   0.897 -2.2400 -0.4538 -1.5049
  110MPD2     C 1709   1.860   2.869   1.170  0.7650 -0.4324  0.3809
  110MPD2    C1 1710   1.998   2.885   1.201 -0.0111  0.4291 -0.0738
  110MPD2    C2 1711   2.049   3.012   1.196 -0.1266  0.6411 -0.1528
  110MPD2    C3 1712   1.973   3.121   1.175 -0.2907 -0.0695 -0.1606
  110MPD2    C4 1713   1.842   3.101   1.143  0.5688 -0.3082  0.4865
  110MPD2    C5 1714   1.783   2.976   1.142 -0.4403  0.4179  0.2741
  110MPD2     H 1715   2.148   3.022   1.238  0.8983 -1.8584 -1.9593
  110MPD2    H1 1716   1.771   3.182   1.130  1.4716  0.4350  0.2168
  110MPD2    H2 1717   1.805   2.776   1.161  0.3267 -0.1438  0.0519
  110MPD2    H3 1718   1.677   2.970   1.121 -0.0813  1.9791 -1.9683
  110MPD2     N 1719   2.038   3.245   1.180  0.2494  0.2928  0.5643
  110MPD2    H5 1720   2.139   3.244   1.170  0.2904  0.7097  0.9331
  110MPD2    N1 1721   2.078   2.778   1.251 -0.2769 -0.0563 -0.1243
  110MPD2    H7 1722   2.038   2.685   1.263  1.9935 -1.0229 -0.0235
  111TMC2    C1 1723   3.202   1.481  11.402 -0.0197  0.2502 -0.1512
  111TMC2    C2 1724   3.292   1.459  11.302  0.2754 -0.3131 -0.5440
  111TMC2    C3 1725   3.387   1.358  11.331 -0.4976  0.1369  1.0031
  111TMC2    C4 1726   3.198   1.418  11.524  0.6726  0.2545  0.4337
  111TMC2    C5 1727   3.280   1.308  11.538  0.4491 -0.1051 -0.2284
  111TMC2    C6 1728   3.370   1.274  11.441 -0.5608 -0.7535 -0.0162
  111TMC2     C 1729   3.105   1.588  11.373 -0.7097 -0.1572  0.3788
  111TMC2     O 1730   3.111   1.648  11.268  0.6969 -0.8953  0.2495
  111TMC2     H 1731   3.295   1.523  11.214  0.1477  2.2229  1.2858
  111TMC2    H1 1732   3.123   1.436  11.601  0.3588  1.1547 -0.0809
  111TMC2    H2 1733   3.454   1.210  11.465  0.6517  1.0493  0.5637
  111TMC2    C7 1734   3.319   1.288  11.672  1.4476  0.8843 -0.3572
  111TMC2    C8 1735   3.478   1.306  11.237  0.8240 -0.1961  0.2377
  111TMC2    O1 1736   3.311   1.385  11.739  0.1568  0.4894 -0.1371
  111TMC2    O2 1737   3.502   1.186  11.214 -0.6187 -0.3014 -0.0084
  111TMC2    O5 1738   3.553   1.415  11.188  0.4268  0.3501 -0.4549
  111TMC2    H5 1739   3.538   1.488  11.252 -2.9587 -0.2316 -0.5783
  112MPD2     C 1740   2.657   1.844  11.466 -0.1512  0.0553 -0.1837
  112MPD2    C1 1741   2.747   1.865  11.366  0.6914  1.2723  0.0640
  112MPD2    C2 1742   2.863   1.790  11.364  0.6185 -0.1492  0.7062
  112MPD2    C3 1743   2.893   1.688  11.456 -0.0576  0.6887  0.4137
  112MPD2    C4 1744   2.798   1.669  11.550 -0.0181 -0.3382 -0.2632
  112MPD2    C5 1745   2.683   1.744  11.558 -0.2919 -0.2945 -0.1338
  112MPD2     H 1746   2.940   1.805  11.288 -0.0900  1.3271  0.2793
  112MPD2    H1 1747   2.826   1.597  11.626  0.5919  0.2235  0.0476
  112MPD2    H2 1748   2.573   1.911  11.484 -0.7666 -0.4362 -1.2136
  112MPD2    H3 1749   2.632   1.727  11.652  2.2424  1.1479  1.4895
  112MPD2     N 1750   3.006   1.602  11.469  0.2876 -0.2642  0.5092
  112MPD2    H5 1751   3.016   1.557  11.560  2.0801 -0.6039  0.1550
  112MPD2    N1 1752   2.732   1.951  11.258 -0.6745 -0.0100 -0.3174
  112MPD2    H7 1753   2.817   1.960  11.202 -0.9831 -0.2973 -0.8306
  113TMC2    C1 1754   1.218   0.062   1.066 -0.1033 -0.7394 -0.3256
  113TMC2    C2 1755   1.098   0.119   1.039 -0.8454  0.1439 -0.2817
  113TMC2    C3 1756   0.982   0.049   1.058  0.0282  0.5509  0.2946
  113TMC2    C4 1757   1.226   4.664   1.092  0.4425 -0.1051  0.3581
  113TMC2    C5 1758   1.110   4.598   1.113  0.5303  0.3774 -0.4472
  113TMC2    C6 1759   0.983   4.653   1.091 -0.0540  0.1033  0.7191
  113TMC2     C 1760   1.334   0.144   1.037  0.1872 -0.4398  0.2038
  113TMC2     O 1761   1.303   0.263   1.036 -0.4867  0.0864 -0.0364
  113TMC2     H 1762   1.077   0.220   1.006 -0.9314 -0.1480 -1.1093
  113TMC2    H1 1763   1.321   4.617   1.118  0.2439 -0.4135  0.5207
  113TMC2    H2 1764   0.898   4.588   1.108  1.1564 -0.8202  3.1900
  113TMC2    C7 1765   1.114   4.461   1.167 -0.1393 -0.2443 -0.8924
  113TMC2    C8 1766   0.859   0.125   1.034  0.6562 -0.0860 -0.1496
  113TMC2    O1 1767   1.201   4.386   1.126 -0.0715 -0.1420 -0.3837
  113TMC2    O2 1768   0.858   0.207   0.942  0.0277  0.2504  0.5785
  113TMC2    O5 1769   0.774   0.129   1.144 -0.3296 -0.0588  0.1397
  113TMC2    H5 1770   0.768   0.040   1.185  2.9593  0.4880  1.8094
  114MPD2     C 1771   1.808   0.281   1.165 -0.2590 -0.5449  0.2133
  114MPD2    C1 1772   1.703   0.350   1.101  0.9677  0.7397 -0.4831
  114MPD2    C2 1773   1.595   0.281   1.047  0.5175  0.5333 -0.0521
  114MPD2    C3 1774   1.578   0.142   1.070 -0.1925  0.1076  0.0867
  114MPD2    C4 1775   1.675   0.080   1.143 -0.0267 -0.6357 -0.2579
  114MPD2    C5 1776   1.790   0.142   1.182 -0.0274  0.7034 -0.1738
  114MPD2     H 1777   1.525   0.343   0.992  2.0977  1.2281 -1.2872
  114MPD2    H1 1778   1.647   4.726   1.195 -1.3173  0.0032  0.1615
  114MPD2    H2 1779   1.902   0.324   1.198  0.4118  1.4884 -4.4747
  114MPD2    H3 1780   1.861   0.084   1.241 -3.6033 -4.2059 -0.7616
  114MPD2     N 1781   1.453   0.083   1.048 -0.2585 -0.3794 -0.2883
  114MPD2    H5 1782   1.454   4.719   1.066  2.7745 -0.5326 -1.2853
  114MPD2    N1 1783   1.695   0.488   1.085 -0.3966  0.0361  0.3385
  114MPD2    H7 1784   1.605   0.511   1.042 -1.6630 -0.9689  2.4678
  115TMC2    C1 1785   2.268   2.459   0.372 -0.7910  0.0728 -0.5122
  115TMC2    C2 1786   2.380   2.459   0.459 -0.0652  0.2112 -0.4559
  115TMC2    C3 1787   2.394   2.582   0.521 -0.2597 -0.6145 -0.5640
  115TMC2    C4 1788   2.174   2.551   0.361 -0.8947  0.0787  0.1737
  115TMC2    C5 1789   2.180   2.660   0.444  0.0300 -0.5847  0.3087
  115TMC2    C6 1790   2.297   2.681   0.516 -0.3372 -0.2777 -0.0457
  115TMC2     C 1791   2.224   2.337   0.300 -0.3462  0.2415  0.4268
  115TMC2     O 1792   2.123   2.342   0.229  0.8476  0.5553 -0.3492
  115TMC2     H 1793   2.443   2.371   0.472  1.8072  1.2660 -2.3123
  115TMC2    H1 1794   2.088   2.547   0.294 -0.1814 -0.7920 -0.6861
  115TMC2    H2 1795   2.307   2.772   0.575 -1.1075  1.4320 -2.5379
  115TMC2    C7 1796   2.073   2.764   0.424 -0.7019  0.1458 -0.6754
  115TMC2    C8 1797   2.489   2.572   0.632  0.3580  0.2863 -0.2271
  115TMC2    O1 1798   1.958   2.726   0.411  0.5514 -0.1377  0.1970
  115TMC2    O2 1799   2.586   2.496   0.632  0.5798 -0.0893 -0.2901
  115TMC2    O5 1800   2.415   2.594   0.740  0.0581  0.2103 -0.0577
  115TMC2    H5 1801   2.326   2.627   0.716 -0.9425 -3.4800 -1.4227
  116MPD2     C 1802   2.427   1.951   0.014  0.1579  0.0193 -0.6710
  116MPD2    C1 1803   2.318   2.030  17.733 -0.2040  0.5341  0.2549
  116MPD2    C2 1804   2.287   2.133   0.082 -0.2413 -0.2332 -0.5493
  116MPD2    C3 1805   2.357   2.144   0.202  0.5132 -0.6338 -0.0573
  116MPD2    C4 1806   2.463   2.057   0.233 -1.2433  0.1517 -0.0097
  116MPD2    C5 1807   2.496   1.969   0.138 -0.8444 -0.0298 -0.0177
  116MPD2     H 1808   2.203   2.198   0.058  0.7037  0.9917 -0.5121
  116MPD2    H1 1809   2.526   2.058   0.321 -1.5293  0.8129  0.1923
  116MPD2    H2 1810   2.449   1.864  17.697  2.8396  1.2493 -1.4773
  116MPD2    H3 1811   2.583   1.907   0.159 -0.5763 -0.1392 -1.4180
  116MPD2     N 1812   2.323   2.241   0.299 -0.3605  0.3249  0.1765
  116MPD2    H5 1813   2.389   2.245   0.376 -0.4214  0.1931  0.2349
  116MPD2    N1 1814   2.251   2.006  17.613  0.1600 -0.4872  1.0801
  116MPD2    H7 1815   2.280   1.927  17.556 -0.6662  0.8832 -1.2248
  117TMC2    C1 1816   1.040   3.527  14.419 -0.3774  0.3307 -0.5164
  117TMC2    C2 1817   1.158   3.474  14.363  0.3069 -0.2798  0.3478
  117TMC2    C3 1818   1.271   3.549  14.336  0.2929 -0.4871 -1.2635
  117TMC2    C4 1819   1.044   3.666  14.446  0.3854  0.2390  0.0952
  117TMC2    C5 1820   1.160   3.739  14.418  0.2523  0.1450 -0.0292
  117TMC2    C6 1821   1.277   3.683  14.371 -0.8495 -0.0183 -0.2447
  117TMC2     C 1822   0.931   3.435  14.443  0.6332  0.6277  0.0790
  117TMC2     O 1823   0.947   3.316  14.457  0.2818  0.4892 -0.1192
  117TMC2     H 1824   1.167   3.366  14.355 -1.2836 -0.3440 -0.5616
  117TMC2    H1 1825   0.945   3.707  14.466  0.0937 -0.7760  0.7339
  117TMC2    H2 1826   1.363   3.747  14.354 -0.5851 -0.0851  0.8663
  117TMC2    C7 1827   1.159   3.883  14.413 -0.7774 -0.6818 -0.5682
  117TMC2    C8 1828   1.391   3.481  14.312 -0.4720 -0.0495  0.2820
  117TMC2    O1 1829   1.254   3.939  14.367  0.1113  0.4253 -0.9127
  117TMC2    O2 1830   1.410   3.406  14.216  0.2510 -0.8295  0.5797
  117TMC2    O5 1831   1.491   3.545  14.379  0.1951  0.1707 -0.0189
  117TMC2    H5 1832   1.451   3.570  14.465  1.2455 -0.5398  0.6832
  118MPD2     C 1833   0.880   4.090  14.506 -0.0387 -0.2228  0.2522
  118MPD2    C1 1834   0.997   4.060  14.446 -1.0305 -0.1023  0.1437
  118MPD2    C2 1835   1.062   4.151  14.361 -0.0974  0.2163 -0.5809
  118MPD2    C3 1836   1.011   4.280  14.351  0.2402 -0.0252  0.3306
  118MPD2    C4 1837   0.897   4.307  14.419  0.3041 -0.5434  0.1041
  118MPD2    C5 1838   0.835   4.214  14.492 -0.4102  0.3900  0.5692
  118MPD2     H 1839   1.142   4.120  14.296  0.3081 -0.9028  0.4405
  118MPD2    H1 1840   0.863   4.410  14.418 -2.0496 -1.3134  1.6524
  118MPD2    H2 1841   0.822   4.018  14.563 -1.3192  0.2850 -0.4055
  118MPD2    H3 1842   0.741   4.239  14.539 -0.8671  0.3984 -0.3517
  118MPD2     N 1843   1.065   4.390  14.278  0.0659 -0.3634 -0.1250
  118MPD2    H5 1844   1.014   4.475  14.300  1.5348  0.5382 -0.1960
  118MPD2    N1 1845   1.044   3.932  14.465 -0.3624 -1.0122  0.2722
  118MPD2    H7 1846   0.994   3.876  14.534 -1.5679  1.3022  1.2988
  119TMC2    C1 1847   3.773   0.347  13.766  0.3016 -0.4048 -0.3063
  119TMC2    C2 1848   3.788   0.286  13.642  0.5908 -0.9334  0.0079
  119TMC2    C3 1849   3.700   0.186  13.617 -0.3315 -0.6417 -0.2300
  119TMC2    C4 1850   3.666   0.327  13.850  0.8836  0.0093  0.0340
  119TMC2    C5 1851   3.567   0.245  13.802 -0.5260 -0.1867 -0.0479
  119TMC2    C6 1852   3.592   0.162  13.696  0.4493  0.0658  0.2376
  119TMC2     C 1853   3.882   0.424  13.821 -0.9497 -0.2201  0.7347
  119TMC2     O 1854   3.863   0.473  13.935  0.5020  0.0766 -0.1950
  119TMC2     H 1855   3.868   0.321  13.578 -0.2037 -1.9619 -1.5511
  119TMC2    H1 1856   3.666   0.370  13.950  2.7012  2.0325 -0.8188
  119TMC2    H2 1857   3.524   0.083  13.664  0.3010  0.8853 -1.4665
  119TMC2    C7 1858   3.461   0.193  13.886 -0.4328  0.4259  0.1772
  119TMC2    C8 1859   3.711   0.133  13.488  0.0962  0.0306  0.3217
  119TMC2    O1 1860   3.431   0.076  13.867 -0.2837 -0.2476  0.8129
  119TMC2    O2 1861   3.733   0.206  13.391 -0.0281  0.1426  0.2295
  119TMC2    O5 1862   3.748   0.008  13.499 -0.2194  0.1122 -0.1540
  119TMC2    H5 1863   3.752   4.717  13.593 -1.9201 -0.8465 -0.3590
  120MPD2     C 1864   4.286   0.724  13.794 -1.4100 -0.0863 -0.3384
  120MPD2    C1 1865   4.168   0.748  13.861  0.0438  0.2800  0.2074
  120MPD2    C2 1866   4.070   0.651  13.856 -0.2135 -0.8389  0.3539
  120MPD2    C3 1867   4.092   0.540  13.774  0.1446 -0.8892  0.2159
  120MPD2    C4 1868   4.214   0.523  13.708 -0.8018 -0.6991 -0.4475
  120MPD2    C5 1869   4.315   0.610  13.724  0.3825 -0.1406 -0.1250
  120MPD2     H 1870   3.975   0.681  13.900 -1.6090 -1.6071 -2.1102
  120MPD2    H1 1871   4.221   0.432  13.649  2.2400 -0.5557 -0.2732
  120MPD2    H2 1872   4.360   0.804  13.799 -0.5771 -0.9524  1.2746
  120MPD2    H3 1873   4.411   0.589  13.678  0.1886 -0.0443 -0.5831
  120MPD2     N 1874   3.993   0.437  13.748 -0.9342  0.0762 -0.3835
  120MPD2    H5 1875   4.011   0.381  13.665 -1.5863 -0.8650  0.1124
  120MPD2    N1 1876   4.157   0.877  13.929 -0.4187 -0.0868  0.1999
  120MPD2    H7 1877   4.223   0.945  13.894 -0.3045 -0.2369  0.1184
  121TMC2    C1 1878   0.533   2.036  14.099 -0.7477 -0.1810 -0.4981
  121TMC2    C2 1879   0.650   1.962  14.102 -0.1022 -0.1813 -0.0928
  121TMC2    C3 1880   0.649   1.831  14.147  0.1552  0.2598  0.3992
  121TMC2    C4 1881   0.410   1.977  14.125  0.8159 -0.1537 -0.1267
  121TMC2    C5 1882   0.412   1.848  14.169 -0.1639 -0.0647 -0.2058
  121TMC2    C6 1883   0.532   1.781  14.185  0.6349 -0.1861  0.0149
  121TMC2     C 1884   0.545   2.173  14.054 -0.1318 -0.4498  0.2748
  121TMC2     O 1885   0.613   2.196  13.955 -0.0311  0.3102 -0.3317
  121TMC2     H 1886   0.744   2.005  14.069 -0.2491  1.2614  1.3709
  121TMC2    H1 1887   0.324   2.044  14.117 -0.5796 -1.8447  0.6931
  121TMC2    H2 1888   0.544   1.680  14.224  0.6643  0.0274  0.5645
  121TMC2    C7 1889   0.299   1.785  14.232  0.0859  0.0440  0.0128
  121TMC2    C8 1890   0.771   1.762  14.174  0.9418  0.3597  0.2360
  121TMC2    O1 1891   0.322   1.676  14.284  0.6167 -0.2759 -0.2482
  121TMC2    O2 1892   0.784   1.665  14.255 -0.3846  0.5395 -0.1981
  121TMC2    O5 1893   0.849   1.787  14.065  0.1828 -0.4664 -0.2663
  121TMC2    H5 1894   0.798   1.828  13.992  0.1793 -0.5637 -0.3183
  122MPD2     C 1895   0.498   2.477  14.250  0.1768  0.2179 -0.2417
  122MPD2    C1 1896   0.520   2.406  14.137  0.1018  0.7267 -0.1420
  122MPD2    C2 1897   0.563   2.471  14.021 -0.4307 -0.3504 -0.1146
  122MPD2    C3 1898   0.575   2.614  14.021  0.4084 -0.0703 -0.0380
  122MPD2    C4 1899   0.580   2.678  14.142  0.2525 -0.2446 -0.4733
  122MPD2    C5 1900   0.523   2.609  14.256 -0.8323 -0.0430  0.0764
  122MPD2     H 1901   0.568   2.422  13.925  1.6078  0.0397 -0.2154
  122MPD2    H1 1902   0.589   2.785  14.138 -1.4336 -0.0920 -0.2198
  122MPD2    H2 1903   0.458   2.430  14.339  1.0365 -0.3614 -0.1666
  122MPD2    H3 1904   0.501   2.661  14.349 -0.3005 -0.1337  0.2502
  122MPD2     N 1905   0.614   2.686  13.904 -0.0688  0.3338  0.4982
  122MPD2    H5 1906   0.642   2.783  13.917  0.3996  0.6740 -3.0239
  122MPD2    N1 1907   0.507   2.264  14.147 -0.1551 -0.3461  0.2632
  122MPD2    H7 1908   0.474   2.231  14.237  0.6123 -1.6264  0.0671
  123TMC2    C1 1909   2.175   0.718  10.114 -0.1019 -0.2558  0.0390
  123TMC2    C2 1910   2.226   0.843  10.134  0.2544 -0.0651  0.1311
  123TMC2    C3 1911   2.355   0.870  10.092 -0.0907 -0.0554  0.0927
  123TMC2    C4 1912   2.256   0.622  10.062  0.3618 -0.3191  0.6153
  123TMC2    C5 1913   2.385   0.654  10.028  0.1796  0.2828  0.3318
  123TMC2    C6 1914   2.441   0.775  10.046  0.3013 -0.2273  0.1115
  123TMC2     C 1915   2.050   0.689  10.170 -0.5356 -1.1915  0.6400
  123TMC2     O 1916   2.018   0.573  10.164 -0.2730 -0.5503 -0.1879
  123TMC2     H 1917   2.180   0.910  10.205 -0.0859 -0.9472  0.7383
  123TMC2    H1 1918   2.232   0.518  10.081 -1.8733  0.0430 -0.1545
  123TMC2    H2 1919   2.540   0.802  10.012 -0.3521  1.5315 -0.4024
  123TMC2    C7 1920   2.489   0.549  10.046 -0.1589  0.7477  0.5035
  123TMC2    C8 1921   2.390   1.009  10.062  0.3811 -0.4177 -0.1823
  123TMC2    O1 1922   2.462   0.452  10.116  0.3890  0.2767  0.1586
  123TMC2    O2 1923   2.506   1.023  10.034 -0.1327 -0.4986  0.4514
  123TMC2    O5 1924   2.282   1.054   9.999  0.2980 -0.0352  0.5054
  123TMC2    H5 1925   2.198   1.006  10.017  0.7592 -1.3117 -0.6857
  124MPD2     C 1926   1.609   0.779  10.391  0.1650  0.2778 -0.6488
  124MPD2    C1 1927   1.642   0.886  10.315  0.1682 -0.4354 -0.2361
  124MPD2    C2 1928   1.767   0.887  10.250  0.4656 -1.2091 -0.6577
  124MPD2    C3 1929   1.857   0.789  10.272  0.2953 -0.0541  1.1605
  124MPD2    C4 1930   1.820   0.680  10.354  0.9577  0.3567 -0.1655
  124MPD2    C5 1931   1.702   0.681  10.415  0.3017  0.7438  0.2265
  124MPD2     H 1932   1.791   0.960  10.174 -0.3450  0.2914  0.5198
  124MPD2    H1 1933   1.889   0.598  10.370  1.3984  1.0076  1.2179
  124MPD2    H2 1934   1.523   0.776  10.456  0.5218  1.3764 -0.1098
  124MPD2    H3 1935   1.666   0.597  10.474  0.2949  0.5404 -0.0658
  124MPD2     N 1936   1.971   0.799  10.199 -0.3902 -0.1507  0.2699
  124MPD2    H5 1937   1.975   0.883  10.143  0.6942 -0.6893 -0.4595
  124MPD2    N1 1938   1.532   0.980  10.298  0.4149  0.0981 -0.3366
  124MPD2    H7 1939   1.440   0.953  10.331 -0.1932  1.6255 -0.7429
  125TMC2    C1 1940   3.449   2.325   9.176 -0.4854 -0.0326 -0.3798
  125TMC2    C2 1941   3.348   2.315   9.091 -0.1766  0.7515  0.3396
  125TMC2    C3 1942   3.339   2.416   8.993  0.3738 -0.8196 -0.1531
  125TMC2    C4 1943   3.539   2.431   9.182  0.8990  1.0151 -1.2762
  125TMC2    C5 1944   3.529   2.529   9.088  0.1041  0.6669 -0.8408
  125TMC2    C6 1945   3.430   2.523   8.989 -0.0198 -0.0743 -0.0624
  125TMC2     C 1946   3.469   2.222   9.277 -0.2667  0.2966 -0.1009
  125TMC2     O 1947   3.568   2.219   9.350 -0.4999 -0.0666 -0.2035
  125TMC2     H 1948   3.273   2.238   9.094  2.6877 -2.0736  0.0446
  125TMC2    H1 1949   3.610   2.440   9.263  1.6900 -3.6305 -1.4687
  125TMC2    H2 1950   3.418   2.599   8.913 -1.3975 -0.4329 -0.2002
  125TMC2    C7 1951   3.643   2.614   9.054 -0.2925  0.1623 -0.9452
  125TMC2    C8 1952   3.223   2.427   8.904  0.0330  0.6059 -0.4974
  125TMC2    O1 1953   3.626   2.699   8.966  0.5449 -0.1937 -0.0006
  125TMC2    O2 1954   3.215   2.490   8.800  0.2738  0.2917  0.2432
  125TMC2    O5 1955   3.113   2.382   8.971  0.1613  0.1652 -0.2971
  125TMC2    H5 1956   3.124   2.372   9.068  0.8961 -0.0016 -0.3949
  126MPD1     C 1957   3.304   1.812   9.544 -0.2104 -0.4780  0.8094
  126MPD1    C1 1958   3.215   1.839   9.445 -0.5441  0.3795 -0.2784
  126MPD1    C2 1959   3.232   1.958   9.361  0.0982  0.1549  0.0006
  126MPD1    C3 1960   3.332   2.040   9.381 -0.7524  0.1350  0.3363
  126MPD1    C4 1961   3.410   2.015   9.495 -0.0585  0.7984 -0.1619
  126MPD1    C5 1962   3.398   1.906   9.578 -0.1197  0.0801 -0.6211
  126MPD1     H 1963   3.179   1.965   9.267  1.0694 -1.0172 -0.6333
  126MPD1    H1 1964   3.495   2.079   9.516  0.8822 -0.6490  0.4427
  126MPD1    H2 1965   3.288   1.734   9.618  0.7658 -0.5785  0.9201
  126MPD1    H3 1966   3.469   1.887   9.658 -1.1179 -2.1706 -0.2661
  126MPD1     N 1967   3.360   2.137   9.282  0.2635  0.3596  0.4248
  126MPD1    H5 1968   3.280   2.150   9.221  1.2822 -1.2136 -1.2536
  126MPD1    N1 1969   3.122   1.750   9.395  0.2214 -0.3677 -0.1740
  126MPD1    H6 1970   3.094   1.674   9.457 -2.1778  2.1836  1.8800
  126MPD1    H7 1971   3.040   1.789   9.350  1.0869  0.7114 -0.8095
  127TMC2    C1 1972   0.367   1.275  10.297 -0.3755 -0.1230  0.6297
  127TMC2    C2 1973   0.383   1.285  10.434 -0.4006 -0.3520  0.7237
  127TMC2    C3 1974   0.302   1.216  10.516 -0.0587  0.9700  0.1024
  127TMC2    C4 1975   0.267   1.196  10.240 -0.2196  0.2856  0.3286
  127TMC2    C5 1976   0.187   1.122  10.326 -0.7822  0.7941  0.3522
  127TMC2    C6 1977   0.212   1.129  10.464  0.0444  0.2123  0.0932
  127TMC2     C 1978   0.436   1.376  10.217  0.9510 -0.0048 -0.7304
  127TMC2     O 1979   0.493   1.467  10.273 -0.4273 -0.2234 -0.2500
  127TMC2     H 1980   0.475   1.326  10.475 -1.1040  1.4163  0.5560
  127TMC2    H1 1981   0.224   1.217  10.143 -1.3482 -0.0335  0.7593
  127TMC2    H2 1982   0.153   1.081  10.541  0.6355 -0.5391  0.0713
  127TMC2    C7 1983   0.050   1.098  10.280  0.1953  0.8917  0.9512
  127TMC2    C8 1984   0.336   1.220  10.657 -0.0888 -0.7676  0.2210
  127TMC2    O1 1985   0.004   1.183  10.209  0.4978  0.6330  0.8114
  127TMC2    O2 1986   0.441   1.265  10.696  0.2757 -0.3660  0.0489
  127TMC2    O5 1987   0.210   1.246  10.711 -0.5181  0.2863  0.4979
  127TMC2    H5 1988   0.136   1.230  10.649  1.5270 -0.2197 -1.8013
  128MPD2     C 1989   0.421   1.411   9.845  0.1868 -0.3420  0.3571
  128MPD2    C1 1990   0.448   1.445   9.974  0.1716  0.1374  0.1029
  128MPD2    C2 1991   0.495   1.570   9.993 -0.3966 -0.4715  0.3542
  128MPD2    C3 1992   0.513   1.663   9.895 -0.1365  0.1042 -0.4798
  128MPD2    C4 1993   0.486   1.624   9.766 -0.1088  0.1873  0.8213
  128MPD2    C5 1994   0.444   1.495   9.741  0.3682  0.1237 -1.1502
  128MPD2     H 1995   0.524   1.605  10.092 -1.1722  0.0624  0.4003
  128MPD2    H1 1996   0.507   1.690   9.683 -1.0311  0.6212  0.9299
  128MPD2    H2 1997   0.390   1.311   9.817 -2.1807  1.0052 -1.7717
  128MPD2    H3 1998   0.437   1.459   9.639 -3.1847  1.0490 -1.2370
  128MPD2     N 1999   0.564   1.796   9.926  0.2681 -0.8212 -0.2773
  128MPD2    H5 2000   0.599   1.810  10.020 -1.6231  2.1265  0.0044
  128MPD2    N1 2001   0.414   1.357  10.082  0.6091  0.0548  0.2209
  128MPD2    H7 2002   0.371   1.268  10.058 -0.9775  0.7168  0.6266
  129TMC2    C1 2003   4.374   1.730   1.622 -0.2849  0.3666  0.1294
  129TMC2    C2 2004   4.454   1.716   1.731  0.3583 -0.3446  0.8019
  129TMC2    C3 2005   4.398   1.738   1.854 -0.1467  0.0667 -0.3015
  129TMC2    C4 2006   4.244   1.772   1.630 -0.0785 -0.7322  0.0356
  129TMC2    C5 2007   4.197   1.814   1.755  0.5054  0.2016 -0.0874
  129TMC2    C6 2008   4.277   1.788   1.867  0.0517  0.2630  0.4775
  129TMC2     C 2009   4.438   1.743   1.494  0.8453 -0.7549  0.2974
  129TMC2     O 2010   4.388   1.684   1.399  0.1859 -0.2860  0.2894
  129TMC2     H 2011   4.556   1.680   1.728  0.5946  0.2446  1.8742
  129TMC2    H1 2012   4.196   1.806   1.539  0.0596 -2.1759 -0.5875
  129TMC2    H2 2013   4.231   1.806   1.963 -0.2523  1.0643  0.1828
  129TMC2    C7 2014   4.055   1.843   1.759 -0.6792 -1.1849 -0.3189
  129TMC2    C8 2015   4.459   1.679   1.974  0.3146  0.2254 -0.6988
  129TMC2    O1 2016   3.992   1.791   1.673 -0.1787  0.5968 -0.2952
  129TMC2    O2 2017   4.399   1.638   2.075 -0.0991 -0.2009  0.0692
  129TMC2    O5 2018   4.596   1.684   1.963  0.0580 -0.4030  0.4320
  129TMC2    H5 2019   4.631   1.747   1.897 -1.1976 -0.2460 -0.0910
  130MPD2     C 2020   4.613   1.842   1.263  0.1528 -0.0586  0.2126
  130MPD2    C1 2021   4.609   1.897   1.388 -0.4900 -0.0173 -0.3107
  130MPD2    C2 2022   4.683   2.006   1.416  0.9032 -0.0101 -0.8800
  130MPD2    C3 2023   0.038   2.059   1.328  0.1553 -0.0694  0.2255
  130MPD2    C4 2024   0.031   2.010   1.201 -0.6303  0.5164  0.4864
  130MPD2    C5 2025   4.682   1.913   1.169  0.2103 -0.2055 -1.2604
  130MPD2     H 2026   4.688   2.026   1.523  0.3946 -1.7478 -0.5491
  130MPD2    H1 2027   0.099   2.041   1.123  0.3871 -0.9916  0.7857
  130MPD2    H2 2028   4.567   1.747   1.237 -2.1061  1.6970 -2.2938
  130MPD2    H3 2029   4.674   1.881   1.066 -0.8686 -1.7735 -0.7037
  130MPD2     N 2030   0.126   2.158   1.374  0.0188  0.6574  0.0504
  130MPD2    H5 2031   0.115   2.193   1.469  1.8434  1.7645 -0.1577
  130MPD2    N1 2032   4.528   1.852   1.496 -0.0283 -0.1373  0.2558
  130MPD2    H7 2033   4.534   1.885   1.592 -0.4250 -0.7898  0.5005
  131TMC2    C1 2034   1.896   1.660   9.585 -0.0719  0.5201 -0.2790
  131TMC2    C2 2035   1.882   1.785   9.532  0.1558  0.0179  0.3361
  131TMC2    C3 2036   1.989   1.864   9.515  0.7401  0.0119  0.2164
  131TMC2    C4 2037   2.018   1.602   9.598 -0.2874  0.2332 -0.0245
  131TMC2    C5 2038   2.127   1.680   9.567  0.0287  0.1050  0.5676
  131TMC2    C6 2039   2.118   1.814   9.523  0.0479 -0.6580 -0.5547
  131TMC2     C 2040   1.787   1.575   9.617  0.2622 -0.4957 -0.3942
  131TMC2     O 2041   1.806   1.457   9.653  0.0790  0.2975  0.0800
  131TMC2     H 2042   1.788   1.836   9.519  1.0051  1.1107 -1.4794
  131TMC2    H1 2043   2.026   1.498   9.626  0.6881  0.8008  1.8419
  131TMC2    H2 2044   2.213   1.856   9.492 -0.2346 -0.8963 -1.7478
  131TMC2    C7 2045   2.251   1.610   9.591 -0.1392  0.0714 -0.6060
  131TMC2    C8 2046   1.956   1.987   9.449  0.4367  0.4319 -0.1674
  131TMC2    O1 2047   2.252   1.486   9.615  0.5469 -0.6029 -0.4738
  131TMC2    O2 2048   1.854   2.018   9.391 -0.1156 -0.1833  0.1943
  131TMC2    O5 2049   2.069   2.062   9.461  0.2705  0.4464  0.4490
  131TMC2    H5 2050   2.137   2.031   9.524  1.9318  0.4981 -1.2786
  132MPD2     C 2051   1.425   1.648   9.574 -0.8561 -0.6759 -0.0569
  132MPD2    C1 2052   1.534   1.574   9.607 -0.1152  0.1773 -0.4555
  132MPD2    C2 2053   1.512   1.461   9.684 -0.1592 -0.5237 -0.6261
  132MPD2    C3 2054   1.389   1.436   9.746 -0.0282 -0.3213  0.4869
  132MPD2    C4 2055   1.279   1.511   9.706 -0.5376 -0.5135  0.0483
  132MPD2    C5 2056   1.307   1.611   9.617  0.3682  0.4931 -0.5135
  132MPD2     H 2057   1.598   1.402   9.715 -0.8952 -0.2829  1.8558
  132MPD2    H1 2058   1.176   1.513   9.741  0.1294 -0.0289  1.9322
  132MPD2    H2 2059   1.436   1.735   9.510 -0.6470 -0.1349  0.7063
  132MPD2    H3 2060   1.228   1.673   9.575  1.5299  2.1072 -0.3232
  132MPD2     N 2061   1.375   1.332   9.841  0.2271  0.1526 -0.1477
  132MPD2    H5 2062   1.460   1.286   9.872  0.0007 -1.7767 -2.3585
  132MPD2    N1 2063   1.666   1.627   9.581 -0.9043 -0.5222 -0.5509
  132MPD2    H7 2064   1.671   1.720   9.541 -1.3098 -0.1682  0.2272
  133TMC2    C1 2065   1.984   2.306   9.765  0.9133 -0.3743  0.0748
  133TMC2    C2 2066   1.980   2.380   9.647  0.7842 -0.3407 -0.2851
  133TMC2    C3 2067   2.084   2.473   9.634  0.6131  0.1463 -0.1246
  133TMC2    C4 2068   2.069   2.337   9.867 -0.0853  0.6741 -0.6147
  133TMC2    C5 2069   2.148   2.451   9.853 -0.4757 -0.4770  0.6330
  133TMC2    C6 2070   2.161   2.513   9.734  0.2230 -0.4291  0.2584
  133TMC2     C 2071   1.896   2.196   9.788  0.0294  0.0108 -0.2337
  133TMC2     O 2072   1.933   2.119   9.883 -0.3231 -0.3193 -0.1577
  133TMC2     H 2073   1.908   2.362   9.567 -0.4493  1.9462  0.3221
  133TMC2    H1 2074   2.051   2.296   9.966 -0.7523  0.7509 -0.7035
  133TMC2    H2 2075   2.242   2.580   9.711 -1.7324  2.1078  0.7086
  133TMC2    C7 2076   2.263   2.448   9.939 -0.3899 -0.7006 -0.7115
  133TMC2    C8 2077   2.131   2.512   9.505 -0.4172 -0.5373 -0.7857
  133TMC2    O1 2078   2.310   2.334   9.960  0.7640 -0.3577 -0.4622
  133TMC2    O2 2079   2.247   2.548   9.483  0.0484 -0.1561  0.0400
  133TMC2    O5 2080   2.010   2.568   9.457  0.1740 -0.1730 -0.6022
  133TMC2    H5 2081   1.930   2.539   9.505  0.0753 -1.5108 -1.5635
  134MPD2     C 2082   1.558   2.152   9.690 -0.7872 -0.0105 -0.0069
  134MPD2    C1 2083   1.681   2.106   9.730  0.1805  0.3088  0.2948
  134MPD2    C2 2084   1.695   1.981   9.795 -0.2175  0.5649  0.3082
  134MPD2    C3 2085   1.585   1.907   9.819  1.1636 -1.0455 -0.2814
  134MPD2    C4 2086   1.464   1.947   9.764 -0.3894 -0.1141  0.9573
  134MPD2    C5 2087   1.448   2.070   9.701 -0.7739  0.0289  0.4195
  134MPD2     H 2088   1.786   1.951   9.845 -0.2255  2.3426  1.3977
  134MPD2    H1 2089   1.380   1.880   9.779 -0.9291  0.5260  0.7954
  134MPD2    H2 2090   1.549   2.247   9.638  2.3318  0.6680  0.6868
  134MPD2    H3 2091   1.350   2.106   9.672 -0.4619  1.9628  1.8020
  134MPD2     N 2092   1.597   1.782   9.884 -0.4089  0.4272  0.1792
  134MPD2    H5 2093   1.509   1.733   9.898 -1.7357  2.1889 -2.0354
  134MPD2    N1 2094   1.783   2.195   9.708 -0.1222 -0.0393  0.0065
  134MPD2    H7 2095   1.765   2.282   9.659  0.5971  0.7356  1.1040
  135TMC2    C1 2096   4.551   2.838   9.979 -0.0303 -0.3178 -0.1427
  135TMC2    C2 2097   4.558   2.715   9.915 -0.5356  0.0659 -0.3889
  135TMC2    C3 2098   4.462   2.625   9.950 -0.2222 -0.4165 -0.6097
  135TMC2    C4 2099   4.456   2.867  10.074 -0.8553 -0.4726  0.3083
  135TMC2    C5 2100   4.367   2.768  10.107  0.5578 -0.1947 -0.1680
  135TMC2    C6 2101   4.364   2.646  10.042 -0.3326 -0.3570 -0.2250
  135TMC2     C 2102   4.648   2.940   9.942 -0.3148 -0.2028 -0.5501
  135TMC2     O 2103   4.673   3.029  10.021  0.2797 -0.0090 -0.5068
  135TMC2     H 2104   4.637   2.684   9.847 -0.2133  1.4461 -0.6476
  135TMC2    H1 2105   4.460   2.959  10.132  1.6382 -0.7672  0.6176
  135TMC2    H2 2106   4.285   2.572  10.032 -0.8440  0.3260 -1.1522
  135TMC2    C7 2107   4.282   2.791  10.224 -1.2209  0.5212 -0.1124
  135TMC2    C8 2108   4.445   2.500   9.866 -0.5342 -0.1913 -0.6545
  135TMC2    O1 2109   4.289   2.899  10.277  0.0310 -0.2307 -0.4608
  135TMC2    O2 2110   4.393   2.394   9.905 -0.4672 -0.5976  0.5123
  135TMC2    O5 2111   4.505   2.520   9.750 -0.4139  0.1827 -0.0449
  135TMC2    H5 2112   4.529   2.613   9.728  1.4591 -0.2242  0.2944
  136MPD2     C 2113   0.156   3.067   9.796  0.1060 -0.2285 -0.0664
  136MPD2    C1 2114   0.060   2.985   9.739 -0.4989  0.0514  0.3254
  136MPD2    C2 2115   0.062   2.951   9.603  0.2499  0.3924  0.7143
  136MPD2    C3 2116   0.157   3.007   9.519 -0.7058 -0.1139 -0.1286
  136MPD2    C4 2117   0.242   3.101   9.574  0.1417  0.2429 -0.2999
  136MPD2    C5 2118   0.238   3.125   9.710 -0.6345  0.7856 -0.9430
  136MPD2     H 2119   4.722   2.881   9.572  0.2601  0.3359  0.8189
  136MPD2    H1 2120   0.312   3.153   9.509  1.0313  0.0292  0.4915
  136MPD2    H2 2121   0.150   3.093   9.901 -1.9240 -0.7637 -0.0344
  136MPD2    H3 2122   0.308   3.197   9.751  2.1232 -2.2260 -0.3700
  136MPD2     N 2123   0.186   2.956   9.392  0.1062 -0.0487 -0.1923
  136MPD2    H5 2124   0.277   2.988   9.361  0.4948 -1.2295 -0.2917
  136MPD2    N1 2125   4.693   2.915   9.815 -0.7710 -0.5002 -0.1699
  136MPD2    H7 2126   4.642   2.849   9.757 -0.2553  0.1708 -1.4022
  137TMC2    C1 2127   4.050   2.665   9.522 -0.1921 -0.2743  0.0615
  137TMC2    C2 2128   4.111   2.782   9.485  0.2722 -0.3693 -0.3642
  137TMC2    C3 2129   4.027   2.880   9.434 -0.2074  0.6031  0.9032
  137TMC2    C4 2130   3.918   2.646   9.509 -0.4477  0.2828  0.2907
  137TMC2    C5 2131   3.839   2.757   9.471 -0.5901  0.4161  0.2279
  137TMC2    C6 2132   3.891   2.878   9.425 -0.1082 -0.1293 -0.1829
  137TMC2     C 2133   4.136   2.559   9.563 -0.5951 -0.0036 -0.6329
  137TMC2     O 2134   4.227   2.584   9.643 -0.2522  0.0606 -0.7374
  137TMC2     H 2135   4.219   2.786   9.483  0.2918 -1.7374 -1.3622
  137TMC2    H1 2136   3.867   2.558   9.547  0.3970 -0.7078 -0.8305
  137TMC2    H2 2137   3.837   2.969   9.404  0.3242 -0.1185 -1.2196
  137TMC2    C7 2138   3.701   2.733   9.427 -0.3208  0.2490 -0.1949
  137TMC2    C8 2139   4.100   2.990   9.373  0.3386  0.5211 -0.0058
  137TMC2    O1 2140   3.659   2.834   9.369 -0.0091 -0.3454 -0.1795
  137TMC2    O2 2141   4.206   3.029   9.415 -0.5110 -0.0914 -0.2125
  137TMC2    O5 2142   4.028   3.036   9.262  0.0336  0.1751 -0.5167
  137TMC2    H5 2143   3.933   3.011   9.261  0.5826 -1.7115 -3.4679
  138MPD2     C 2144   4.126   2.229   9.437  0.2505 -0.6033 -0.7051
  138MPD2    C1 2145   4.168   2.325   9.526 -0.6685 -0.0961 -0.2441
  138MPD2    C2 2146   4.274   2.307   9.610 -0.3568 -0.2789 -0.0263
  138MPD2    C3 2147   4.351   2.195   9.599 -0.1093 -0.3741  0.1757
  138MPD2    C4 2148   4.309   2.097   9.502  0.2971  0.2206 -0.4470
  138MPD2    C5 2149   4.190   2.110   9.432 -0.3251 -0.8580 -0.4273
  138MPD2     H 2150   4.298   2.384   9.683 -0.3055  1.4719 -1.8801
  138MPD2    H1 2151   4.366   2.009   9.477  0.0684 -0.6255  1.9604
  138MPD2    H2 2152   4.044   2.243   9.368 -0.7212 -0.3067  0.5049
  138MPD2    H3 2153   4.163   2.034   9.360  0.1934  0.1802 -1.7172
  138MPD2     N 2154   4.464   2.189   9.686 -0.1269 -0.0769  0.1012
  138MPD2    H5 2155   4.469   2.253   9.765 -3.9989 -1.2940  1.2998
  138MPD2    N1 2156   4.092   2.442   9.517  0.0083 -0.0545 -0.0128
  138MPD2    H7 2157   4.010   2.435   9.458 -0.9487  1.6365  1.1236
  139TMC2    C1 2158   0.874   0.451  13.760  0.4786 -0.7227 -0.1929
  139TMC2    C2 2159   1.004   0.486  13.749 -0.7433 -0.3329 -0.1198
  139TMC2    C3 2160   1.034   0.612  13.799  0.2088  0.7924 -0.3593
  139TMC2    C4 2161   0.777   0.538  13.800 -0.4549 -0.9357 -0.2499
  139TMC2    C5 2162   0.811   0.659  13.854 -0.3037 -0.3080  0.7271
  139TMC2    C6 2163   0.941   0.705  13.842 -0.0861 -0.3400  0.1014
  139TMC2     C 2164   0.839   0.313  13.720  0.1253 -0.0104 -0.3203
  139TMC2     O 2165   0.925   0.235  13.678 -0.2672  0.3523  0.0782
  139TMC2     H 2166   1.082   0.420  13.711  0.2194  0.7435 -0.0021
  139TMC2    H1 2167   0.675   0.507  13.820 -0.6137 -0.8107 -0.8765
  139TMC2    H2 2168   0.959   0.805  13.880  0.5176 -0.4624  0.1334
  139TMC2    C7 2169   0.709   0.760  13.871  0.1174 -0.2325 -0.1707
  139TMC2    C8 2170   1.174   0.624  13.845 -0.2302 -0.0596  0.2711
  139TMC2    O1 2171   0.622   0.768  13.789  0.4247  0.0657 -0.0895
  139TMC2    O2 2172   1.247   0.528  13.858 -0.1244  0.4947  0.5526
  139TMC2    O5 2173   1.186   0.746  13.902  0.2456 -0.1225 -0.1164
  139TMC2    H5 2174   1.131   0.816  13.861  1.1021  0.8737  0.4217
  140MPD2     C 2175   0.525   0.143  13.807 -0.2891  0.1206 -0.7920
  140MPD2    C1 2176   0.652   0.152  13.757  0.0710 -0.7343  1.1277
  140MPD2    C2 2177   0.720   0.036  13.730 -0.4118  0.8668  0.3075
  140MPD2    C3 2178   0.664   4.643  13.741 -0.0334  0.0831 -0.1112
  140MPD2    C4 2179   0.532   4.636  13.790 -0.2454 -0.0313 -0.5148
  140MPD2    C5 2180   0.463   0.019  13.824  0.7025 -0.5178  0.3514
  140MPD2     H 2181   0.822   0.033  13.693 -0.3553 -2.0064  0.6412
  140MPD2    H1 2182   0.479   4.542  13.802  0.8901 -0.7116 -0.8789
  140MPD2    H2 2183   0.482   0.234  13.846 -0.6210 -0.4879  0.2484
  140MPD2    H3 2184   0.366   0.029  13.872 -0.1667 -0.7759 -1.3672
  140MPD2     N 2185   0.744   4.530  13.698 -0.4779  0.1355 -0.0893
  140MPD2    H5 2186   0.829   4.560  13.651  1.0268 -3.4175  0.4225
  140MPD2    N1 2187   0.704   0.281  13.755 -0.3283 -0.5338 -0.0613
  140MPD2    H7 2188   0.640   0.358  13.771  1.0457  0.4395  0.7733
  141TMC2    C1 2189   1.087   1.485  13.978  0.4110  0.9197 -0.5534
  141TMC2    C2 2190   1.031   1.365  14.012  0.1263  0.4899 -0.2222
  141TMC2    C3 2191   1.075   1.312  14.132 -0.7769  0.2418 -0.7210
  141TMC2    C4 2192   1.175   1.557  14.062  0.9187 -0.6550 -0.6409
  141TMC2    C5 2193   1.201   1.504  14.183  0.1986  0.3508 -0.5217
  141TMC2    C6 2194   1.154   1.384  14.219 -0.4591 -0.0562  0.5062
  141TMC2     C 2195   1.073   1.536  13.843 -0.8440  0.1556  0.5817
  141TMC2     O 2196   1.048   1.656  13.821 -0.0309 -0.2938  0.1840
  141TMC2     H 2197   0.953   1.315  13.955  0.6728 -1.8119  1.0561
  141TMC2    H1 2198   1.220   1.644  14.016  3.2742 -1.2799  0.4474
  141TMC2    H2 2199   1.200   1.332  14.302  0.0969 -0.5098 -0.0852
  141TMC2    C7 2200   1.247   1.591  14.287  0.1960 -0.2895 -0.5713
  141TMC2    C8 2201   1.059   1.175  14.174  0.0220 -0.3314 -1.5434
  141TMC2    O1 2202   1.301   1.543  14.387  0.1977  0.1845  0.0629
  141TMC2    O2 2203   1.026   1.146  14.287  0.4105  0.0822  0.7691
  141TMC2    O5 2204   1.015   1.099  14.070  0.0413  0.0530  0.3478
  141TMC2    H5 2205   1.043   1.121  13.978  1.4485 -1.4461  0.4125
  142TMC2    C1 2206   2.725   4.477  10.266 -0.3286 -0.0807 -0.4715
  142TMC2    C2 2207   2.816   4.470  10.367  0.5557 -0.6617  0.2176
  142TMC2    C3 2208   2.882   4.582  10.407  0.1350  0.1834 -0.8271
  142TMC2    C4 2209   2.692   4.596  10.206  0.4956 -0.3544  0.0325
  142TMC2    C5 2210   2.769   4.702  10.237  0.0765 -0.4519  0.1259
  142TMC2    C6 2211   2.861   4.701  10.339  0.1846 -0.2699 -0.4110
  142TMC2     C 2212   2.645   4.360  10.224 -0.2376  0.7113  0.0400
  142TMC2     O 2213   2.636   4.267  10.301 -0.2119  0.3156 -0.1427
  142TMC2     H 2214   2.855   4.373  10.398 -1.6806 -1.0434  1.8170
  142TMC2    H1 2215   2.605   4.613  10.143 -0.0016 -1.1346  0.5118
  142TMC2    H2 2216   2.924   0.049  10.363  2.0016 -1.9569  0.7461
  142TMC2    C7 2217   2.753   0.093  10.169  0.5995 -0.2161 -0.7567
  142TMC2    C8 2218   3.009   4.576  10.484 -0.1808  0.4913  0.0205
  142TMC2    O1 2219   2.640   0.107  10.136 -0.3314 -0.7068 -0.2941
  142TMC2    O2 2220   3.101   4.657  10.459  0.2841 -0.1186  0.0953
  142TMC2    O5 2221   3.016   4.461  10.547 -0.3292 -0.6640  0.5845
  142TMC2    H5 2222   2.934   4.419  10.581 -0.6226  0.7163  1.5934
  143MPD2     C 2223   2.290   4.155   9.920 -0.0112  0.1705  0.5188
  143MPD2    C1 2224   2.342   4.105  10.038 -0.3605  0.2946  0.0601
  143MPD2    C2 2225   2.438   4.178  10.098  0.4210  0.2885  0.4442
  143MPD2    C3 2226   2.488   4.299  10.043 -0.2706  0.3365 -0.7045
  143MPD2    C4 2227   2.440   4.340   9.929  0.4879  0.8356  0.8755
  143MPD2    C5 2228   2.333   4.278   9.880 -0.7158  0.1545 -0.4307
  143MPD2     H 2229   2.493   4.124  10.174  1.6552  1.9035  0.6812
  143MPD2    H1 2230   2.472   4.437   9.892 -0.2848  0.7407 -0.0513
  143MPD2    H2 2231   2.222   4.100   9.856  0.2261  0.5532 -0.0568
  143MPD2    H3 2232   2.300   4.325   9.788 -0.0132 -0.6368 -1.0824
  143MPD2     N 2233   2.591   4.378  10.102 -0.0733 -0.5512 -0.3547
  143MPD2    H5 2234   2.614   4.466  10.057 -0.6127  0.5542  1.5081
  143MPD2    N1 2235   2.290   3.982  10.092  0.1096  0.4389 -0.5441
  143MPD2    H7 2236   2.227   3.925  10.036  1.4004 -0.4158 -1.1387
  144TMC2    C1 2237   1.405   4.022   1.095 -0.3743 -0.5408  0.1758
  144TMC2    C2 2238   1.474   3.909   1.122 -0.4434  0.1994  0.5025
  144TMC2    C3 2239   1.581   3.926   1.204  0.2260  0.3759  0.7231
  144TMC2    C4 2240   1.421   4.143   1.162 -0.0905 -0.4971 -0.3323
  144TMC2    C5 2241   1.509   4.141   1.262 -0.6771  0.6651  0.2113
  144TMC2    C6 2242   1.597   4.035   1.281 -0.3336  0.3683  0.0969
  144TMC2     C 2243   1.350   4.029   0.967  0.0811 -0.0009  0.4080
  144TMC2     O 2244   1.359   3.935   0.886 -0.0578 -0.4194  0.2056
  144TMC2     H 2245   1.462   3.819   1.064  0.3482  0.8606 -0.6766
  144TMC2    H1 2246   1.346   4.222   1.158 -0.3438 -0.7231 -0.0850
  144TMC2    H2 2247   1.681   4.026   1.349 -0.9263  2.9864  1.1486
  144TMC2    C7 2248   1.531   4.266   1.327 -0.4523 -0.2410 -0.3889
  144TMC2    C8 2249   1.666   3.808   1.232  0.4109  0.1646  0.3434
  144TMC2    O1 2250   1.445   4.350   1.306  0.1263  0.2911 -0.2013
  144TMC2    O2 2251   1.673   3.762   1.344  0.5595  0.2087 -0.1123
  144TMC2    O5 2252   1.699   3.747   1.115  0.6414  0.4059  1.1596
  144TMC2    H5 2253   1.695   3.798   1.032  0.5733  0.5864  1.2737
  145MPD2     C 2254   1.013   4.238   0.651  0.6078  0.3224  0.1321
  145MPD2    C1 2255   1.047   4.107   0.668 -0.4063  0.4662 -0.0084
  145MPD2    C2 2256   1.142   4.087   0.761  0.6453 -0.2044  0.0686
  145MPD2    C3 2257   1.198   4.179   0.843 -0.0588  0.3074  0.2155
  145MPD2    C4 2258   1.154   4.308   0.829 -0.3822  0.2308 -0.4852
  145MPD2    C5 2259   1.053   4.341   0.737 -0.8890  0.2387  0.0126
  145MPD2     H 2260   1.178   3.988   0.783  1.5062  0.0472 -0.1862
  145MPD2    H1 2261   1.191   4.388   0.894 -0.9548 -1.0469  1.4177
  145MPD2    H2 2262   0.943   4.266   0.572 -0.2714 -0.5964  0.5799
  145MPD2    H3 2263   1.011   4.439   0.720  0.7610  1.2936  2.0256
  145MPD2     N 2264   1.291   4.152   0.943 -0.5258  0.2172 -0.4302
  145MPD2    H5 2265   1.316   4.221   1.014  1.0129  0.0101 -0.7806
  145MPD2    N1 2266   0.983   4.004   0.599 -0.5039  0.1604 -0.6612
  145MPD2    H7 2267   1.031   3.914   0.603 -1.7240 -0.5344 -1.5688
  146TMC2    C1 2268   2.801   2.840  13.123  0.1831 -0.3810  0.0422
  146TMC2    C2 2269   2.699   2.882  13.041  0.2076 -0.6262  0.7224
  146TMC2    C3 2270   2.713   2.836  12.912  0.0598 -0.6556 -0.3012
  146TMC2    C4 2271   2.904   2.752  13.087  0.2300 -0.1003 -0.6202
  146TMC2    C5 2272   2.903   2.709  12.957  0.0268 -0.3333  0.0626
  146TMC2    C6 2273   2.817   2.764  12.865 -0.7305 -0.3145  0.2602
  146TMC2     C 2274   2.772   2.871  13.266  0.2584 -0.2681  0.0414
  146TMC2     O 2275   2.680   2.949  13.283 -0.0098 -0.1652 -0.2048
  146TMC2     H 2276   2.610   2.940  13.058  0.6696  0.1123  0.6244
  146TMC2    H1 2277   2.990   2.742  13.152 -0.9866  0.6919  1.1142
  146TMC2    H2 2278   2.828   2.746  12.758 -1.6737 -1.0911  0.2943
  146TMC2    C7 2279   2.999   2.608  12.906 -0.6175  0.3959 -0.4089
  146TMC2    C8 2280   2.674   2.925  12.811 -0.7995 -0.3254 -0.1032
  146TMC2    O1 2281   3.000   2.592  12.783  0.1128 -0.3590 -0.3173
  146TMC2    O2 2282   2.698   3.047  12.821 -0.5485 -0.1662 -0.3251
  146TMC2    O5 2283   2.641   2.850  12.701 -0.1655  0.1743  0.0672
  146TMC2    H5 2284   2.605   2.761  12.723 -2.3164  0.6107 -1.6890
  147MPD2     C 2285   3.441   2.353  12.927 -0.1437 -0.3491 -0.3744
  147MPD2    C1 2286   3.392   2.354  13.050 -0.1169  0.7960 -0.4356
  147MPD2    C2 2287   3.278   2.430  13.078  0.0185 -0.1332  0.0025
  147MPD2    C3 2288   3.212   2.483  12.969  0.1513 -0.2505  0.4433
  147MPD2    C4 2289   3.268   2.479  12.840  0.3329 -0.0407 -0.1147
  147MPD2    C5 2290   3.385   2.420  12.824  0.0241 -0.3513 -0.4454
  147MPD2     H 2291   3.230   2.430  13.176 -0.3517 -0.2170 -0.1782
  147MPD2    H1 2292   3.211   2.515  12.755  1.9796 -0.8279 -1.5361
  147MPD2    H2 2293   3.522   2.289  12.894  0.6560  1.5065 -2.0064
  147MPD2    H3 2294   3.426   2.420  12.724 -0.3581  2.0773 -0.5785
  147MPD2     N 2295   3.088   2.556  13.000  0.2270 -0.0317 -0.1454
  147MPD2    H5 2296   3.046   2.564  13.092 -0.8962 -2.3322 -0.4567
  147MPD2    N1 2297   3.448   2.274  13.147  0.1142 -0.0575  0.0789
  147MPD2    H7 2298   3.512   2.204  13.109  1.9697  2.2068 -1.0167
  148TMC2    C1 2299   3.506   1.235  10.418  0.2185  0.0279 -0.2299
  148TMC2    C2 2300   3.636   1.228  10.453 -0.2875  0.0201 -0.4361
  148TMC2    C3 2301   3.699   1.106  10.442 -0.7798 -0.2159  0.3179
  148TMC2    C4 2302   3.440   1.138  10.351 -0.6215 -0.8267 -0.1990
  148TMC2    C5 2303   3.503   1.014  10.341  0.5394  0.3863  0.4743
  148TMC2    C6 2304   3.637   0.997  10.382 -0.4043 -0.1957 -0.3357
  148TMC2     C 2305   3.441   1.347  10.479 -0.1671 -1.1589  0.8149
  148TMC2     O 2306   3.493   1.440  10.533 -0.0837 -0.5297 -0.2046
  148TMC2     H 2307   3.680   1.323  10.479 -1.3954  0.1111  1.1365
  148TMC2    H1 2308   3.344   1.151  10.302 -1.6656 -0.9989  1.7874
  148TMC2    H2 2309   3.690   0.903  10.376 -0.1096 -0.0690  0.2134
  148TMC2    C7 2310   3.425   0.903  10.311  0.1923  0.2817 -0.1182
  148TMC2    C8 2311   3.837   1.124  10.439  0.2185  0.2223  0.3575
  148TMC2    O1 2312   3.305   0.923  10.318 -0.2825 -0.1293  0.4467
  148TMC2    O2 2313   3.903   1.075  10.354 -0.0565 -0.0844  0.1061
  148TMC2    O5 2314   3.873   1.177  10.560  0.3992 -0.1671 -0.3518
  148TMC2    H5 2315   3.801   1.187  10.625  0.1201 -0.2888 -0.6377
  149MPD2     C 2316   3.206   1.524  10.583  0.1779  0.4126 -0.2585
  149MPD2    C1 2317   3.202   1.390  10.544  0.5455  0.3308 -0.0514
  149MPD2    C2 2318   3.084   1.323  10.556 -0.3685  0.5493  0.7936
  149MPD2    C3 2319   2.968   1.396  10.582 -0.5047 -0.2695  0.1596
  149MPD2    C4 2320   2.976   1.522  10.621  0.3409  0.4160 -0.7798
  149MPD2    C5 2321   3.096   1.589  10.624  0.0309  0.8020 -1.0550
  149MPD2     H 2322   3.078   1.218  10.529  2.0268  1.1537 -2.0145
  149MPD2    H1 2323   2.886   1.582  10.627 -0.9230 -1.3221 -2.4699
  149MPD2    H2 2324   3.296   1.585  10.579 -0.2810  1.1419  0.7028
  149MPD2    H3 2325   3.092   1.696  10.642 -0.8766  0.8646 -1.6260
  149MPD2     N 2326   2.844   1.328  10.592  0.5476 -0.3145  0.3930
  149MPD2    H5 2327   2.781   1.377  10.654 -0.6097 -0.4522 -0.6764
  149MPD2    N1 2328   3.313   1.306  10.499 -0.0561  0.1200  0.0191
  149MPD2    H7 2329   3.288   1.211  10.473  0.0100 -0.3408  1.6220
  150TMC2    C1 2330   0.426   1.325  12.910  0.3773  0.1062  0.3071
  150TMC2    C2 2331   0.414   1.241  13.016  0.0141 -0.4481  0.0431
  150TMC2    C3 2332   0.527   1.165  13.050 -0.1480  0.3053 -0.0663
  150TMC2    C4 2333   0.540   1.328  12.829  0.3909 -0.5750 -0.2568
  150TMC2    C5 2334   0.641   1.250  12.866  0.0981 -0.0402  0.0287
  150TMC2    C6 2335   0.641   1.165  12.972  0.2292  0.3356  0.1706
  150TMC2     C 2336   0.302   1.359  12.843  0.2742 -0.4372  0.5408
  150TMC2     O 2337   0.253   1.468  12.869  0.4098 -0.5905 -0.3961
  150TMC2     H 2338   0.321   1.244  13.071  0.8439  0.6509  1.3588
  150TMC2    H1 2339   0.540   1.398  12.747  1.4697  0.9057  1.0101
  150TMC2    H2 2340   0.729   1.108  13.001 -0.3613  0.4233  2.1409
  150TMC2    C7 2341   0.735   1.210  12.755  0.0079  0.2707  0.5292
  150TMC2    C8 2342   0.499   1.046  13.124 -0.0593 -0.5499 -0.2203
  150TMC2    O1 2343   0.734   1.285  12.654  0.2997 -0.2550 -0.3644
  150TMC2    O2 2344   0.386   1.001  13.126  0.5206  0.0678  1.0472
  150TMC2    O5 2345   0.574   1.073  13.232  0.1271 -0.0517  0.7041
  150TMC2    H5 2346   0.659   1.117  13.209  0.3563 -1.0679 -0.3614
  151MPD2     C 2347   4.686   1.198  12.507  0.0806  0.7386 -0.2562
  151MPD2    C1 2348   0.021   1.090  12.548  0.4316 -0.1139 -0.4052
  151MPD2    C2 2349   0.128   1.107  12.628 -0.5631  0.0965  0.8876
  151MPD2    C3 2350   0.160   1.232  12.685  0.6456  0.0462  0.6315
  151MPD2    C4 2351   0.096   1.345  12.642  0.7813  0.2269  0.0359
  151MPD2    C5 2352   4.729   1.323  12.560  0.2837 -0.0817 -0.0498
  151MPD2     H 2353   0.186   1.024  12.666  1.0962  3.0802  4.8673
  151MPD2    H1 2354   0.113   1.447  12.675 -0.0372  0.3928 -0.0439
  151MPD2    H2 2355   4.588   1.187  12.463 -0.7964  2.8125  1.1751
  151MPD2    H3 2356   4.664   1.405  12.532 -1.9284 -1.7164  0.2522
  151MPD2     N 2357   0.261   1.239  12.780 -0.6147  0.3442  0.1505
  151MPD2    H5 2358   0.318   1.155  12.788  0.0550  0.8773  1.0572
  151MPD2    N1 2359   4.715   0.968  12.491  0.6729  0.1256 -0.1381
  151MPD2    H7 2360   4.659   0.974  12.407 -0.8866 -1.6194  0.7870
  152TMC2    C1 2361   0.258   0.092  13.020 -0.0207  0.3820  0.2521
  152TMC2    C2 2362   0.295   0.119  12.891 -0.7250  0.4803  0.5423
  152TMC2    C3 2363   0.403   0.204  12.876 -0.0457 -1.1268  1.1399
  152TMC2    C4 2364   0.329   0.129  13.128  0.1902 -0.2391 -0.1627
  152TMC2    C5 2365   0.440   0.205  13.110  0.2136  0.5489 -0.3031
  152TMC2    C6 2366   0.479   0.247  12.984 -0.4322 -0.3003  0.1541
  152TMC2     C 2367   0.113   0.089  13.039 -0.1883 -0.0310 -0.2967
  152TMC2     O 2368   0.076   0.023  13.137  0.5528 -0.3898  0.2614
  152TMC2     H 2369   0.237   0.089  12.804  1.1313  2.1475 -1.2694
  152TMC2    H1 2370   0.285   0.122  13.226  0.1281 -0.9446 -0.2388
  152TMC2    H2 2371   0.573   0.299  12.970 -1.1520  1.2070  0.9333
  152TMC2    C7 2372   0.522   0.243  13.223 -0.8216 -0.6445  0.2734
  152TMC2    C8 2373   0.478   0.169  12.757  0.1516 -0.2193  0.2421
  152TMC2    O1 2374   0.482   0.206  13.329  0.5346  0.1336  0.4310
  152TMC2    O2 2375   0.451   0.081  12.679  0.4779 -0.1448 -0.2064
  152TMC2    O5 2376   0.550   0.277  12.721 -0.2230 -0.3317 -0.1594
  152TMC2    H5 2377   0.534   0.358  12.774 -1.0355 -0.9769  0.5762
  153MPD2     C 2378   4.545   0.088  13.009 -0.5980  0.0533  0.1915
  153MPD2    C1 2379   4.640   0.165  12.939  1.0487  0.1134  0.6087
  153MPD2    C2 2380   4.590   0.278  12.875  0.1406  0.7017 -0.0807
  153MPD2    C3 2381   4.455   0.296  12.853  0.5174  0.4511 -0.8524
  153MPD2    C4 2382   4.365   0.198  12.894  0.5642  0.0503  0.0470
  153MPD2    C5 2383   4.412   0.097  12.978  0.7322 -0.0446 -0.1724
  153MPD2     H 2384   4.660   0.349  12.832  0.9165 -0.3933 -0.6322
  153MPD2    H1 2385   4.258   0.205  12.878  0.3946  2.4199  2.0495
  153MPD2    H2 2386   4.569   0.000  13.069 -3.6860 -0.8533  0.1180
  153MPD2    H3 2387   4.344   0.026  13.022  2.5436 -0.4478  1.9579
  153MPD2     N 2388   4.416   0.406  12.774 -0.5155  0.4264  0.2596
  153MPD2    H5 2389   4.492   0.473  12.766 -0.5322  0.5926  1.3890
  153MPD2    N1 2390   0.042   0.156  12.942 -0.5831  0.5108 -0.3878
  153MPD2    H7 2391   0.086   0.227  12.884 -1.8191  0.4720 -1.3747
  154TMC2    C1 2392   0.594   1.094   0.396 -0.3332  0.1045 -0.3524
  154TMC2    C2 2393   0.511   1.122   0.288 -0.0873  0.7682 -0.2006
  154TMC2    C3 2394   0.519   1.029   0.186  0.0755 -0.4218 -0.2992
  154TMC2    C4 2395   0.650   0.973   0.418 -0.3657  0.2204  0.2161
  154TMC2    C5 2396   0.651   0.885   0.322 -0.1083 -0.3261 -0.2362
  154TMC2    C6 2397   0.587   0.910   0.202  0.8623 -0.2974 -0.2325
  154TMC2     C 2398   0.578   1.170   0.522  1.1546 -0.1698  1.0301
  154TMC2     O 2399   0.647   1.141   0.619 -0.2240 -0.6654 -0.0099
  154TMC2     H 2400   0.481   1.226   0.277 -1.6262  0.6837  3.1351
  154TMC2    H1 2401   0.700   0.958   0.512 -2.4379  1.9563  1.6130
  154TMC2    H2 2402   0.591   0.843   0.117 -3.2796 -1.4410  0.4632
  154TMC2    C7 2403   0.747   0.775   0.325  0.6050  0.5966  0.1214
  154TMC2    C8 2404   0.418   1.036   0.083 -0.3597 -0.2761 -0.1358
  154TMC2    O1 2405   0.767   0.738   0.443  0.4100  0.3932 -0.5657
  154TMC2    O2 2406   0.356   0.944   0.041 -0.4969  0.6542  0.0131
  154TMC2    O5 2407   0.469   1.137   0.005  0.7706  0.1310 -0.1393
  154TMC2    H5 2408   0.550   1.178   0.041  0.6942  0.8411 -0.7844
  155MPD2     C 2409   0.336   1.422   0.645 -0.4828 -0.5187 -1.1162
  155MPD2    C1 2410   0.456   1.356   0.630  0.2446  0.1687  0.5926
  155MPD2    C2 2411   0.554   1.389   0.719  0.2347 -0.4251 -0.0294
  155MPD2    C3 2412   0.547   1.486   0.820 -0.3631 -0.3181  0.4327
  155MPD2    C4 2413   0.424   1.550   0.835  0.3726  0.1088  0.0345
  155MPD2    C5 2414   0.323   1.520   0.745 -0.0575 -0.2749 -0.4713
  155MPD2     H 2415   0.654   1.350   0.704  0.3046 -0.3324  0.1915
  155MPD2    H1 2416   0.399   1.627   0.908  2.8345  0.0686  0.9200
  155MPD2    H2 2417   0.258   1.406   0.572 -3.0207  4.1184  0.5812
  155MPD2    H3 2418   0.232   1.579   0.744  0.8415  1.0880 -2.8288
  155MPD2     N 2419   0.662   1.512   0.899  0.4890  0.5421  0.7142
  155MPD2    H5 2420   0.740   1.453   0.873  0.1747 -0.9289  3.0717
  155MPD2    N1 2421   0.477   1.266   0.526 -0.5663 -0.2455 -0.7515
  155MPD2    H7 2422   0.404   1.266   0.456 -1.1449 -0.7375 -0.1493
  156TMC2    C1 2423   0.149   2.499  11.943  0.2338 -0.4092  0.4235
  156TMC2    C2 2424   0.210   2.389  11.899 -0.3345 -0.1751  0.4669
  156TMC2    C3 2425   0.146   2.326  11.787 -0.1077  0.1533  0.5809
  156TMC2    C4 2426   0.030   2.542  11.900 -0.5021  0.3002  0.5773
  156TMC2    C5 2427   4.712   2.477  11.798 -0.2555 -0.1937 -0.4320
  156TMC2    C6 2428   0.030   2.368  11.738 -0.6108 -0.2828  0.1814
  156TMC2     C 2429   0.197   2.584  12.049  0.0339  0.1703 -1.0744
  156TMC2     O 2430   0.115   2.661  12.105 -0.2353  0.3746  0.0348
  156TMC2     H 2431   0.301   2.345  11.938 -0.8070  0.1874  1.9728
  156TMC2    H1 2432   4.721   2.636  11.931 -1.6660 -0.3722  0.9160
  156TMC2    H2 2433   4.720   2.312  11.657 -0.8079  0.3967 -0.1704
  156TMC2    C7 2434   4.596   2.526  11.734  0.6823 -0.0613 -0.3921
  156TMC2    C8 2435   0.222   2.235  11.709  0.7958  0.4157 -0.4156
  156TMC2    O1 2436   4.562   2.640  11.776  0.2224 -0.1883 -0.6444
  156TMC2    O2 2437   0.180   2.150  11.634 -0.0930  0.4110 -0.2134
  156TMC2    O5 2438   0.353   2.291  11.704  0.1417  0.5714  0.1597
  156TMC2    H5 2439   0.378   2.368  11.759  2.4815 -1.0559  1.3773
  157MPD2     C 2440   0.540   2.603  12.187  0.1490 -0.2441  0.1751
  157MPD2    C1 2441   0.404   2.632  12.182 -0.7912 -0.9546 -0.3190
  157MPD2    C2 2442   0.343   2.710  12.283 -0.5367  0.9783 -0.0751
  157MPD2    C3 2443   0.424   2.767  12.380 -0.2712 -0.2373 -0.6183
  157MPD2    C4 2444   0.562   2.761  12.365  1.0970  0.3580  1.0303
  157MPD2    C5 2445   0.618   2.672  12.276  0.2440  0.9417  0.3458
  157MPD2     H 2446   0.235   2.718  12.284 -0.5931  0.1472  0.7747
  157MPD2    H1 2447   0.631   2.820  12.424  2.4241 -0.3672  0.1828
  157MPD2    H2 2448   0.591   2.539  12.116  0.9255  0.0947  0.4255
  157MPD2    H3 2449   0.725   2.654  12.277  0.0591 -0.2684 -0.4614
  157MPD2     N 2450   0.364   2.847  12.481 -0.1013 -0.2066  0.2658
  157MPD2    H5 2451   0.264   2.839  12.494  0.0792 -1.2356  1.1038
  157MPD2    N1 2452   0.331   2.567  12.078  0.1103 -0.0925 -0.1201
  157MPD2    H7 2453   0.382   2.520  12.004 -0.4877 -0.4383 -0.3108
  158TMC2    C1 2454   0.292   1.731  13.426  0.5416  0.0860  0.2293
  158TMC2    C2 2455   0.290   1.826  13.324 -0.5733  0.2571  0.4936
  158TMC2    C3 2456   0.186   1.843  13.245 -0.2770  0.4311  0.2425
  158TMC2    C4 2457   0.185   1.645  13.447 -0.1857  0.1793  1.3552
  158TMC2    C5 2458   0.079   1.670  13.358  0.2194 -0.4829  0.0968
  158TMC2    C6 2459   0.073   1.766  13.266  0.1064 -0.1479 -0.3341
  158TMC2     C 2460   0.419   1.720  13.491 -0.3016  0.5961 -0.6921
  158TMC2     O 2461   0.513   1.785  13.448 -0.1365 -0.6361 -0.5409
  158TMC2     H 2462   0.379   1.878  13.292 -0.9811 -0.0220 -1.0817
  158TMC2    H1 2463   0.175   1.568  13.523 -0.2037 -1.9045 -0.7979
  158TMC2    H2 2464   4.716   1.775  13.211 -1.0300 -0.4570  1.5414
  158TMC2    C7 2465   4.684   1.623  13.405  0.7583  0.0925  0.1801
  158TMC2    C8 2466   0.199   1.923  13.131  0.6143 -0.2298 -0.0118
  158TMC2    O1 2467   4.589   1.701  13.384 -0.3120  0.4181 -0.0194
  158TMC2    O2 2468   0.266   2.027  13.138  0.4714 -0.0100 -0.4248
  158TMC2    O5 2469   0.223   1.820  13.049 -0.2104 -0.0208 -0.4662
  158TMC2    H5 2470   0.160   1.747  13.065 -0.9967 -0.1453 -4.2044
  159MPD2     C 2471   0.707   1.538  13.870  0.0246 -0.3448  0.1763
  159MPD2    C1 2472   0.573   1.520  13.902 -0.0410  0.0876 -0.0260
  159MPD2    C2 2473   0.479   1.561  13.814  0.7874 -0.1641  0.3605
  159MPD2    C3 2474   0.521   1.619  13.696 -0.7076  1.0702 -0.1122
  159MPD2    C4 2475   0.651   1.631  13.658  0.3820  0.3246 -0.3998
  159MPD2    C5 2476   0.743   1.603  13.753 -0.3023  0.1211 -0.4398
  159MPD2     H 2477   0.376   1.547  13.845  0.1670  1.6914 -0.8289
  159MPD2    H1 2478   0.669   1.661  13.556  2.0999  0.0361 -0.1797
  159MPD2    H2 2479   0.789   1.508  13.935  0.4497 -0.3868 -0.3730
  159MPD2    H3 2480   0.842   1.615  13.710 -0.5008 -0.2047 -0.9783
  159MPD2     N 2481   0.412   1.645  13.605 -0.1981  0.6626  0.0385
  159MPD2    H5 2482   0.327   1.600  13.636 -0.2274  0.5778 -0.1654
  159MPD2    N1 2483   0.533   1.465  14.021 -0.1982 -0.3575  0.1268
  159MPD2    H7 2484   0.600   1.452  14.096 -1.4846 -0.5505  1.2548
  160TMC2    C1 2485   4.291   4.320   1.543  0.1874 -0.0338  0.5418
  160TMC2    C2 2486   4.241   4.425   1.618 -0.2644  0.1784 -0.0179
  160TMC2    C3 2487   4.326   4.516   1.681 -0.7760 -0.0798 -0.7569
  160TMC2    C4 2488   4.425   4.311   1.524 -0.2824 -0.2766  0.0575
  160TMC2    C5 2489   4.505   4.408   1.581 -0.1920  0.4504  0.5547
  160TMC2    C6 2490   4.456   4.512   1.660 -0.0178  0.4852  0.0050
  160TMC2     C 2491   4.213   4.286   1.425  0.0244  0.5741 -1.0152
  160TMC2     O 2492   4.234   4.181   1.365  0.0265  0.3719 -0.6493
  160TMC2     H 2493   4.135   4.439   1.636  0.0564 -0.4546  2.3372
  160TMC2    H1 2494   4.460   4.233   1.456 -1.2135 -1.2146  0.6631
  160TMC2    H2 2495   4.521   4.577   1.718  0.3197 -1.1146  1.4419
  160TMC2    C7 2496   4.645   4.408   1.531  0.5158  0.5385  0.2336
  160TMC2    C8 2497   4.281   4.594   1.790 -0.2763  0.3949 -0.4831
  160TMC2    O1 2498   4.684   4.302   1.487 -0.0516 -0.1690 -0.2889
  160TMC2    O2 2499   4.355   4.610   1.887  0.2342 -0.2933  0.1057
  160TMC2    O5 2500   4.190   4.681   1.735  0.1030  0.1861 -0.4225
  160TMC2    H5 2501   4.190   4.656   1.640  0.4756 -0.4660 -0.2550
  161MPD2     C 2502   4.011   4.294   1.198  0.1449 -0.5224 -0.0069
  161MPD2    C1 2503   4.049   4.401   1.278  0.0686  0.8904  0.1013
  161MPD2    C2 2504   3.995   4.522   1.248 -0.2864  0.1654  0.0155
  161MPD2    C3 2505   3.909   4.536   1.142 -0.0572  0.1067 -0.1488
  161MPD2    C4 2506   3.872   4.427   1.057 -0.1035 -0.1689  0.0378
  161MPD2    C5 2507   3.921   4.305   1.094  0.6240 -0.1161 -0.0009
  161MPD2     H 2508   4.025   4.599   1.318  0.0197  1.4352 -1.5100
  161MPD2    H1 2509   3.807   4.447   0.972  0.5461  0.9019 -0.2150
  161MPD2    H2 2510   4.051   4.194   1.212  1.8418  0.2294  0.4418
  161MPD2    H3 2511   3.899   4.217   1.035 -0.9737 -1.2086  2.2083
  161MPD2     N 2512   3.865   4.662   1.101 -0.5347 -0.4322  0.1316
  161MPD2    H5 2513   3.830   4.669   1.006  1.2335  1.1952 -0.3995
  161MPD2    N1 2514   4.133   4.393   1.388 -0.2571 -0.3528  0.1752
  161MPD2    H7 2515   4.138   4.479   1.442 -0.3265 -0.4380  0.3160
  162TMC2    C1 2516   2.501   2.114   0.850  0.2756 -0.1804 -0.0157
  162TMC2    C2 2517   2.409   2.191   0.784 -0.2644 -0.3030  0.6785
  162TMC2    C3 2518   2.321   2.265   0.856  0.1120 -0.7438 -0.0794
  162TMC2    C4 2519   2.528   2.132   0.981  0.5584  0.0468 -0.6222
  162TMC2    C5 2520   2.447   2.216   1.046 -0.1010 -0.3790 -0.0611
  162TMC2    C6 2521   2.333   2.270   0.992  0.2820 -0.4446 -0.8246
  162TMC2     C 2522   2.583   2.016   0.771 -0.2509  0.3260  0.1748
  162TMC2     O 2523   2.578   2.029   0.649 -0.1400  0.1166  0.2695
  162TMC2     H 2524   2.411   2.206   0.676 -0.8961  0.2583  0.7427
  162TMC2    H1 2525   2.621   2.099   1.026  0.3171 -1.0640 -0.9426
  162TMC2    H2 2526   2.270   2.320   1.065  1.0576 -2.6276  1.3193
  162TMC2    C7 2527   2.473   2.247   1.185 -0.2138  0.2378 -0.4927
  162TMC2    C8 2528   2.208   2.322   0.792  0.9370 -0.1612  0.2003
  162TMC2    O1 2529   2.387   2.308   1.248 -0.4921 -0.7517  0.4209
  162TMC2    O2 2530   2.215   2.328   0.669  0.4128 -0.1026  0.2830
  162TMC2    O5 2531   2.093   2.301   0.856 -0.4310  0.0162 -0.3249
  162TMC2    H5 2532   2.103   2.299   0.954 -1.2117  1.8330 -0.2052
  163MPD2     C 2533   2.957   1.666   0.721 -0.4823 -0.1287  0.8632
  163MPD2    C1 2534   2.872   1.720   0.620  0.4601 -0.3418  0.1772
  163MPD2    C2 2535   2.787   1.820   0.660  0.4969  0.1753 -0.9435
  163MPD2    C3 2536   2.769   1.853   0.796  0.4990  0.0983 -0.4894
  163MPD2    C4 2537   2.847   1.784   0.888  0.3793 -0.5873 -0.7752
  163MPD2    C5 2538   2.938   1.688   0.853 -0.2933  0.2721 -0.3631
  163MPD2     H 2539   2.735   1.878   0.585 -1.0664  0.9879  0.7804
  163MPD2    H1 2540   2.844   1.813   0.992 -0.8312 -3.1747 -0.0984
  163MPD2    H2 2541   3.033   1.594   0.694 -0.3856  0.9148 -1.6909
  163MPD2    H3 2542   3.003   1.641   0.926 -1.4247 -2.5256 -1.1602
  163MPD2     N 2543   2.671   1.934   0.845 -0.7448 -0.2814  0.2387
  163MPD2    H5 2544   2.678   1.950   0.945  1.4431 -0.5084  0.1182
  163MPD2    N1 2545   2.900   1.696   0.488 -0.4001  0.2307 -0.2993
  163MPD2    H7 2546   2.980   1.636   0.474 -0.8788  0.1554 -2.7211
  164TMC2    C1 2547   3.507   1.285  10.827  0.7433  0.3443  0.6271
  164TMC2    C2 2548   3.554   1.414  10.809  1.0867  0.2525 -0.5191
  164TMC2    C3 2549   3.472   1.518  10.849 -0.3729  0.3402  0.4541
  164TMC2    C4 2550   3.389   1.254  10.889  0.0465  0.6038  0.4038
  164TMC2    C5 2551   3.317   1.363  10.927 -0.1311 -0.4409 -0.1779
  164TMC2    C6 2552   3.358   1.496  10.908 -0.5528 -0.3350 -0.4697
  164TMC2     C 2553   3.606   1.191  10.789 -0.0489 -0.3153  0.9141
  164TMC2     O 2554   3.715   1.227  10.747  0.5133 -0.2177 -0.3900
  164TMC2     H 2555   3.644   1.436  10.752 -0.1645  0.7874 -2.2887
  164TMC2    H1 2556   3.346   1.154  10.884 -0.9434  1.1269 -1.3117
  164TMC2    H2 2557   3.294   1.574  10.947 -0.1509 -0.1488 -0.1829
  164TMC2    C7 2558   3.194   1.359  11.002  0.6664 -0.2446 -0.3201
  164TMC2    C8 2559   3.515   1.652  10.823  0.1663 -0.2439 -0.3598
  164TMC2    O1 2560   3.107   1.443  10.988 -0.4388  0.2322 -0.4854
  164TMC2    O2 2561   3.462   1.737  10.892 -0.5374  0.0302 -0.3419
  164TMC2    O5 2562   3.543   1.654  10.694  0.4196  0.5644 -0.2331
  164TMC2    H5 2563   3.544   1.564  10.655  4.4440 -0.2618  1.8634
  165TMC2    C1 2564   4.382   3.772   2.405  0.1278 -0.1580  0.5594
  165TMC2    C2 2565   4.251   3.800   2.376 -0.1034  0.5515 -0.4111
  165TMC2    C3 2566   4.223   3.912   2.304 -0.0169 -0.0324  1.2160
  165TMC2    C4 2567   4.474   3.863   2.382  0.2732  0.0964 -0.1752
  165TMC2    C5 2568   4.442   3.975   2.314 -0.0927 -0.2986  0.9609
  165TMC2    C6 2569   4.311   4.010   2.279  0.0084  0.1589 -0.6983
  165TMC2     C 2570   4.425   3.644   2.459  0.2109 -0.3190 -0.7017
  165TMC2     O 2571   4.545   3.642   2.482  0.0015  0.0658 -0.2220
  165TMC2     H 2572   4.175   3.722   2.373 -1.3237  1.6021  2.8728
  165TMC2    H1 2573   4.575   3.840   2.413 -0.2414 -0.5280  1.0377
  165TMC2    H2 2574   4.271   4.090   2.218 -0.2312  1.7253  1.5121
  165TMC2    C7 2575   4.557   4.032   2.240 -0.6658  0.5291 -0.0319
  165TMC2    C8 2576   4.094   3.931   2.259  0.6222 -0.0199 -0.3344
  165TMC2    O1 2577   4.665   3.977   2.247 -0.1091 -0.0342 -0.4321
  165TMC2    O2 2578   4.069   3.992   2.158  0.3705  0.5829 -0.3023
  165TMC2    O5 2579   4.010   3.895   2.360  0.0381 -0.5442  0.2323
  165TMC2    H5 2580   4.044   3.866   2.448 -0.9290  0.6808  1.0049
  166MPD2     C 2581   4.442   3.129   2.369 -0.0023  0.1483  0.4984
  166MPD2    C1 2582   4.546   3.228   2.388  0.8004 -0.3647 -0.0789
  166MPD2    C2 2583   4.512   3.363   2.407 -0.4468  1.0014 -0.1111
  166MPD2    C3 2584   4.379   3.403   2.409 -0.9175  0.1483 -0.6203
  166MPD2    C4 2585   4.280   3.311   2.373  0.2509 -0.1731 -0.1039
  166MPD2    C5 2586   4.315   3.182   2.362  0.2910 -0.5103 -0.2073
  166MPD2     H 2587   4.593   3.434   2.420  1.4266 -1.0024 -0.9052
  166MPD2    H1 2588   4.176   3.339   2.362  0.0001 -0.6218  1.1252
  166MPD2    H2 2589   4.468   3.024   2.359 -0.4511  0.0385  0.5223
  166MPD2    H3 2590   4.235   3.110   2.352  0.9895 -1.0499 -1.9064
  166MPD2     N 2591   4.341   3.536   2.430 -0.3379  0.9777 -0.1754
  166MPD2    H5 2592   4.243   3.554   2.410 -1.0064 -1.7251  0.6922
  166MPD2    N1 2593   4.683   3.186   2.372 -0.1136 -0.0827  0.6202
  166MPD2    H7 2594   4.687   3.096   2.325  1.1481  0.4386 -0.2768
  167TMC2    C1 2595   2.939   1.205  13.480 -0.3898 -0.3587  0.1436
  167TMC2    C2 2596   2.944   1.210  13.616 -0.3008 -0.0638  0.4791
  167TMC2    C3 2597   2.903   1.097  13.684 -0.8203  0.6323  0.2359
  167TMC2    C4 2598   2.881   1.099  13.413  0.4404  0.3525  0.1590
  167TMC2    C5 2599   2.839   0.991  13.486  0.3166 -0.2601  0.3264
  167TMC2    C6 2600   2.850   0.991  13.623  0.1720  0.6788  0.4712
  167TMC2     C 2601   2.957   1.334  13.411 -0.5829  0.4937  0.4860
  167TMC2     O 2602   2.972   1.433  13.484 -0.1727  0.1546 -0.5476
  167TMC2     H 2603   2.964   1.301  13.672 -0.8373 -0.2587  0.9977
  167TMC2    H1 2604   2.862   1.105  13.307  0.9600 -0.7732  0.0121
  167TMC2    H2 2605   2.823   0.897  13.669  1.3385  0.9693  1.7380
  167TMC2    C7 2606   2.793   0.869  13.419  0.1586 -0.3626  0.5713
  167TMC2    C8 2607   2.915   1.104  13.826 -0.6500 -0.1131 -0.7615
  167TMC2    O1 2608   2.726   0.796  13.487 -0.2581 -0.4114 -0.1265
  167TMC2    O2 2609   2.930   1.212  13.883 -0.2024 -0.2653 -0.0854
  167TMC2    O5 2610   2.954   0.984  13.872  0.2085  0.1430 -0.0995
  167TMC2    H5 2611   2.972   0.922  13.798  0.3135 -1.2985  1.1113
  168MPD2     C 2612   2.965   1.580  13.242 -0.3445  0.2262  0.0648
  168MPD2    C1 2613   2.973   1.448  13.196  0.4442 -0.4200  0.2447
  168MPD2    C2 2614   3.019   1.429  13.067  0.4884 -0.3122 -0.2693
  168MPD2    C3 2615   3.047   1.535  12.979 -0.9090 -0.3821 -0.2434
  168MPD2    C4 2616   3.021   1.661  13.016  0.9022 -0.0189  0.0870
  168MPD2    C5 2617   2.986   1.677  13.150 -0.0032  0.0571  0.0305
  168MPD2     H 2618   3.026   1.323  13.048 -2.5170 -0.0323 -3.0035
  168MPD2    H1 2619   3.020   1.748  12.950 -0.6535  1.0788  1.5598
  168MPD2    H2 2620   2.921   1.606  13.338  0.2608 -0.3731  0.4998
  168MPD2    H3 2621   2.982   1.777  13.193 -2.9226 -0.1543  0.2073
  168MPD2     N 2622   3.096   1.500  12.850  0.0090 -0.4740 -0.1867
  168MPD2    H5 2623   3.121   1.402  12.842  2.0822 -0.0133  0.7197
  168MPD2    N1 2624   2.958   1.326  13.273 -0.2394  0.3813 -0.0796
  168MPD2    H7 2625   2.966   1.238  13.224  0.1580  0.0371  0.6085
  169MPD1     C 2626   0.850   0.275   8.962  0.4981  0.3237 -0.1763
  169MPD1    C1 2627   0.867   0.232   9.091 -0.4906  0.1601 -0.6325
  169MPD1    C2 2628   0.809   0.305   9.197  0.7443  0.0872  0.3181
  169MPD1    C3 2629   0.734   0.421   9.173 -0.0296 -0.3219  0.1772
  169MPD1    C4 2630   0.718   0.457   9.040 -0.0066 -0.4597 -0.0036
  169MPD1    C5 2631   0.771   0.392   8.938  0.3913  0.0337 -0.0055
  169MPD1     H 2632   0.825   0.269   9.298  0.4864 -0.1932  0.2590
  169MPD1    H1 2633   0.653   0.540   9.014 -1.3047 -1.9565 -1.4875
  169MPD1    H2 2634   0.880   0.214   8.877  1.2067  0.1143  0.2242
  169MPD1    H3 2635   0.756   0.428   8.837 -0.2422 -0.6289 -0.1363
  169MPD1     N 2636   0.676   0.487   9.283  0.3092 -0.2125 -0.4344
  169MPD1    H5 2637   0.681   0.438   9.372 -0.0649 -1.2113 -0.9649
  169MPD1    N1 2638   0.909   0.103   9.109 -0.1209  0.2009  0.1952
  169MPD1    H6 2639   0.966   0.063   9.035  1.4581 -1.4650  2.3309
  169MPD1    H7 2640   0.959   0.095   9.197  2.6514  0.8443 -1.3236
  170MPD1     C 2641   4.393   3.435  13.001  0.1673  0.6790  0.4803
  170MPD1    C1 2642   4.257   3.414  12.968 -0.1103  0.2169 -0.4391
  170MPD1    C2 2643   4.161   3.430  13.073  0.1057 -0.1056 -0.0535
  170MPD1    C3 2644   4.202   3.483  13.197 -0.1279 -0.1558 -0.1523
  170MPD1    C4 2645   4.335   3.504  13.227 -0.2390  0.7998  0.1617
  170MPD1    C5 2646   4.427   3.480  13.128 -0.2686  0.0134  0.5419
  170MPD1     H 2647   4.055   3.412  13.058  0.1152 -0.3244  0.1562
  170MPD1    H1 2648   4.372   3.550  13.318  0.3474 -1.5271  1.0807
  170MPD1    H2 2649   4.462   3.434  12.918  0.5800  0.4843  0.8289
  170MPD1    H3 2650   4.532   3.499  13.149 -0.6908 -0.6086  3.1945
  170MPD1     N 2651   4.108   3.485  13.299 -0.8252  0.5592  0.1769
  170MPD1    H5 2652   4.024   3.436  13.268 -0.0546  0.6216 -1.9721
  170MPD1    N1 2653   4.221   3.375  12.843  0.1483  1.1218 -0.4803
  170MPD1    H6 2654   4.300   3.331  12.795 -1.9345  0.6441 -3.4790
  170MPD1    H7 2655   4.138   3.316  12.840  2.8200 -2.6901 -0.4934
  171MPD1     C 2656   1.706   3.926  16.197 -0.8827  0.1119 -0.3529
  171MPD1    C1 2657   1.806   4.010  16.250  0.1137 -0.5014  0.2730
  171MPD1    C2 2658   1.936   4.002  16.209  0.4166  0.3918  0.0549
  171MPD1    C3 2659   1.964   3.929  16.099  0.1862 -0.0903  0.2479
  171MPD1    C4 2660   1.869   3.856  16.034 -0.2711 -0.7515  0.6078
  171MPD1    C5 2661   1.741   3.848  16.087 -0.7095  0.1400 -0.0313
  171MPD1     H 2662   2.008   4.048  16.276  2.8942 -0.9488 -1.6767
  171MPD1    H1 2663   1.892   3.794  15.947  0.5529  0.0158  0.2816
  171MPD1    H2 2664   1.612   3.922  16.250  0.3763  0.5021  1.9011
  171MPD1    H3 2665   1.667   3.783  16.043 -0.1874 -1.6073  1.6862
  171MPD1     N 2666   2.099   3.920  16.049  0.6372 -0.3883  0.3187
  171MPD1    H5 2667   2.110   3.862  15.967  2.3943  0.0770  0.2211
  171MPD1    N1 2668   1.783   4.060  16.376 -0.0198  0.3640  0.4516
  171MPD1    H6 2669   1.841   4.139  16.402 -0.3151  0.9760 -0.7531
  171MPD1    H7 2670   1.687   4.076  16.406 -0.2801 -1.4179  0.5825
  172MPD1     C 2671   1.952   4.346   1.297  0.3847  0.9425 -0.0874
  172MPD1    C1 2672   1.925   4.220   1.244  0.8250  0.6139 -0.0347
  172MPD1    C2 2673   1.833   4.225   1.135  0.1939 -0.1660  0.1976
  172MPD1    C3 2674   1.778   4.339   1.084 -0.1323 -1.0938  0.1689
  172MPD1    C4 2675   1.808   4.462   1.145 -0.1759  0.0977 -0.2948
  172MPD1    C5 2676   1.888   4.460   1.259 -0.3050 -0.3121 -0.1524
  172MPD1     H 2677   1.808   4.132   1.085 -1.0173  0.3068 -0.0714
  172MPD1    H1 2678   1.768   4.557   1.113  0.4798  1.1615  2.0230
  172MPD1    H2 2679   1.997   4.347   1.396 -0.2033 -0.8119  0.2051
  172MPD1    H3 2680   1.916   4.557   1.300 -1.8310  0.8940 -1.9128
  172MPD1     N 2681   1.698   4.344   0.965 -0.8334 -0.1892  0.4273
  172MPD1    H5 2682   1.669   4.437   0.939 -1.2147  0.4328  3.0155
  172MPD1    N1 2683   1.948   4.097   1.321 -0.5119  0.5308 -0.0469
  172MPD1    H6 2684   1.959   4.017   1.259 -0.8841  0.2278  0.2763
  172MPD1    H7 2685   2.027   4.106   1.385 -0.5209 -3.1903  0.4730
  173MPD1     C 2686   2.795   3.773  13.828  0.0046 -0.6348  0.3496
  173MPD1    C1 2687   2.840   3.888  13.899  0.0614  0.3448  0.4582
  173MPD1    C2 2688   2.854   3.872  14.037 -0.1482 -0.7076  0.7088
  173MPD1    C3 2689   2.815   3.756  14.103 -0.9076 -0.3704 -0.2106
  173MPD1    C4 2690   2.764   3.646  14.028 -0.7687  0.4375  0.1584
  173MPD1    C5 2691   2.748   3.662  13.895 -0.1850  0.2002  0.7322
  173MPD1     H 2692   2.884   3.952  14.104  0.0059 -0.5355  0.4312
  173MPD1    H1 2693   2.737   3.551  14.072 -0.0111 -0.7975 -2.0486
  173MPD1    H2 2694   2.785   3.768  13.720 -0.8962  1.6408  0.3328
  173MPD1    H3 2695   2.697   3.583  13.842 -0.4748  0.3162  0.8351
  173MPD1     N 2696   2.839   3.748  14.244 -0.3247 -0.4691  0.7542
  173MPD1    H5 2697   2.901   3.816  14.287 -0.1820 -0.3656  0.3854
  173MPD1    N1 2698   2.902   3.994  13.833  0.0076  0.1757 -0.2254
  173MPD1    H6 2699   2.863   4.015  13.741  0.6980 -1.3476 -0.8748
  173MPD1    H7 2700   2.901   4.081  13.885 -0.1545  0.7057 -1.1121
  174MPD1     C 2701   3.673   3.469  14.578  0.4343 -0.3310 -0.0156
  174MPD1    C1 2702   3.589   3.443  14.688  0.6675 -0.1085 -0.6867
  174MPD1    C2 2703   3.456   3.474  14.684  0.4723 -1.1223 -0.1158
  174MPD1    C3 2704   3.399   3.525  14.570 -0.3448  0.1992 -0.4328
  174MPD1    C4 2705   3.489   3.564  14.470 -0.4426  0.4955  0.3964
  174MPD1    C5 2706   3.621   3.525  14.469  0.6618  0.1098 -0.1564
  174MPD1     H 2707   3.401   3.434  14.768  0.6402 -2.8152 -0.8058
  174MPD1    H1 2708   3.448   3.596  14.374  0.6669  0.6310 -0.0320
  174MPD1    H2 2709   3.778   3.443  14.574  0.7052  0.5137  1.7725
  174MPD1    H3 2710   3.682   3.537  14.380  1.5213 -0.9198  0.2999
  174MPD1     N 2711   3.257   3.553  14.554  0.5788  0.6284  0.7078
  174MPD1    H5 2712   3.229   3.610  14.475  2.1197 -0.1560 -0.3965
  174MPD1    N1 2713   3.639   3.385  14.805 -0.6426 -0.2123  0.2854
  174MPD1    H6 2714   3.578   3.397  14.885  0.1476 -0.8056  0.9830
  174MPD1    H7 2715   3.736   3.409  14.824 -0.4670 -0.0980 -0.7329
  175MPD1     C 2716   1.275   4.092  15.877  0.6106  0.1705  0.1692
  175MPD1    C1 2717   1.204   4.204  15.843 -0.4215  0.4858  0.6980
  175MPD1    C2 2718   1.160   4.278  15.956  0.5830 -0.4778  0.6151
  175MPD1    C3 2719   1.167   4.228  16.085  0.8085  0.1485 -0.0184
  175MPD1    C4 2720   1.247   4.121  16.113 -1.3750  0.0864  0.7341
  175MPD1    C5 2721   1.292   4.052  16.007  0.2262 -0.2558 -0.5642
  175MPD1     H 2722   1.125   4.378  15.937  2.3756  0.2048  0.9318
  175MPD1    H1 2723   1.282   4.081  16.207 -2.0220 -1.9624  0.1220
  175MPD1    H2 2724   1.332   4.030  15.808  1.9151  0.4711  0.9803
  175MPD1    H3 2725   1.356   3.966  16.027  1.0224  0.1856 -1.2083
  175MPD1     N 2726   1.114   4.306  16.197 -0.6144 -0.8746 -0.2183
  175MPD1    H5 2727   1.136   4.263  16.287 -0.2825  1.4525  0.8186
  175MPD1    N1 2728   1.200   4.257  15.715  0.3056 -0.1711 -0.2404
  175MPD1    H6 2729   1.130   4.330  15.713 -0.9634 -1.4360 -1.8705
  175MPD1    H7 2730   1.182   4.190  15.641  0.2938 -0.2408 -0.1748
  176MPD1     C 2731   3.041   2.031   0.519 -0.0182  0.3208  0.2920
  176MPD1    C1 2732   2.984   2.130   0.599  0.1733 -0.1752 -0.0244
  176MPD1    C2 2733   2.976   2.262   0.554  0.2595  0.5472 -0.3423
  176MPD1    C3 2734   3.023   2.301   0.429 -0.5742  0.5739 -0.1319
  176MPD1    C4 2735   3.079   2.202   0.351  0.1241 -0.1915 -0.1726
  176MPD1    C5 2736   3.093   2.071   0.395  0.5494  0.1412 -0.0817
  176MPD1     H 2737   2.942   2.342   0.618  1.2357  0.7265 -0.0451
  176MPD1    H1 2738   3.120   2.226   0.253  2.4675 -0.1096  0.8290
  176MPD1    H2 2739   3.061   1.930   0.551 -0.6953  0.0542 -0.1328
  176MPD1    H3 2740   3.147   1.993   0.343 -2.1652 -1.4328 -0.5293
  176MPD1     N 2741   2.999   2.434   0.382  0.4551  0.1523 -0.2167
  176MPD1    H5 2742   2.958   2.497   0.450 -0.3307 -0.1256 -0.4293
  176MPD1    N1 2743   2.957   2.111   0.728 -0.5259 -0.2681 -0.3135
  176MPD1    H6 2744   2.922   2.020   0.756  1.4822 -1.0417 -0.2553
  176MPD1    H7 2745   2.900   2.189   0.761  0.9967  0.2198  1.1834
  177MPD1     C 2746   1.209   2.010  10.428 -0.1083 -0.8497  0.3712
  177MPD1    C1 2747   1.136   1.903  10.375 -0.2863 -0.0869 -0.4989
  177MPD1    C2 2748   1.024   1.931  10.295  0.6614 -0.3073  0.5950
  177MPD1    C3 2749   1.003   2.056  10.243  0.3862 -0.7608 -0.5340
  177MPD1    C4 2750   1.083   2.156  10.285 -0.2649  0.2698  0.2536
  177MPD1    C5 2751   1.173   2.139  10.382  0.0030  0.0122  0.6355
  177MPD1     H 2752   0.950   1.852  10.283  0.1032  0.4827 -1.2239
  177MPD1    H1 2753   1.054   2.256  10.255  1.5733  0.9207  0.6466
  177MPD1    H2 2754   1.289   2.000  10.500 -0.6633  0.5703  1.2081
  177MPD1    H3 2755   1.222   2.227  10.422  2.4011 -1.9324  1.9482
  177MPD1     N 2756   0.883   2.070  10.166  0.1391  1.0196 -0.2900
  177MPD1    H5 2757   0.830   1.985  10.150  2.1641 -0.7856  2.3970
  177MPD1    N1 2758   1.157   1.773  10.423 -0.2354 -0.0894  0.0969
  177MPD1    H6 2759   1.257   1.755  10.430  0.1787  1.8669 -0.9179
  177MPD1    H7 2760   1.125   1.700  10.359  1.2099  0.3272 -1.1027
  178MPD1     C 2761   3.599   3.166   0.146  0.0769  0.0581 -0.4156
  178MPD1    C1 2762   3.547   3.047   0.084 -0.1866 -0.7727  0.3426
  178MPD1    C2 2763   3.593   3.017  17.702  0.3137  0.1211  0.6384
  178MPD1    C3 2764   3.701   3.089  17.650 -0.3066 -0.7720 -0.0235
  178MPD1    C4 2765   3.756   3.198  17.713  0.4392 -0.3503 -0.0282
  178MPD1    C5 2766   3.696   3.234   0.085  0.3084  0.3444 -0.8680
  178MPD1     H 2767   3.558   2.927  17.652  2.8365  0.2142 -1.2464
  178MPD1    H1 2768   3.839   3.254  17.671  0.5251 -0.4960 -0.0495
  178MPD1    H2 2769   3.558   3.201   0.240  2.1792 -1.3647  1.0274
  178MPD1    H3 2770   3.737   3.328   0.121 -0.3387 -0.8806  3.0277
  178MPD1     N 2771   3.767   3.050  17.529  0.2178  0.3482  0.5632
  178MPD1    H5 2772   3.846   3.102  17.493 -0.0162 -1.5889 -2.7302
  178MPD1    N1 2773   3.434   2.980   0.136 -0.6528  0.4924 -0.1909
  178MPD1    H6 2774   3.416   2.889   0.094  1.4909 -0.1876  0.3303
  178MPD1    H7 2775   3.427   2.967   0.237 -1.5382 -0.0285 -0.3174
  179MPD1     C 2776   2.983   1.114  16.616 -0.4069  0.2375  0.1146
  179MPD1    C1 2777   2.881   1.123  16.527  0.0125  0.7625  0.3665
  179MPD1    C2 2778   2.872   1.035  16.431 -0.6175 -0.2481 -0.1617
  179MPD1    C3 2779   2.972   0.942  16.399 -0.1210 -0.3449 -0.3651
  179MPD1    C4 2780   3.083   0.936  16.491  0.5337 -0.1429  0.5429
  179MPD1    C5 2781   3.082   1.019  16.598  0.1445 -0.2217  0.2275
  179MPD1     H 2782   2.787   1.050  16.364 -1.8540 -1.7949  1.0674
  179MPD1    H1 2783   3.166   0.869  16.473 -0.7459 -1.3762 -0.8206
  179MPD1    H2 2784   2.988   1.178  16.703 -2.3973  1.1772 -0.4700
  179MPD1    H3 2785   3.163   1.013  16.670 -0.3770  2.4956  1.0508
  179MPD1     N 2786   2.968   0.842  16.296 -0.2700 -0.0914 -0.1970
  179MPD1    H5 2787   3.044   0.775  16.297 -1.3049 -1.3158 -4.0426
  179MPD1    N1 2788   2.784   1.216  16.548 -0.4486 -0.6826 -0.0334
  179MPD1    H6 2789   2.817   1.306  16.584 -1.1551 -0.8982  1.1681
  179MPD1    H7 2790   2.742   1.243  16.459 -0.9042  0.0316  0.3936
  180MPD1     C 2791   3.224   1.405  15.594  0.1174 -0.5982  0.4363
  180MPD1    C1 2792   3.137   1.512  15.611 -0.1467 -0.6928 -0.1505
  180MPD1    C2 2793   3.150   1.623  15.530  0.3206 -0.7334  0.0880
  180MPD1    C3 2794   3.247   1.630  15.429 -0.7122  0.3247 -0.2105
  180MPD1    C4 2795   3.336   1.523  15.418 -0.4440 -0.2629 -0.5222
  180MPD1    C5 2796   3.318   1.415  15.495 -0.4076  0.2307  0.6451
  180MPD1     H 2797   3.099   1.718  15.539  1.3391 -0.5074  3.5095
  180MPD1    H1 2798   3.423   1.522  15.354  1.0233  1.2183  1.4453
  180MPD1    H2 2799   3.230   1.317  15.657  0.2910 -1.8682 -1.3637
  180MPD1    H3 2800   3.384   1.329  15.489 -1.0714 -0.1865 -0.6504
  180MPD1     N 2801   3.250   1.743  15.341  0.5243 -0.0994 -0.4393
  180MPD1    H5 2802   3.177   1.811  15.362 -1.2836 -1.3052 -2.8847
  180MPD1    N1 2803   3.043   1.515  15.717  0.0233  0.3878 -0.5029
  180MPD1    H6 2804   3.001   1.423  15.727  0.6428  0.1661  0.0023
  180MPD1    H7 2805   2.965   1.572  15.684 -0.2503  0.5553  0.4502
  181MPD1     C 2806   4.079   3.533   9.904  0.2827 -0.3661  0.1424
  181MPD1    C1 2807   4.124   3.574  10.029 -0.3850  0.1523 -0.5535
  181MPD1    C2 2808   4.256   3.623  10.047  0.2703  0.2533 -0.4961
  181MPD1    C3 2809   4.353   3.607   9.948  0.2299 -0.2137 -0.0141
  181MPD1    C4 2810   4.305   3.549   9.835 -0.0130 -0.8739  0.5570
  181MPD1    C5 2811   4.174   3.515   9.810  0.4334 -0.0003 -0.1108
  181MPD1     H 2812   4.290   3.675  10.136  1.1981 -0.3698 -0.4856
  181MPD1    H1 2813   4.376   3.538   9.754  0.5498 -0.9883  1.0620
  181MPD1    H2 2814   3.977   3.502   9.885  0.3725 -0.7531  0.3049
  181MPD1    H3 2815   4.145   3.477   9.713  0.3004 -2.0710  0.7465
  181MPD1     N 2816   4.486   3.640   9.966  0.2897  0.6777  0.2552
  181MPD1    H5 2817   4.546   3.627   9.885  2.5212  0.6432  1.8984
  181MPD1    N1 2818   4.032   3.611  10.127 -0.1315  0.1761  0.3536
  181MPD1    H6 2819   3.947   3.555  10.123  0.5612 -0.8405 -0.0885
  181MPD1    H7 2820   4.073   3.611  10.219 -1.4541  4.0053  0.9458
  182MPD1     C 2821   1.043   3.026   1.845  0.0024  0.2078 -0.1748
  182MPD1    C1 2822   1.054   2.947   1.731  0.2312 -0.2300 -0.3487
  182MPD1    C2 2823   0.958   2.974   1.634  0.1681 -0.8800  0.7391
  182MPD1    C3 2824   0.848   3.058   1.659 -0.6399 -0.3037  1.3000
  182MPD1    C4 2825   0.831   3.120   1.776 -0.2573 -0.7387 -0.5348
  182MPD1    C5 2826   0.923   3.097   1.872 -0.1545  0.2044 -0.0547
  182MPD1     H 2827   0.968   2.928   1.537 -0.7275  1.4077 -0.4488
  182MPD1    H1 2828   0.748   3.188   1.791  0.7664  0.4180 -0.1293
  182MPD1    H2 2829   1.117   3.029   1.924 -1.7593  0.4245  1.4761
  182MPD1    H3 2830   0.905   3.138   1.971 -0.1338  0.0124  0.0309
  182MPD1     N 2831   0.757   3.092   1.556 -0.0837  0.0418 -0.1073
  182MPD1    H5 2832   0.686   3.158   1.583  0.8976  0.8271  0.5665
  182MPD1    N1 2833   1.173   2.878   1.695  0.1816 -0.7774  0.4974
  182MPD1    H6 2834   1.218   2.821   1.766  0.5018 -1.3214 -0.1446
  182MPD1    H7 2835   1.154   2.809   1.623 -1.7249  1.0269 -0.7378
  183MPD1     C 2836   1.605   3.628   8.912  0.1275 -0.4462 -0.2293
  183MPD1    C1 2837   1.614   3.601   9.047  0.0966  0.1899  0.5637
  183MPD1    C2 2838   1.513   3.642   9.128 -0.0796  0.4799  0.0542
  183MPD1    C3 2839   1.419   3.736   9.090 -0.4894  0.6424  0.0218
  183MPD1    C4 2840   1.414   3.761   8.954 -0.4611  0.1470  0.3441
  183MPD1    C5 2841   1.503   3.710   8.859  0.6905  0.6017  0.2137
  183MPD1     H 2842   1.515   3.608   9.231  0.3640  0.0385 -0.0971
  183MPD1    H1 2843   1.336   3.831   8.926 -0.4975  0.0038  0.0881
  183MPD1    H2 2844   1.672   3.580   8.842  0.7732  0.1514 -0.0207
  183MPD1    H3 2845   1.494   3.738   8.754 -5.4363  1.3789  0.9209
  183MPD1     N 2846   1.324   3.768   9.188 -0.5293 -0.4511 -0.5889
  183MPD1    H5 2847   1.322   3.704   9.267 -0.5410  0.2937  0.0083
  183MPD1    N1 2848   1.696   3.496   9.091 -0.0588 -0.1850 -0.1446
  183MPD1    H6 2849   1.787   3.493   9.047 -0.8340  0.3978 -1.7592
  183MPD1    H7 2850   1.714   3.505   9.191  0.8297 -2.2722 -0.1205
  184MPD1     C 2851   4.722   1.462  10.678  0.1733 -0.6417 -0.5671
  184MPD1    C1 2852   4.706   1.390  10.564  0.4586  1.0849  0.7006
  184MPD1    C2 2853   0.003   1.455  10.443 -0.1336  0.5400  0.1517
  184MPD1    C3 2854   0.051   1.588  10.438  0.4362 -0.3744  0.7235
  184MPD1    C4 2855   0.055   1.649  10.556  0.3421 -0.1468 -0.2735
  184MPD1    C5 2856   0.028   1.589  10.674  0.5113  0.0020 -0.4941
  184MPD1     H 2857   4.728   1.401  10.350 -2.7523 -0.0237  0.8083
  184MPD1    H1 2858   0.082   1.754  10.565  1.1230 -0.3447 -0.2889
  184MPD1    H2 2859   4.712   1.413  10.774 -1.0587  2.1388  0.7419
  184MPD1    H3 2860   0.037   1.633  10.773 -0.7104 -3.0847  1.0229
  184MPD1     N 2861   0.105   1.651  10.330 -0.4153  0.7934  0.8787
  184MPD1    H5 2862   0.131   1.747  10.348  0.4737  0.5091  1.1150
  184MPD1    N1 2863   4.685   1.252  10.569 -0.1151 -0.8056 -0.7592
  184MPD1    H6 2864   4.626   1.245  10.652  0.6842  1.6752  0.0080
  184MPD1    H7 2865   4.627   1.221  10.492 -0.2253 -1.9247 -0.2343
  185MPD1     C 2866   0.004   1.438   9.329 -0.3331 -0.0447  0.0387
  185MPD1    C1 2867   0.055   1.563   9.324 -0.5004 -0.7805  0.1185
  185MPD1    C2 2868   0.084   1.629   9.442 -0.2363 -0.5271 -0.4093
  185MPD1    C3 2869   0.051   1.568   9.563 -0.1791  0.4540  0.0366
  185MPD1    C4 2870   4.732   1.440   9.565  0.1417  0.2924  0.3386
  185MPD1    C5 2871   4.715   1.379   9.449  0.1960 -0.5273 -0.2131
  185MPD1     H 2872   0.124   1.730   9.442 -1.6480  0.0374 -0.1401
  185MPD1    H1 2873   4.715   1.402   9.664  0.1752  0.0654  0.2563
  185MPD1    H2 2874   4.724   1.374   9.243  0.5520 -0.0256 -0.1460
  185MPD1    H3 2875   4.677   1.278   9.449  1.1931 -0.8996  0.3400
  185MPD1     N 2876   0.071   1.618   9.699  0.0534 -0.1852  0.6587
  185MPD1    H5 2877   0.057   1.553   9.776 -2.3326  0.0493  0.4205
  185MPD1    N1 2878   0.103   1.605   9.197  0.0900  0.1285  0.4377
  185MPD1    H6 2879   0.101   1.707   9.192  0.6308  0.0663 -1.1183
  185MPD1    H7 2880   0.054   1.555   9.123  0.8867 -1.8356  1.2595
  186MPD1     C 2881   3.950   0.554  16.115 -0.4898 -0.6001  0.6183
  186MPD1    C1 2882   4.044   0.644  16.079  0.5217 -0.0324  0.8684
  186MPD1    C2 2883   4.045   0.766  16.132  0.1179  0.7199  0.1968
  186MPD1    C3 2884   3.944   0.802  16.218 -0.3071 -0.3330  0.1166
  186MPD1    C4 2885   3.861   0.703  16.276  0.1143  0.0144  0.1567
  186MPD1    C5 2886   3.868   0.585  16.218 -0.0125  0.4460  0.4663
  186MPD1     H 2887   4.110   0.836  16.080  0.0548  2.4636  2.4439
  186MPD1    H1 2888   3.794   0.730  16.357  2.3236 -0.0879  2.0147
  186MPD1    H2 2889   3.947   0.451  16.080 -2.0088  0.1731 -1.5274
  186MPD1    H3 2890   3.812   0.503  16.262  0.1458  1.3836  2.3647
  186MPD1     N 2891   3.927   0.935  16.262  0.5288  0.0762  0.7082
  186MPD1    H5 2892   3.848   0.947  16.325 -1.4477  0.5017 -1.8213
  186MPD1    N1 2893   4.127   0.616  15.968  0.3706  0.3569 -0.0483
  186MPD1    H6 2894   4.217   0.658  15.990 -0.4978  2.2466 -0.0888
  186MPD1    H7 2895   4.097   0.675  15.891  0.2890  2.1038  1.3232
  187MPD1     C 2896   3.505   3.316   0.546 -0.4851  0.2892  0.1875
  187MPD1    C1 2897   3.405   3.225   0.527  0.4277 -0.8147 -0.3643
  187MPD1    C2 2898   3.324   3.248   0.416 -0.4897  0.2581 -0.0483
  187MPD1    C3 2899   3.326   3.368   0.341  0.0780  0.0709  0.3332
  187MPD1    C4 2900   3.415   3.464   0.375  0.4174 -0.0008 -0.5006
  187MPD1    C5 2901   3.508   3.430   0.477  0.6806  0.1857 -0.1743
  187MPD1     H 2902   3.255   3.170   0.386 -0.2698 -0.5875  1.6412
  187MPD1    H1 2903   3.421   3.560   0.325 -0.8877 -0.3632 -1.3524
  187MPD1    H2 2904   3.573   3.300   0.630  0.3081 -2.3891 -0.9518
  187MPD1    H3 2905   3.570   3.513   0.508 -1.6846  1.4263  1.2519
  187MPD1     N 2906   3.236   3.400   0.228 -0.1415 -0.7778 -0.3971
  187MPD1    H5 2907   3.255   3.487   0.181 -1.0544  0.7301  2.0254
  187MPD1    N1 2908   3.393   3.101   0.587  0.3360  0.1163 -0.7253
  187MPD1    H6 2909   3.298   3.066   0.580  0.4097 -0.0476 -0.9017
  187MPD1    H7 2910   3.428   3.111   0.682 -1.8608  0.3927  0.0379
  188MPD1     C 2911   2.736   3.164  10.342  0.1802 -1.0766  0.8507
  188MPD1    C1 2912   2.634   3.121  10.257 -0.7079 -0.0024  0.4479
  188MPD1    C2 2913   2.574   2.999  10.271  0.4252  0.0715  0.0766
  188MPD1    C3 2914   2.629   2.908  10.364  0.0891 -0.2399 -0.1382
  188MPD1    C4 2915   2.731   2.949  10.447  1.1029  0.0650 -0.3693
  188MPD1    C5 2916   2.788   3.074  10.432  0.9567  0.4152  0.3251
  188MPD1     H 2917   2.486   2.974  10.212  0.6371 -0.1137 -0.1587
  188MPD1    H1 2918   2.754   2.888  10.533 -1.0569  0.1311  0.2506
  188MPD1    H2 2919   2.792   3.255  10.328 -2.3195  0.3027 -0.1200
  188MPD1    H3 2920   2.866   3.111  10.497  0.0811  1.2192  0.9171
  188MPD1     N 2921   2.576   2.778  10.384 -0.4461  0.1257  0.0695
  188MPD1    H5 2922   2.627   2.713  10.443  1.5331  0.6677 -1.0604
  188MPD1    N1 2923   2.604   3.200  10.149  0.1975 -0.3762  0.3013
  188MPD1    H6 2924   2.529   3.161  10.093  0.1640  0.0999  0.0170
  188MPD1    H7 2925   2.686   3.202  10.089 -0.0316 -0.2376 -0.0034
  189MPD1     C 2926   4.608   4.121   0.797 -0.1646  0.4567  0.2836
  189MPD1    C1 2927   4.547   4.052   0.697  0.5787  0.1227  0.9224
  189MPD1    C2 2928   4.446   4.113   0.625  0.2153  0.5567 -0.3712
  189MPD1    C3 2929   4.421   4.247   0.644  0.0378 -0.5809 -0.1611
  189MPD1    C4 2930   4.495   4.322   0.733 -0.1042  0.2462  0.8312
  189MPD1    C5 2931   4.586   4.259   0.810  0.4928  0.6569 -0.2018
  189MPD1     H 2932   4.388   4.056   0.553  2.5756  0.4453 -2.2183
  189MPD1    H1 2933   4.485   4.429   0.743 -0.0667  0.3032  0.2362
  189MPD1    H2 2934   4.673   4.068   0.865  0.3438  0.8819  0.1310
  189MPD1    H3 2935   4.638   4.311   0.889  1.8853  0.9583 -1.3073
  189MPD1     N 2936   4.324   4.304   0.558  0.4703 -0.8990  0.1993
  189MPD1    H5 2937   4.260   4.241   0.511  0.0201 -1.1441  1.1377
  189MPD1    N1 2938   4.557   3.914   0.691 -0.3708 -0.7743  0.1201
  189MPD1    H6 2939   4.539   3.874   0.599 -0.5635  0.6124 -0.4399
  189MPD1    H7 2940   4.653   3.889   0.711 -0.9087 -2.4841  0.6238
  190MPD1     C 2941   2.993   2.422  16.101 -0.0498 -0.6679  0.0992
  190MPD1    C1 2942   3.015   2.558  16.089 -0.7597 -0.1515 -0.4121
  190MPD1    C2 2943   3.138   2.605  16.033  0.1928 -0.1639 -0.0899
  190MPD1    C3 2944   3.222   2.524  15.962  0.1610 -0.6578 -0.0421
  190MPD1    C4 2945   3.180   2.391  15.959  0.3506  0.5063 -0.4290
  190MPD1    C5 2946   3.073   2.344  16.030  0.4312 -0.0252 -0.5590
  190MPD1     H 2947   3.167   2.709  16.018  1.6789 -0.4522  0.8567
  190MPD1    H1 2948   3.245   2.324  15.904 -0.5722 -1.6216  1.1088
  190MPD1    H2 2949   2.913   2.369  16.152 -0.9527 -0.2141 -0.8630
  190MPD1    H3 2950   3.063   2.236  16.034  0.1914  0.0286  0.4137
  190MPD1     N 2951   3.350   2.574  15.908 -0.4034  0.3916 -0.5729
  190MPD1    H5 2952   3.374   2.665  15.946  1.0148 -0.3551  0.3048
  190MPD1    N1 2953   2.926   2.646  16.155 -0.3320  0.7782 -0.0094
  190MPD1    H6 2954   2.835   2.602  16.150  0.7141 -1.3573 -0.3956
  190MPD1    H7 2955   2.927   2.733  16.102 -4.5174 -0.2586 -1.7755
  191MPD1     C 2956   2.811   3.923  12.746 -0.3706  0.2546  0.6974
  191MPD1    C1 2957   2.934   3.987  12.727 -0.7558  0.6948 -0.1926
  191MPD1    C2 2958   2.947   4.082  12.627 -0.2589 -0.7534  0.4016
  191MPD1    C3 2959   2.843   4.100  12.531 -0.3897  0.4255 -0.0886
  191MPD1    C4 2960   2.730   4.021  12.540  0.4866  0.1674 -1.0485
  191MPD1    C5 2961   2.713   3.932  12.644 -0.1844 -0.4232 -0.4225
  191MPD1     H 2962   3.031   4.151  12.631  0.8613 -2.0991 -0.1131
  191MPD1    H1 2963   2.649   3.996  12.472 -0.2389 -0.6105  0.0856
  191MPD1    H2 2964   2.780   3.874  12.837 -1.3127 -3.4152 -1.5841
  191MPD1    H3 2965   2.619   3.882  12.665 -0.4798  0.0363 -0.6365
  191MPD1     N 2966   2.871   4.174  12.415 -0.2804 -0.4472  0.3597
  191MPD1    H5 2967   2.955   4.231  12.420 -0.8695  0.3367  1.5008
  191MPD1    N1 2968   3.028   3.976  12.826 -0.1375 -0.2726 -0.0915
  191MPD1    H6 2969   3.036   3.880  12.856 -0.9662 -0.8510 -1.7094
  191MPD1    H7 2970   3.114   4.010  12.784 -0.9340 -0.4218 -1.8654
  192MPD1     C 2971   2.650   0.191  11.663  0.0102 -1.0216  0.1033
  192MPD1    C1 2972   2.566   0.130  11.748  0.2717 -0.3112  0.1613
  192MPD1    C2 2973   2.612   0.023  11.833  0.4768  0.5396 -0.1787
  192MPD1    C3 2974   2.742   4.716  11.808  0.1804  0.2095 -0.2205
  192MPD1    C4 2975   2.824   0.049  11.725  0.3077 -0.0833  0.5503
  192MPD1    C5 2976   2.777   0.152  11.648 -0.2161  0.0445  0.0676
  192MPD1     H 2977   2.551   4.706  11.904 -0.2582  0.6462 -0.7379
  192MPD1    H1 2978   2.931   0.032  11.718  0.3717  0.3254  0.5381
  192MPD1    H2 2979   2.625   0.278  11.605 -0.6862 -1.2981 -0.0123
  192MPD1    H3 2980   2.835   0.224  11.591 -1.4759  0.5962 -0.5225
  192MPD1     N 2981   2.789   4.592  11.867  0.1590 -0.1889 -0.1147
  192MPD1    H5 2982   2.886   4.578  11.841 -0.4005 -0.8322 -1.8818
  192MPD1    N1 2983   2.428   0.169  11.750 -0.1592 -0.7568 -0.1324
  192MPD1    H6 2984   2.386   0.147  11.839 -1.4537  0.4840 -0.4474
  192MPD1    H7 2985   2.424   0.269  11.730 -1.9095 -0.8502 -0.2632
  193MPD1     C 2986   2.032   4.158  16.614  0.2955  0.0687 -0.1216
  193MPD1    C1 2987   2.042   4.223  16.738 -0.3137 -0.3770 -0.0582
  193MPD1    C2 2988   2.150   4.305  16.770  0.3694 -0.2161  0.4366
  193MPD1    C3 2989   2.260   4.310  16.684 -0.6399 -0.3137 -0.4470
  193MPD1    C4 2990   2.254   4.234  16.562 -0.1175 -0.2205  0.3371
  193MPD1    C5 2991   2.142   4.162  16.530 -0.1354  0.2899  0.3161
  193MPD1     H 2992   2.157   4.349  16.869  1.1178  1.1725 -0.2318
  193MPD1    H1 2993   2.342   4.229  16.500  1.8282  3.1132  2.8576
  193MPD1    H2 2994   1.945   4.100  16.587  0.2165 -0.4619  1.2475
  193MPD1    H3 2995   2.150   4.105  16.438  2.3585  2.0104 -0.5272
  193MPD1     N 2996   2.365   4.397  16.704  0.4134  0.3575  0.6197
  193MPD1    H5 2997   2.445   4.390  16.642  0.5157  2.6592  0.5058
  193MPD1    N1 2998   1.925   4.231  16.822  0.2688  0.3602 -0.0378
  193MPD1    H6 2999   1.942   4.255  16.919  0.5079  1.2712 -0.3040
  193MPD1    H7 3000   1.869   4.147  16.811  0.1085  0.3896  0.5874
  194MPD1     C 3001   0.163   2.317  16.919 -0.2128 -0.0633  0.6700
  194MPD1    C1 3002   0.064   2.234  16.863 -0.4651  0.1577  0.0868
  194MPD1    C2 3003   0.044   2.110  16.920 -0.2829 -0.1921  0.2700
  194MPD1    C3 3004   0.130   2.065  17.023 -0.8813 -0.0665 -0.3226
  194MPD1    C4 3005   0.235   2.147  17.061 -0.3978  0.0820  0.8312
  194MPD1    C5 3006   0.241   2.271  17.020 -0.7150 -0.2420  0.3472
  194MPD1     H 3007   4.687   2.058  16.901 -0.9260  1.5823 -1.5193
  194MPD1    H1 3008   0.302   2.118  17.142  0.8632 -1.2018 -0.6801
  194MPD1    H2 3009   0.181   2.421  16.894  2.9097 -0.5997  0.7513
  194MPD1    H3 3010   0.317   2.334  17.065  0.1625  0.5307 -2.2295
  194MPD1     N 3011   0.127   1.929  17.068 -0.3982 -0.7546 -0.0988
  194MPD1    H5 3012   0.203   1.898  17.128 -1.3499 -0.8303  1.0801
  194MPD1    N1 3013   4.697   2.298  16.785 -0.0282  0.1866 -0.1708
  194MPD1    H6 3014   4.733   2.366  16.719 -1.7815  1.8368  0.5794
  194MPD1    H7 3015   4.637   2.233  16.735 -0.1206  1.4692 -1.6957
  195MPD1     C 3016   1.918   3.649   0.716  0.8280  0.0678 -0.6158
  195MPD1    C1 3017   2.054   3.644   0.693 -0.8699 -0.3845 -0.1246
  195MPD1    C2 3018   2.117   3.523   0.689  1.3599 -0.1008 -0.0991
  195MPD1    C3 3019   2.040   3.408   0.718 -0.0820  0.3913  1.3849
  195MPD1    C4 3020   1.901   3.419   0.734 -0.6862  0.2696 -0.4030
  195MPD1    C5 3021   1.839   3.540   0.736 -0.3681  0.1635  0.4732
  195MPD1     H 3022   2.225   3.525   0.682  1.3226  0.9334 -0.5100
  195MPD1    H1 3023   1.840   3.331   0.747 -0.3114 -0.0338 -0.7302
  195MPD1    H2 3024   1.860   3.740   0.715  0.5664 -0.0811  0.7961
  195MPD1    H3 3025   1.731   3.550   0.732 -0.1439  1.9615 -1.1527
  195MPD1     N 3026   2.097   3.281   0.736  0.2082  0.3969  0.1592
  195MPD1    H5 3027   2.027   3.217   0.770  0.1399 -0.1650 -1.0416
  195MPD1    N1 3028   2.131   3.765   0.682 -0.4602  0.2726 -0.0257
  195MPD1    H6 3029   2.209   3.762   0.617  0.3243 -1.6493  1.0158
  195MPD1    H7 3030   2.075   3.846   0.655 -1.5610 -0.7757 -0.8931
  196MPD1     C 3031   1.238   2.689   1.332 -0.2065 -0.7629 -0.3816
  196MPD1    C1 3032   1.246   2.826   1.346 -0.4027  0.1018 -0.5975
  196MPD1    C2 3033   1.366   2.884   1.385 -0.0211 -0.0161 -0.3940
  196MPD1    C3 3034   1.477   2.812   1.426  0.1960 -0.0367 -0.1908
  196MPD1    C4 3035   1.462   2.679   1.418 -0.7869 -0.4598 -0.2004
  196MPD1    C5 3036   1.348   2.621   1.363 -0.4902  0.0380 -0.1814
  196MPD1     H 3037   1.375   2.992   1.380 -0.0197  0.0469  0.9624
  196MPD1    H1 3038   1.533   2.603   1.449  0.5460  0.4946 -0.9313
  196MPD1    H2 3039   1.158   2.637   1.281  0.2295 -3.3759  1.6031
  196MPD1    H3 3040   1.347   2.514   1.348 -0.6228  0.1019 -0.6283
  196MPD1     N 3041   1.603   2.868   1.462  0.4264  0.5228  0.1330
  196MPD1    H5 3042   1.677   2.800   1.476 -1.0408 -0.5770  2.5279
  196MPD1    N1 3043   1.143   2.903   1.290 -0.3560 -0.6305  0.4524
  196MPD1    H6 3044   1.141   3.001   1.318 -1.7318 -0.0937 -1.5009
  196MPD1    H7 3045   1.050   2.862   1.289  0.2043 -1.8724 -0.9388
  197MPD1     C 3046   1.032   4.481  17.665 -0.5091  0.6397  0.6328
  197MPD1    C1 3047   1.102   4.586  17.706  0.5689 -0.2618 -0.0404
  197MPD1    C2 3048   1.118   4.691  17.624  0.2290  0.1434 -0.4092
  197MPD1    C3 3049   1.085   4.683  17.490  0.1422 -0.1307 -0.2087
  197MPD1    C4 3050   1.025   4.569  17.441 -0.3234 -0.1417 -0.7980
  197MPD1    C5 3051   0.992   4.467  17.530  0.6427  0.0706 -0.2716
  197MPD1     H 3052   1.171   0.038  17.669  0.9408 -1.1648  1.1824
  197MPD1    H1 3053   1.006   4.556  17.335 -2.3249  0.4374 -0.5065
  197MPD1    H2 3054   0.998   4.406  17.735 -0.5054  0.5029  0.4888
  197MPD1    H3 3055   0.922   4.396  17.487 -0.0014  0.8988 -0.5900
  197MPD1     N 3056   1.109   0.054  17.404  0.4818 -1.0273  0.2959
  197MPD1    H5 3057   1.085   0.035  17.307 -0.6821  2.0728 -0.0061
  197MPD1    N1 3058   1.124   4.600   0.098 -0.0768  0.3324 -0.4025
  197MPD1    H6 3059   1.120   4.505   0.136  0.7078  1.0236  1.4389
  197MPD1    H7 3060   1.212   4.648   0.116  0.7892 -0.5757 -2.2325
  198MPD1     C 3061   3.110   3.491  15.456 -0.4492 -0.0397 -0.8489
  198MPD1    C1 3062   3.072   3.550  15.574 -0.2747 -0.1308 -0.2176
  198MPD1    C2 3063   3.183   3.604  15.644  0.7244 -0.6728  0.1260
  198MPD1    C3 3064   3.313   3.614  15.588 -0.3624  0.5897 -0.2640
  198MPD1    C4 3065   3.337   3.560  15.456  0.7377  0.1166 -0.1059
  198MPD1    C5 3066   3.236   3.502  15.390 -0.2163 -0.3291  0.0881
  198MPD1     H 3067   3.167   3.641  15.745  1.5394  2.0032 -0.7253
  198MPD1    H1 3068   3.434   3.568  15.409  0.5190 -0.6912 -0.6880
  198MPD1    H2 3069   3.029   3.446  15.400 -1.5027 -0.2749  0.8897
  198MPD1    H3 3070   3.249   3.466  15.288 -4.6583 -0.0771 -0.5927
  198MPD1     N 3071   3.412   3.674  15.669 -0.2605  0.2118 -0.2823
  198MPD1    H5 3072   3.383   3.697  15.763  2.3995  0.3207  0.5023
  198MPD1    N1 3073   2.956   3.500  15.636 -0.6793  0.5537  0.1234
  198MPD1    H6 3074   2.933   3.566  15.710 -0.6299  1.8667 -1.0391
  198MPD1    H7 3075   2.882   3.492  15.567 -0.0960 -2.3012 -0.2078
  199MPD1     C 3076   1.315   4.029   9.619 -0.1169  0.1059  0.1182
  199MPD1    C1 3077   1.278   4.141   9.554 -0.3390  0.1001  0.4663
  199MPD1    C2 3078   1.154   4.191   9.593 -0.5271 -0.4316 -0.3211
  199MPD1    C3 3079   1.075   4.136   9.688  0.4321 -0.2780  0.5039
  199MPD1    C4 3080   1.131   4.031   9.761  0.2514  1.2913  0.0989
  199MPD1    C5 3081   1.235   3.971   9.718  0.2148 -0.6134  0.7171
  199MPD1     H 3082   1.097   4.273   9.548  1.2619  0.6093 -0.6933
  199MPD1    H1 3083   1.083   3.992   9.850  0.7558  1.3361  0.3950
  199MPD1    H2 3084   1.416   3.993   9.599 -0.1381  1.4974 -2.4299
  199MPD1    H3 3085   1.269   3.882   9.771  0.0197  1.9080  5.0694
  199MPD1     N 3086   0.941   4.182   9.730 -0.0506  0.4217 -0.1611
  199MPD1    H5 3087   0.889   4.123   9.794  5.3741 -1.1940  2.8531
  199MPD1    N1 3088   1.369   4.218   9.479  0.2604  0.2477 -0.3926
  199MPD1    H6 3089   1.423   4.153   9.423 -0.7509 -1.1266  0.2324
  199MPD1    H7 3090   1.326   4.285   9.416 -0.2203 -0.5042 -0.8583
  200MPD1     C 3091   0.252   0.194  15.510  0.3079  0.3064 -0.5627
  200MPD1    C1 3092   0.159   0.279  15.553  0.3534 -0.2598  0.0269
  200MPD1    C2 3093   0.178   0.414  15.520 -0.4988 -0.2544  0.5096
  200MPD1    C3 3094   0.281   0.459  15.427 -0.3952  0.6322 -0.0528
  200MPD1    C4 3095   0.368   0.365  15.378  0.3924 -0.2620  0.4665
  200MPD1    C5 3096   0.355   0.235  15.428  0.0734  0.0679  0.8102
  200MPD1     H 3097   0.103   0.481  15.559  0.1810  0.1460  1.1260
  200MPD1    H1 3098   0.451   0.379  15.310 -0.3065 -1.6676 -0.6788
  200MPD1    H2 3099   0.261   0.097  15.556 -1.1464  0.0837 -0.7498
  200MPD1    H3 3100   0.431   0.166  15.394 -0.9928 -1.7570  2.1349
  200MPD1     N 3101   0.283   0.594  15.388  0.3395  0.3652 -0.0857
  200MPD1    H5 3102   0.215   0.645  15.442 -0.0983 -0.9703  0.6249
  200MPD1    N1 3103   0.084   0.245  15.673 -0.0575  0.0545 -0.0503
  200MPD1    H6 3104   4.736   0.301  15.683  1.1754  1.5271  2.2687
  200MPD1    H7 3105   0.059   0.147  15.671 -0.8054  0.2613 -0.6104
  201MPD1     C 3106   1.193   3.580  13.538 -0.1719  0.5477 -0.3544
  201MPD1    C1 3107   1.144   3.468  13.598 -0.4193  0.3774  0.9846
  201MPD1    C2 3108   1.236   3.371  13.626  0.1808 -0.2216 -0.3087
  201MPD1    C3 3109   1.370   3.382  13.587 -0.1309 -0.3789 -0.1291
  201MPD1    C4 3110   1.412   3.496  13.523 -0.1798 -0.1042 -0.8862
  201MPD1    C5 3111   1.320   3.592  13.494 -0.0870  0.5564  0.9105
  201MPD1     H 3112   1.202   3.282  13.679 -2.3718  1.7498  1.3502
  201MPD1    H1 3113   1.514   3.513  13.490  0.2048  1.1772  0.8976
  201MPD1    H2 3114   1.136   3.670  13.518 -0.3743  0.7535  1.1909
  201MPD1    H3 3115   1.360   3.686  13.456 -1.4230  0.9516  0.4796
  201MPD1     N 3116   1.448   3.267  13.613 -0.5047 -0.6312  0.0425
  201MPD1    H5 3117   1.401   3.178  13.622 -1.7430 -0.1151 -1.3384
  201MPD1    N1 3118   1.017   3.465  13.660 -0.1059 -0.3387  0.5287
  201MPD1    H6 3119   0.940   3.505  13.606  2.3264  2.2339 -1.1030
  201MPD1    H7 3120   0.991   3.368  13.678  1.7078 -0.2088  3.8232
  202MPD1     C 3121   1.118   2.420   9.456  0.0285 -0.1667  0.1200
  202MPD1    C1 3122   1.100   2.554   9.453 -0.1477  0.3634  0.3921
  202MPD1    C2 3123   1.176   2.630   9.539 -0.0325  0.0112  0.0083
  202MPD1    C3 3124   1.271   2.584   9.633  0.9577  0.0286  0.2540
  202MPD1    C4 3125   1.273   2.442   9.633 -0.3969 -0.0789  0.0965
  202MPD1    C5 3126   1.202   2.362   9.552 -0.3050  0.6726 -0.2619
  202MPD1     H 3127   1.170   2.737   9.519 -0.9541 -0.2168 -0.9250
  202MPD1    H1 3128   1.340   2.397   9.706  0.7953 -1.4542 -1.8507
  202MPD1    H2 3129   1.067   2.350   9.390 -2.7757 -0.5272  2.6442
  202MPD1    H3 3130   1.210   2.254   9.542 -0.8451  0.5186  0.9293
  202MPD1     N 3131   1.355   2.655   9.721 -0.5421  0.3674 -0.8177
  202MPD1    H5 3132   1.390   2.601   9.799  2.4224  0.8336 -1.8424
  202MPD1    N1 3133   1.045   2.608   9.331  0.7214  0.5812  0.3862
  202MPD1    H6 3134   0.967   2.552   9.298 -0.1508  1.8241  0.3090
  202MPD1    H7 3135   1.006   2.701   9.349  0.0147  0.6186 -1.2762
  203MPD1     C 3136   0.375   4.455  12.837 -0.1088 -0.2021 -0.1459
  203MPD1    C1 3137   0.414   4.390  12.725  0.0624 -0.6981 -0.0397
  203MPD1    C2 3138   0.462   4.259  12.738  0.5516  0.6982  0.9756
  203MPD1    C3 3139   0.447   4.194  12.861 -0.0821  0.6106  0.0732
  203MPD1    C4 3140   0.391   4.261  12.967 -0.2185  0.1682 -0.1787
  203MPD1    C5 3141   0.361   4.391  12.954 -0.7278  0.8706 -0.1465
  203MPD1     H 3142   0.499   4.204  12.652  0.4736  0.3259  1.1771
  203MPD1    H1 3143   0.371   4.218  13.065 -0.8541 -0.0910 -0.4224
  203MPD1    H2 3144   0.349   4.561  12.838 -0.7224 -0.3564  1.1446
  203MPD1    H3 3145   0.316   4.450  13.032  2.0206  1.7144  0.8123
  203MPD1     N 3146   0.490   4.057  12.878  0.0554  0.3799 -0.6211
  203MPD1    H5 3147   0.543   4.018  12.800  0.1237 -1.9355  0.5755
  203MPD1    N1 3148   0.438   4.466  12.612  0.1059 -0.5415  0.4205
  203MPD1    H6 3149   0.366   4.538  12.609  1.8685  1.1657 -1.0264
  203MPD1    H7 3150   0.416   4.403  12.535 -2.1104 -2.6344  2.7538
  204MPD1     C 3151   4.650   0.900   0.153 -0.9553 -0.3062 -0.1743
  204MPD1    C1 3152   0.000   0.903   0.048  0.2515  0.2878 -0.5439
  204MPD1    C2 3153   0.077   0.788   0.014  0.3841  0.0319 -0.1025
  204MPD1    C3 3154   0.071   0.673   0.091 -0.3323  1.2385 -0.6341
  204MPD1    C4 3155   4.734   0.681   0.209 -0.1080  0.1290  0.2632
  204MPD1    C5 3156   4.642   0.785   0.222  0.2076 -0.1282 -0.1896
  204MPD1     H 3157   0.139   0.789  17.669  0.7916  0.1677  0.1859
  204MPD1    H1 3158   4.720   0.596   0.275 -0.5598 -0.0617 -0.0788
  204MPD1    H2 3159   4.586   0.983   0.180 -0.9176 -0.3510  0.0560
  204MPD1    H3 3160   4.571   0.783   0.303 -0.1067  0.1196 -0.4579
  204MPD1     N 3161   0.149   0.560   0.053 -0.8480 -0.2356 -0.2205
  204MPD1    H5 3162   0.205   0.571  17.714 -0.8102  2.5514  0.1870
  204MPD1    N1 3163   4.726   1.009  17.698 -0.2550  0.2237 -0.0460
  204MPD1    H6 3164   0.065   1.008  17.629 -0.0306  1.9459  0.1710
  204MPD1    H7 3165   4.695   1.102  17.726  0.5445  0.8156 -1.0938
  205MPD1     C 3166   0.879   3.957   1.148  0.3964 -0.1833  0.7727
  205MPD1    C1 3167   0.789   3.861   1.112 -0.0371  0.1500 -0.4627
  205MPD1    C2 3168   0.724   3.872   0.992  0.8057 -0.5530  0.3016
  205MPD1    C3 3169   0.746   3.976   0.900  0.3054 -0.3980 -0.3137
  205MPD1    C4 3170   0.835   4.072   0.941  0.4108 -0.4090 -0.3416
  205MPD1    C5 3171   0.901   4.056   1.060 -0.1829 -0.3786 -0.5146
  205MPD1     H 3172   0.633   3.818   0.968  0.5800 -0.8280  1.7655
  205MPD1    H1 3173   0.852   4.168   0.893 -0.5289 -0.8321 -1.5150
  205MPD1    H2 3174   0.930   3.959   1.244 -1.8435  0.8082  1.9253
  205MPD1    H3 3175   0.975   4.131   1.087  0.7531 -0.5897 -2.4846
  205MPD1     N 3176   0.679   3.981   0.778 -0.0300 -0.5847 -0.2557
  205MPD1    H5 3177   0.714   4.056   0.719  1.6318 -1.4159 -0.3234
  205MPD1    N1 3178   0.747   3.772   1.206 -0.0907  0.2582 -1.1530
  205MPD1    H6 3179   0.714   3.679   1.179  0.8809 -0.5531  0.4744
  205MPD1    H7 3180   0.818   3.757   1.276 -0.2004 -3.0817 -1.7120
  206MPD1     C 3181   0.568   2.082  17.537 -0.8904  0.3284  0.0881
  206MPD1    C1 3182   0.485   1.981  17.492  0.3841 -0.2076 -0.7498
  206MPD1    C2 3183   0.484   1.952  17.352  0.0061 -1.1277 -0.3777
  206MPD1    C3 3184   0.563   2.022  17.264 -0.6355 -0.2547  0.8301
  206MPD1    C4 3185   0.639   2.121  17.313 -0.1291  0.2625  0.4624
  206MPD1    C5 3186   0.636   2.158  17.449 -1.0881  0.4977  0.9673
  206MPD1     H 3187   0.421   1.875  17.309  0.2656 -0.6982 -1.5428
  206MPD1    H1 3188   0.702   2.187  17.254 -0.1985 -0.3394 -0.2755
  206MPD1    H2 3189   0.580   2.114  17.639  0.3247  0.3572 -0.0589
  206MPD1    H3 3190   0.690   2.243  17.488  2.8061 -0.9651 -1.1882
  206MPD1     N 3191   0.567   2.002  17.122 -0.0446 -0.2369 -0.9384
  206MPD1    H5 3192   0.620   2.067  17.064 -2.5273 -0.2807 -3.2902
  206MPD1    N1 3193   0.412   1.911  17.580  0.1991  0.2940  0.5839
  206MPD1    H6 3194   0.334   1.866  17.533 -0.8914  1.6793  1.0412
  206MPD1    H7 3195   0.382   1.959  17.665 -3.1878 -3.4629  1.5038
  207MPD1     C 3196   1.451   3.837  10.069 -0.0765 -0.9501  0.0785
  207MPD1    C1 3197   1.551   3.911  10.018  1.0448  0.5403  0.0173
  207MPD1    C2 3198   1.682   3.880  10.046  0.3149  0.2236  0.5562
  207MPD1    C3 3199   1.705   3.780  10.136 -0.3144 -0.0735 -0.5675
  207MPD1    C4 3200   1.606   3.718  10.204  0.1222 -0.4097 -0.6986
  207MPD1    C5 3201   1.479   3.748  10.168  0.1971  1.0414 -0.0888
  207MPD1     H 3202   1.763   3.931   9.996 -0.2408  2.0070  1.4925
  207MPD1    H1 3203   1.630   3.642  10.277 -0.0683 -0.4102 -0.6373
  207MPD1    H2 3204   1.344   3.844  10.049 -0.9098 -1.7813  4.3158
  207MPD1    H3 3205   1.397   3.699  10.218  2.1466 -0.4635  1.6344
  207MPD1     N 3206   1.843   3.762  10.168  0.1870 -0.6940 -0.6372
  207MPD1    H5 3207   1.911   3.808  10.108  0.6383 -1.9907 -1.1272
  207MPD1    N1 3208   1.525   3.977   9.899  0.4719 -0.2779  0.3066
  207MPD1    H6 3209   1.597   4.049   9.886  1.1407 -1.0222 -0.0859
  207MPD1    H7 3210   1.430   4.013   9.908  0.4306 -0.7848  1.8437
  208MPD1     C 3211   0.194   2.367  17.419  0.6547  0.4286  0.4748
  208MPD1    C1 3212   0.126   2.486  17.407 -0.0257  0.3832  0.0454
  208MPD1    C2 3213   0.132   2.593  17.502 -0.8667 -0.1863 -0.0027
  208MPD1    C3 3214   0.220   2.578  17.602 -0.8345 -0.1919  0.0762
  208MPD1    C4 3215   0.286   2.456  17.617  0.5386  0.3699  0.2930
  208MPD1    C5 3216   0.269   2.357  17.528  0.2240 -0.7557  0.2913
  208MPD1     H 3217   0.072   2.684  17.498 -0.2285  0.1969 -0.9323
  208MPD1    H1 3218   0.355   2.440  17.699 -0.2908 -0.0568  0.9221
  208MPD1    H2 3219   0.192   2.292  17.340 -1.9543  0.5695  0.3879
  208MPD1    H3 3220   0.331   2.268  17.541  2.4197  1.2060  3.0013
  208MPD1     N 3221   0.229   2.684  17.701  0.3544 -0.6015  0.2498
  208MPD1    H5 3222   0.177   2.771  17.691  2.8565  0.8452 -0.1160
  208MPD1    N1 3223   0.026   2.495  17.301 -0.3443  0.0495  0.3654
  208MPD1    H6 3224   0.049   2.436  17.222  0.3068  1.3469 -0.4109
  208MPD1    H7 3225   4.736   2.591  17.280 -0.5268  0.2301  1.3934
  209MPD1     C 3226   2.372   3.312  11.908  0.3134  0.2225  0.2113
  209MPD1    C1 3227   2.359   3.232  11.791  0.2296 -0.5455 -0.8172
  209MPD1    C2 3228   2.433   3.264  11.678  0.5123 -0.2339  0.1680
  209MPD1    C3 3229   2.501   3.389  11.667 -0.9302  0.6875  0.4651
  209MPD1    C4 3230   2.503   3.466  11.780  0.1780 -0.7363 -0.4878
  209MPD1    C5 3231   2.437   3.432  11.895 -0.0922  0.9373  0.2320
  209MPD1     H 3232   2.439   3.201  11.591  2.1129  1.0186 -0.6104
  209MPD1    H1 3233   2.540   3.568  11.777  0.3406 -0.7170  2.1220
  209MPD1    H2 3234   2.320   3.283  11.999 -0.8503 -1.4338 -1.0039
  209MPD1    H3 3235   2.435   3.511  11.969  0.8873  2.3915 -1.3013
  209MPD1     N 3236   2.551   3.435  11.541 -0.3115  0.7204 -0.2767
  209MPD1    H5 3237   2.542   3.373  11.461  1.3302  0.3736 -0.1909
  209MPD1    N1 3238   2.306   3.102  11.807  0.5271  0.2083  0.0729
  209MPD1    H6 3239   2.277   3.061  11.718  1.5901  1.6439 -0.9269
  209MPD1    H7 3240   2.219   3.105  11.861 -0.0232 -0.5810 -0.7543
  210MPD1     C 3241   3.318   3.878  10.886 -0.1962 -0.7470 -0.2884
  210MPD1    C1 3242   3.293   3.924  11.009  0.0612  0.1452 -0.3987
  210MPD1    C2 3243   3.188   3.856  11.078 -0.6124  0.5229  0.3017
  210MPD1    C3 3244   3.112   3.753  11.023  0.1746 -0.0914  0.5728
  210MPD1    C4 3245   3.156   3.693  10.908 -0.3121  0.6190 -0.1100
  210MPD1    C5 3246   3.251   3.766  10.836 -0.0149  0.2874  0.3422
  210MPD1     H 3247   3.160   3.896  11.174 -0.5726  0.3608  0.3812
  210MPD1    H1 3248   3.104   3.614  10.854 -0.7690  1.4851 -0.9447
  210MPD1    H2 3249   3.382   3.927  10.814  0.0355 -1.1738 -0.3735
  210MPD1    H3 3250   3.272   3.741  10.733 -0.3115  0.8520  0.1435
  210MPD1     N 3251   2.998   3.694  11.083  0.0588  0.1360 -0.4675
  210MPD1    H5 3252   2.957   3.615  11.033 -0.2172 -0.2513  0.3761
  210MPD1    N1 3253   3.343   4.050  11.056 -0.5510  0.4270  0.1630
  210MPD1    H6 3254   3.346   4.070  11.156  2.8050  3.1979 -0.4781
  210MPD1    H7 3255   3.441   4.059  11.027  0.3975 -0.1623  3.1577
  211MPD1     C 3256   0.621   2.989  17.718  0.2518 -0.8389 -0.1411
  211MPD1    C1 3257   0.663   3.111   0.014 -0.7390 -0.2074  0.1933
  211MPD1    C2 3258   0.604   3.227  17.711 -0.3916 -0.6028  0.5043
  211MPD1    C3 3259   0.503   3.219  17.613 -0.1449  0.4848 -0.7976
  211MPD1    C4 3260   0.481   3.093  17.558  0.1572 -0.2785 -0.3422
  211MPD1    C5 3261   0.529   2.983  17.620  0.3792  0.0391 -0.2464
  211MPD1     H 3262   0.629   3.323   0.009  0.3705 -0.7546  0.3884
  211MPD1    H1 3263   0.409   3.073  17.479 -0.1256 -0.0382 -0.1460
  211MPD1    H2 3264   0.641   2.896   0.027  1.6944 -0.6791 -0.4053
  211MPD1    H3 3265   0.494   2.887  17.586 -0.7889 -0.5004  2.4141
  211MPD1     N 3266   0.437   3.331  17.563  0.4806  0.5746  0.1199
  211MPD1    H5 3267   0.361   3.310  17.498  0.5142 -0.2694  0.3554
  211MPD1    N1 3268   0.762   3.117   0.114 -0.0728 -0.1745  0.1225
  211MPD1    H6 3269   0.822   3.197   0.096 -2.7584  2.4330  2.6619
  211MPD1    H7 3270   0.821   3.035   0.125 -2.0272 -1.4623  1.1479
  212MPD1     C 3271   4.578   2.147  16.471  0.3405 -0.3507  0.5377
  212MPD1    C1 3272   4.472   2.221  16.520  0.8643  0.2826 -0.0664
  212MPD1    C2 3273   4.395   2.170  16.625 -0.2822 -0.0776 -0.3946
  212MPD1    C3 3274   4.439   2.060  16.697 -0.4240  0.4040 -0.3396
  212MPD1    C4 3275   4.556   2.002  16.660 -0.3576 -0.4159 -0.5092
  212MPD1    C5 3276   4.621   2.037  16.544  0.1674  0.5612  0.1791
  212MPD1     H 3277   4.303   2.221  16.650 -0.6735 -0.5027 -0.9565
  212MPD1    H1 3278   4.594   1.920  16.720 -0.7601 -1.9951 -2.4022
  212MPD1    H2 3279   4.636   2.183  16.387 -0.9203 -1.5889 -0.8624
  212MPD1    H3 3280   4.715   1.990  16.516 -0.0169  0.2933  0.0076
  212MPD1     N 3281   4.364   2.002  16.806  0.6492  0.2308 -0.4590
  212MPD1    H5 3282   4.399   1.911  16.833  1.7285  0.8524  0.2485
  212MPD1    N1 3283   4.432   2.335  16.445  0.3038 -0.1310 -0.6346
  212MPD1    H6 3284   4.391   2.408  16.502 -1.4192 -0.9344 -0.8438
  212MPD1    H7 3285   4.517   2.374  16.405 -0.6961  1.7025 -0.9438
  213MPD1     C 3286   2.569   2.559  16.417 -0.1537  0.0184  0.2053
  213MPD1    C1 3287   2.581   2.419  16.424 -0.0725  0.0737 -0.2225
  213MPD1    C2 3288   2.635   2.369  16.302  0.0246  0.3336  0.4247
  213MPD1    C3 3289   2.633   2.438  16.186 -0.2320  0.0284 -0.7272
  213MPD1    C4 3290   2.586   2.570  16.179 -0.0695  0.3822  0.7101
  213MPD1    C5 3291   2.549   2.622  16.297  0.4150  0.1567  0.1421
  213MPD1     H 3292   2.672   2.268  16.294 -0.1417  0.3372 -0.4083
  213MPD1    H1 3293   2.562   2.631  16.092  0.3567 -0.0248  0.3101
  213MPD1    H2 3294   2.542   2.612  16.507 -0.2980  2.0128 -1.0249
  213MPD1    H3 3295   2.513   2.725  16.296  1.6796  0.6049 -0.4832
  213MPD1     N 3296   2.671   2.369  16.064  0.2215 -0.3630  0.4611
  213MPD1    H5 3297   2.690   2.269  16.070 -2.5651 -0.8445  1.3034
  213MPD1    N1 3298   2.603   2.358  16.551  0.0094 -0.1166 -0.4925
  213MPD1    H6 3299   2.551   2.402  16.626  1.3855 -1.6150  1.3610
  213MPD1    H7 3300   2.573   2.261  16.548  0.2859 -0.2706  2.3647
  214MPD1     C 3301   2.234   1.727  15.477 -0.1977  0.0704  0.0385
  214MPD1    C1 3302   2.272   1.738  15.614  0.2147 -0.2854  0.0682
  214MPD1    C2 3303   2.379   1.822  15.642 -0.0730  0.2203 -0.0972
  214MPD1    C3 3304   2.451   1.888  15.539 -0.1273 -0.3428 -0.3114
  214MPD1    C4 3305   2.406   1.879  15.406 -0.2809 -0.3762 -0.2825
  214MPD1    C5 3306   2.307   1.793  15.381 -0.4256 -1.0424  0.3432
  214MPD1     H 3307   2.410   1.831  15.746  2.2973  0.0364 -0.7735
  214MPD1    H1 3308   2.446   1.932  15.320 -0.2830  0.2593  0.1060
  214MPD1    H2 3309   2.151   1.663  15.449 -1.2249  0.8618  1.2808
  214MPD1    H3 3310   2.279   1.770  15.279 -2.8798  0.6890  0.6347
  214MPD1     N 3311   2.556   1.981  15.571 -0.2994 -0.0544  0.1175
  214MPD1    H5 3312   2.595   2.025  15.489 -0.1601  3.0608  1.8437
  214MPD1    N1 3313   2.206   1.671  15.716 -0.1530 -0.3332 -0.1225
  214MPD1    H6 3314   2.275   1.647  15.787  0.9689  2.6687 -0.2267
  214MPD1    H7 3315   2.150   1.590  15.690 -1.5222 -0.1324  2.1698
  215MPD1     C 3316   1.925   3.099  11.513  0.4321 -0.3562 -0.0327
  215MPD1    C1 3317   1.899   3.187  11.609 -0.3082 -0.2791 -0.2331
  215MPD1    C2 3318   1.986   3.286  11.635  0.5114 -0.7555  0.1845
  215MPD1    C3 3319   2.072   3.319  11.536 -0.6845  0.1564 -0.2063
  215MPD1    C4 3320   2.091   3.236  11.427 -0.4101 -0.0974 -0.6090
  215MPD1    C5 3321   2.014   3.128  11.419 -0.4905 -0.5635  0.1521
  215MPD1     H 3322   1.981   3.347  11.724  0.7369 -0.2188 -0.1727
  215MPD1    H1 3323   2.172   3.246  11.356 -1.4994  0.5853 -1.7445
  215MPD1    H2 3324   1.857   3.015  11.512  2.6150 -2.1008 -1.5186
  215MPD1    H3 3325   2.026   3.055  11.340 -0.7032  0.5668 -0.9432
  215MPD1     N 3326   2.140   3.445  11.549  0.4654 -0.3683 -0.1413
  215MPD1    H5 3327   2.126   3.489  11.639 -0.0290  1.0782 -0.9305
  215MPD1    N1 3328   1.810   3.149  11.704 -0.7935  0.8734 -0.9864
  215MPD1    H6 3329   1.770   3.218  11.767 -1.0025 -1.4521  1.3876
  215MPD1    H7 3330   1.729   3.101  11.665 -0.4951  1.2311 -2.0565
  216MPD1     C 3331   3.841   2.113   0.200 -0.5300  0.2393  0.7356
  216MPD1    C1 3332   3.787   2.042   0.301  0.4871  0.5547 -0.4206
  216MPD1    C2 3333   3.770   1.908   0.280  0.3782 -0.4796 -0.0653
  216MPD1    C3 3334   3.775   1.856   0.152  0.0843 -0.0267 -0.2293
  216MPD1    C4 3335   3.817   1.942   0.046  0.2319  0.6700 -0.0123
  216MPD1    C5 3336   3.856   2.064   0.074  0.3575  0.0645  0.7370
  216MPD1     H 3337   3.734   1.844   0.360 -1.4521  0.8650  0.1911
  216MPD1    H1 3338   3.845   1.917  17.688 -0.0198 -0.6074  0.2340
  216MPD1    H2 3339   3.855   2.221   0.204 -0.9043  0.3527 -1.0083
  216MPD1    H3 3340   3.890   2.131  17.741 -1.5614  0.2431  0.0324
  216MPD1     N 3341   3.740   1.722   0.123 -0.3477  0.2722  0.3261
  216MPD1    H5 3342   3.728   1.656   0.199 -0.2230 -2.3377 -1.8932
  216MPD1    N1 3343   3.779   2.105   0.429 -0.6788 -0.0173  0.3102
  216MPD1    H6 3344   3.712   2.062   0.492 -0.6595 -2.2961 -1.2086
  216MPD1    H7 3345   3.751   2.202   0.413 -1.8053 -0.7793 -2.2919
  217MPD1     C 3346   4.336   2.422   8.785 -0.9154  0.8603 -0.3196
  217MPD1    C1 3347   4.439   2.334   8.824  0.1018  0.9419  0.3455
  217MPD1    C2 3348   4.552   2.388   8.879  0.4034 -0.3250 -0.3242
  217MPD1    C3 3349   4.563   2.524   8.911 -0.0035 -0.1295  0.9745
  217MPD1    C4 3350   4.466   2.614   8.880  0.0934 -0.5506  0.2071
  217MPD1    C5 3351   4.359   2.560   8.812 -0.7675 -0.9492  0.7891
  217MPD1     H 3352   4.642   2.327   8.875  0.4728 -0.1946 -0.7681
  217MPD1    H1 3353   4.464   2.720   8.903  1.3308 -0.8052  1.5302
  217MPD1    H2 3354   4.249   2.392   8.727 -1.1577  0.1494  0.4132
  217MPD1    H3 3355   4.281   2.626   8.772  0.1977 -2.2220 -3.2140
  217MPD1     N 3356   4.671   2.578   8.977 -0.0170  0.5824 -0.3512
  217MPD1    H5 3357   4.675   2.679   8.982  0.6066  0.4172  2.6553
  217MPD1    N1 3358   4.428   2.196   8.790  0.0730 -0.2597 -0.0369
  217MPD1    H6 3359   4.333   2.162   8.801 -0.3543  1.3806  1.2011
  217MPD1    H7 3360   4.487   2.136   8.848 -1.2457 -0.7478  0.7836
  218MPD1     C 3361   2.938   4.546  12.825  0.2187 -0.1311  0.2929
  218MPD1    C1 3362   2.859   4.533  12.714  1.1397  0.2511  0.3846
  218MPD1    C2 3363   2.769   4.432  12.704  0.2354 -0.4835  0.4737
  218MPD1    C3 3364   2.731   4.360  12.811 -0.3514 -1.1576  0.0601
  218MPD1    C4 3365   2.788   4.394  12.933  0.5932  0.2942  0.3452
  218MPD1    C5 3366   2.896   4.479  12.932 -0.4012 -0.0891  0.0427
  218MPD1     H 3367   2.728   4.410  12.606 -0.3425 -1.1343  0.8525
  218MPD1    H1 3368   2.770   4.353  13.032 -0.8407 -0.5198 -0.2448
  218MPD1    H2 3369   3.022   4.615  12.826  0.4170 -0.3636 -0.4360
  218MPD1    H3 3370   2.948   4.481  13.027  2.1435 -1.2070 -1.3296
  218MPD1     N 3371   2.642   4.249  12.793 -0.2448 -0.3048  0.1343
  218MPD1    H5 3372   2.617   4.217  12.700 -1.9211 -1.4406  0.9706
  218MPD1    N1 3373   2.897   4.596  12.600 -0.1907 -0.1611  0.4453
  218MPD1    H6 3374   2.806   4.627  12.566 -0.6908 -3.0551 -0.8470
  218MPD1    H7 3375   2.947   4.678  12.634 -0.9859  0.6172 -0.2658
  219MPD1     C 3376   2.199   3.611  12.214 -0.6483 -0.2091 -1.4164
  219MPD1    C1 3377   2.286   3.714  12.217 -0.0196  0.4762 -0.1995
  219MPD1    C2 3378   2.299   3.775  12.344  0.1183 -0.0012  0.4296
  219MPD1    C3 3379   2.209   3.761  12.447  0.5506 -0.3701  0.7442
  219MPD1    C4 3380   2.117   3.661  12.433  0.3059 -0.5488  0.3354
  219MPD1    C5 3381   2.110   3.591  12.315 -0.1673 -0.0048  0.4533
  219MPD1     H 3382   2.385   3.840  12.352 -1.3841  2.2307 -1.4597
  219MPD1    H1 3383   2.048   3.647  12.515 -2.0449 -0.5277 -1.6422
  219MPD1    H2 3384   2.186   3.551  12.125 -0.5315  0.4111 -1.8595
  219MPD1    H3 3385   2.039   3.509  12.316  0.9231 -0.9620 -1.2473
  219MPD1     N 3386   2.229   3.838  12.563 -0.2767 -0.4893  0.4780
  219MPD1    H5 3387   2.181   3.804  12.646 -1.4749 -0.8163 -0.3643
  219MPD1    N1 3388   2.392   3.727  12.131 -0.2436  0.0435  0.4703
  219MPD1    H6 3389   2.425   3.823  12.139 -3.2005  0.9845  1.6252
  219MPD1    H7 3390   2.366   3.713  12.034  0.8087  0.3254  0.1473
  220MPD1     C 3391   1.360   4.272   9.990 -0.1254  0.4147  0.1411
  220MPD1    C1 3392   1.300   4.196  10.089  0.2484  0.5146 -0.1350
  220MPD1    C2 3393   1.376   4.147  10.195  0.4072  0.4644 -0.0180
  220MPD1    C3 3394   1.511   4.184  10.212 -0.0830 -0.3200 -0.4230
  220MPD1    C4 3395   1.564   4.273  10.122  0.3462  0.5491  0.3883
  220MPD1    C5 3396   1.486   4.312  10.015  0.2659  0.1841 -0.2456
  220MPD1     H 3397   1.340   4.088  10.278 -1.3241 -0.5999 -1.5278
  220MPD1    H1 3398   1.662   4.318  10.121 -0.6817  2.7519  0.7984
  220MPD1    H2 3399   1.307   4.295   9.898 -2.6378  0.1430  1.5088
  220MPD1    H3 3400   1.533   4.367   9.933  1.3097 -0.3152  0.0223
  220MPD1     N 3401   1.576   4.115  10.319  0.0806  0.4125 -0.3333
  220MPD1    H5 3402   1.520   4.056  10.380 -0.2969  0.4724 -0.6192
  220MPD1    N1 3403   1.165   4.158  10.063 -0.4696  0.2025 -0.4265
  220MPD1    H6 3404   1.124   4.202   9.981 -0.2081  0.7877 -0.2419
  220MPD1    H7 3405   1.116   4.166  10.152  0.5026 -0.0821  0.1292
  221MPD1     C 3406   1.006   3.453  17.614  0.1246 -0.2145 -0.4574
  221MPD1    C1 3407   0.912   3.541  17.557 -0.2436  0.1275 -0.6336
  221MPD1    C2 3408   0.822   3.488  17.468  0.2841  0.8432 -0.0631
  221MPD1    C3 3409   0.816   3.356  17.446  0.0781  0.1258  0.0595
  221MPD1    C4 3410   0.900   3.266  17.515  0.3062 -0.5692  0.3469
  221MPD1    C5 3411   0.988   3.319  17.603 -0.1171 -0.2472  0.0952
  221MPD1     H 3412   0.758   3.556  17.412 -0.2890  1.6048  1.5238
  221MPD1    H1 3413   0.903   3.158  17.515 -0.3371 -0.5905  0.0338
  221MPD1    H2 3414   1.084   3.482  17.683 -0.1054  2.7003 -1.4064
  221MPD1    H3 3415   1.042   3.258  17.675 -0.3452  0.7713  1.1182
  221MPD1     N 3416   0.738   3.291  17.353 -0.0438  0.3112 -0.1585
  221MPD1    H5 3417   0.745   3.190  17.352 -0.8675  0.2487  2.4236
  221MPD1    N1 3418   0.945   3.676  17.559  0.1836  0.4068  0.2165
  221MPD1    H6 3419   0.970   3.699  17.655  1.5405  1.2544 -0.3389
  221MPD1    H7 3420   0.861   3.729  17.535 -0.1546 -1.2323 -2.2105
  222MPD1     C 3421   4.646   1.823  17.589  0.0585 -0.2924 -0.1094
  222MPD1    C1 3422   4.717   1.877  17.687 -0.3139 -0.1218  0.2468
  222MPD1    C2 3423   4.706   2.009  17.714  0.0236 -0.1146  0.7657
  222MPD1    C3 3424   4.631   2.097  17.638 -0.8301 -0.2025 -0.6993
  222MPD1    C4 3425   4.578   2.049  17.526 -0.1518 -0.2612 -0.1749
  222MPD1    C5 3426   4.592   1.915  17.492  0.3256  0.2553 -0.1867
  222MPD1     H 3427   0.015   2.041   0.063  1.0281  2.0691 -0.4769
  222MPD1    H1 3428   4.519   2.111  17.460 -0.4517 -1.7986 -1.3473
  222MPD1    H2 3429   4.654   1.719  17.560  0.1015  0.2185 -1.9323
  222MPD1    H3 3430   4.543   1.873  17.405  0.5776 -1.6932  0.6032
  222MPD1     N 3431   4.597   2.229  17.679 -0.1352  0.1653  0.0412
  222MPD1    H5 3432   4.527   2.270  17.619 -1.2617 -0.4666  0.9381
  222MPD1    N1 3433   0.047   1.796   0.037 -0.5838 -0.1558 -0.2717
  222MPD1    H6 3434   0.093   1.722  17.727 -0.8029  0.4771 -1.3384
  222MPD1    H7 3435   0.124   1.841   0.086 -1.0607  1.6655 -1.1843
  223MPD1     C 3436   3.940   2.502  17.358 -0.1846 -1.0519 -0.0042
  223MPD1    C1 3437   4.064   2.486  17.297  0.0018 -0.0680 -1.1908
  223MPD1    C2 3438   4.179   2.496  17.373  0.0889  0.0524 -0.0847
  223MPD1    C3 3439   4.165   2.558  17.498 -0.2169 -0.2751 -1.2526
  223MPD1    C4 3440   4.038   2.600  17.543  0.5854 -0.5453  1.2898
  223MPD1    C5 3441   3.925   2.575  17.476  0.2126  0.5187  1.0091
  223MPD1     H 3442   4.279   2.483  17.332  0.3386 -4.0662  1.8722
  223MPD1    H1 3443   4.036   2.644  17.643  1.5776  0.2621  0.9535
  223MPD1    H2 3444   3.843   2.481  17.313 -1.0985 -0.1686  1.5294
  223MPD1    H3 3445   3.829   2.607  17.515 -0.4826 -0.5701  0.1908
  223MPD1     N 3446   4.284   2.562  17.578 -0.0143  0.7403 -0.1211
  223MPD1    H5 3447   4.355   2.494  17.553 -1.0619 -0.0381 -0.9829
  223MPD1    N1 3448   4.068   2.399  17.185 -0.6194  0.2200 -0.1361
  223MPD1    H6 3449   3.985   2.415  17.127  0.4036  0.3871 -1.5352
  223MPD1    H7 3450   4.144   2.419  17.122  1.0323 -0.1697  1.7375
  224MPD1     C 3451   0.855   3.770   8.830  0.2563  0.1374  1.0306
  224MPD1    C1 3452   0.978   3.729   8.873  0.3437 -0.5408 -0.2190
  224MPD1    C2 3453   0.985   3.634   8.978  0.7593  0.3315 -0.3734
  224MPD1    C3 3454   0.871   3.592   9.048 -0.0177 -0.2066 -0.0726
  224MPD1    C4 3455   0.752   3.643   9.007  0.5584  0.4882 -0.1332
  224MPD1    C5 3456   0.743   3.728   8.898 -0.6684 -0.1170  0.1981
  224MPD1     H 3457   1.081   3.592   9.003 -0.2715 -1.7158  0.1295
  224MPD1    H1 3458   0.663   3.605   9.057  0.9064  0.4145  0.4226
  224MPD1    H2 3459   0.843   3.827   8.738 -0.9586 -2.9812 -0.7163
  224MPD1    H3 3460   0.647   3.767   8.868  0.1036  1.5504 -0.1289
  224MPD1     N 3461   0.877   3.514   9.165 -0.2689 -0.2636 -0.4739
  224MPD1    H5 3462   0.784   3.485   9.195 -0.8437  0.9965 -1.0442
  224MPD1    N1 3463   1.088   3.759   8.788 -0.1345 -0.3267 -0.0836
  224MPD1    H6 3464   1.174   3.779   8.839 -0.4775 -4.0969  2.0081
  224MPD1    H7 3465   1.083   3.842   8.730 -1.4647 -0.4543 -0.1561
  225MPD1     C 3466   2.550   0.337  12.602  0.6671  0.0648 -0.6482
  225MPD1    C1 3467   2.510   0.218  12.656 -0.2208 -0.0322 -0.4248
  225MPD1    C2 3468   2.413   0.150  12.589  0.1849 -0.0295 -0.2563
  225MPD1    C3 3469   2.363   0.193  12.470 -0.0268 -0.1282  0.4247
  225MPD1    C4 3470   2.407   0.313  12.415 -0.8120 -0.1124 -0.1236
  225MPD1    C5 3471   2.496   0.384  12.487 -0.3435  0.1647  0.0312
  225MPD1     H 3472   2.383   0.053  12.627  0.0101 -0.7859 -2.3108
  225MPD1    H1 3473   2.364   0.344  12.320 -0.2408  1.2518  0.0699
  225MPD1    H2 3474   2.622   0.388  12.665 -1.8508  0.1616  2.2088
  225MPD1    H3 3475   2.517   0.483  12.448  1.4420 -0.2665 -0.1279
  225MPD1     N 3476   2.267   0.116  12.398 -0.0969  0.1919 -0.3871
  225MPD1    H5 3477   2.228   0.169  12.322 -0.8209 -0.7843 -0.6917
  225MPD1    N1 3478   2.554   0.194  12.785  0.6685 -0.6846 -0.0829
  225MPD1    H6 3479   2.556   0.096  12.815 -0.6295 -0.2403  1.5035
  225MPD1    H7 3480   2.642   0.239  12.806  0.0171 -0.8861  3.1332
  226MPD1     C 3481   4.107   4.324   9.834  0.6532  0.0906 -0.5722
  226MPD1    C1 3482   4.090   4.259   9.714  0.4591 -0.9315 -0.2703
  226MPD1    C2 3483   4.196   4.252   9.625  0.2853 -0.2636 -0.3156
  226MPD1    C3 3484   4.326   4.295   9.667 -1.0617  0.6788 -1.0391
  226MPD1    C4 3485   4.342   4.349   9.794 -0.8809 -0.5833  0.5245
  226MPD1    C5 3486   4.227   4.368   9.876 -0.2904 -0.1259 -0.3592
  226MPD1     H 3487   4.188   4.217   9.523 -3.0245  0.9705 -0.4770
  226MPD1    H1 3488   4.439   4.380   9.830 -0.9011  1.7579 -1.3925
  226MPD1    H2 3489   4.020   4.325   9.900 -0.2283  1.6211 -1.7547
  226MPD1    H3 3490   4.228   4.405   9.978 -0.0317 -1.1794  0.0262
  226MPD1     N 3491   4.430   4.282   9.574  0.6627 -0.2928  0.3234
  226MPD1    H5 3492   4.406   4.252   9.480  0.3805 -0.5078  0.4637
  226MPD1    N1 3493   3.959   4.242   9.659 -0.1532  0.1725  0.2520
  226MPD1    H6 3494   3.951   4.158   9.601  0.0217 -0.6927  1.4954
  226MPD1    H7 3495   3.895   4.244   9.738  0.1026  1.2544  0.4295
  227MPD1     C 3496   0.111   3.538   9.082  0.9251 -0.0418 -0.6013
  227MPD1    C1 3497   0.224   3.600   9.126  0.4214  0.2540  0.1547
  227MPD1    C2 3498   0.211   3.730   9.174 -0.3042  0.1349 -1.1572
  227MPD1    C3 3499   0.097   3.796   9.191  0.4313  0.6024 -0.0092
  227MPD1    C4 3500   4.723   3.732   9.148 -0.1668  0.4118 -0.4332
  227MPD1    C5 3501   4.729   3.603   9.101  0.6304  0.2506  0.0117
  227MPD1     H 3502   0.303   3.781   9.200  0.6248 -1.9425 -0.3409
  227MPD1    H1 3503   4.623   3.775   9.156 -0.9159 -1.3399 -0.4723
  227MPD1    H2 3504   0.108   3.436   9.045 -1.2918 -0.2854  0.2349
  227MPD1    H3 3505   4.641   3.548   9.069  0.9171 -0.4345  0.3963
  227MPD1     N 3506   0.096   3.932   9.241 -0.6823  0.4575  0.1565
  227MPD1    H5 3507   0.184   3.976   9.266 -1.1847  3.1366 -2.8446
  227MPD1    N1 3508   0.345   3.544   9.084 -0.6180  0.7252  0.1330
  227MPD1    H6 3509   0.425   3.572   9.141  0.1768 -1.7840  0.2336
  227MPD1    H7 3510   0.340   3.442   9.086 -0.2900  0.7125  0.2089
  228MPD1     C 3511   3.787   1.384  13.147  0.0967  0.3104 -0.0443
  228MPD1    C1 3512   3.790   1.394  13.278 -0.8472  0.8371 -0.1272
  228MPD1    C2 3513   3.740   1.514  13.336 -0.0490  0.1424 -1.1985
  228MPD1    C3 3514   3.709   1.626  13.262 -0.4911 -0.5629 -0.6243
  228MPD1    C4 3515   3.739   1.618  13.131 -0.2156 -0.1028  0.0542
  228MPD1    C5 3516   3.774   1.497  13.077  0.1943 -0.0742  0.5675
  228MPD1     H 3517   3.744   1.520  13.444  1.2079  0.0875 -1.2381
  228MPD1    H1 3518   3.719   1.700  13.062 -2.1495 -0.1967  0.5004
  228MPD1    H2 3519   3.796   1.287  13.100 -0.6506  0.7207 -1.0297
  228MPD1    H3 3520   3.790   1.494  12.969 -0.6381 -0.2091  0.4448
  228MPD1     N 3521   3.669   1.742  13.327  0.3461 -0.2462 -0.1745
  228MPD1    H5 3522   3.636   1.730  13.422  0.4585  0.5985 -0.0283
  228MPD1    N1 3523   3.798   1.271  13.346 -0.3751 -0.1876 -0.1101
  228MPD1    H6 3524   3.858   1.213  13.288 -2.0161 -1.4993 -0.4897
  228MPD1    H7 3525   3.840   1.289  13.437  1.6290  2.9661 -1.6488
  229MPD1     C 3526   3.058   1.240  14.782 -0.1524  0.8806 -0.3368
  229MPD1    C1 3527   2.998   1.195  14.894 -0.8049 -0.2171  0.3033
  229MPD1    C2 3528   3.062   1.103  14.974  0.3346 -0.8947  0.0425
  229MPD1    C3 3529   3.190   1.063  14.935 -0.1277  0.2795 -0.2569
  229MPD1    C4 3530   3.245   1.104  14.819 -0.0215 -0.0482 -0.3015
  229MPD1    C5 3531   3.180   1.195  14.737  0.0236  0.5395 -0.7515
  229MPD1     H 3532   3.013   1.056  15.059  2.2215 -2.2165  0.4182
  229MPD1    H1 3533   3.347   1.082  14.788  0.4293  0.6617  0.6521
  229MPD1    H2 3534   2.997   1.297  14.714  0.0326  2.2496  0.6391
  229MPD1    H3 3535   3.220   1.232  14.643 -1.6394 -0.7037 -1.9627
  229MPD1     N 3536   3.268   0.967  15.003 -0.0590  0.4379 -0.0717
  229MPD1    H5 3537   3.355   0.945  14.954 -0.2120 -1.8849  0.6871
  229MPD1    N1 3538   2.861   1.227  14.918  0.0284 -0.5065  0.0291
  229MPD1    H6 3539   2.835   1.227  15.016 -2.3619 -0.7999 -0.5966
  229MPD1    H7 3540   2.843   1.318  14.876 -1.0184 -0.8298 -0.2260
  230MPD1     C 3541   3.504   0.739  15.955 -0.5254 -0.4178 -0.4704
  230MPD1    C1 3542   3.387   0.792  15.925 -0.3312 -0.1609 -0.5101
  230MPD1    C2 3543   3.348   0.774  15.792  0.5602  0.4255 -0.4177
  230MPD1    C3 3544   3.439   0.739  15.689 -0.0411  0.3305 -0.0741
  230MPD1    C4 3545   3.557   0.700  15.730 -0.2652  0.3494  0.2962
  230MPD1    C5 3546   3.595   0.709  15.858 -0.2787 -0.6272 -0.0667
  230MPD1     H 3547   3.244   0.801  15.780  0.4675  0.1322 -0.2824
  230MPD1    H1 3548   3.632   0.651  15.668 -1.3791  0.3455 -1.0614
  230MPD1    H2 3549   3.535   0.728  16.058 -1.3638 -1.9288 -0.3918
  230MPD1    H3 3550   3.694   0.675  15.885 -0.0588 -0.2167 -0.3555
  230MPD1     N 3551   3.393   0.719  15.557  0.3467  0.1394 -0.5738
  230MPD1    H5 3552   3.305   0.759  15.528 -0.4227 -0.4418  0.9627
  230MPD1    N1 3553   3.293   0.821  16.026 -0.1782 -0.2637 -0.6233
  230MPD1    H6 3554   3.225   0.892  16.001  0.6567  1.8264  2.8735
  230MPD1    H7 3555   3.341   0.859  16.108 -1.9653  1.6511 -0.4635
  231MPD1     C 3556   2.306   2.278  15.831  0.0649  0.3673 -0.1676
  231MPD1    C1 3557   2.302   2.222  15.708 -0.1103 -1.0055  0.0822
  231MPD1    C2 3558   2.334   2.311  15.604  0.2281 -0.0028 -0.1462
  231MPD1    C3 3559   2.367   2.438  15.625 -0.7142  0.6340  0.4936
  231MPD1    C4 3560   2.383   2.490  15.752  0.1616 -0.2574  0.0198
  231MPD1    C5 3561   2.354   2.408  15.854 -0.2088  0.0357 -0.0240
  231MPD1     H 3562   2.305   2.284  15.503  0.8591  0.2135 -0.3839
  231MPD1    H1 3563   2.416   2.590  15.778  0.2691 -0.0602 -0.8858
  231MPD1    H2 3564   2.264   2.220  15.913 -0.9473 -0.3360 -1.1888
  231MPD1    H3 3565   2.370   2.432  15.958  1.0415 -1.1042  0.0482
  231MPD1     N 3566   2.384   2.516  15.511 -0.2710  0.6080  0.0500
  231MPD1    H5 3567   2.350   2.480  15.423 -1.7583  0.9293  0.4940
  231MPD1    N1 3568   2.226   2.106  15.693 -0.2753 -0.9434 -0.7210
  231MPD1    H6 3569   2.240   2.049  15.776  0.6249  0.1983 -0.0887
  231MPD1    H7 3570   2.241   2.045  15.613  0.1250 -3.6251  1.3682
  232MPD1     C 3571   3.411   0.948   0.368 -0.2668  0.0891  0.0461
  232MPD1    C1 3572   3.489   0.840   0.353 -0.0377 -0.4100 -0.0342
  232MPD1    C2 3573   3.458   0.757   0.251  0.0499 -0.3089  0.1460
  232MPD1    C3 3574   3.375   0.791   0.151  0.0971 -1.0208  0.2342
  232MPD1    C4 3575   3.307   0.908   0.157  0.3598 -0.7582  0.4532
  232MPD1    C5 3576   3.329   0.985   0.270  0.3900 -0.2864  0.4397
  232MPD1     H 3577   3.496   0.655   0.257 -2.2526 -1.0877  1.4573
  232MPD1    H1 3578   3.233   0.945   0.087  1.9338  1.0405 -0.2777
  232MPD1    H2 3579   3.409   1.014   0.454  0.6103 -0.5184  0.5279
  232MPD1    H3 3580   3.273   1.077   0.280  0.0317 -0.2040 -2.4133
  232MPD1     N 3581   3.348   0.698   0.049 -0.0063  0.5583  0.9225
  232MPD1    H5 3582   3.356   0.598   0.064 -0.9052 -0.2678 -4.0635
  232MPD1    N1 3583   3.563   0.800   0.461  0.2331 -0.3131  0.3437
  232MPD1    H6 3584   3.629   0.730   0.427  0.7954  1.0642 -1.3769
  232MPD1    H7 3585   3.620   0.869   0.509 -0.3640  0.2809  0.1865
  233MPD1     C 3586   4.276   3.770   1.982 -0.4332  0.1435  0.0834
  233MPD1    C1 3587   4.332   3.668   2.065  0.4980 -0.0018  0.2884
  233MPD1    C2 3588   4.472   3.666   2.086 -0.1277 -0.0933  0.0757
  233MPD1    C3 3589   4.557   3.752   2.008 -0.1682  0.1191 -0.1277
  233MPD1    C4 3590   4.490   3.838   1.927  0.1912 -0.0182  0.8161
  233MPD1    C5 3591   4.358   3.852   1.912  0.5512  0.0374  0.0448
  233MPD1     H 3592   4.503   3.596   2.163 -2.1326 -0.3816  0.6222
  233MPD1    H1 3593   4.548   3.895   1.856  1.7474 -2.1649  0.3692
  233MPD1    H2 3594   4.172   3.800   1.980 -0.5660 -0.3305 -0.2789
  233MPD1    H3 3595   4.317   3.921   1.839  2.0380 -0.6767 -1.4425
  233MPD1     N 3596   4.696   3.735   2.007 -0.3169  0.3178 -0.4208
  233MPD1    H5 3597   0.009   3.799   1.947 -2.0018  0.6638 -1.4394
  233MPD1    N1 3598   4.240   3.589   2.140  0.6365 -0.6772 -0.3111
  233MPD1    H6 3599   4.287   3.504   2.168  0.6682  0.2458  2.4388
  233MPD1    H7 3600   4.165   3.565   2.075  0.0586  2.2837 -0.7651
  234MPD1     C 3601   1.174   1.657  10.048  0.0215 -0.0222  1.0415
  234MPD1    C1 3602   1.070   1.670   9.960  0.1549  0.3157  0.1029
  234MPD1    C2 3603   1.040   1.803   9.928 -0.1037  0.6974  0.1941
  234MPD1    C3 3604   1.119   1.907   9.951  0.0547  0.1962  1.1289
  234MPD1    C4 3605   1.238   1.885  10.023 -0.6962 -0.0994 -0.4956
  234MPD1    C5 3606   1.260   1.760  10.071  0.4067 -0.6865 -1.0280
  234MPD1     H 3607   0.956   1.825   9.863 -0.9161  0.6220  1.2247
  234MPD1    H1 3608   1.321   1.954  10.021 -0.9843  0.2926  1.2122
  234MPD1    H2 3609   1.208   1.560  10.083 -0.2436 -0.4477  0.1362
  234MPD1    H3 3610   1.357   1.733  10.112  0.3529 -0.2136 -0.5886
  234MPD1     N 3611   1.079   2.031   9.898  0.1809 -0.3278 -0.3578
  234MPD1    H5 3612   0.991   2.041   9.849  0.7761 -0.9758 -1.5768
  234MPD1    N1 3613   0.976   1.572   9.941 -0.1573  0.2024  0.0549
  234MPD1    H6 3614   0.919   1.588   9.859 -1.7108  1.8050  1.4261
  234MPD1    H7 3615   1.025   1.483   9.936 -2.5544 -1.2106  1.6819
  235MPD1     C 3616   0.694   0.666  10.194  0.2712  0.0380 -1.1424
  235MPD1    C1 3617   0.742   0.706  10.068  0.5237 -0.4540 -0.2916
  235MPD1    C2 3618   0.834   0.805  10.055 -0.2634 -0.3274  0.0492
  235MPD1    C3 3619   0.890   0.855  10.167 -0.6293  0.5362  0.6369
  235MPD1    C4 3620   0.838   0.822  10.292 -0.1229  0.4078  0.0318
  235MPD1    C5 3621   0.738   0.729  10.303 -0.8212  0.2168 -0.5294
  235MPD1     H 3622   0.873   0.842   9.961 -2.1339  0.6635 -0.3308
  235MPD1    H1 3623   0.894   0.845  10.382  0.5519 -2.3464  0.3025
  235MPD1    H2 3624   0.621   0.585  10.199  0.5632 -0.0816  1.0447
  235MPD1    H3 3625   0.717   0.681  10.398  0.3910  1.5743  0.4331
  235MPD1     N 3626   0.994   0.950  10.145  0.3517 -0.0196 -0.6476
  235MPD1    H5 3627   1.006   0.976  10.048 -0.7701  0.7531 -0.5798
  235MPD1    N1 3628   0.680   0.657   9.950  0.1894 -0.0875  0.2972
  235MPD1    H6 3629   0.744   0.654   9.872 -1.4030 -1.4269 -0.9588
  235MPD1    H7 3630   0.639   0.565   9.968  4.2405 -1.8410  0.4875
  236MPD1     C 3631   2.075   1.612  10.786 -0.3484  1.1010  0.2389
  236MPD1    C1 3632   2.048   1.498  10.730  1.5794 -0.2804 -0.3423
  236MPD1    C2 3633   2.148   1.404  10.713  0.0691 -0.0041 -0.6466
  236MPD1    C3 3634   2.276   1.429  10.759  0.4647 -0.0130 -0.0286
  236MPD1    C4 3635   2.301   1.552  10.807 -0.2358  0.1775 -0.1780
  236MPD1    C5 3636   2.199   1.640  10.837  0.7795 -1.3962 -0.1269
  236MPD1     H 3637   2.116   1.315  10.660 -0.9773  0.5506 -0.9399
  236MPD1    H1 3638   2.402   1.578  10.835 -0.0328  0.5316 -1.2214
  236MPD1    H2 3639   1.999   1.689  10.789 -1.4068  0.0686 -0.1036
  236MPD1    H3 3640   2.219   1.736  10.885 -1.2517 -0.7302 -0.6501
  236MPD1     N 3641   2.381   1.337  10.744  0.2749 -0.1551  0.4661
  236MPD1    H5 3642   2.478   1.362  10.758  0.4265 -1.2060  1.2567
  236MPD1    N1 3643   1.930   1.492  10.653  0.3530  0.5114 -0.0997
  236MPD1    H6 3644   1.857   1.551  10.693  0.5008  0.2695  0.5189
  236MPD1    H7 3645   1.899   1.395  10.647 -2.2120  1.2558  1.0009
  237MPD1     C 3646   2.721   3.878  15.211 -0.1240  0.6069 -0.7465
  237MPD1    C1 3647   2.683   3.789  15.308 -0.1653  0.0876  0.6797
  237MPD1    C2 3648   2.550   3.758  15.318  0.5059  0.1021 -0.0546
  237MPD1    C3 3649   2.458   3.796  15.220  0.4210 -0.2754 -0.8313
  237MPD1    C4 3650   2.503   3.877  15.122  0.0712  0.1349  0.7506
  237MPD1    C5 3651   2.630   3.927  15.129  0.4214  1.2464 -0.6409
  237MPD1     H 3652   2.517   3.714  15.411 -0.3485 -1.8113 -1.2740
  237MPD1    H1 3653   2.436   3.917  15.047  0.4724  0.1367  0.3903
  237MPD1    H2 3654   2.816   3.928  15.211 -0.3424  1.0186 -0.2577
  237MPD1    H3 3655   2.658   3.992  15.047  2.3670  0.7512 -0.3629
  237MPD1     N 3656   2.322   3.773  15.227 -0.2860  0.4377 -1.0196
  237MPD1    H5 3657   2.266   3.807  15.150  0.7823 -0.7135 -2.3097
  237MPD1    N1 3658   2.772   3.755  15.414  0.4318 -0.2335 -0.2283
  237MPD1    H6 3659   2.870   3.771  15.393  0.9635 -0.5812  2.0235
  237MPD1    H7 3660   2.754   3.662  15.452  1.6627 -0.6767 -0.7538
  238MPD1     C 3661   3.643   2.880  15.706  0.5461 -0.3051  0.4480
  238MPD1    C1 3662   3.726   2.827  15.615 -0.1213  0.4741  0.2121
  238MPD1    C2 3663   3.673   2.765  15.502  0.1458 -0.0608 -0.5775
  238MPD1    C3 3664   3.540   2.726  15.509  0.3315 -0.3328  0.4915
  238MPD1    C4 3665   3.466   2.758  15.622  0.4317 -0.6168  0.2292
  238MPD1    C5 3666   3.512   2.846  15.716  0.8293  0.1907 -0.5762
  238MPD1     H 3667   3.741   2.720  15.431  0.7323 -2.3740  1.4383
  238MPD1    H1 3668   3.366   2.718  15.633 -0.0056 -0.3093 -2.5156
  238MPD1    H2 3669   3.670   2.946  15.788  1.2733  0.6804 -0.5672
  238MPD1    H3 3670   3.449   2.879  15.797  1.5963 -1.0610  0.5331
  238MPD1     N 3671   3.475   2.645  15.415 -0.1024 -0.1331  0.2271
  238MPD1    H5 3672   3.380   2.615  15.436 -0.1139 -0.6355 -0.5394
  238MPD1    N1 3673   3.859   2.864  15.613 -0.7809 -0.1285  0.4019
  238MPD1    H6 3674   3.899   2.859  15.706 -0.4691 -0.2105  0.2655
  238MPD1    H7 3675   3.919   2.803  15.557  1.0133  1.6670  0.3729
  239MPD1     C 3676   3.930   3.485  15.138 -0.2129  0.1772  0.4092
  239MPD1    C1 3677   3.978   3.515  15.015 -0.5083  0.2645 -0.2480
  239MPD1    C2 3678   3.900   3.589  14.923  0.2676  0.4350  0.3436
  239MPD1    C3 3679   3.786   3.644  14.971  0.2724 -0.6581 -0.0117
  239MPD1    C4 3680   3.730   3.608  15.090 -0.2345 -0.2512  0.8008
  239MPD1    C5 3681   3.808   3.535  15.175  0.2883  0.4105  0.3473
  239MPD1     H 3682   3.921   3.606  14.818 -1.3059  2.3029  0.3202
  239MPD1    H1 3683   3.633   3.646  15.120 -0.1314  1.5991 -1.2222
  239MPD1    H2 3684   3.987   3.418  15.202 -0.0579 -0.9352 -0.9166
  239MPD1    H3 3685   3.764   3.509  15.270 -0.5588 -1.3135 -0.5203
  239MPD1     N 3686   3.704   3.715  14.875 -1.1232 -0.0985 -0.3394
  239MPD1    H5 3687   3.610   3.729  14.911 -0.5199 -0.8195  1.5196
  239MPD1    N1 3688   4.089   3.439  14.973  0.7768  0.2453  0.2644
  239MPD1    H6 3689   4.126   3.474  14.885 -0.7325 -2.8644 -1.5903
  239MPD1    H7 3690   4.168   3.438  15.037  2.1719  0.7848 -1.4498
  240MPD1     C 3691   3.236   3.373  14.222  0.5807  0.2930  0.6259
  240MPD1    C1 3692   3.103   3.347  14.241 -0.3860  0.5030 -0.1786
  240MPD1    C2 3693   3.067   3.254  14.339  0.4463  0.6816  0.1329
  240MPD1    C3 3694   3.166   3.198  14.424  0.7020  0.5446 -0.2213
  240MPD1    C4 3695   3.297   3.226  14.396 -0.1341  0.7296  0.5458
  240MPD1    C5 3696   3.333   3.307  14.291 -0.2742 -0.3395  0.3719
  240MPD1     H 3697   2.965   3.220  14.344  0.4860  0.7608  1.3947
  240MPD1    H1 3698   3.380   3.179  14.448  0.6013 -1.0854 -2.2814
  240MPD1    H2 3699   3.274   3.433  14.140 -1.3509  2.2010  1.1374
  240MPD1    H3 3700   3.437   3.333  14.272 -0.6155 -0.2090 -1.2475
  240MPD1     N 3701   3.123   3.115  14.534 -0.2306 -0.0181 -0.7852
  240MPD1    H5 3702   3.026   3.092  14.552 -0.8729  1.7042 -2.1236
  240MPD1    N1 3703   3.009   3.396  14.153  0.5019 -0.3898 -0.9861
  240MPD1    H6 3704   2.920   3.419  14.196  1.4515  1.5568 -0.0597
  240MPD1    H7 3705   3.038   3.480  14.103  0.6200  0.6374  0.8282
  241MPD1     C 3706   3.263   3.106  15.527 -0.0968  0.1702  0.0738
  241MPD1    C1 3707   3.219   2.980  15.496 -0.1796  0.2575  0.0467
  241MPD1    C2 3708   3.204   2.947  15.365  0.1002 -0.3325  0.2416
  241MPD1    C3 3709   3.242   3.033  15.263 -0.6200  1.0329  0.0933
  241MPD1    C4 3710   3.292   3.155  15.294 -0.0100 -1.1463  0.5078
  241MPD1    C5 3711   3.307   3.188  15.428  0.0125  0.3692  0.0054
  241MPD1     H 3712   3.149   2.855  15.344 -0.0884  0.4859 -2.8735
  241MPD1    H1 3713   3.320   3.220  15.212 -0.1524 -0.6491  0.8566
  241MPD1    H2 3714   3.269   3.139  15.630 -0.3890 -0.2910  0.2402
  241MPD1    H3 3715   3.358   3.276  15.465  0.6331  0.1688 -0.3758
  241MPD1     N 3716   3.223   3.001  15.124  0.2051  0.0842  0.2827
  241MPD1    H5 3717   3.222   3.080  15.062 -0.4888  0.1916  0.4308
  241MPD1    N1 3718   3.150   2.893  15.588  1.0712 -0.4100  0.3174
  241MPD1    H6 3719   3.168   2.915  15.686 -0.6035 -0.5164  0.6393
  241MPD1    H7 3720   3.157   2.793  15.573 -2.4460 -0.4078 -1.2122
  242MPD1     C 3721   2.224   1.062  16.218  0.8170 -0.3153  0.4249
  242MPD1    C1 3722   2.174   1.036  16.089  0.9158 -0.2387  0.1658
  242MPD1    C2 3723   2.263   1.025  15.989  0.0907  0.1990  0.2743
  242MPD1    C3 3724   2.401   1.047  16.004 -0.2117 -0.4234  0.8448
  242MPD1    C4 3725   2.448   1.065  16.133 -0.1541  0.3700 -0.2929
  242MPD1    C5 3726   2.357   1.082  16.240 -0.1630 -0.5005 -0.1911
  242MPD1     H 3727   2.222   1.006  15.891 -1.6521 -1.2033  1.2751
  242MPD1    H1 3728   2.556   1.067  16.143 -0.0661 -1.1093 -0.9278
  242MPD1    H2 3729   2.160   1.050  16.304 -0.0275 -0.4198 -0.2193
  242MPD1    H3 3730   2.390   1.096  16.342 -0.3702  4.5366 -0.7975
  242MPD1     N 3731   2.491   1.038  15.899 -0.1162 -0.1998  0.0160
  242MPD1    H5 3732   2.577   1.087  15.924 -1.3856  0.3434  3.2125
  242MPD1    N1 3733   2.046   0.989  16.069  0.8442 -0.3184 -0.2688
  242MPD1    H6 3734   2.005   1.006  15.978  3.2853 -0.4777 -1.3925
  242MPD1    H7 3735   1.976   1.012  16.140  0.8984 -0.8473 -0.0415
  243MPD1     C 3736   3.698   0.661   0.008 -0.5080  0.3576 -0.7174
  243MPD1    C1 3737   3.790   0.561   0.021  1.1033 -0.1044 -0.6823
  243MPD1    C2 3738   3.922   0.601   0.025  0.2255 -0.2393  0.4117
  243MPD1    C3 3739   3.960   0.736   0.039  0.3790  0.8774  0.5360
  243MPD1    C4 3740   3.865   0.833   0.048  0.0383  0.0921  0.0665
  243MPD1    C5 3741   3.735   0.793   0.026  0.0538  0.3111 -0.7438
  243MPD1     H 3742   3.996   0.523   0.036  0.5302 -0.1038 -0.6315
  243MPD1    H1 3743   3.895   0.935   0.068  0.8635 -0.1796  0.2386
  243MPD1    H2 3744   3.594   0.637  17.737 -0.1445 -3.3061  2.3312
  243MPD1    H3 3745   3.658   0.867   0.045 -0.8627 -0.9738  0.4814
  243MPD1     N 3746   4.098   0.769   0.050 -0.2153  0.0560 -0.8445
  243MPD1    H5 3747   4.164   0.692   0.043 -1.3874 -1.2344  2.1789
  243MPD1    N1 3748   3.764   0.429  17.733 -0.3123 -0.3333  0.3405
  243MPD1    H6 3749   3.673   0.393   0.018  0.0353 -0.7963  0.8625
  243MPD1    H7 3750   3.840   0.364   0.006 -1.9615 -2.3290  0.0791
  244MPD1     C 3751   4.656   0.121  17.572  0.4412  0.1538 -0.4636
  244MPD1    C1 3752   4.630   0.186  17.450 -0.0906 -0.3651  0.0993
  244MPD1    C2 3753   4.587   0.320  17.459 -0.1777 -0.0251  0.6674
  244MPD1    C3 3754   4.575   0.378  17.584 -0.3622 -0.2143 -0.1578
  244MPD1    C4 3755   4.613   0.317  17.704  0.4214  0.3657  0.0199
  244MPD1    C5 3756   4.645   0.188  17.688  0.2020  0.3580 -0.1226
  244MPD1     H 3757   4.565   0.379  17.370 -1.0783 -2.3386 -0.6319
  244MPD1    H1 3758   4.621   0.373   0.052 -0.0077 -0.9800  0.8796
  244MPD1    H2 3759   4.697   0.021  17.582 -0.4572 -0.1232  0.4309
  244MPD1    H3 3760   4.674   0.134   0.034 -0.2480 -0.3790 -0.4240
  244MPD1     N 3761   4.516   0.506  17.587  0.1272 -0.0592  0.3248
  244MPD1    H5 3762   4.513   0.552  17.497  1.0376 -0.0012  0.3263
  244MPD1    N1 3763   4.633   0.115  17.327 -0.1470 -0.4023 -0.7122
  244MPD1    H6 3764   4.666   0.167  17.247  0.5548  0.1651 -0.0547
  244MPD1    H7 3765   4.684   0.026  17.330  3.1155  1.5310  1.3743
  245MPD1     C 3766   1.796   0.234  12.973  0.0987  0.6453 -0.9908
  245MPD1    C1 3767   1.795   0.211  13.111  0.2521  0.4794 -0.3631
  245MPD1    C2 3768   1.814   0.320  13.195  0.0981  0.3016  0.5146
  245MPD1    C3 3769   1.851   0.448  13.142  0.5173  0.6164 -0.6470
  245MPD1    C4 3770   1.864   0.462  13.008 -0.5376  0.7669  0.2840
  245MPD1    C5 3771   1.829   0.355  12.929 -0.6133  0.2097 -0.1339
  245MPD1     H 3772   1.789   0.315  13.301 -1.5359 -0.7993  0.0736
  245MPD1    H1 3773   1.890   0.555  12.960 -0.1290  0.3781 -0.2439
  245MPD1    H2 3774   1.782   0.153  12.903 -1.1253  0.2383 -0.2648
  245MPD1    H3 3775   1.832   0.372  12.822  0.1018 -2.6374 -0.5662
  245MPD1     N 3776   1.882   0.543  13.236 -0.4696 -0.0446 -0.3154
  245MPD1    H5 3777   1.891   0.521  13.335  0.6121 -2.3683 -0.9363
  245MPD1    N1 3778   1.757   0.089  13.168  0.1093 -0.1711 -0.0451
  245MPD1    H6 3779   1.777   0.021  13.096 -0.6675 -0.3217 -0.1184
  245MPD1    H7 3780   1.813   0.061  13.248  0.7646 -0.0406 -0.4585
  246MPD1     C 3781   2.729   2.624  10.030 -1.6097 -0.0151  0.9677
  246MPD1    C1 3782   2.649   2.738  10.001 -0.7176 -0.2042 -0.0256
  246MPD1    C2 3783   2.510   2.710   9.978 -0.5652  0.7133 -0.2481
  246MPD1    C3 3784   2.458   2.586   9.999  0.2740  0.6099 -0.2345
  246MPD1    C4 3785   2.537   2.480  10.043  0.7214  0.0389  0.4577
  246MPD1    C5 3786   2.672   2.503  10.050  0.1872 -0.5491 -0.2063
  246MPD1     H 3787   2.455   2.793   9.934 -1.3909  1.1820  1.6525
  246MPD1    H1 3788   2.512   2.375  10.047  1.2254 -0.0489  1.4536
  246MPD1    H2 3789   2.834   2.643  10.048 -1.1238 -0.4301 -1.4362
  246MPD1    H3 3790   2.741   2.420  10.060  1.1134  0.1731 -0.6982
  246MPD1     N 3791   2.328   2.569   9.950  0.2993 -0.6700 -0.0905
  246MPD1    H5 3792   2.275   2.647   9.911  2.1085  0.6814  0.1562
  246MPD1    N1 3793   2.706   2.858   9.964  0.2814 -0.3914  0.3882
  246MPD1    H6 3794   2.633   2.928   9.974 -0.7817 -1.6233  1.2013
  246MPD1    H7 3795   2.780   2.881  10.029 -0.5913  1.1024  0.8514
  247MPD1     C 3796   1.233   1.749  15.705 -0.7089 -0.0210 -0.5024
  247MPD1    C1 3797   1.136   1.709  15.793  0.0663 -0.4830 -0.0399
  247MPD1    C2 3798   1.086   1.577  15.790  0.2910 -0.2806  0.9041
  247MPD1    C3 3799   1.118   1.500  15.681 -0.2189 -0.2383  0.6106
  247MPD1    C4 3800   1.192   1.552  15.573 -0.1041  0.8822 -0.3876
  247MPD1    C5 3801   1.249   1.673  15.591  0.0202 -1.2173  0.1017
  247MPD1     H 3802   1.032   1.532  15.872 -1.8656  0.7381  0.0391
  247MPD1    H1 3803   1.210   1.496  15.482 -0.6543 -0.4624  0.3277
  247MPD1    H2 3804   1.291   1.839  15.718 -0.1693 -0.5359  0.6641
  247MPD1    H3 3805   1.296   1.717  15.504  3.6738 -0.9771  2.1787
  247MPD1     N 3806   1.076   1.364  15.663 -0.2198 -0.4046  0.8262
  247MPD1    H5 3807   1.097   1.317  15.576  3.0357 -1.8993  2.4387
  247MPD1    N1 3808   1.132   1.780  15.918  0.2900 -0.0491  0.4261
  247MPD1    H6 3809   1.039   1.771  15.959  1.5589 -0.5657  3.1421
  247MPD1    H7 3810   1.155   1.878  15.908 -0.1679  0.1703  1.6353
  248MPD1     C 3811   1.062   0.413   0.157 -0.3656 -0.4856 -0.2060
  248MPD1    C1 3812   1.013   0.480   0.049 -0.3312 -0.0549 -1.0131
  248MPD1    C2 3813   0.925   0.583   0.078 -0.9033  0.0882 -0.3432
  248MPD1    C3 3814   0.881   0.617   0.203 -0.4814  0.7127  0.1314
  248MPD1    C4 3815   0.929   0.546   0.315 -0.8879 -0.1233  0.0819
  248MPD1    C5 3816   1.012   0.443   0.281 -0.1054 -0.5735  0.3319
  248MPD1     H 3817   0.890   0.635  17.734  4.3611  0.6103 -2.1176
  248MPD1    H1 3818   0.909   0.567   0.419  1.4730  1.2846  0.2390
  248MPD1    H2 3819   1.130   0.329   0.156 -0.2248 -0.3712 -0.1989
  248MPD1    H3 3820   1.057   0.392   0.366  0.4516 -1.9516 -0.7963
  248MPD1     N 3821   0.804   0.732   0.207  0.0921 -0.2075 -0.4906
  248MPD1    H5 3822   0.771   0.765   0.117 -1.9549 -0.0626  0.3012
  248MPD1    N1 3823   1.078   0.472  17.667 -0.3624 -0.1216 -0.0354
  248MPD1    H6 3824   1.023   0.513  17.592  1.0120 -0.5576 -1.2915
  248MPD1    H7 3825   1.096   0.376  17.638  0.9086 -0.4295  1.8054
  249MPD1     C 3826   2.378   3.110  11.288  0.2700  0.0141 -0.4431
  249MPD1    C1 3827   2.501   3.165  11.259 -0.4308  0.7424 -0.1811
  249MPD1    C2 3828   2.530   3.197  11.122 -0.7761 -0.3020 -0.5572
  249MPD1    C3 3829   2.438   3.167  11.024 -0.6315  0.0934  0.3038
  249MPD1    C4 3830   2.316   3.110  11.055 -0.0080  0.5034 -0.2866
  249MPD1    C5 3831   2.286   3.083  11.189 -0.1353  0.9612 -0.4286
  249MPD1     H 3832   2.624   3.245  11.096 -1.0069  0.7468  0.5276
  249MPD1    H1 3833   2.231   3.090  10.991 -1.3514 -0.6593  1.8457
  249MPD1    H2 3834   2.347   3.098  11.391 -0.5356 -0.5124 -0.7406
  249MPD1    H3 3835   2.189   3.039  11.206 -0.0889  1.2452  0.5859
  249MPD1     N 3836   2.475   3.207  10.898 -0.4762  0.2356 -0.4483
  249MPD1    H5 3837   2.570   3.242  10.884  0.9558 -2.2579  2.7906
  249MPD1    N1 3838   2.582   3.214  11.359 -0.1054  0.4305 -0.0912
  249MPD1    H6 3839   2.591   3.152  11.439 -0.5711  3.6939  2.4597
  249MPD1    H7 3840   2.679   3.230  11.331 -0.1147  0.1807 -0.2711
  250MPD2     C 3841   4.564   4.282  13.533 -0.6604  0.4033 -0.5383
  250MPD2    C1 3842   4.645   4.315  13.426 -0.2918  0.1720  0.5729
  250MPD2    C2 3843   4.597   4.272  13.301 -0.1398 -0.1119 -0.1774
  250MPD2    C3 3844   4.495   4.181  13.296 -0.3300 -0.5321 -0.3438
  250MPD2    C4 3845   4.431   4.141  13.408  0.1230 -0.6718  0.2940
  250MPD2    C5 3846   4.453   4.201  13.526  0.5471 -0.1931  0.6141
  250MPD2     H 3847   4.636   4.310  13.207 -0.7179 -0.9305 -0.7589
  250MPD2    H1 3848   4.356   4.064  13.396 -0.0017 -0.4750 -0.1920
  250MPD2    H2 3849   4.597   4.320  13.630 -1.4210  0.7909 -0.4330
  250MPD2    H3 3850   4.396   4.173  13.614 -0.2545 -1.2771 -0.2559
  250MPD2     N 3851   4.450   4.115  13.181 -1.2235  0.0196 -0.0777
  250MPD2    H5 3852   4.372   4.051  13.189  1.2087 -2.6362  2.1862
  250MPD2    N1 3853   0.026   4.404  13.443  0.2934  0.6796  0.1054
  250MPD2    H7 3854   0.047   4.443  13.534 -2.3451  0.4330  0.8088
  251TMC3    C1 3855   0.202   4.546  13.379 -0.1106 -0.0107 -0.2127
  251TMC3    C2 3856   0.161   4.641  13.472 -0.3141 -0.1137  0.6065
  251TMC3    C3 3857   0.257   4.727  13.521  0.2639 -0.2585  0.4787
  251TMC3    C4 3858   0.327   4.546  13.325 -0.8271 -0.1620 -0.1076
  251TMC3    C5 3859   0.423   4.635  13.376 -0.0111  0.3033 -0.1141
  251TMC3    C6 3860   0.386   4.732  13.468 -0.0154  0.0845  0.9883
  251TMC3     C 3861   0.114   4.437  13.340  0.1265  0.0917 -0.8176
  251TMC3     O 3862   0.116   4.396  13.223  0.4419 -0.2009 -0.3979
  251TMC3     H 3863   0.060   4.652  13.510 -1.1278 -0.5708 -1.4469
  251TMC3    H1 3864   0.352   4.463  13.261  0.3324  0.6494 -0.7137
  251TMC3    H2 3865   0.459   0.055  13.521  1.0525 -0.1515 -0.2360
  251TMC3    C7 3866   0.556   4.589  13.363  0.2198  0.9246  0.6193
  251TMC3    C8 3867   0.201   0.107  13.590 -0.4208 -0.2436 -0.3935
  251TMC3    O1 3868   0.579   4.469  13.352 -0.5619 -0.1649 -0.2721
  251TMC3    O2 3869   0.116   0.084  13.678  0.1266  1.0375  0.3413
  252TMC3    C1 3870   0.577   0.653   9.405  0.2648 -0.1040  0.0782
  252TMC3    C2 3871   0.601   0.780   9.439  0.0195 -0.8237  0.1764
  252TMC3    C3 3872   0.568   0.821   9.567 -0.1640 -0.6760  0.2420
  252TMC3    C4 3873   0.529   0.558   9.491  0.1167  0.7682  0.2890
  252TMC3    C5 3874   0.494   0.602   9.618  0.3533 -0.3687 -1.1734
  252TMC3    C6 3875   0.505   0.732   9.658  0.2972 -0.9377  0.4444
  252TMC3     C 3876   0.634   0.614   9.277  0.1048  0.6181 -0.1935
  252TMC3     O 3877   0.660   0.700   9.194  0.9023 -0.0774  0.3678
  252TMC3     H 3878   0.654   0.847   9.374  2.4115 -1.6500  1.2622
  252TMC3    H1 3879   0.507   0.457   9.460  0.8189  0.6786  0.0786
  252TMC3    H2 3880   0.471   0.752   9.759 -1.1754  0.5717 -0.3528
  252TMC3    C7 3881   0.404   0.519   9.699  0.3909 -0.7068 -0.2007
  252TMC3    C8 3882   0.601   0.955   9.602  0.3639 -1.0969  0.3990
  252TMC3    O1 3883   0.328   0.579   9.772  1.1111 -0.0993 -0.0240
  252TMC3    O2 3884   0.668   1.024   9.526 -0.4182  0.4039  0.4579
  253MPD2     C 3885   1.234   4.088  15.357  0.2107  0.5125 -0.3670
  253MPD2    C1 3886   1.100   4.121  15.354 -0.4886 -0.7109 -0.5895
  253MPD2    C2 3887   1.027   4.087  15.459 -0.3817 -0.0204 -0.7436
  253MPD2    C3 3888   1.076   4.008  15.562 -0.2085  1.2721  0.4981
  253MPD2    C4 3889   1.200   3.963  15.559 -0.3338  0.6548 -0.6344
  253MPD2    C5 3890   1.280   4.003  15.454  0.1601 -0.2463  0.2873
  253MPD2     H 3891   0.923   4.117  15.461 -0.6183 -0.8554 -0.6371
  253MPD2    H1 3892   1.235   3.897  15.637  2.9466  3.0082 -0.1490
  253MPD2    H2 3893   1.296   4.115  15.273  0.7431  0.2160 -0.0720
  253MPD2    H3 3894   1.377   3.956  15.441 -0.5038 -1.2721 -1.0448
  253MPD2     N 3895   0.999   3.990  15.683  0.5240  0.1992  0.0493
  253MPD2    H5 3896   1.035   3.933  15.758 -0.9029 -2.2801 -1.1488
  253MPD2    N1 3897   1.046   4.198  15.245 -0.0929  0.5785 -0.1560
  253MPD2    H7 3898   0.945   4.210  15.242  0.0390  1.3624 -1.5417
  254TMC3    C1 3899   0.861   4.042  15.874  0.1056  0.4416 -0.2906
  254TMC3    C2 3900   0.806   4.154  15.938  0.6056  0.2967  0.1604
  254TMC3    C3 3901   0.816   4.155  16.069  0.1385  0.3426 -0.2329
  254TMC3    C4 3902   0.902   3.927  15.938 -0.1937 -0.2707  0.0939
  254TMC3    C5 3903   0.903   3.942  16.071  0.0710 -0.5568 -0.0526
  254TMC3    C6 3904   0.865   4.054  16.142  0.7002  0.3405  0.1229
  254TMC3     C 3905   0.883   4.060  15.729 -0.0535 -0.9610  0.1847
  254TMC3     O 3906   0.827   4.154  15.674  0.4488  0.1698  0.1907
  254TMC3     H 3907   0.764   4.234  15.879  0.5653 -0.4159 -0.7676
  254TMC3    H1 3908   0.921   3.835  15.884  1.2771 -0.3264  0.6981
  254TMC3    H2 3909   0.862   4.071  16.249 -1.1349  1.0481 -0.0434
  254TMC3    C7 3910   0.958   3.835  16.152  0.2448 -0.4299  0.2003
  254TMC3    C8 3911   0.729   4.253  16.138 -0.4478  0.1724  0.1086
  254TMC3    O1 3912   0.933   3.854  16.272 -0.3783  0.2233  0.4815
  254TMC3    O2 3913   0.711   4.241  16.257  0.6564 -0.0690  0.2986
  255MPD2     C 3914   4.168   1.647  10.393 -0.4581 -0.9909  0.0702
  255MPD2    C1 3915   4.145   1.780  10.377 -0.3618 -0.0675 -0.3572
  255MPD2    C2 3916   4.231   1.853  10.302  0.4474 -0.1445  0.3013
  255MPD2    C3 3917   4.336   1.798  10.234  0.1408  0.3154  0.0634
  255MPD2    C4 3918   4.361   1.666  10.255 -0.6406 -0.3690  0.3014
  255MPD2    C5 3919   4.276   1.585  10.332  0.7069  0.2457 -1.0748
  255MPD2     H 3920   4.219   1.959  10.283  1.7216 -0.1377 -0.4655
  255MPD2    H1 3921   4.443   1.623  10.199 -1.0207  0.4411 -0.8804
  255MPD2    H2 3922   4.097   1.584  10.446 -1.2347  0.4593  0.7391
  255MPD2    H3 3923   4.291   1.478  10.347 -0.5763  0.3657  0.9992
  255MPD2     N 3924   4.407   1.885  10.155  0.8641 -0.1389  0.0480
  255MPD2    H5 3925   4.381   1.983  10.155  1.3142 -0.0207 -1.1146
  255MPD2    N1 3926   4.034   1.838  10.446  0.0731  0.5917 -0.7093
  255MPD2    H7 3927   3.974   1.773  10.495 -0.6185  1.3634 -0.5353
  256TMC3    C1 3928   3.885   2.001  10.532  0.0681 -0.1181 -0.1125
  256TMC3    C2 3929   3.902   2.127  10.580 -0.1847 -0.2928  0.0447
  256TMC3    C3 3930   3.789   2.208  10.572 -0.0351 -0.1191 -0.2514
  256TMC3    C4 3931   3.770   1.956  10.483 -0.6688 -0.3184 -0.3292
  256TMC3    C5 3932   3.662   2.038  10.482  0.0404  0.2955 -0.4082
  256TMC3    C6 3933   3.663   2.165  10.528 -0.5663  0.4928  0.0958
  256TMC3     C 3934   4.004   1.970  10.454 -0.0596 -0.0856 -0.2567
  256TMC3     O 3935   4.070   2.070  10.421 -0.2656 -0.1509 -0.0194
  256TMC3     H 3936   3.992   2.177  10.612  0.4435 -1.4711  0.1151
  256TMC3    H1 3937   3.758   1.863  10.428 -1.5055 -0.8451  0.7442
  256TMC3    H2 3938   3.582   2.237  10.516 -1.2897  0.0505  2.3212
  256TMC3    C7 3939   3.561   2.017  10.382 -0.1206 -0.0504 -0.4422
  256TMC3    C8 3940   3.811   2.351  10.564 -0.0208  0.1381 -0.8214
  256TMC3    O1 3941   3.504   2.116  10.334 -0.0149  1.0170  0.3113
  256TMC3    O2 3942   3.730   2.418  10.628 -0.5273  0.5651  0.3600
  257MPD2     C 3943   3.288   4.005  13.337  0.3591  0.8479  0.2699
  257MPD2    C1 3944   3.417   4.021  13.292  0.7604 -0.4919  0.0106
  257MPD2    C2 3945   3.516   3.939  13.337 -0.3045  0.1106 -0.4398
  257MPD2    C3 3946   3.493   3.847  13.439 -0.2461  0.3144  0.0555
  257MPD2    C4 3947   3.364   3.841  13.488  0.0488 -0.3424  0.2555
  257MPD2    C5 3948   3.260   3.918  13.441 -0.2133 -0.5518 -0.0920
  257MPD2     H 3949   3.617   3.943  13.298 -0.6176 -0.4248 -1.3092
  257MPD2    H1 3950   3.338   3.765  13.561  3.9276 -1.6103  0.3272
  257MPD2    H2 3951   3.211   4.078  13.312 -0.8207 -0.9356 -1.2536
  257MPD2    H3 3952   3.165   3.903  13.489 -0.7170  0.9188 -0.6225
  257MPD2     N 3953   3.581   3.747  13.482 -0.4532  0.1809  0.9219
  257MPD2    H5 3954   3.551   3.681  13.554 -0.0750 -0.2778  0.6559
  257MPD2    N1 3955   3.446   4.121  13.198 -0.5785 -0.5548 -0.2035
  257MPD2    H7 3956   3.369   4.158  13.143  0.7369  0.2464 -1.5121
  258TMC3    C1 3957   3.788   3.639  13.495 -0.0114  0.6593  0.4674
  258TMC3    C2 3958   3.886   3.575  13.423 -0.1683 -0.0352  0.2975
  258TMC3    C3 3959   3.996   3.537  13.494  0.5624 -0.1934  0.3254
  258TMC3    C4 3960   3.794   3.663  13.628  0.6409 -0.3560 -0.3037
  258TMC3    C5 3961   3.903   3.618  13.694 -0.1879  0.0029  0.0105
  258TMC3    C6 3962   4.003   3.557  13.628 -0.0864  0.1318  0.3109
  258TMC3     C 3963   3.701   3.721  13.418 -0.3192 -0.2161  0.2352
  258TMC3     O 3964   3.752   3.769  13.320  0.0520 -0.0746 -0.2173
  258TMC3     H 3965   3.880   3.569  13.315 -0.3731 -1.2458  0.3694
  258TMC3    H1 3966   3.722   3.724  13.681  0.2779 -0.6604 -0.4459
  258TMC3    H2 3967   4.102   3.551  13.671  0.0045  0.1110  0.1023
  258TMC3    C7 3968   3.918   3.663  13.830  0.2671 -0.2114  0.3411
  258TMC3    C8 3969   4.113   3.546  13.420  1.1315 -0.2799  0.0566
  258TMC3    O1 3970   3.848   3.752  13.873  0.2004  0.2502 -0.0808
  258TMC3    O2 3971   4.199   3.627  13.459 -0.2948  0.6056 -0.0474
  259MPD2     C 3972   2.686   1.449   0.558  0.4431  0.9955  0.0065
  259MPD2    C1 3973   2.724   1.314   0.573 -0.3833  0.1772 -0.1288
  259MPD2    C2 3974   2.729   1.233   0.455 -0.7912 -0.8096  0.4581
  259MPD2    C3 3975   2.696   1.291   0.335 -0.4704 -0.8192 -0.0685
  259MPD2    C4 3976   2.651   1.424   0.327 -0.7727 -0.8866  0.6301
  259MPD2    C5 3977   2.643   1.500   0.439  0.5150  0.0089  0.1919
  259MPD2     H 3978   2.760   1.129   0.453  1.3231 -0.2226  2.2405
  259MPD2    H1 3979   2.629   1.465   0.229 -0.5691  0.1243  1.0070
  259MPD2    H2 3980   2.665   1.506   0.647 -0.4019  0.4242  0.1667
  259MPD2    H3 3981   2.605   1.601   0.433 -0.9602 -0.6843 -2.0978
  259MPD2     N 3982   2.704   1.206   0.219  0.3613 -0.0011  0.0994
  259MPD2    H5 3983   2.734   1.112   0.243 -0.5356 -0.5634 -0.9721
  259MPD2    N1 3984   2.741   1.258   0.698  0.0101 -0.2337  0.4982
  259MPD2    H7 3985   2.734   1.320   0.778  1.3920  1.9443 -1.0427
  260TMC3    C1 3986   2.674   1.143  17.738 -0.0208  0.0989  0.6343
  260TMC3    C2 3987   2.689   1.177  17.610 -0.2594 -0.5323  0.6327
  260TMC3    C3 3988   2.673   1.080  17.517 -0.1566  0.0238  0.2575
  260TMC3    C4 3989   2.652   1.014   0.040  0.8993 -0.6267 -0.2894
  260TMC3    C5 3990   2.624   0.925  17.683  0.4324  0.1044  0.5126
  260TMC3    C6 3991   2.636   0.954  17.547  0.6703 -0.6799 -0.0052
  260TMC3     C 3992   2.669   1.245   0.095  0.4050  0.4493  0.4167
  260TMC3     O 3993   2.642   1.353   0.049  0.2109 -0.1977  0.2357
  260TMC3     H 3994   2.692   1.280  17.576  0.4235 -0.7407  0.0465
  260TMC3    H1 3995   2.626   0.995   0.144  0.4124  0.2337 -0.2492
  260TMC3    H2 3996   2.608   0.883  17.470 -0.7127 -0.0223 -0.1049
  260TMC3    C7 3997   2.623   0.787  17.717  0.5211  0.2216 -0.0681
  260TMC3    C8 3998   2.745   1.095  17.402 -0.2726 -0.3997  0.6710
  260TMC3    O1 3999   2.634   0.720  17.618  0.0048  0.2063 -0.5059
  260TMC3    O2 4000   2.747   1.204  17.349 -0.5658 -0.0645 -0.4358
  261MPD2     C 4001   4.051   3.941  12.541  0.4797  0.0506 -0.4606
  261MPD2    C1 4002   4.168   4.014  12.568  0.6075 -0.6278  0.5461
  261MPD2    C2 4003   4.225   4.091  12.470 -0.3997  0.1027  0.2671
  261MPD2    C3 4004   4.166   4.102  12.346 -0.7204 -0.0380  0.7414
  261MPD2    C4 4005   4.047   4.035  12.322  0.4494 -0.4370 -0.2409
  261MPD2    C5 4006   3.994   3.954  12.419  0.2042 -0.1417 -0.1202
  261MPD2     H 4007   4.309   4.157  12.486 -2.3597  2.6141  0.0930
  261MPD2    H1 4008   3.998   4.036  12.226 -2.0973  0.2758  1.0578
  261MPD2    H2 4009   4.007   3.876  12.615  0.6970 -0.4798 -0.7930
  261MPD2    H3 4010   3.906   3.896  12.392 -0.2531  0.1589  0.7334
  261MPD2     N 4011   4.206   4.204  12.250 -0.1730  0.2126  0.1059
  261MPD2    H5 4012   4.282   4.267  12.273 -0.4950 -0.3519  2.6230
  261MPD2    N1 4013   4.247   4.000  12.684  0.3963 -0.6381 -0.3568
  261MPD2    H7 4014   4.335   4.050  12.690 -0.8915  1.6067 -0.3938
  262TMC3    C1 4015   4.246   4.310  12.035  0.4113  0.2740 -0.4369
  262TMC3    C2 4016   4.265   4.431  12.095 -0.4717 -0.1183  0.3339
  262TMC3    C3 4017   4.307   4.537  12.017 -0.2960 -0.0075 -0.4776
  262TMC3    C4 4018   4.261   4.299  11.900  0.5905  0.2353  0.6781
  262TMC3    C5 4019   4.296   4.409  11.818  0.2795 -0.0102  0.4611
  262TMC3    C6 4020   4.325   4.525  11.884  0.2732  0.6015 -0.1887
  262TMC3     C 4021   4.177   4.201  12.113 -0.9580  0.5928  0.0951
  262TMC3     O 4022   4.129   4.111  12.041 -0.1965  0.3673 -0.1531
  262TMC3     H 4023   4.235   4.428  12.199 -1.9381 -0.6494 -0.1040
  262TMC3    H1 4024   4.263   4.196  11.865 -1.1182 -0.0446  1.4121
  262TMC3    H2 4025   4.369   4.598  11.817  3.2978 -2.1942 -1.2618
  262TMC3    C7 4026   4.324   4.379  11.679 -0.2390 -0.0363  0.3756
  262TMC3    C8 4027   4.355   4.659  12.079 -0.1005  0.7246  0.0517
  262TMC3    O1 4028   4.305   4.262  11.642  0.7716  0.1151 -0.3460
  262TMC3    O2 4029   4.438   4.721  12.017 -0.3276  0.5035 -0.0928
  263MPD2     C 4030   4.590   3.206  11.632 -0.7281 -1.1713  0.9832
  263MPD2    C1 4031   4.687   3.307  11.648  0.0292  0.2450  0.3357
  263MPD2    C2 4032   4.700   3.399  11.549 -0.6605 -0.3431  0.1601
  263MPD2    C3 4033   4.650   3.387  11.424  0.6535 -0.2495  0.0610
  263MPD2    C4 4034   4.558   3.287  11.405  0.8867 -0.4900  0.0533
  263MPD2    C5 4035   4.530   3.204  11.509  0.2434 -0.4656  0.6653
  263MPD2     H 4036   0.044   3.470  11.561 -0.1008 -1.3912  2.5118
  263MPD2    H1 4037   4.499   3.272  11.315  3.8206 -2.3383 -1.5601
  263MPD2    H2 4038   4.580   3.125  11.703 -2.6099 -1.0471  0.8637
  263MPD2    H3 4039   4.459   3.126  11.485  2.4116 -1.5473 -2.1844
  263MPD2     N 4040   4.698   3.474  11.322  0.1717 -0.1093  0.0182
  263MPD2    H5 4041   0.023   3.547  11.357 -0.7389  0.5039  0.3225
  263MPD2    N1 4042   0.035   3.305  11.760  0.5323 -0.4625  0.0227
  263MPD2    H7 4043   0.035   3.219  11.814 -1.1082 -0.7434 -0.4411
  264TMC3    C1 4044   0.039   3.553  11.117 -0.6509  0.4482 -0.1541
  264TMC3    C2 4045   0.079   3.665  11.180  0.6303 -0.1475  0.6815
  264TMC3    C3 4046   0.145   3.759  11.099  0.2931 -0.1451  0.2717
  264TMC3    C4 4047   0.051   3.529  10.982  0.3208  0.5028 -0.5564
  264TMC3    C5 4048   0.109   3.623  10.908  0.0637  0.6413 -0.0556
  264TMC3    C6 4049   0.148   3.741  10.962 -1.0348  0.0110 -0.1276
  264TMC3     C 4050   4.703   3.451  11.186 -0.5230  0.5832  0.5171
  264TMC3     O 4051   4.655   3.358  11.130  0.0165  0.7487 -0.0336
  264TMC3     H 4052   0.051   3.685  11.283  0.1546  0.5812  0.4121
  264TMC3    H1 4053   0.023   3.435  10.937 -3.2814  0.5035  1.6238
  264TMC3    H2 4054   0.196   3.817  10.900 -1.1620  0.9965  0.9962
  264TMC3    C7 4055   0.167   3.572  10.786 -0.1045 -0.4518  0.1720
  264TMC3    C8 4056   0.204   3.882  11.148  0.4821  0.5487  0.7878
  264TMC3    O1 4057   0.203   3.455  10.774  0.6830 -0.0965 -0.2433
  264TMC3    O2 4058   0.256   3.952  11.060  0.4189  0.0710  0.3307
  265MPD2     C 4059   2.427   3.305  15.845  0.1092  0.7856  0.2283
  265MPD2    C1 4060   2.497   3.415  15.806 -0.2418 -0.6676  0.3538
  265MPD2    C2 4061   2.565   3.405  15.685 -0.4815 -0.5708  0.1966
  265MPD2    C3 4062   2.557   3.294  15.608 -0.1003 -0.0272  0.3785
  265MPD2    C4 4063   2.492   3.188  15.651 -0.8068 -0.2719  0.2113
  265MPD2    C5 4064   2.427   3.190  15.766  0.0170 -0.3388 -0.6282
  265MPD2     H 4065   2.600   3.497  15.639 -1.7742  0.1223  0.5832
  265MPD2    H1 4066   2.480   3.100  15.589  3.2680  0.1082 -1.1137
  265MPD2    H2 4067   2.364   3.303  15.933  0.7420 -1.1336  0.6453
  265MPD2    H3 4068   2.367   3.106  15.799  1.1842 -1.3588 -1.1509
  265MPD2     N 4069   2.612   3.296  15.481  0.0331 -0.1842  0.0387
  265MPD2    H5 4070   2.587   3.214  15.426 -1.7122 -0.6890  1.5698
  265MPD2    N1 4071   2.494   3.540  15.874  0.2133 -0.3306 -0.1794
  265MPD2    H7 4072   2.532   3.620  15.826  0.9900 -0.0373  0.9107
  266TMC3    C1 4073   2.436   3.708  16.022  0.8232  0.1377 -0.6791
  266TMC3    C2 4074   2.556   3.778  16.013 -0.0570 -0.6444 -0.0497
  266TMC3    C3 4075   2.552   3.921  16.014 -0.3264  0.0760  0.2112
  266TMC3    C4 4076   2.322   3.780  16.031  0.0426  0.3063  0.7655
  266TMC3    C5 4077   2.325   3.918  16.040 -0.1632 -0.2270  0.0058
  266TMC3    C6 4078   2.441   3.989  16.034  1.0736 -0.0659  0.1102
  266TMC3     C 4079   2.423   3.567  15.989  0.4348 -0.2628  0.1854
  266TMC3     O 4080   2.339   3.505  16.049 -0.1831  0.5008  0.4947
  266TMC3     H 4081   2.648   3.720  16.013 -0.3037 -1.0394 -0.6474
  266TMC3    H1 4082   2.229   3.725  16.035 -0.4089  0.9669 -0.7558
  266TMC3    H2 4083   2.436   4.097  16.033 -0.7064 -0.1267  2.2502
  266TMC3    C7 4084   2.215   3.986  16.091  0.1145  0.2650  0.4240
  266TMC3    C8 4085   2.668   3.979  16.074 -0.4436  0.1026 -0.1414
  266TMC3    O1 4086   2.238   4.066  16.180 -0.2235  0.1595  0.0959
  266TMC3    O2 4087   2.728   3.899  16.142  0.0182  0.4484  0.3690
  267MPD2     C 4088   4.096   0.879   0.463  0.7768  0.9801 -0.5779
  267MPD2    C1 4089   4.164   0.983   0.408  0.6453  0.3334 -0.4725
  267MPD2    C2 4090   4.087   1.071   0.336  0.8011  0.7787 -0.1420
  267MPD2    C3 4091   3.951   1.062   0.322 -0.8696 -0.2069  0.8152
  267MPD2    C4 4092   3.888   0.945   0.373 -0.1776 -0.1876 -0.4442
  267MPD2    C5 4093   3.962   0.850   0.435 -0.4770 -0.4592  0.0786
  267MPD2     H 4094   4.139   1.149   0.280 -0.2193  1.0442 -0.7102
  267MPD2    H1 4095   3.780   0.932   0.376 -0.0018 -1.6674 -0.4401
  267MPD2    H2 4096   4.154   0.800   0.509  0.9881  1.0352 -0.7461
  267MPD2    H3 4097   3.911   0.770   0.488 -1.3023  0.3892  0.5710
  267MPD2     N 4098   3.877   1.152   0.245 -0.2275  0.5105 -0.0996
  267MPD2    H5 4099   3.782   1.127   0.220  0.5733 -1.4780 -1.0639
  267MPD2    N1 4100   4.302   0.989   0.408 -0.0026 -0.6368 -0.8150
  267MPD2    H7 4101   4.350   0.909   0.448 -1.7610 -2.2481 -1.8650
  268TMC3    C1 4102   4.518   1.096   0.411 -0.2539  0.4973  0.2526
  268TMC3    C2 4103   4.605   1.178   0.341 -0.8823 -0.6186  0.6553
  268TMC3    C3 4104   4.733   1.179   0.395 -0.0495  0.2545 -0.6776
  268TMC3    C4 4105   4.536   1.049   0.538 -0.3212  0.5088  0.0435
  268TMC3    C5 4106   4.658   1.063   0.587 -0.4378  0.4176  0.5491
  268TMC3    C6 4107   0.025   1.117   0.514  0.5259  0.3407 -0.2228
  268TMC3     C 4108   4.376   1.098   0.372 -0.0946 -0.1303 -0.1191
  268TMC3     O 4109   4.345   1.209   0.332 -0.4037 -0.0889 -0.0734
  268TMC3     H 4110   4.579   1.241   0.257 -1.4497 -0.3684  1.0216
  268TMC3    H1 4111   4.463   0.989   0.591  0.2119 -0.4273 -0.2983
  268TMC3    H2 4112   0.125   1.121   0.554  0.1942  1.5825  0.4934
  268TMC3    C7 4113   4.698   0.988   0.706  0.3834 -0.9406  0.3648
  268TMC3    C8 4114   0.098   1.252   0.323 -0.4075  0.2094 -0.5325
  268TMC3    O1 4115   0.076   0.946   0.711 -0.1487  0.1366  0.2935
  268TMC3    O2 4116   0.202   1.262   0.380 -0.5155 -0.5464  0.1727
  269MPD2     C 4117   0.644   4.575  15.550 -0.5447  0.2220  0.4764
  269MPD2    C1 4118   0.533   4.608  15.631 -1.1190  0.0645  0.7329
  269MPD2    C2 4119   0.503   0.003  15.667 -0.5191  0.1067  0.3544
  269MPD2    C3 4120   0.598   0.095  15.637 -0.4291  1.0750 -0.2258
  269MPD2    C4 4121   0.710   0.056  15.562 -0.0421 -0.6614  0.6190
  269MPD2    C5 4122   0.736   4.671  15.514  0.4076  0.1606 -0.5080
  269MPD2     H 4123   0.409   0.027  15.714  0.0295  0.8658  1.0674
  269MPD2    H1 4124   0.794   0.125  15.554 -0.4690 -0.3858 -1.3999
  269MPD2    H2 4125   0.655   4.472  15.517  1.2036  0.9655 -1.2407
  269MPD2    H3 4126   0.821   4.654  15.450 -1.5959 -0.7497 -2.9184
  269MPD2     N 4127   0.575   0.233  15.678 -0.1193 -0.0179  0.2241
  269MPD2    H5 4128   0.490   0.242  15.733  1.0283 -0.5292  2.0787
  269MPD2    N1 4129   0.455   4.500  15.673 -0.4076  0.1835  0.1353
  269MPD2    H7 4130   0.491   4.407  15.655 -1.3312  0.1736 -1.5499
  270TMC3    C1 4131   0.307   4.386  15.822  0.3914  0.3348  0.0460
  270TMC3    C2 4132   0.178   4.377  15.875 -0.3274  0.1012  0.2701
  270TMC3    C3 4133   0.169   4.290  15.978  0.0813 -0.0557 -0.0293
  270TMC3    C4 4134   0.415   4.312  15.871  0.2503 -0.4542 -0.2593
  270TMC3    C5 4135   0.397   4.233  15.979 -0.2102 -0.3353 -0.0417
  270TMC3    C6 4136   0.273   4.235  16.042 -0.0820 -0.4170 -0.0158
  270TMC3     C 4137   0.333   4.507  15.743  0.2870  0.2871  0.2025
  270TMC3     O 4138   0.251   4.598  15.748 -0.0379 -0.1788  0.8283
  270TMC3     H 4139   0.096   4.438  15.841 -0.0136  0.1187 -0.4557
  270TMC3    H1 4140   0.512   4.320  15.822  2.4550 -0.1188  4.1109
  270TMC3    H2 4141   0.251   4.160  16.117 -2.8384  0.4456  0.0235
  270TMC3    C7 4142   0.461   4.105  15.960  0.2697  0.2821 -0.1258
  270TMC3    C8 4143   0.040   4.286  16.049  0.0783  0.2359  0.4949
  270TMC3    O1 4144   0.521   4.094  15.854 -0.9182  0.5420  0.0449
  270TMC3    O2 4145   0.013   4.403  16.077  0.3699 -0.5209  0.4852
  271MPD2     C 4146   4.449   3.465  14.223 -0.6498  0.1548 -0.3991
  271MPD2    C1 4147   4.415   3.538  14.330 -0.3488 -0.0731  0.3018
  271MPD2    C2 4148   4.343   3.654  14.309  0.3407 -0.2140 -0.3004
  271MPD2    C3 4149   4.307   3.700  14.180  0.0200  0.3982  0.7452
  271MPD2    C4 4150   4.355   3.627  14.078  0.3536 -0.0253 -0.3199
  271MPD2    C5 4151   4.421   3.509  14.096  0.4943  0.2270 -0.0968
  271MPD2     H 4152   4.316   3.711  14.397 -0.5903 -0.4561 -0.4260
  271MPD2    H1 4153   4.337   3.647  13.973 -1.0787 -0.6730 -0.2001
  271MPD2    H2 4154   4.505   3.372  14.228 -2.1132 -0.7819 -1.3796
  271MPD2    H3 4155   4.454   3.450  14.011 -0.1556 -0.1334 -0.0967
  271MPD2     N 4156   4.239   3.819  14.153 -0.5897 -0.1578 -0.0390
  271MPD2    H5 4157   4.218   3.845  14.058 -3.5710  1.9335  1.1976
  271MPD2    N1 4158   4.443   3.506  14.465  0.8754 -0.0024  0.2908
  271MPD2    H7 4159   4.397   3.555  14.541  0.1320  1.2167 -0.9723
  272TMC3    C1 4160   4.581   3.427  14.636  0.1179 -0.2518  0.5475
  272TMC3    C2 4161   4.714   3.394  14.645 -0.1540  0.0651  0.1880
  272TMC3    C3 4162   0.048   3.461  14.743 -1.1948 -0.0534  0.1554
  272TMC3    C4 4163   4.517   3.515  14.715 -0.2099  0.2471 -0.3696
  272TMC3    C5 4164   4.583   3.580  14.811 -0.2622 -0.2183 -0.9793
  272TMC3    C6 4165   4.716   3.550  14.824  0.4044  0.2438 -0.8070
  272TMC3     C 4166   4.527   3.406  14.502 -0.0467 -0.5264  0.0372
  272TMC3     O 4167   4.593   3.334  14.431 -0.6083 -0.2236 -0.4175
  272TMC3     H 4168   0.022   3.313  14.587 -2.1139 -1.7275  1.1901
  272TMC3    H1 4169   4.408   3.522  14.713 -0.2284 -0.0460 -0.2990
  272TMC3    H2 4170   0.026   3.589  14.914  1.8159 -0.6362 -1.1570
  272TMC3    C7 4171   4.541   3.708  14.860  0.7654  0.3348  0.5370
  272TMC3    C8 4172   0.188   3.438  14.782 -0.0626  0.4733 -0.6573
  272TMC3    O1 4173   4.631   3.790  14.886 -0.2681  0.6989  0.2008
  272TMC3    O2 4174   0.233   3.501  14.878 -0.8257  0.3016 -0.6648
  273MPD2     C 4175   1.102   2.151  12.026  0.1015  0.3124 -0.6575
  273MPD2    C1 4176   1.143   2.266  11.972 -0.3080  0.0781  0.4581
  273MPD2    C2 4177   1.069   2.322  11.860 -0.1132  0.1096  0.1106
  273MPD2    C3 4178   0.956   2.253  11.809  0.0653 -0.1158  0.1195
  273MPD2    C4 4179   0.924   2.130  11.867 -0.3100 -0.5226  0.8443
  273MPD2    C5 4180   0.990   2.089  11.978 -0.4191  0.1922  0.2500
  273MPD2     H 4181   1.109   2.408  11.808 -0.5744  0.9829  1.2163
  273MPD2    H1 4182   0.831   2.081  11.840 -0.1469 -0.2319 -0.2061
  273MPD2    H2 4183   1.149   2.103  12.111  3.1951  0.4887 -2.2673
  273MPD2    H3 4184   0.960   1.995  12.024  1.1831 -1.2883 -1.7485
  273MPD2     N 4185   0.882   2.293  11.694  0.7614  0.3813  0.1076
  273MPD2    H5 4186   0.784   2.268  11.689  0.8291 -0.1051  1.1005
  273MPD2    N1 4187   1.260   2.322  12.030  0.7082 -0.0911  0.6444
  273MPD2    H7 4188   1.312   2.251  12.080  0.0841 -0.1713  1.1816
  274TMC3    C1 4189   0.824   2.433  11.514 -0.7128  0.0921 -0.3522
  274TMC3    C2 4190   0.699   2.367  11.513  0.9783  0.1192 -0.6069
  274TMC3    C3 4191   0.585   2.432  11.470  1.1162 -0.3599  0.3455
  274TMC3    C4 4192   0.835   2.559  11.482  0.2221 -0.1769 -0.5751
  274TMC3    C5 4193   0.714   2.624  11.466 -0.1269 -0.3764 -0.2033
  274TMC3    C6 4194   0.596   2.560  11.449 -1.1280  0.5983 -0.3116
  274TMC3     C 4195   0.928   2.388  11.605  0.4530  0.2947  0.4546
  274TMC3     O 4196   1.038   2.440  11.593 -0.1036 -0.1433  0.3315
  274TMC3     H 4197   0.686   2.262  11.537 -3.0699 -0.0277 -3.4233
  274TMC3    H1 4198   0.926   2.617  11.471  0.8350 -1.1604 -0.7104
  274TMC3    H2 4199   0.508   2.623  11.437 -0.9465  0.9002 -0.0569
  274TMC3    C7 4200   0.708   2.766  11.498  0.1058 -0.6953  0.0249
  274TMC3    C8 4201   0.477   2.374  11.387  0.2169 -0.1956 -0.3550
  274TMC3    O1 4202   0.604   2.830  11.473  0.5566  0.2597 -0.0325
  274TMC3    O2 4203   0.400   2.455  11.333  0.7977 -0.1189 -0.1303
  275MPD2     C 4204   0.677   0.318  14.132 -1.2725  0.4794 -0.3218
  275MPD2    C1 4205   0.744   0.259  14.233 -0.0826 -0.8882 -0.1143
  275MPD2    C2 4206   0.684   0.156  14.299  0.0937 -0.0245 -0.6445
  275MPD2    C3 4207   0.559   0.114  14.266 -0.9753  0.3510  0.0231
  275MPD2    C4 4208   0.492   0.182  14.163  0.0063 -0.2555  0.1070
  275MPD2    C5 4209   0.557   0.282  14.095  0.1991  0.0393 -0.1907
  275MPD2     H 4210   0.746   0.103  14.371  0.5366  0.0511 -0.9717
  275MPD2    H1 4211   0.392   0.153  14.134  0.4471 -0.8608 -0.7848
  275MPD2    H2 4212   0.724   0.392  14.068 -0.8737  0.8514  0.3979
  275MPD2    H3 4213   0.507   0.330  14.012 -3.0229  0.5370  2.0071
  275MPD2     N 4214   0.489   0.004  14.327 -0.6876  0.7155 -0.6873
  275MPD2    H5 4215   0.396   4.717  14.293 -0.4216 -1.4548  0.0742
  275MPD2    N1 4216   0.875   0.301  14.272  0.2065  0.4379 -1.0161
  275MPD2    H7 4217   0.915   0.240  14.343 -1.9108 -0.5760 -0.6910
  276TMC3    C1 4218   1.090   0.397  14.241 -0.0993  0.1823  0.1719
  276TMC3    C2 4219   1.144   0.290  14.306  0.3997 -0.4522  0.5905
  276TMC3    C3 4220   1.277   0.302  14.354  0.5864  0.3916 -0.8379
  276TMC3    C4 4221   1.160   0.511  14.221  0.1330  0.1186  0.1399
  276TMC3    C5 4222   1.290   0.522  14.268 -0.1031  0.3904 -0.3496
  276TMC3    C6 4223   1.351   0.416  14.338  0.5656 -0.4424 -0.2608
  276TMC3     C 4224   0.950   0.399  14.202  0.2695  0.4949 -0.6939
  276TMC3     O 4225   0.917   0.494  14.134  0.5502  0.4087  0.2295
  276TMC3     H 4226   1.091   0.196  14.293 -3.2956  1.4621  1.7522
  276TMC3    H1 4227   1.109   0.600  14.187 -0.2656 -0.3383 -0.4567
  276TMC3    H2 4228   1.452   0.414  14.377  0.9111  0.2695 -1.1205
  276TMC3    C7 4229   1.347   0.652  14.284 -0.5445  0.3253  0.4444
  276TMC3    C8 4230   1.340   0.179  14.401  0.4040  0.4945 -0.4486
  276TMC3    O1 4231   1.417   0.672  14.380 -0.0208  0.0339 -0.1424
  276TMC3    O2 4232   1.457   0.172  14.383  0.2829 -0.2713  0.2884
  277MPD2     C 4233   2.975   4.366  13.425  0.0483  0.5932 -0.4465
  277MPD2    C1 4234   2.863   4.373  13.348  0.8730 -0.4810 -0.2464
  277MPD2    C2 4235   2.777   4.266  13.347 -0.1421 -0.2982 -0.5064
  277MPD2    C3 4236   2.806   4.141  13.409 -0.3357  0.2209  0.2527
  277MPD2    C4 4237   2.932   4.136  13.464 -0.2766 -0.5072 -0.6782
  277MPD2    C5 4238   3.016   4.244  13.471 -0.7025 -0.8394 -0.4426
  277MPD2     H 4239   2.679   4.275  13.301  0.6215 -0.1680 -2.1061
  277MPD2    H1 4240   2.973   4.040  13.493 -0.9999  0.0721  2.2727
  277MPD2    H2 4241   3.048   4.446  13.427 -0.7210  1.2494  1.4978
  277MPD2    H3 4242   3.117   4.232  13.509 -0.8202 -1.7296 -0.4149
  277MPD2     N 4243   2.715   4.036  13.401 -0.0825  0.4778  0.6678
  277MPD2    H5 4244   2.625   4.053  13.358 -1.1031 -4.8897  0.6165
  277MPD2    N1 4245   2.817   4.497  13.298  0.2098  0.6310 -0.3050
  277MPD2    H7 4246   2.729   4.508  13.248 -0.2864 -2.1488 -0.0330
  278TMC3    C1 4247   2.628   3.815  13.416 -0.1033 -0.0391 -0.2662
  278TMC3    C2 4248   2.636   3.684  13.454  0.0106 -0.1200 -0.3878
  278TMC3    C3 4249   2.534   3.599  13.436 -0.6503  0.4582  0.1911
  278TMC3    C4 4250   2.515   3.857  13.347 -0.4483  0.5188  0.3990
  278TMC3    C5 4251   2.405   3.771  13.342  0.2816  0.5762 -0.2318
  278TMC3    C6 4252   2.412   3.645  13.388 -0.6903 -0.2879 -0.0256
  278TMC3     C 4253   2.735   3.903  13.448 -0.0898  0.2395 -0.4408
  278TMC3     O 4254   2.835   3.853  13.497 -0.5615  0.1999 -0.3191
  278TMC3     H 4255   2.725   3.660  13.512 -0.3250  0.3739  0.3165
  278TMC3    H1 4256   2.500   3.958  13.310  1.2793  0.8920  0.7271
  278TMC3    H2 4257   2.322   3.594  13.355 -1.2413  0.9255 -0.3860
  278TMC3    C7 4258   2.279   3.837  13.344 -0.3098  0.0459  0.0284
  278TMC3    C8 4259   2.533   3.467  13.494  0.0927 -0.4613 -0.2868
  278TMC3    O1 4260   2.247   3.897  13.241  0.5803  0.3982 -0.6074
  278TMC3    O2 4261   2.640   3.414  13.513 -0.3785 -0.5356 -0.6018
  279MPD2     C 4262   2.014   4.230   0.347 -0.1830 -0.5611  0.7585
  279MPD2    C1 4263   1.886   4.263   0.306  0.1181  0.8611 -0.7773
  279MPD2    C2 4264   1.847   4.271   0.175  0.1949 -0.7623 -0.4259
  279MPD2    C3 4265   1.934   4.214   0.086 -0.2594  0.3052 -0.2546
  279MPD2    C4 4266   2.065   4.177   0.128  0.4686  0.2704 -0.0974
  279MPD2    C5 4267   2.104   4.196   0.255  0.0427 -0.6905 -0.7959
  279MPD2     H 4268   1.743   4.287   0.146  0.7160  1.5942 -0.9957
  279MPD2    H1 4269   2.130   4.136   0.051  0.5037 -0.5209  0.3575
  279MPD2    H2 4270   2.046   4.248   0.449 -2.2965  2.4839  0.8745
  279MPD2    H3 4271   2.208   4.173   0.277 -0.6853 -2.3720  0.7827
  279MPD2     N 4272   1.906   4.195  17.699  0.5180  0.1041  0.0047
  279MPD2    H5 4273   1.987   4.175  17.642  0.3244 -0.3097 -0.1225
  279MPD2    N1 4274   1.801   4.296   0.411  0.3249  0.2341 -0.3797
  279MPD2    H7 4275   1.843   4.297   0.504 -1.1533 -1.0534  0.2955
  280TMC3    C1 4276   1.605   4.340   0.529 -0.0840  0.8251 -0.1357
  280TMC3    C2 4277   1.654   4.262   0.635 -0.3824  0.8506 -0.2997
  280TMC3    C3 4278   1.609   4.298   0.767  0.0351 -0.1121  0.0886
  280TMC3    C4 4279   1.506   4.435   0.548 -0.3118 -0.1817 -0.1832
  280TMC3    C5 4280   1.470   4.470   0.672 -0.4749  0.3454  0.0381
  280TMC3    C6 4281   1.517   4.399   0.780 -0.1204  0.2658  0.3516
  280TMC3     C 4282   1.670   4.342   0.401  0.2359 -0.1885 -0.4091
  280TMC3     O 4283   1.596   4.383   0.309 -0.6077 -0.0373  0.1547
  280TMC3     H 4284   1.722   4.178   0.624 -0.0653  1.1926 -0.9613
  280TMC3    H1 4285   1.486   4.503   0.467 -0.5766  1.8413  1.5672
  280TMC3    H2 4286   1.472   4.422   0.876  0.7389  0.5509  0.6822
  280TMC3    C7 4287   1.350   4.548   0.692 -0.6039 -0.1472  0.4867
  280TMC3    C8 4288   1.678   4.239   0.883  0.1125 -0.3280 -0.2899
  280TMC3    O1 4289   1.330   4.592   0.806  0.0032  0.3446 -0.1170
  280TMC3    O2 4290   1.734   4.131   0.868 -0.3841  0.0956 -0.5168
  281TMC3    C1 4291   0.779   4.306  13.633 -0.0953  0.5744  0.5129
  281TMC3    C2 4292   0.895   4.346  13.567  0.4440 -0.0791  0.7829
  281TMC3    C3 4293   0.915   4.278  13.450  0.1345  0.2637 -0.5770
  281TMC3    C4 4294   0.707   4.190  13.607  0.0719  0.2416 -0.2914
  281TMC3    C5 4295   0.745   4.117  13.500 -0.2417 -0.1138  0.6854
  281TMC3    C6 4296   0.846   4.164  13.422 -0.4516 -0.2793  0.3611
  281TMC3     C 4297   0.703   4.399  13.710 -0.2721  0.8457  0.4010
  281TMC3     O 4298   0.604   4.353  13.764 -0.0095 -0.0225  0.1997
  281TMC3     H 4299   0.950   4.437  13.592 -1.1453  1.0597  0.1150
  281TMC3    H1 4300   0.624   4.159  13.670  0.2506 -0.0915 -0.2211
  281TMC3    H2 4301   0.872   4.099  13.340  0.8054  0.7515 -0.0504
  281TMC3    C7 4302   0.644   4.028  13.446  0.1937 -0.0041 -0.4221
  281TMC3    C8 4303   1.018   4.308  13.351  0.3089 -0.8110  0.6274
  281TMC3    O1 4304   0.637   4.020  13.326  0.3753  0.1406  0.1108
  281TMC3    O2 4305   1.089   4.215  13.317 -0.1070 -0.0629 -0.4855
  282MPD2     C 4306   1.747   1.149  14.790 -0.2861  0.3294 -0.1665
  282MPD2    C1 4307   1.814   1.108  14.902  0.1496  0.3709 -0.2181
  282MPD2    C2 4308   1.931   1.043  14.890  0.5430  0.3236 -1.1097
  282MPD2    C3 4309   1.990   1.012  14.770 -0.1532  0.1612  0.4978
  282MPD2    C4 4310   1.924   1.055  14.653 -0.1107 -1.0607  0.0512
  282MPD2    C5 4311   1.804   1.128  14.666 -0.6405  0.2728  0.5776
  282MPD2     H 4312   1.968   1.021  14.990  0.0742  1.0217 -0.7814
  282MPD2    H1 4313   1.971   1.046  14.556 -0.6861 -2.5091 -0.0909
  282MPD2    H2 4314   1.653   1.202  14.794 -0.6298 -0.2341 -0.9877
  282MPD2    H3 4315   1.744   1.158  14.581 -1.9882  0.7045  1.6657
  282MPD2     N 4316   2.110   0.931  14.775 -0.0747 -0.0427 -0.4514
  282MPD2    H5 4317   2.143   0.899  14.865  0.5869 -2.6245 -1.6141
  282MPD2    N1 4318   1.762   1.129  15.032  0.2318 -0.4072 -0.1405
  282MPD2    H7 4319   1.821   1.100  15.109 -0.6989  0.5922  0.9700
  283TMC3    C1 4320   1.612   1.188  15.208 -0.8123  0.5857 -0.3392
  283TMC3    C2 4321   1.693   1.261  15.274 -0.9575  0.4426 -0.7865
  283TMC3    C3 4322   1.652   1.302  15.401 -0.3290  0.5313  0.0452
  283TMC3    C4 4323   1.481   1.162  15.251 -0.1107  0.2151 -0.1183
  283TMC3    C5 4324   1.451   1.202  15.378 -0.2046 -0.1148 -0.3896
  283TMC3    C6 4325   1.530   1.277  15.457  0.5426  1.3138 -0.1391
  283TMC3     C 4326   1.637   1.185  15.063 -0.2693 -0.2430 -0.2736
  283TMC3     O 4327   1.536   1.192  14.998 -0.9506 -0.4469 -0.2946
  283TMC3     H 4328   1.793   1.271  15.233 -0.3852  0.1449  0.5266
  283TMC3    H1 4329   1.414   1.116  15.179  1.1528  0.4786 -1.4649
  283TMC3    H2 4330   1.509   1.298  15.562  1.1368  1.5328 -0.0633
  283TMC3    C7 4331   1.350   1.126  15.452 -0.0726 -0.0309 -0.6708
  283TMC3    C8 4332   1.759   1.309  15.497 -0.2894  0.7391  0.3286
  283TMC3    O1 4333   1.310   1.190  15.547  0.8947  0.4129  0.1548
  283TMC3    O2 4334   1.726   1.279  15.610  0.4255  0.5429  0.1287
  284MPD2     C 4335   0.391   0.508  12.217 -0.4790  0.5055  0.5686
  284MPD2    C1 4336   0.465   0.413  12.150  0.2884  0.1236 -0.2048
  284MPD2    C2 4337   0.485   0.290  12.200  0.3006 -0.5230 -0.2860
  284MPD2    C3 4338   0.417   0.263  12.316 -0.2307 -0.4937  0.2467
  284MPD2    C4 4339   0.354   0.354  12.389 -0.6001  0.4019 -0.1850
  284MPD2    C5 4340   0.340   0.482  12.338  0.0155  0.0860 -0.7334
  284MPD2     H 4341   0.554   0.221  12.152  0.6465  1.0457 -2.0625
  284MPD2    H1 4342   0.315   0.337  12.489  4.5404  2.1458  2.1621
  284MPD2    H2 4343   0.375   0.607  12.176 -1.4179 -0.2639 -0.9528
  284MPD2    H3 4344   0.294   0.564  12.392  0.5972  0.6446 -1.0773
  284MPD2     N 4345   0.448   0.143  12.383 -0.3009 -0.2168  0.3475
  284MPD2    H5 4346   0.442   0.141  12.484  2.0183 -2.0007  0.4571
  284MPD2    N1 4347   0.528   0.444  12.023 -0.3942 -0.2788  0.4153
  284MPD2    H7 4348   0.553   0.363  11.968 -0.1508 -0.1292  0.3050
  285TMC3    C1 4349   0.641   0.569  11.858 -0.2906 -0.1265 -0.7331
  285TMC3    C2 4350   0.689   0.449  11.811  0.0596  0.0035 -0.2098
  285TMC3    C3 4351   0.813   0.450  11.743  0.1302 -0.5380 -0.3109
  285TMC3    C4 4352   0.708   0.687  11.829 -0.3805  0.1421 -0.7058
  285TMC3    C5 4353   0.825   0.685  11.763 -0.1123  0.4143  0.1781
  285TMC3    C6 4354   0.883   0.569  11.723 -0.2121  0.0964 -0.1061
  285TMC3     C 4355   0.565   0.568  11.983 -0.1769  0.3228 -0.1230
  285TMC3     O 4356   0.567   0.674  12.039  0.1348  0.6536  0.1705
  285TMC3     H 4357   0.622   0.365  11.797 -0.8804  0.7343 -0.0354
  285TMC3    H1 4358   0.678   0.781  11.875 -0.1679 -0.4901  0.7161
  285TMC3    H2 4359   0.979   0.558  11.674  0.9543 -1.8878  2.6278
  285TMC3    C7 4360   0.907   0.808  11.765 -0.4625  0.7686  0.0765
  285TMC3    C8 4361   0.852   0.318  11.707  0.3238 -0.5341 -0.7109
  285TMC3    O1 4362   0.846   0.919  11.772 -0.0173 -0.5579 -0.0407
  285TMC3    O2 4363   0.770   0.230  11.679 -0.2334 -0.3009 -0.2211
  286MPD2     C 4364   0.705   3.757   2.135 -0.0238 -0.8469  0.0544
  286MPD2    C1 4365   0.734   3.790   2.011 -0.0955 -0.2526 -0.0700
  286MPD2    C2 4366   0.832   3.720   1.942  0.4183 -0.7728  0.0936
  286MPD2    C3 4367   0.877   3.601   1.996  0.1554 -0.2353  0.3227
  286MPD2    C4 4368   0.850   3.570   2.123  1.0348 -0.7233 -0.4873
  286MPD2    C5 4369   0.758   3.644   2.188  0.1395  0.4948 -0.6362
  286MPD2     H 4370   0.857   3.755   1.843  2.5193 -0.2245  0.8208
  286MPD2    H1 4371   0.897   3.493   2.184  0.6261 -1.0347 -0.5593
  286MPD2    H2 4372   0.627   3.813   2.186 -0.5778 -2.2176  0.6940
  286MPD2    H3 4373   0.728   3.625   2.290 -0.3323 -1.7618 -1.2142
  286MPD2     N 4374   0.954   3.512   1.918  0.3736 -0.2453  0.0900
  286MPD2    H5 4375   0.994   3.433   1.969  0.3560  0.1288  0.6847
  286MPD2    N1 4376   0.693   3.913   1.960 -0.8804  0.4777 -0.1761
  286MPD2    H7 4377   0.750   3.941   1.881  1.0663 -0.7034  0.7893
  287TMC3    C1 4378   1.063   3.414   1.718 -0.4669 -0.2805  0.3350
  287TMC3    C2 4379   1.030   3.388   1.587  0.1355 -0.4567 -0.6182
  287TMC3    C3 4380   1.126   3.317   1.521 -0.0172  1.1298  0.2968
  287TMC3    C4 4381   1.173   3.369   1.782  0.1694 -0.3178  0.0945
  287TMC3    C5 4382   1.250   3.279   1.714  0.4830  0.1695  0.8243
  287TMC3    C6 4383   1.231   3.252   1.578 -0.1885  0.1390 -0.3953
  287TMC3     C 4384   0.975   3.513   1.784 -0.1393  0.3556  0.4563
  287TMC3     O 4385   0.933   3.596   1.701  0.4511 -0.1932 -0.7104
  287TMC3     H 4386   0.944   3.430   1.536 -2.1600 -2.1529  1.8242
  287TMC3    H1 4387   1.201   3.380   1.886 -0.4433 -0.6908  0.2934
  287TMC3    H2 4388   1.305   3.192   1.525 -0.9016 -0.6256 -0.5207
  287TMC3    C7 4389   1.368   3.241   1.783  0.1004  0.3188  0.3383
  287TMC3    C8 4390   1.101   3.287   1.379 -0.0602  0.5652  0.0775
  287TMC3    O1 4391   1.422   3.316   1.861 -0.0107  0.3157  0.3755
  287TMC3    O2 4392   1.142   3.185   1.327 -0.1987 -0.6509  0.0211
  288TMC3    C1 4393   3.023   3.522  14.595 -0.5516 -0.0323  0.7275
  288TMC3    C2 4394   2.922   3.493  14.684  0.3348  0.1263  0.0186
  288TMC3    C3 4395   2.796   3.536  14.655  0.6240  0.1784 -0.7979
  288TMC3    C4 4396   2.993   3.587  14.475  0.6205  0.6871  0.3885
  288TMC3    C5 4397   2.864   3.637  14.448 -0.1726 -0.2567 -0.0160
  288TMC3    C6 4398   2.765   3.599  14.536 -0.3008 -0.2545 -0.5744
  288TMC3     C 4399   3.159   3.485  14.632  0.0324  0.3920 -0.2118
  288TMC3     O 4400   3.182   3.420  14.737  0.6541  0.0323 -0.2574
  288TMC3     H 4401   2.944   3.442  14.777 -0.3238  3.4462  2.0025
  288TMC3    H1 4402   3.073   3.603  14.403 -1.3389  3.3638 -1.1864
  288TMC3    H2 4403   2.663   3.632  14.521  0.2606  1.8932  0.3942
  288TMC3    C7 4404   2.814   3.628  14.317 -0.2573 -0.3266  0.2390
  288TMC3    C8 4405   2.695   3.527  14.756  0.1176 -0.3233 -0.2062
  288TMC3    O1 4406   2.752   3.528  14.285 -0.0410 -0.1736 -0.1456
  288TMC3    O2 4407   2.612   3.616  14.763  0.1465  0.5093  0.6851
  289MPD2     C 4408   2.878   2.363  14.775  0.3277  0.6039  0.6966
  289MPD2    C1 4409   2.849   2.490  14.731  1.1883  0.8560  0.2516
  289MPD2    C2 4410   2.724   2.515  14.670  0.1799  0.8748  0.8089
  289MPD2    C3 4411   2.638   2.403  14.642 -0.1974  0.7158  0.2465
  289MPD2    C4 4412   2.673   2.284  14.685  0.5733  0.1061 -0.5128
  289MPD2    C5 4413   2.788   2.264  14.751 -0.8189  0.3915 -0.1423
  289MPD2     H 4414   2.689   2.617  14.656  0.2504  0.9473  1.1549
  289MPD2    H1 4415   2.610   2.197  14.673 -0.5851  0.8061  0.5091
  289MPD2    H2 4416   2.972   2.351  14.827  0.9456 -1.7652 -0.9774
  289MPD2    H3 4417   2.800   2.167  14.797 -0.3374  0.4155 -0.2139
  289MPD2     N 4418   2.517   2.426  14.573  0.5618  0.2588 -0.6078
  289MPD2    H5 4419   2.480   2.341  14.530 -0.8387  0.0566  0.9828
  289MPD2    N1 4420   2.944   2.589  14.759 -0.2657  0.1144 -0.4500
  289MPD2    H7 4421   3.036   2.559  14.787 -0.0208 -0.3772 -1.7598
  290TMC3    C1 4422   2.355   2.539  14.451 -0.2072  0.3359  0.1303
  290TMC3    C2 4423   2.331   2.647  14.369  0.4907 -0.1028 -0.1288
  290TMC3    C3 4424   2.229   2.637  14.277  0.5567  0.4272  0.7008
  290TMC3    C4 4425   2.276   2.433  14.455 -0.5227  1.3685 -0.0842
  290TMC3    C5 4426   2.163   2.438  14.372 -0.3088  0.7484 -0.6392
  290TMC3    C6 4427   2.146   2.532  14.276  1.0364  0.6027  0.6216
  290TMC3     C 4428   2.459   2.550  14.544  0.6013 -0.2728 -1.3516
  290TMC3     O 4429   2.483   2.660  14.591  0.2687  0.0268 -0.3226
  290TMC3     H 4430   2.402   2.728  14.354  0.4370  0.6054  3.4648
  290TMC3    H1 4431   2.285   2.350  14.524  1.2597 -1.5430 -3.8090
  290TMC3    H2 4432   2.062   2.517  14.208  0.3463 -2.6862  2.2048
  290TMC3    C7 4433   2.061   2.335  14.390  0.0707  0.3963 -0.4934
  290TMC3    C8 4434   2.210   2.747  14.186 -0.2457 -0.0246 -0.7024
  290TMC3    O1 4435   1.943   2.367  14.376  0.2966  0.7525 -0.5577
  290TMC3    O2 4436   2.182   2.708  14.073 -0.7479 -0.4758 -0.8136
  291MPD2     C 4437   1.749   2.522   0.593 -0.0592  0.5949  0.2312
  291MPD2    C1 4438   1.884   2.493   0.623  0.2008  0.0653 -0.2744
  291MPD2    C2 4439   1.957   2.584   0.697 -0.1985  1.0977  0.5305
  291MPD2    C3 4440   1.906   2.706   0.740  0.1261 -0.0312 -0.0699
  291MPD2    C4 4441   1.775   2.734   0.705 -0.9502  0.2245 -0.4280
  291MPD2    C5 4442   1.697   2.637   0.638  0.1918  0.6544 -0.2407
  291MPD2     H 4443   2.055   2.550   0.727 -0.4781 -0.1921 -0.0029
  291MPD2    H1 4444   1.726   2.827   0.730 -1.4956 -0.0485 -0.4783
  291MPD2    H2 4445   1.692   2.454   0.532 -2.0760  1.2098  1.4384
  291MPD2    H3 4446   1.597   2.666   0.608 -0.1873 -0.8970 -0.4686
  291MPD2     N 4447   1.977   2.808   0.806  0.3879 -0.1117 -0.0562
  291MPD2    H5 4448   1.924   2.890   0.833  1.0150 -0.5291  2.5238
  291MPD2    N1 4449   1.945   2.371   0.583  0.0484 -0.0633 -0.2008
  291MPD2    H7 4450   2.031   2.349   0.633 -1.3972  0.1665  2.4123
  292TMC3    C1 4451   1.969   2.170   0.470 -0.2695 -0.2584  0.5909
  292TMC3    C2 4452   2.042   2.121   0.573 -0.0814  0.1402 -0.3056
  292TMC3    C3 4453   2.131   2.021   0.551 -0.0317  0.0417  0.0818
  292TMC3    C4 4454   1.957   2.098   0.357 -0.3227 -0.3911 -0.1213
  292TMC3    C5 4455   2.048   1.997   0.333  0.1624 -0.0516 -0.4560
  292TMC3    C6 4456   2.135   1.953   0.432 -0.2821 -0.0890  0.2603
  292TMC3     C 4457   1.893   2.288   0.486  0.6999 -0.2129 -0.0378
  292TMC3     O 4458   1.799   2.296   0.410  0.5185 -0.0001 -0.3388
  292TMC3     H 4459   2.044   2.172   0.668 -0.6016  1.4605 -0.9955
  292TMC3    H1 4460   1.892   2.136   0.280  0.1709 -1.7104 -1.1791
  292TMC3    H2 4461   2.207   1.876   0.408 -1.1600 -0.7334 -0.2798
  292TMC3    C7 4462   2.026   1.903   0.226  1.0149 -0.1649 -0.8019
  292TMC3    C8 4463   2.204   1.959   0.659  0.2552 -0.1222  0.2505
  292TMC3    O1 4464   2.101   1.807   0.232  0.4577 -0.2618 -0.4203
  292TMC3    O2 4465   2.303   1.894   0.630 -0.2091 -0.1863 -0.4671
  293MPD2     C 4466   3.886   4.060  12.819 -0.1698  0.3292  0.1907
  293MPD2    C1 4467   3.790   3.989  12.885 -0.0795 -0.1628 -0.4465
  293MPD2    C2 4468   3.808   3.959  13.020  0.3455 -0.5541  0.1286
  293MPD2    C3 4469   3.918   4.004  13.083  0.0325  0.1542 -0.5211
  293MPD2    C4 4470   4.009   4.076  13.018 -0.5342  0.1673 -0.0666
  293MPD2    C5 4471   3.986   4.108  12.889  0.3591  0.1638  0.4746
  293MPD2     H 4472   3.739   3.913  13.090 -3.4090  1.6096 -2.1105
  293MPD2    H1 4473   4.097   4.120  13.065  0.2683 -1.2792 -0.2149
  293MPD2    H2 4474   3.881   4.087  12.715 -1.6425  1.1050  0.4555
  293MPD2    H3 4475   4.049   4.182  12.841 -1.1110 -1.2388 -3.5428
  293MPD2     N 4476   3.934   3.970  13.214  0.0963 -0.6359 -0.5401
  293MPD2    H5 4477   3.861   3.927  13.271 -0.7167 -0.0233 -1.1239
  293MPD2    N1 4478   3.671   3.962  12.809 -0.6058  0.2314  0.1880
  293MPD2    H7 4479   3.669   4.007  12.719  1.4131 -3.7496 -1.8489
  294TMC3    C1 4480   3.463   3.860  12.756  0.1724  0.0311  0.4194
  294TMC3    C2 4481   3.348   3.800  12.798 -0.2524  0.5570  0.0784
  294TMC3    C3 4482   3.253   3.758  12.712  0.0499  0.4006 -0.0452
  294TMC3    C4 4483   3.485   3.862  12.624  0.7147  0.6708 -0.3080
  294TMC3    C5 4484   3.395   3.820  12.532  0.5753 -0.7137  0.5391
  294TMC3    C6 4485   3.272   3.775  12.578  0.0814 -0.5011 -0.9630
  294TMC3     C 4486   3.572   3.878  12.854 -0.0672  0.1100  0.0648
  294TMC3     O 4487   3.563   3.811  12.953  0.1419 -0.5021  0.3313
  294TMC3     H 4488   3.325   3.796  12.904  0.2178  0.4645  0.1758
  294TMC3    H1 4489   3.578   3.904  12.589  2.8962 -1.7454  2.5981
  294TMC3    H2 4490   3.187   3.756  12.514 -0.3167 -0.3667 -0.4776
  294TMC3    C7 4491   3.398   3.844  12.392  0.0174 -0.1767 -0.2680
  294TMC3    C8 4492   3.122   3.692  12.753  0.3021  0.2419 -0.3216
  294TMC3    O1 4493   3.288   3.858  12.341  0.0640  0.0979  0.1833
  294TMC3    O2 4494   3.095   3.697  12.875 -0.6385 -0.1318  1.1866
  295MPD2     C 4495   0.304   3.220   1.326 -0.4140 -0.8759  0.4938
  295MPD2    C1 4496   0.254   3.138   1.229 -0.4950 -0.6366 -0.2189
  295MPD2    C2 4497   0.246   2.996   1.256 -0.0591  0.2396  0.0813
  295MPD2    C3 4498   0.287   2.946   1.378 -0.2207 -0.9708 -0.0438
  295MPD2    C4 4499   0.325   3.034   1.478  1.0584 -0.1630  0.2943
  295MPD2    C5 4500   0.334   3.163   1.447  0.1568 -0.0338 -0.3384
  295MPD2     H 4501   0.217   2.929   1.176  0.9865 -1.4063  1.0866
  295MPD2    H1 4502   0.364   3.006   1.575  0.9547 -0.0121  0.3807
  295MPD2    H2 4503   0.335   3.322   1.306  1.0004 -1.1373  1.3116
  295MPD2    H3 4504   0.370   3.226   1.527  2.4004 -1.4468 -0.2296
  295MPD2     N 4505   0.276   2.812   1.400 -0.5973  0.0736  0.0932
  295MPD2    H5 4506   0.310   2.786   1.493 -1.6693  1.1450  0.7739
  295MPD2    N1 4507   0.229   3.179   1.099  1.2130 -0.4809  1.1015
  295MPD2    H7 4508   0.195   3.103   1.041  2.8165 -0.1589 -0.2723
  296TMC3    C1 4509   0.246   2.575   1.381  0.0346  0.1263 -0.0601
  296TMC3    C2 4510   0.274   2.571   1.520 -1.1394 -0.0639  0.8670
  296TMC3    C3 4511   0.289   2.449   1.577  0.2333  0.7804 -0.4595
  296TMC3    C4 4512   0.238   2.465   1.298 -0.2701 -0.4740 -0.7538
  296TMC3    C5 4513   0.256   2.348   1.368  0.9586 -0.5433  0.3909
  296TMC3    C6 4514   0.288   2.338   1.500 -0.2430 -0.3592 -0.6790
  296TMC3     C 4515   0.234   2.710   1.323  0.1146 -0.8089 -0.7790
  296TMC3     O 4516   0.198   2.709   1.206 -0.1014  0.5726  0.6663
  296TMC3     H 4517   0.267   2.657   1.585 -2.5476  0.8058 -0.4264
  296TMC3    H1 4518   0.228   2.473   1.191  0.6492  1.1143 -0.7344
  296TMC3    H2 4519   0.297   2.236   1.534 -1.9300  0.6828  2.8389
  296TMC3    C7 4520   0.209   2.232   1.295 -0.0927 -0.4088 -0.8244
  296TMC3    C8 4521   0.359   2.445   1.703  0.4436  0.0534  0.1845
  296TMC3    O1 4522   0.222   2.237   1.175 -0.2891 -0.0792  0.0092
  296TMC3    O2 4523   0.439   2.354   1.715  0.1292 -0.1158  0.2332
  297MPD2     C 4524   1.460   4.548  16.766 -0.1922  0.0650 -0.4755
  297MPD2    C1 4525   1.448   4.513  16.636  0.9033  0.1615 -0.0181
  297MPD2    C2 4526   1.564   4.471  16.573 -0.4565 -0.2344 -0.1869
  297MPD2    C3 4527   1.689   4.464  16.637 -0.6560  0.1957  0.3586
  297MPD2    C4 4528   1.692   4.494  16.773 -0.4954  0.3983  0.2094
  297MPD2    C5 4529   1.582   4.554  16.830  0.4942  0.3742  0.2013
  297MPD2     H 4530   1.554   4.430  16.473 -1.0337 -0.6589  0.0435
  297MPD2    H1 4531   1.786   4.511  16.824 -0.9475  1.8669  0.5597
  297MPD2    H2 4532   1.383   4.589  16.830 -1.3112 -1.3658 -0.9153
  297MPD2    H3 4533   1.602   4.608  16.922  2.9961  0.0107 -0.1328
  297MPD2     N 4534   1.807   4.423  16.574 -0.2508  0.2754  0.7157
  297MPD2    H5 4535   1.890   4.428  16.633 -0.7794  0.2027  1.4582
  297MPD2    N1 4536   1.327   4.521  16.569 -0.6382 -0.5975 -0.0471
  297MPD2    H7 4537   1.322   4.495  16.472  1.4502 -1.2836  0.0399
  298TMC3    C1 4538   1.089   4.533  16.541 -0.1158 -0.5665  0.7944
  298TMC3    C2 4539   1.107   4.460  16.427 -0.5607 -0.7559  0.2048
  298TMC3    C3 4540   1.013   4.480  16.325  0.1919 -0.7447 -0.2721
  298TMC3    C4 4541   0.970   4.595  16.568 -0.0316 -0.0561  0.4461
  298TMC3    C5 4542   0.882   4.607  16.465  0.1389  0.0528 -0.1833
  298TMC3    C6 4543   0.905   4.562  16.339 -0.1913 -0.0088  0.3541
  298TMC3     C 4544   1.208   4.559  16.626 -0.0178 -0.2316  0.5480
  298TMC3     O 4545   1.180   4.612  16.729  0.5582 -0.6621  0.8932
  298TMC3     H 4546   1.193   4.394  16.418 -1.9143 -2.2639 -1.5195
  298TMC3    H1 4547   0.967   4.653  16.659  2.4021  1.6480 -0.5735
  298TMC3    H2 4548   0.826   4.570  16.264  0.9604  1.5752 -0.6643
  298TMC3    C7 4549   0.786   4.712  16.487 -0.4507 -0.2985  0.2338
  298TMC3    C8 4550   1.033   4.416  16.189  0.1813 -0.4493  0.7544
  298TMC3    O1 4551   0.751   4.724  16.605  0.1757  0.5365 -0.1994
  298TMC3    O2 4552   0.967   4.451  16.091 -0.0661 -0.0992 -0.1806
  299MPD2     C 4553   1.779   4.157  10.892 -0.1464 -0.1934 -0.1045
  299MPD2    C1 4554   1.858   4.246  10.827  0.2071  0.6865  0.0160
  299MPD2    C2 4555   1.802   4.319  10.721 -0.0532  1.2125 -0.2232
  299MPD2    C3 4556   1.670   4.288  10.683  0.6522 -0.2341  0.2806
  299MPD2    C4 4557   1.609   4.180  10.737 -0.1113 -0.4255 -0.3238
  299MPD2    C5 4558   1.659   4.117  10.847  0.2907  0.2342  0.0500
  299MPD2     H 4559   1.850   4.410  10.685  1.0345  1.0788  0.8786
  299MPD2    H1 4560   1.511   4.154  10.699 -1.5394  0.4740  2.7585
  299MPD2    H2 4561   1.828   4.103  10.973 -1.5701 -0.4547  0.5856
  299MPD2    H3 4562   1.613   4.034  10.899 -1.2505  1.2748  0.3484
  299MPD2     N 4563   1.597   4.356  10.584 -0.1163 -0.0173  0.3017
  299MPD2    H5 4564   1.499   4.331  10.570  0.0595  0.5041 -1.8879
  299MPD2    N1 4565   1.986   4.272  10.874 -0.1307 -0.0005 -0.1108
  299MPD2    H7 4566   2.024   4.205  10.940 -1.3238 -0.9482 -0.3939
  300TMC3    C1 4567   1.536   4.486  10.397 -0.2879 -0.6378  0.3253
  300TMC3    C2 4568   1.575   4.580  10.306 -0.2869  0.9076 -0.2031
  300TMC3    C3 4569   1.488   4.632  10.218  0.0806 -0.0463 -0.4116
  300TMC3    C4 4570   1.409   4.439  10.400  0.2892 -0.3308  0.8428
  300TMC3    C5 4571   1.319   4.494  10.316 -0.3580 -0.4260  0.0080
  300TMC3    C6 4572   1.356   4.598  10.235  0.2341  0.2952 -0.1639
  300TMC3     C 4573   1.640   4.449  10.493 -0.2194 -0.1329  0.2559
  300TMC3     O 4574   1.744   4.514  10.495  0.4933  0.0473  0.5131
  300TMC3     H 4575   1.680   4.602  10.292 -0.2041  0.5265 -0.1894
  300TMC3    H1 4576   1.376   4.358  10.464  4.2513  0.5785  4.0256
  300TMC3    H2 4577   1.290   4.631  10.156 -0.4074 -0.6933 -0.0361
  300TMC3    C7 4578   1.175   4.476  10.331 -0.7978 -0.2293  0.3795
  300TMC3    C8 4579   1.516   0.033  10.195  0.4464  0.0992 -0.5658
  300TMC3    O1 4580   1.107   4.497  10.230  0.0343 -0.6477 -0.0316
  300TMC3    O2 4581   1.636   0.064  10.168 -0.0357 -0.5074 -0.0005
  301MPD2     C 4582   3.716   0.854   1.515  0.5085 -0.3099  0.2395
  301MPD2    C1 4583   3.695   0.871   1.386  0.1362 -0.5831 -0.0143
  301MPD2    C2 4584   3.702   0.760   1.303  0.3519 -0.8746  0.8950
  301MPD2    C3 4585   3.724   0.631   1.346  0.7884  0.1619 -0.0500
  301MPD2    C4 4586   3.736   0.609   1.487  0.1536 -0.0500  0.8370
  301MPD2    C5 4587   3.732   0.727   1.566  0.0416  1.1315  0.4132
  301MPD2     H 4588   3.685   0.770   1.196  3.5292  2.8964  0.7242
  301MPD2    H1 4589   3.741   0.508   1.526 -1.9466 -0.8619 -1.0126
  301MPD2    H2 4590   3.705   0.939   1.582  1.7779 -2.2880  2.9821
  301MPD2    H3 4591   3.715   0.716   1.672  2.7528  0.3611  0.7671
  301MPD2     N 4592   3.735   0.512   1.270  0.6633  0.1768  0.4595
  301MPD2    H5 4593   3.764   0.430   1.323 -1.6917 -0.8535  0.1493
  301MPD2    N1 4594   3.647   0.990   1.328  0.2831  0.1558 -0.1760
  301MPD2    H7 4595   3.638   0.984   1.227 -0.1466  1.1665 -0.1943
  302TMC3    C1 4596   3.785   0.384   1.076  0.6478 -0.1511 -0.0521
  302TMC3    C2 4597   3.812   0.280   1.158  0.2440  0.1400 -0.3402
  302TMC3    C3 4598   3.855   0.164   1.100  0.7430  0.2344  0.6155
  302TMC3    C4 4599   3.821   0.381   0.944  0.1118 -0.8731 -0.5849
  302TMC3    C5 4600   3.858   0.264   0.891 -0.1943  0.6717  0.2135
  302TMC3    C6 4601   3.879   0.154   0.963 -0.9178  0.4879 -0.2656
  302TMC3     C 4602   3.749   0.509   1.135  0.4643 -0.1509  0.2008
  302TMC3     O 4603   3.743   0.609   1.062 -0.3374 -0.0187 -0.0640
  302TMC3     H 4604   3.789   0.282   1.264 -0.3796  2.0208 -0.5057
  302TMC3    H1 4605   3.817   0.476   0.890  0.3863 -0.3312  0.3490
  302TMC3    H2 4606   3.921   0.066   0.917 -1.2945 -0.9188  2.1056
  302TMC3    C7 4607   3.840   0.255   0.746 -0.1646 -0.1041 -0.1249
  302TMC3    C8 4608   3.875   0.041   1.181  0.5788 -0.6047  0.0196
  302TMC3    O1 4609   3.911   0.186   0.679 -0.6180 -0.6363  0.3525
  302TMC3    O2 4610   3.880   0.043   1.299 -0.1319  0.0474  0.1794
  303MPD2     C 4611   4.489   4.137  10.591 -0.2768 -0.0532  0.3796
  303MPD2    C1 4612   4.424   4.014  10.575  0.2887 -0.1464 -0.0229
  303MPD2    C2 4613   4.386   3.980  10.444  0.3150  0.5392  0.5559
  303MPD2    C3 4614   4.437   4.048  10.337 -0.4548  0.1159  0.0110
  303MPD2    C4 4615   4.528   4.145  10.365  0.4367  0.4603 -0.0628
  303MPD2    C5 4616   4.554   4.203  10.487  0.2546  0.2368  0.8772
  303MPD2     H 4617   4.313   3.903  10.421  2.6979 -0.9235 -2.1098
  303MPD2    H1 4618   4.589   4.187  10.286  1.6250  1.7565  1.5453
  303MPD2    H2 4619   4.487   4.181  10.690  0.1509  1.2268 -0.1778
  303MPD2    H3 4620   4.634   4.275  10.499 -0.6778  2.0931 -4.0625
  303MPD2     N 4621   4.400   4.031  10.206 -0.4025 -0.1728 -0.0033
  303MPD2    H5 4622   4.457   4.078  10.137 -1.8634  1.4117 -0.1386
  303MPD2    N1 4623   4.367   3.949  10.685  0.5822 -0.0939  1.2384
  303MPD2    H7 4624   4.388   3.984  10.778  0.7707  1.3092  0.6771
  304TMC3    C1 4625   4.224   3.801  10.789  0.3128 -0.1153  0.4520
  304TMC3    C2 4626   4.148   3.902  10.839  0.5978 -0.2320 -0.0341
  304TMC3    C3 4627   4.022   3.866  10.884 -0.3411 -0.5704 -0.3556
  304TMC3    C4 4628   4.180   3.669  10.792  0.7182  0.0823 -0.7448
  304TMC3    C5 4629   4.062   3.638  10.867 -0.0181  0.5284  0.5257
  304TMC3    C6 4630   3.990   3.740  10.910  0.1976  0.5051 -0.7929
  304TMC3     C 4631   4.300   3.835  10.670 -0.0939  0.3272  0.1877
  304TMC3     O 4632   4.291   3.755  10.578  0.1019 -0.2796 -0.1013
  304TMC3     H 4633   4.167   4.008  10.827 -1.8664  0.2319  0.0827
  304TMC3    H1 4634   4.229   3.585  10.744  0.7166  0.0572 -0.7030
  304TMC3    H2 4635   3.908   3.728  10.980  1.6100 -1.4004  0.5273
  304TMC3    C7 4636   3.973   3.540  10.809 -0.6389  0.4845 -0.6295
  304TMC3    C8 4637   3.916   3.943  10.832  0.7232 -1.0898 -0.3257
  304TMC3    O1 4638   3.855   3.572  10.814  0.5396  0.6073 -0.2441
  304TMC3    O2 4639   3.923   4.062  10.837 -0.3960 -0.3349  0.1761
  305MPD2     C 4640   2.631   1.194  14.011  0.5922  0.2247  0.2002
  305MPD2    C1 4641   2.666   1.073  14.063  0.6356 -0.3458  0.1248
  305MPD2    C2 4642   2.657   0.957  13.987 -0.5128 -1.1336  0.0678
  305MPD2    C3 4643   2.604   0.967  13.858 -0.0939  0.5786  0.3284
  305MPD2    C4 4644   2.552   1.089  13.813  0.1366  0.3964  0.1604
  305MPD2    C5 4645   2.563   1.201  13.890 -0.5127  0.0702  0.0247
  305MPD2     H 4646   2.678   0.859  14.028 -2.9621 -1.5734  0.2621
  305MPD2    H1 4647   2.487   1.103  13.728 -0.2251 -3.5433 -0.2090
  305MPD2    H2 4648   2.629   1.286  14.069  0.9009  0.9814 -0.9771
  305MPD2    H3 4649   2.533   1.299  13.858 -0.4550  0.1318  0.1567
  305MPD2     N 4650   2.585   0.856  13.777 -0.0376  0.1741 -0.1754
  305MPD2    H5 4651   2.532   0.865  13.691 -0.0144 -0.4300 -0.2559
  305MPD2    N1 4652   2.697   1.069  14.200 -0.3813 -0.2161  0.4325
  305MPD2    H7 4653   2.671   1.154  14.248  0.5198  0.1536  0.2571
  306TMC3    C1 4654   2.765   0.997  14.405 -0.1330  0.2567 -0.2367
  306TMC3    C2 4655   2.876   0.940  14.467 -0.0698 -0.4540  0.0718
  306TMC3    C3 4656   2.873   0.945  14.605  0.2132  0.3954  0.4529
  306TMC3    C4 4657   2.670   1.071  14.469 -0.1213  0.1718 -0.6051
  306TMC3    C5 4658   2.682   1.080  14.609 -0.4303 -0.1072  0.0316
  306TMC3    C6 4659   2.783   1.019  14.680  0.8894 -0.1211  0.0794
  306TMC3     C 4660   2.761   0.971  14.263 -0.1844 -0.3684 -0.5739
  306TMC3     O 4661   2.839   0.889  14.213  0.0273  0.3156 -0.0539
  306TMC3     H 4662   2.937   0.870  14.410 -0.4342  1.8685 -3.1951
  306TMC3    H1 4663   2.593   1.128  14.419 -0.3392 -0.7096 -1.2701
  306TMC3    H2 4664   2.791   1.038  14.787  1.2408  0.9551 -0.1390
  306TMC3    C7 4665   2.577   1.154  14.675 -0.1946 -0.3352  0.6726
  306TMC3    C8 4666   2.963   0.855  14.664 -0.0984  0.1198 -0.2032
  306TMC3    O1 4667   2.464   1.144  14.624  0.6410  0.0360 -0.0869
  306TMC3    O2 4668   3.026   0.786  14.587 -0.4804 -0.0240  0.7729
  307MPD2     C 4669   0.553   4.260   0.987 -0.2435 -0.7594 -0.3119
  307MPD2    C1 4670   0.496   4.383   0.962  0.5980 -0.4279  0.2618
  307MPD2    C2 4671   0.365   4.413   1.015  0.2400  0.0288 -0.1227
  307MPD2    C3 4672   0.294   4.316   1.080 -0.6080 -0.3547  0.3111
  307MPD2    C4 4673   0.358   4.200   1.111 -0.3528  0.3055 -0.1813
  307MPD2    C5 4674   0.488   4.175   1.073  0.6568  0.3093 -0.5549
  307MPD2     H 4675   0.318   4.509   0.998 -4.0147 -1.6204  2.3779
  307MPD2    H1 4676   0.314   4.133   1.183  1.9885 -0.7076  0.3168
  307MPD2    H2 4677   0.650   4.230   0.949  0.3295 -0.3309  0.8196
  307MPD2    H3 4678   0.544   4.089   1.107  1.7462  2.1328  2.2712
  307MPD2     N 4679   0.164   4.343   1.116  0.2604  0.6603 -0.5513
  307MPD2    H5 4680   0.125   4.431   1.085  0.7861  1.1943  0.3024
  307MPD2    N1 4681   0.561   4.466   0.867  0.2541  0.1071 -0.1281
  307MPD2    H7 4682   0.514   4.554   0.852 -0.4564 -0.0038  1.4420
  308TMC3    C1 4683   4.449   4.237   1.153  0.1463  0.3979 -0.6662
  308TMC3    C2 4684   4.407   4.369   1.177 -0.2782 -0.3990  0.2194
  308TMC3    C3 4685   4.501   4.468   1.183  0.3765  0.4026  0.1605
  308TMC3    C4 4686   4.579   4.200   1.183 -0.2498  0.5389 -0.6581
  308TMC3    C5 4687   4.671   4.302   1.181 -0.4867 -0.3300  0.3890
  308TMC3    C6 4688   4.639   4.435   1.176 -0.3068 -1.7765 -0.2413
  308TMC3     C 4689   4.367   4.137   1.084  0.0921  0.7863  0.3648
  308TMC3     O 4690   4.403   4.021   1.079 -0.0072 -0.5127  0.4846
  308TMC3     H 4691   4.305   4.403   1.165 -0.5798 -1.1228  0.7401
  308TMC3    H1 4692   4.606   4.096   1.171 -2.0189  0.5481 -4.5248
  308TMC3    H2 4693   4.717   4.510   1.187 -0.6303 -1.3704 -0.7237
  308TMC3    C7 4694   0.071   4.251   1.176  0.3270 -0.0751  0.0357
  308TMC3    C8 4695   4.464   4.598   1.231 -0.2635 -0.2898  0.1062
  308TMC3    O1 4696   0.085   4.137   1.217 -0.3646  0.4736  0.0298
  308TMC3    O2 4697   4.357   4.595   1.290  0.1623  0.7137 -0.1472
  309MPD2     C 4698   4.175   4.470  16.877  0.0975 -0.2544 -0.2670
  309MPD2    C1 4699   4.197   4.544  16.994 -0.5448 -0.4960 -0.6989
  309MPD2    C2 4700   4.088   4.600  17.053  0.4199 -0.1331 -0.8162
  309MPD2    C3 4701   3.959   4.586  17.005 -0.2022  0.4788 -0.3738
  309MPD2    C4 4702   3.942   4.524  16.891 -0.2822  0.3839  0.0469
  309MPD2    C5 4703   4.048   4.467  16.827  0.0913 -0.1107  0.3961
  309MPD2     H 4704   4.108   4.662  17.140  0.8205 -0.2972 -0.7916
  309MPD2    H1 4705   3.843   4.507  16.852  0.4760  2.9812 -2.9984
  309MPD2    H2 4706   4.251   4.421  16.817 -0.8080  0.5088 -2.0343
  309MPD2    H3 4707   4.027   4.418  16.732 -1.4426 -0.2214  0.7857
  309MPD2     N 4708   3.845   4.633  17.067 -0.9278 -0.0912  0.1020
  309MPD2    H5 4709   3.759   4.619  17.015 -0.8026  0.7101 -0.3223
  309MPD2    N1 4710   4.320   4.572  17.052 -0.3183 -0.4395 -0.0107
  309MPD2    H7 4711   4.335   4.645  17.122 -0.3601 -1.5082  1.1198
  310TMC3    C1 4712   4.553   4.577  17.051 -0.8004  0.1567  0.2098
  310TMC3    C2 4713   4.556   4.700  16.983 -0.0155 -0.2876 -0.0865
  310TMC3    C3 4714   4.671   4.731  16.908 -0.0395  0.1927  0.0084
  310TMC3    C4 4715   4.657   4.496  17.062 -0.1642  0.0065 -0.0816
  310TMC3    C5 4716   0.042   4.541  17.012 -0.0914  0.1513  0.0576
  310TMC3    C6 4717   0.046   4.654  16.927  0.1731 -0.2106 -0.6452
  310TMC3     C 4718   4.429   4.499  17.025  0.9339  0.0043  0.4203
  310TMC3     O 4719   4.446   4.392  16.970 -0.8083 -0.3655 -0.5795
  310TMC3     H 4720   4.467   0.024  16.969 -0.4480 -0.5678  1.4177
  310TMC3    H1 4721   4.645   4.402  17.114 -1.1729  0.9509  1.4197
  310TMC3    H2 4722   0.135   4.661  16.866  0.8524 -2.8982  0.0273
  310TMC3    C7 4723   0.155   4.450  17.004  0.4901  1.0862  0.7153
  310TMC3    C8 4724   4.637   0.039  16.773  0.2665 -0.5683 -0.2846
  310TMC3    O1 4725   0.231   4.465  16.909 -0.5507  0.0413  0.4887
  310TMC3    O2 4726   4.526   4.732  16.737 -0.1111  0.1214 -0.4317
  311MPD2     C 4727   1.829   0.727  12.537  0.5634 -0.3875 -0.0278
  311MPD2    C1 4728   1.820   0.802  12.652 -0.0769  0.0112 -0.3483
  311MPD2    C2 4729   1.744   0.750  12.756  0.8410 -0.1906 -0.3565
  311MPD2    C3 4730   1.659   0.641  12.741  0.7228  0.3212  0.9130
  311MPD2    C4 4731   1.669   0.569  12.618  0.1379  0.5453 -1.2414
  311MPD2    C5 4732   1.751   0.615  12.518 -0.5736 -0.1119  0.6601
  311MPD2     H 4733   1.742   0.801  12.852 -0.9382  0.3221 -0.6630
  311MPD2    H1 4734   1.613   0.482  12.585  0.4298 -1.1881  2.8758
  311MPD2    H2 4735   1.888   0.757  12.451 -0.6013 -1.4654 -1.2066
  311MPD2    H3 4736   1.758   0.562  12.423  0.0178  1.6237 -0.2749
  311MPD2     N 4737   1.590   0.600  12.860  0.0945  0.3067  0.4596
  311MPD2    H5 4738   1.606   0.655  12.944  0.3752 -0.8078  1.1354
  311MPD2    N1 4739   1.895   0.922  12.668 -0.6424 -0.2727 -0.2850
  311MPD2    H7 4740   1.880   0.979  12.751 -1.1429  1.3466 -1.5087
  312TMC3    C1 4741   1.477   0.474  13.007  0.6435 -0.0363  0.0304
  312TMC3    C2 4742   1.365   0.394  13.029 -0.3106  0.7003 -0.3961
  312TMC3    C3 4743   1.313   0.386  13.153  0.5582  0.4468  0.3852
  312TMC3    C4 4744   1.537   0.541  13.107  0.4160  0.5263  1.5766
  312TMC3    C5 4745   1.492   0.513  13.231  0.7325  0.6111  0.1025
  312TMC3    C6 4746   1.377   0.440  13.261 -0.1700 -0.1786 -0.3549
  312TMC3     C 4747   1.520   0.484  12.870 -0.7905 -0.0898  0.0675
  312TMC3     O 4748   1.495   0.395  12.789 -0.1797  0.1468  0.1408
  312TMC3     H 4749   1.314   0.345  12.947 -0.3700 -1.8137  1.1465
  312TMC3    H1 4750   1.634   0.589  13.095  0.8856 -1.0553 -1.0849
  312TMC3    H2 4751   1.338   0.431  13.362  0.9512 -1.7650 -0.0612
  312TMC3    C7 4752   1.552   0.577  13.341 -0.4780 -0.3669 -0.6503
  312TMC3    C8 4753   1.180   0.339  13.172 -0.4868 -0.1316 -0.0976
  312TMC3    O1 4754   1.610   0.686  13.320  0.8657  0.0998  0.3742
  312TMC3    O2 4755   1.144   0.245  13.102 -0.8550  0.1956  1.0892
  313MPD2     C 4756   0.192   0.020  11.509 -0.6400  0.2185 -0.3658
  313MPD2    C1 4757   0.262   0.008  11.389 -0.5581  0.1723 -0.4455
  313MPD2    C2 4758   0.230   4.647  11.299 -0.0088  0.6158  0.1872
  313MPD2    C3 4759   0.135   4.548  11.335 -0.2759 -0.2676  0.2370
  313MPD2    C4 4760   0.057   4.573  11.447 -0.3842  0.2027 -0.3181
  313MPD2    C5 4761   0.091   4.669  11.534 -0.4617 -0.1556  0.6068
  313MPD2     H 4762   0.291   4.625  11.213  0.1110  0.2339  0.3685
  313MPD2    H1 4763   4.709   4.516  11.485 -1.1170  0.1761 -2.0094
  313MPD2    H2 4764   0.207   0.099  11.581 -0.6228 -0.6500  0.5691
  313MPD2    H3 4765   0.033   4.687  11.624  2.0069 -2.5494  2.6749
  313MPD2     N 4766   0.128   4.439  11.248  0.3604  0.6418 -0.7095
  313MPD2    H5 4767   0.172   4.443  11.156  1.8838 -1.0944 -0.0513
  313MPD2    N1 4768   0.352   0.100  11.345  0.2743  0.0307  0.2566
  313MPD2    H7 4769   0.399   0.085  11.256  0.3107 -0.0149  0.2843
  314TMC3    C1 4770   0.475   0.304  11.338  0.6844  0.1299 -0.0427
  314TMC3    C2 4771   0.594   0.358  11.373 -0.3196  0.0529  0.4328
  314TMC3    C3 4772   0.626   0.480  11.322  0.6444  0.0255  0.4740
  314TMC3    C4 4773   0.380   0.362  11.256 -0.2489  0.1797 -0.1357
  314TMC3    C5 4774   0.420   0.479  11.209  0.1386  0.1072  0.1645
  314TMC3    C6 4775   0.543   0.541  11.234 -0.4105 -0.0997 -0.1115
  314TMC3     C 4776   0.420   0.196  11.416 -0.1761 -0.3370 -0.4697
  314TMC3     O 4777   0.425   0.209  11.535  0.0797  0.2256  0.4421
  314TMC3     H 4778   0.661   0.312  11.445 -0.9757 -2.3066 -0.4489
  314TMC3    H1 4779   0.285   0.316  11.235 -0.8699  0.6370  1.6518
  314TMC3    H2 4780   0.565   0.645  11.209  0.8185 -0.8804 -2.2560
  314TMC3    C7 4781   0.362   0.514  11.079  0.8798  0.6651 -0.0289
  314TMC3    C8 4782   0.758   0.541  11.328 -0.2957 -0.7057  0.4538
  314TMC3    O1 4783   0.285   0.433  11.038  0.2937 -0.1358 -0.1789
  314TMC3    O2 4784   0.771   0.662  11.302 -0.5702 -0.3515  0.0384
  315MPD2     C 4785   0.543   4.135  17.637 -0.7839 -0.2993 -0.0798
  315MPD2    C1 4786   0.630   4.170  17.734  0.5362 -0.0364 -0.1485
  315MPD2    C2 4787   0.679   4.296  17.740  0.0604 -0.0572  0.2180
  315MPD2    C3 4788   0.646   4.396  17.650  0.1328 -0.1110 -0.4352
  315MPD2    C4 4789   0.560   4.358  17.546 -0.5610 -1.1567  0.2379
  315MPD2    C5 4790   0.514   4.230  17.541 -0.0231  0.6986  0.0100
  315MPD2     H 4791   0.746   4.328   0.075 -0.8805  1.2941  0.4770
  315MPD2    H1 4792   0.526   4.419  17.463  1.4830 -1.4841 -0.8378
  315MPD2    H2 4793   0.492   4.039  17.636 -2.9451  0.8045  3.7810
  315MPD2    H3 4794   0.468   4.208  17.445  2.7912  3.2059 -1.9379
  315MPD2     N 4795   0.698   4.528  17.669 -0.4801  0.3851 -0.6499
  315MPD2    H5 4796   0.743   4.539   0.015 -1.6608 -0.8709  0.0874
  315MPD2    N1 4797   0.670   4.087   0.094  0.1799 -0.1889 -0.3812
  315MPD2    H7 4798   0.726   4.143   0.157  1.7429 -0.5945 -1.3840
  316TMC3    C1 4799   0.741   0.021  17.651  0.1645  0.0404 -0.1421
  316TMC3    C2 4800   0.821   0.012   0.024 -0.4934 -0.7370  0.0426
  316TMC3    C3 4801   0.835   0.123   0.100 -0.3812  0.2026 -0.0256
  316TMC3    C4 4802   0.690   0.137  17.604 -0.3617  0.9351  0.4789
  316TMC3    C5 4803   0.712   0.250  17.679  0.0858 -0.7319  0.4491
  316TMC3    C6 4804   0.778   0.242   0.059  0.3029 -0.2450  0.6848
  316TMC3     C 4805   0.679   4.642  17.592  0.5812  0.4147  0.2915
  316TMC3     O 4806   0.623   4.651  17.485 -0.1086 -0.4417  0.3058
  316TMC3     H 4807   0.873   4.659   0.058 -1.2966 -0.6824  1.4276
  316TMC3    H1 4808   0.639   0.140  17.508  0.7849 -0.3571 -0.1661
  316TMC3    H2 4809   0.779   0.328   0.124  0.8683  0.4133 -0.1876
  316TMC3    C7 4810   0.645   0.377  17.646 -0.1778  0.3564 -0.1559
  316TMC3    C8 4811   0.871   0.130   0.241  0.0852  0.5652 -0.3932
  316TMC3    O1 4812   0.611   0.446  17.741  0.3163 -0.3016  0.4354
  316TMC3    O2 4813   0.794   0.199   0.307  0.2856 -0.2700  0.1170
  317MPD2     C 4814   2.775   2.908  13.559  1.4181 -0.1839 -0.7648
  317MPD2    C1 4815   2.836   2.799  13.499  0.1660  0.8669 -0.9497
  317MPD2    C2 4816   2.885   2.696  13.577  0.5407 -0.5615 -0.8414
  317MPD2    C3 4817   2.875   2.704  13.721 -0.2195 -1.0593  0.1872
  317MPD2    C4 4818   2.820   2.816  13.779  0.2888  0.0316 -0.2548
  317MPD2    C5 4819   2.759   2.905  13.698  0.2547  0.2107 -0.0302
  317MPD2     H 4820   2.927   2.607  13.531  1.4370 -0.4341 -0.2649
  317MPD2    H1 4821   2.800   2.835  13.884 -0.5503  0.9727 -0.5932
  317MPD2    H2 4822   2.712   2.981  13.511 -2.7896 -2.0949  1.8885
  317MPD2    H3 4823   2.693   2.974  13.749 -3.4664 -1.7264 -2.2189
  317MPD2     N 4824   2.927   2.597  13.793  0.1545  0.4412 -1.3300
  317MPD2    H5 4825   2.945   2.514  13.739 -1.3156  0.2966 -1.5816
  317MPD2    N1 4826   2.849   2.791  13.355  0.4357  0.0664 -0.3611
  317MPD2    H7 4827   2.905   2.717  13.315  1.0247  1.1739 -1.5893
  318TMC3    C1 4828   2.941   2.446  13.962  0.6834 -0.0912  0.4129
  318TMC3    C2 4829   2.884   2.347  13.881 -0.2790 -0.5758 -0.2335
  318TMC3    C3 4830   2.934   2.221  13.873  0.3094  0.4724  0.3082
  318TMC3    C4 4831   3.071   2.422  14.007  0.1003 -0.1629 -0.0145
  318TMC3    C5 4832   3.130   2.304  13.982  0.9183  0.4806  0.3932
  318TMC3    C6 4833   3.058   2.197  13.927  0.3209  0.5690 -0.4940
  318TMC3     C 4834   2.928   2.585  13.927 -0.0283 -0.2431 -0.1699
  318TMC3     O 4835   2.955   2.671  14.006  0.5729  0.3959 -0.4861
  318TMC3     H 4836   2.786   2.362  13.836  0.4894  0.4117 -1.5659
  318TMC3    H1 4837   3.139   2.496  14.047  1.2157  0.5698 -3.2525
  318TMC3    H2 4838   3.102   2.104  13.892 -0.8945  0.4082 -1.6060
  318TMC3    C7 4839   3.260   2.302  13.925  0.3738  0.6549 -0.1504
  318TMC3    C8 4840   2.875   2.114  13.789 -0.3259 -0.7224 -0.2522
  318TMC3    O1 4841   3.305   2.411  13.891  0.0867  0.0191  0.0143
  318TMC3    O2 4842   2.924   2.001  13.814  0.5201  0.6534  0.0507
  319MPD2     C 4843   3.829   4.147  16.702  0.2113  0.1101  0.0509
  319MPD2    C1 4844   3.740   4.113  16.799  0.0323 -0.1639  0.2192
  319MPD2    C2 4845   3.612   4.073  16.774  0.1083 -0.4762 -0.6491
  319MPD2    C3 4846   3.577   4.054  16.635 -0.3726  0.1054  0.1117
  319MPD2    C4 4847   3.667   4.085  16.539  0.0428 -0.4317  0.5901
  319MPD2    C5 4848   3.794   4.122  16.577  0.4399 -0.3493  0.0071
  319MPD2     H 4849   3.547   4.044  16.856  0.1084 -0.9412 -0.8143
  319MPD2    H1 4850   3.655   4.065  16.433 -3.0257 -0.5719  0.9611
  319MPD2    H2 4851   3.922   4.198  16.722 -0.8842  1.9648  0.4387
  319MPD2    H3 4852   3.867   4.143  16.499 -0.9196  2.0140 -0.6365
  319MPD2     N 4853   3.451   4.001  16.602  0.0510  0.1449  0.2867
  319MPD2    H5 4854   3.431   4.017  16.504  1.0724  2.2840  0.4326
  319MPD2    N1 4855   3.778   4.124  16.932  0.0001 -0.2133 -0.1051
  319MPD2    H7 4856   3.701   4.108  16.996 -0.6593 -1.3545 -1.1878
  320TMC3    C1 4857   3.261   3.859  16.620  0.1771 -0.4650 -0.6623
  320TMC3    C2 4858   3.244   3.860  16.483 -0.5392 -0.1967 -0.8144
  320TMC3    C3 4859   3.144   3.781  16.433  0.3114  0.4393 -0.1602
  320TMC3    C4 4860   3.171   3.800  16.709 -0.2011 -0.1356  0.6246
  320TMC3    C5 4861   3.063   3.733  16.653  0.2756  0.4228 -0.9034
  320TMC3    C6 4862   3.056   3.723  16.516  0.2860  0.2416  0.4033
  320TMC3     C 4863   3.376   3.923  16.690 -0.0330  0.0442 -0.9197
  320TMC3     O 4864   3.400   3.887  16.804  0.1960  0.0192 -0.0312
  320TMC3     H 4865   3.317   3.907  16.418 -2.2173  0.3867 -2.2717
  320TMC3    H1 4866   3.169   3.828  16.814 -3.0354  1.4613  0.1354
  320TMC3    H2 4867   2.975   3.665  16.472  0.9567  1.1457 -2.0205
  320TMC3    C7 4868   3.059   3.595  16.698 -0.4218  0.5754  0.1069
  320TMC3    C8 4869   3.118   3.785  16.296  0.1075 -0.1727  0.2366
  320TMC3    O1 4870   2.979   3.522  16.648  0.7831  0.2149  0.1610
  320TMC3    O2 4871   3.183   3.859  16.225  0.1663 -0.0278 -0.4427
  321TMC3    C1 4872   3.900   4.183  17.124 -0.0563 -0.2385 -0.4135
  321TMC3    C2 4873   3.842   4.098  17.215 -0.4031  0.3839 -0.5902
  321TMC3    C3 4874   3.847   4.135  17.344 -0.3565  0.3045 -0.1931
  321TMC3    C4 4875   3.981   4.283  17.166 -1.3675 -0.0995  0.0666
  321TMC3    C5 4876   3.974   4.317  17.298  0.0793  0.7649  0.7061
  321TMC3    C6 4877   3.902   4.253  17.388  0.1701 -0.4603 -0.1385
  321TMC3     C 4878   3.896   4.168  16.980 -0.6724 -0.4275 -0.4657
  321TMC3     O 4879   4.000   4.202  16.925  0.2341 -0.1398  0.1376
  321TMC3     H 4880   3.798   4.005  17.182 -0.8820  0.1799  0.6553
  321TMC3    H1 4881   4.015   4.356  17.093 -0.2583  0.4198  1.0907
  321TMC3    H2 4882   3.913   4.278  17.493 -0.4315 -0.4530 -0.0763
  321TMC3    C7 4883   4.102   4.359  17.359  0.4762  0.3491 -0.2036
  321TMC3    C8 4884   3.871   4.020  17.428  0.4390  0.0244  0.1609
  321TMC3    O1 4885   4.191   4.277  17.363 -0.4686 -0.9517  0.6513
  321TMC3    O2 4886   3.816   3.918  17.397 -0.4033 -0.3051 -0.2284
  322MPD2     C 4887   3.266   0.468  13.611 -0.9798 -0.1375  0.6070
  322MPD2    C1 4888   3.189   0.374  13.677 -0.5285 -0.8672 -0.2266
  322MPD2    C2 4889   3.198   0.242  13.633 -0.3505  0.2111  0.1165
  322MPD2    C3 4890   3.276   0.200  13.529 -0.6451 -0.0926 -0.2531
  322MPD2    C4 4891   3.347   0.298  13.459  0.1229 -0.0789  0.1869
  322MPD2    C5 4892   3.346   0.426  13.506  0.2073  0.5192  0.8870
  322MPD2     H 4893   3.151   0.159  13.685 -0.7253 -0.1704 -0.8242
  322MPD2    H1 4894   3.416   0.281  13.377  1.5452  2.2242  0.8958
  322MPD2    H2 4895   3.263   0.575  13.630 -3.3731 -0.2708  1.0780
  322MPD2    H3 4896   3.400   0.510  13.464  2.9763 -0.3277  2.7245
  322MPD2     N 4897   3.282   0.063  13.500  0.3446 -0.0322  0.6237
  322MPD2    H5 4898   3.218   0.003  13.551  1.4804 -1.6794  0.0951
  322MPD2    N1 4899   3.110   0.419  13.790 -0.2777  0.4729 -0.7141
  322MPD2    H7 4900   3.139   0.508  13.828  4.2260 -1.9042  1.3292
  323TMC3    C1 4901   2.940   0.436  13.956  0.1890 -0.8411  0.4855
  323TMC3    C2 4902   2.984   0.570  13.965  0.2943  0.1692 -0.3166
  323TMC3    C3 4903   2.976   0.632  14.086 -0.7487  0.2938  0.6663
  323TMC3    C4 4904   2.904   0.370  14.070  0.0389  0.4743  0.2807
  323TMC3    C5 4905   2.896   0.432  14.192  0.0430 -0.1498  0.1782
  323TMC3    C6 4906   2.927   0.565  14.201  0.4381 -0.5005 -0.5119
  323TMC3     C 4907   3.008   0.354  13.857  0.6979 -0.6490 -0.2565
  323TMC3     O 4908   2.975   0.239  13.839  0.0987  0.8394  0.1708
  323TMC3     H 4909   3.024   0.626  13.881 -0.3199 -0.5680 -1.1020
  323TMC3    H1 4910   2.879   0.266  14.052 -1.5986  1.0891 -0.9210
  323TMC3    H2 4911   2.949   0.613  14.296 -1.1430  0.6766 -0.7487
  323TMC3    C7 4912   2.882   0.363  14.307 -0.1021  0.2984 -0.6250
  323TMC3    C8 4913   3.106   0.695  14.111  0.1687 -0.2181 -0.1488
  323TMC3    O1 4914   2.878   0.244  14.291 -0.1245  0.2402 -0.4246
  323TMC3    O2 4915   3.197   0.661  14.038 -0.2386 -0.2389 -0.3451
  324MPD2     C 4916   4.495   1.307  14.429  0.8178  0.0729  0.4934
  324MPD2    C1 4917   4.437   1.427  14.456 -0.2348 -0.0837 -0.0105
  324MPD2    C2 4918   4.315   1.462  14.404  0.1720  0.1890 -0.2123
  324MPD2    C3 4919   4.248   1.368  14.330 -0.2224 -0.3238 -0.4727
  324MPD2    C4 4920   4.302   1.241  14.311  0.3425 -0.0530  0.9602
  324MPD2    C5 4921   4.424   1.213  14.359 -0.1527 -0.5540  0.2470
  324MPD2     H 4922   4.285   1.566  14.406 -1.1108 -0.1380 -2.7910
  324MPD2    H1 4923   4.246   1.165  14.259  2.2386  0.0536 -1.2281
  324MPD2    H2 4924   4.593   1.276  14.464  0.8837  0.2018  0.4226
  324MPD2    H3 4925   4.470   1.116  14.346  0.5730 -0.2002  0.1494
  324MPD2     N 4926   4.113   1.382  14.292  0.0084  0.0282  0.7513
  324MPD2    H5 4927   4.072   1.301  14.246  0.0055 -0.1880  1.1358
  324MPD2    N1 4928   4.490   1.521  14.547 -0.1555 -0.0312 -0.6747
  324MPD2    H7 4929   4.431   1.600  14.571  1.9794  1.4461 -0.2461
  325TMC3    C1 4930   3.903   1.476  14.282 -0.4124  0.2779 -1.1643
  325TMC3    C2 4931   3.861   1.387  14.183 -0.0516 -0.3703 -0.8210
  325TMC3    C3 4932   3.736   1.400  14.132 -0.2802  0.1312 -0.3483
  325TMC3    C4 4933   3.823   1.577  14.319  0.0756 -0.8063 -0.3730
  325TMC3    C5 4934   3.699   1.581  14.267  0.8340 -0.2492 -0.3996
  325TMC3    C6 4935   3.650   1.503  14.165  0.4425  0.0086 -0.8636
  325TMC3     C 4936   4.034   1.486  14.330  0.3518 -0.3942 -0.6257
  325TMC3     O 4937   4.062   1.579  14.402  0.1461 -0.2215 -0.2255
  325TMC3     H 4938   3.922   1.302  14.155  1.1690  0.0674  0.5122
  325TMC3    H1 4939   3.868   1.663  14.367  0.4027 -0.9189 -0.4747
  325TMC3    H2 4940   3.548   1.520  14.132 -0.8472  0.5433  3.3710
  325TMC3    C7 4941   3.641   1.711  14.264 -0.3218  0.4017 -0.6206
  325TMC3    C8 4942   3.690   1.297  14.041  0.3432 -0.5644  0.0676
  325TMC3    O1 4943   3.592   1.744  14.157 -0.3714  0.0347 -0.0883
  325TMC3    O2 4944   3.778   1.243  13.968  0.4738 -0.3687  0.2313
  326MPD2     C 4945   4.349   2.827  11.176  0.0762  0.3944 -0.1465
  326MPD2    C1 4946   4.452   2.742  11.210  0.3651  0.6142  0.5757
  326MPD2    C2 4947   4.557   2.792  11.287  0.1855  0.1420  0.1377
  326MPD2    C3 4948   4.597   2.922  11.280 -0.0158 -0.4212 -0.2847
  326MPD2    C4 4949   4.503   3.006  11.223 -0.0491  0.0169  0.7519
  326MPD2    C5 4950   4.381   2.955  11.183 -0.4772  0.0219  0.0072
  326MPD2     H 4951   4.619   2.718  11.336 -0.3195 -1.1056 -1.1025
  326MPD2    H1 4952   4.529   3.109  11.205  1.1144 -0.1248  1.5993
  326MPD2    H2 4953   4.257   2.803  11.123 -1.2194  2.8101  0.9964
  326MPD2    H3 4954   4.322   3.023  11.121 -0.1077  0.8216  0.5358
  326MPD2     N 4955   4.714   2.976  11.328  0.6704 -0.3656  0.1598
  326MPD2    H5 4956   0.020   3.059  11.288  1.8110 -0.4315  1.1903
  326MPD2    N1 4957   4.456   2.606  11.173 -0.9723  0.1063  0.3370
  326MPD2    H7 4958   4.537   2.548  11.192 -1.3539 -0.3832  0.4773
  327TMC3    C1 4959   4.409   2.440  11.012  0.4686 -0.3303  0.5476
  327TMC3    C2 4960   4.441   2.495  10.893 -0.6918 -0.1926 -0.2566
  327TMC3    C3 4961   4.559   2.447  10.820  0.3915 -0.5268  0.1208
  327TMC3    C4 4962   4.492   2.351  11.078 -1.1942  0.5027  0.4258
  327TMC3    C5 4963   4.609   2.317  11.013  0.1051  0.8322  0.6380
  327TMC3    C6 4964   4.645   2.360  10.889  0.2328 -0.2690 -0.4117
  327TMC3     C 4965   4.355   2.546  11.096 -0.5737 -0.0417 -0.1659
  327TMC3     O 4966   4.264   2.601  11.037  0.3810  0.2025 -0.2318
  327TMC3     H 4967   4.370   2.551  10.833  0.2130  2.6112  1.3264
  327TMC3    H1 4968   4.487   2.331  11.184 -2.2369  0.1465  0.3058
  327TMC3    H2 4969   0.003   2.337  10.840  2.1623  2.5806  2.0076
  327TMC3    C7 4970   4.676   2.207  11.080 -0.2775 -0.0796  0.8589
  327TMC3    C8 4971   4.619   2.563  10.751 -0.9714 -0.3997  0.1733
  327TMC3    O1 4972   4.605   2.125  11.136 -0.3866  0.0034  0.4264
  327TMC3    O2 4973   4.555   2.666  10.750 -0.1902 -0.3985 -0.6163
  328MPD2     C 4974   3.260   3.189  17.648 -0.4683 -0.4508 -0.5417
  328MPD2    C1 4975   3.161   3.094  17.646 -0.6582  0.4506 -0.6405
  328MPD2    C2 4976   3.060   3.101  17.550  0.5672 -0.3865 -0.0017
  328MPD2    C3 4977   3.067   3.191  17.444 -0.2974 -0.0776 -0.1415
  328MPD2    C4 4978   3.172   3.278  17.445 -0.4832 -0.3716 -0.3444
  328MPD2    C5 4979   3.265   3.280  17.544  0.5575  0.2364  0.5239
  328MPD2     H 4980   2.970   3.041  17.553  0.6129 -0.3738  1.6460
  328MPD2    H1 4981   3.179   3.351  17.366 -1.2215 -0.7642 -0.7746
  328MPD2    H2 4982   3.331   3.184  17.731 -2.5868  2.3028  1.4496
  328MPD2    H3 4983   3.346   3.352  17.535  0.5847  0.2674  1.0011
  328MPD2     N 4984   2.970   3.201  17.337 -0.0277 -0.0832 -0.2395
  328MPD2    H5 4985   2.969   3.282  17.276 -1.4830  0.7371  0.8681
  328MPD2    N1 4986   3.165   3.002   0.007  0.1333 -0.4014 -0.1043
  328MPD2    H7 4987   3.240   3.008   0.076  3.5812  1.1904 -3.9870
  329TMC3    C1 4988   3.084   2.819   0.132  0.2332 -0.1867 -0.4109
  329TMC3    C2 4989   3.122   2.885   0.246  0.0963  0.2960 -0.5395
  329TMC3    C3 4990   3.092   2.826   0.367  0.2056 -0.2390  0.3393
  329TMC3    C4 4991   3.028   2.696   0.130 -0.2481 -0.6123  0.6014
  329TMC3    C5 4992   3.016   2.632   0.251 -0.0724 -0.1666  0.2183
  329TMC3    C6 4993   3.042   2.703   0.365 -0.2735  0.1771  0.0378
  329TMC3     C 4994   3.079   2.899   0.014 -0.2372 -0.7978 -0.5829
  329TMC3     O 4995   3.004   2.850  17.676  0.2268 -0.2851 -0.3006
  329TMC3     H 4996   3.153   2.989   0.257  0.7108 -0.1450  1.9266
  329TMC3    H1 4997   3.003   2.644   0.039  3.0825 -0.8145 -0.1963
  329TMC3    H2 4998   3.039   2.659   0.464 -0.2060  0.7577  0.3023
  329TMC3    C7 4999   3.028   2.484   0.256  0.5893  0.6510 -0.4107
  329TMC3    C8 5000   3.089   2.900   0.487 -0.0645  0.0279 -0.8312
  329TMC3    O1 5001   3.056   2.420   0.155  0.2512  0.3899  0.0911
  329TMC3    O2 5002   3.172   2.986   0.509 -0.0954  0.3067 -0.0456
  330TMC3    C1 5003   0.538   2.258   9.915  0.5421 -0.0327 -0.2079
  330TMC3    C2 5004   0.495   2.133   9.873  0.3115 -0.1750  0.5724
  330TMC3    C3 5005   0.579   2.029   9.900 -0.1999  0.3470 -0.7607
  330TMC3    C4 5006   0.652   2.274   9.986 -0.0665 -0.6357 -0.7167
  330TMC3    C5 5007   0.723   2.163  10.028 -0.0210  1.1117 -0.3413
  330TMC3    C6 5008   0.687   2.037   9.985 -0.0742  0.0624 -0.1382
  330TMC3     C 5009   0.487   2.371   9.845  0.2934 -0.1339 -0.3232
  330TMC3     O 5010   0.521   2.481   9.885  0.3487  0.1539 -0.2720
  330TMC3     H 5011   0.395   2.115   9.835  1.0594  1.3894 -2.1247
  330TMC3    H1 5012   0.669   2.373  10.027  1.1752 -1.4859  0.8151
  330TMC3    H2 5013   0.751   1.951  10.001  0.6071  0.5402 -0.2766
  330TMC3    C7 5014   0.824   2.185  10.121 -0.8550  0.3984  0.2732
  330TMC3    C8 5015   0.543   1.901   9.845  0.4211  0.4856 -0.4961
  330TMC3    O1 5016   0.871   2.302  10.127 -0.6875  0.3960 -0.3400
  330TMC3    O2 5017   0.488   1.910   9.737  0.5609 -0.2507  0.2471
  331MPD2     C 5018   4.516   1.395  12.809  0.3340  0.5909  0.0823
  331MPD2    C1 5019   4.394   1.388  12.747 -0.1361  0.1614 -0.1720
  331MPD2    C2 5020   4.345   1.261  12.720  0.2432  0.4945 -0.4732
  331MPD2    C3 5021   4.407   1.143  12.751 -0.7388 -0.3212  0.7614
  331MPD2    C4 5022   4.525   1.161  12.815 -0.0721  0.0807  0.1891
  331MPD2    C5 5023   4.579   1.283  12.840 -0.0709  0.0998 -0.0193
  331MPD2     H 5024   4.255   1.260  12.659  0.3056  1.6292 -0.5670
  331MPD2    H1 5025   4.592   1.078  12.835 -2.3396 -1.6515  0.6150
  331MPD2    H2 5026   4.572   1.485  12.835 -0.1580  0.3102  2.1451
  331MPD2    H3 5027   4.676   1.295  12.887  0.3646  1.4042 -1.2784
  331MPD2     N 5028   4.372   1.011  12.698  0.0259  0.0695 -0.0846
  331MPD2    H5 5029   4.293   1.014  12.635 -0.0346 -2.7482 -0.1275
  331MPD2    N1 5030   4.332   1.499  12.693 -0.0181  0.4338  0.0539
  331MPD2    H7 5031   4.246   1.476  12.644  0.4847 -0.4068 -0.4454
  332TMC3    C1 5032   4.371   0.779  12.667 -1.0377  0.1094  0.4750
  332TMC3    C2 5033   4.345   0.798  12.534 -0.7510 -0.6303  0.2334
  332TMC3    C3 5034   4.282   0.700  12.466  0.2915 -0.2343 -0.0809
  332TMC3    C4 5035   4.349   0.662  12.734 -0.1082 -0.2524 -0.4825
  332TMC3    C5 5036   4.287   0.567  12.655  0.3484  0.0073 -0.2322
  332TMC3    C6 5037   4.260   0.576  12.520 -0.1811  0.2356  0.2550
  332TMC3     C 5038   4.427   0.894  12.742 -0.0210 -0.7282 -0.3439
  332TMC3     O 5039   4.496   0.868  12.838  0.0196  0.0308  0.0845
  332TMC3     H 5040   4.374   0.891  12.486 -0.8720 -0.2856  0.8280
  332TMC3    H1 5041   4.361   0.666  12.842 -1.3067  0.0095 -0.3630
  332TMC3    H2 5042   4.188   0.510  12.473 -0.3819 -0.4343  1.5231
  332TMC3    C7 5043   4.294   0.440  12.721 -0.4904 -0.0155 -0.0731
  332TMC3    C8 5044   4.315   0.702  12.326  0.3414 -0.3347 -0.0132
  332TMC3    O1 5045   4.197   0.367  12.710 -0.1850  0.4521  0.2231
  332TMC3    O2 5046   4.342   0.811  12.278  0.6191 -0.1564  0.0536
  333MPD2     C 5047   3.771   0.960  11.529 -0.3871  0.1473  0.9419
  333MPD2    C1 5048   3.859   0.859  11.489 -0.9402 -0.5074 -0.6321
  333MPD2    C2 5049   3.839   0.731  11.539 -0.2372  0.5412  0.2135
  333MPD2    C3 5050   3.758   0.696  11.641  0.3745  0.3122  0.1129
  333MPD2    C4 5051   3.681   0.805  11.689 -0.3753 -0.3713  0.0201
  333MPD2    C5 5052   3.694   0.929  11.637  0.6233  0.2693  0.1601
  333MPD2     H 5053   3.893   0.650  11.491 -1.3833 -0.1432  0.0634
  333MPD2    H1 5054   3.598   0.792  11.757  0.4742 -0.0369  1.1357
  333MPD2    H2 5055   3.768   1.065  11.501 -1.5256 -0.5393 -1.5785
  333MPD2    H3 5056   3.636   1.012  11.676  1.3633  0.5216  0.7247
  333MPD2     N 5057   3.731   0.563  11.673  0.1928  0.3789 -0.0094
  333MPD2    H5 5058   3.770   0.493  11.610  2.0034  1.3906 -0.0150
  333MPD2    N1 5059   3.948   0.893  11.390 -0.1765  0.1473  0.4760
  333MPD2    H7 5060   3.947   0.990  11.360 -0.3097  0.4827  1.5656
  334TMC3    C1 5061   4.110   0.857  11.222  0.7176 -0.8392  0.0446
  334TMC3    C2 5062   4.219   0.787  11.182 -0.3723  0.0713  0.2452
  334TMC3    C3 5063   4.285   0.820  11.072 -0.7211 -0.5742  0.0966
  334TMC3    C4 5064   4.070   0.975  11.160  0.1005  0.5199 -0.7500
  334TMC3    C5 5065   4.141   1.013  11.051  0.4428 -0.5539 -0.3539
  334TMC3    C6 5066   4.245   0.935  11.002  0.9985  0.2582  0.4413
  334TMC3     C 5067   4.042   0.803  11.335 -0.1457 -0.2371  0.5486
  334TMC3     O 5068   4.084   0.692  11.361 -0.3644  0.3752  0.0221
  334TMC3     H 5069   4.259   0.704  11.240 -1.6787 -0.7000  0.0664
  334TMC3    H1 5070   3.984   1.032  11.194 -1.0105 -2.7153  1.8269
  334TMC3    H2 5071   4.286   0.972  10.908  0.8908 -1.1297 -0.1422
  334TMC3    C7 5072   4.140   1.150  11.008  0.6161 -0.2399 -0.0831
  334TMC3    C8 5073   4.418   0.772  11.053  0.0192  0.2240  0.4345
  334TMC3    O1 5074   4.243   1.193  10.959  0.1774 -0.0502 -0.6478
  334TMC3    O2 5075   4.458   0.659  11.089 -0.2798 -0.0829 -0.1108
  335TMC3    C1 5076   3.845   2.899  17.364 -0.5126 -0.2561  0.0064
  335TMC3    C2 5077   3.815   2.826  17.246  0.0180  0.4134  0.8724
  335TMC3    C3 5078   3.914   2.806  17.158  0.0688 -0.0761 -0.0813
  335TMC3    C4 5079   3.972   2.933  17.399 -0.1661 -0.9914 -0.0058
  335TMC3    C5 5080   4.063   2.907  17.302  0.7905 -0.4311  0.1887
  335TMC3    C6 5081   4.046   2.841  17.183 -0.4041 -0.5655 -0.3395
  335TMC3     C 5082   3.734   2.933  17.460  0.0845  0.0677  0.3129
  335TMC3     O 5083   3.631   2.866  17.455 -0.4125  0.2072  0.0666
  335TMC3     H 5084   3.711   2.800  17.224 -0.4010  0.6005  2.6466
  335TMC3    H1 5085   3.996   2.988  17.489  0.5024 -3.0421  1.0716
  335TMC3    H2 5086   4.128   2.850  17.113  0.7358  1.7909  1.2800
  335TMC3    C7 5087   4.203   2.947  17.321  0.8154 -0.4576  0.1568
  335TMC3    C8 5088   3.907   2.717  17.043 -0.2064 -0.5014  0.5084
  335TMC3    O1 5089   4.276   2.954  17.225  0.5343  0.0813 -0.2478
  335TMC3    O2 5090   4.006   2.720  16.969  0.3209 -0.6465  0.3550
  336MPD2     C 5091   3.435   0.557  16.294 -0.0945  0.2198  0.0215
  336MPD2    C1 5092   3.352   0.480  16.217 -0.1672 -0.0449 -0.4612
  336MPD2    C2 5093   3.384   0.342  16.212  0.3155 -0.3074 -0.0835
  336MPD2    C3 5094   3.494   0.284  16.281 -0.9385  0.3571  0.1376
  336MPD2    C4 5095   3.572   0.371  16.343  0.3225  0.7072  0.2926
  336MPD2    C5 5096   3.541   0.502  16.351 -0.0271 -0.1464 -0.3326
  336MPD2     H 5097   3.335   0.276  16.142 -0.4232 -0.7769  0.8768
  336MPD2    H1 5098   3.658   0.330  16.395 -0.7296 -1.6214  0.2186
  336MPD2    H2 5099   3.420   0.665  16.295  0.9867  0.4027 -3.6058
  336MPD2    H3 5100   3.598   0.567  16.417  0.3975 -0.5164 -0.3374
  336MPD2     N 5101   3.531   0.146  16.283 -0.4374 -0.5567  0.3643
  336MPD2    H5 5102   3.622   0.124  16.322  0.3161 -0.7793 -1.5038
  336MPD2    N1 5103   3.246   0.536  16.146  0.9708  0.2054  0.4436
  336MPD2    H7 5104   3.224   0.634  16.158 -1.2941 -0.3148  0.5508
  337TMC3    C1 5105   3.042   0.546  16.025  0.6817 -0.2109 -0.9690
  337TMC3    C2 5106   2.996   0.558  15.897  0.1021  0.7740  0.9416
  337TMC3    C3 5107   2.902   0.653  15.873  0.5546 -0.1882 -0.3204
  337TMC3    C4 5108   3.002   0.626  16.126 -0.2637  0.5087 -0.5900
  337TMC3    C5 5109   2.911   0.727  16.099 -0.2409 -0.8549 -0.0206
  337TMC3    C6 5110   2.865   0.745  15.968  0.2749  0.5644 -0.2633
  337TMC3     C 5111   3.162   0.472  16.051 -0.7697 -0.2365  0.0210
  337TMC3     O 5112   3.182   0.373  15.980  0.2353  0.0772 -0.2007
  337TMC3     H 5113   3.033   0.496  15.816  0.8082  0.1512  1.7487
  337TMC3    H1 5114   3.023   0.597  16.229 -0.4951  1.5650 -0.2517
  337TMC3    H2 5115   2.773   0.801  15.959  0.3342  0.8721  0.9876
  337TMC3    C7 5116   2.880   0.840  16.188  0.6776  0.5214 -0.4222
  337TMC3    C8 5117   2.845   0.683  15.740  0.3628 -0.3615 -0.3416
  337TMC3    O1 5118   2.787   0.920  16.167  0.0330  0.4915 -0.4908
  337TMC3    O2 5119   2.774   0.783  15.734 -0.1802  0.1410 -0.5520
  338MPD2     C 5120   3.487   0.098   0.943 -0.1820 -0.4493  0.1813
  338MPD2    C1 5121   3.454   0.070   0.813  0.5654  0.4586  0.2786
  338MPD2    C2 5122   3.322   0.109   0.770 -0.1350 -0.2468  0.2536
  338MPD2    C3 5123   3.236   0.184   0.849  0.6944  0.8253  0.0162
  338MPD2    C4 5124   3.278   0.217   0.977  0.0995  0.5416  0.6326
  338MPD2    C5 5125   3.396   0.171   1.024  0.0878  0.1044  0.7096
  338MPD2     H 5126   3.288   0.076   0.672 -0.4017  2.0876 -0.4448
  338MPD2    H1 5127   3.221   0.283   1.042 -1.8469 -0.5658  0.0627
  338MPD2    H2 5128   3.583   0.071   0.984  0.5293  0.5299 -0.8255
  338MPD2    H3 5129   3.424   0.195   1.126  1.8227  1.0680  0.0098
  338MPD2     N 5130   3.109   0.223   0.799 -0.0533  0.2974  0.5662
  338MPD2    H5 5131   3.074   0.194   0.708  0.6423 -1.0038  0.7200
  338MPD2    N1 5132   3.540   0.009   0.723  0.2037 -0.7820 -0.1635
  338MPD2    H7 5133   3.504   4.721   0.631  1.4071  1.3897 -1.1777
  339TMC3    C1 5134   2.880   0.265   0.801 -0.2436  0.7205  0.3413
  339TMC3    C2 5135   2.796   0.156   0.826 -0.3724  0.1953  0.3543
  339TMC3    C3 5136   2.705   0.113   0.734 -0.2613  0.0191 -1.0670
  339TMC3    C4 5137   2.879   0.320   0.679 -0.0410  0.0019 -0.3194
  339TMC3    C5 5138   2.784   0.288   0.586  0.5238  0.7493  0.5930
  339TMC3    C6 5139   2.691   0.184   0.614 -0.3169  0.1015 -0.0874
  339TMC3     C 5140   3.003   0.268   0.876 -0.3927  0.2359  0.3883
  339TMC3     O 5141   2.988   0.269   0.994 -0.6486 -0.7211 -0.1777
  339TMC3     H 5142   2.825   0.090   0.907 -2.8568 -0.0833  1.0211
  339TMC3    H1 5143   2.956   0.390   0.646 -0.7803  0.7758 -0.4091
  339TMC3    H2 5144   2.619   0.149   0.541 -0.0236 -2.4961  0.8660
  339TMC3    C7 5145   2.832   0.300   0.456  0.4583 -0.0490  0.2246
  339TMC3    C8 5146   2.718   4.713   0.703 -0.5422  0.0334 -0.2533
  339TMC3    O1 5147   2.907   0.392   0.436 -0.4266  0.2258  0.2372
  339TMC3    O2 5148   2.713   4.674   0.588  0.1010  0.5561 -0.3516
  340MPD2     C 5149   3.235   1.701  10.139 -0.8170 -0.4626 -0.0346
  340MPD2    C1 5150   3.264   1.831  10.124 -0.0752  0.4877  0.2122
  340MPD2    C2 5151   3.353   1.893  10.213 -0.3756  0.0551 -0.1846
  340MPD2    C3 5152   3.428   1.824  10.297 -0.4171 -0.6102  0.9168
  340MPD2    C4 5153   3.395   1.690  10.309  0.2760 -0.5096 -0.5895
  340MPD2    C5 5154   3.302   1.627  10.230 -0.2744  0.0598 -0.6912
  340MPD2     H 5155   3.361   2.001  10.206  1.3122 -0.2361 -2.6546
  340MPD2    H1 5156   3.447   1.633  10.385 -0.8099  4.0416  3.5105
  340MPD2    H2 5157   3.158   1.658  10.076 -0.8039 -0.1650 -0.2552
  340MPD2    H3 5158   3.271   1.525  10.251 -2.3685  0.7100 -0.6103
  340MPD2     N 5159   3.521   1.882  10.391  0.5873  0.5043 -0.2478
  340MPD2    H5 5160   3.556   1.823  10.466  0.9532  3.4524  1.8980
  340MPD2    N1 5161   3.196   1.891  10.018  0.1289  0.0606 -0.1244
  340MPD2    H7 5162   3.126   1.839   9.966  2.0116 -3.3067  0.6874
  341TMC3    C1 5163   3.144   2.032   9.841  0.2805 -0.1748  0.0077
  341TMC3    C2 5164   3.046   1.948   9.800  0.4454  0.9342  0.0475
  341TMC3    C3 5165   2.972   1.976   9.679 -0.0297 -0.2319  0.1993
  341TMC3    C4 5166   3.181   2.140   9.764 -0.0954 -0.6504  0.1587
  341TMC3    C5 5167   3.119   2.154   9.646  0.1311 -0.7472 -0.2925
  341TMC3    C6 5168   3.014   2.079   9.602 -0.1867  0.5653  0.3303
  341TMC3     C 5169   3.205   2.018   9.972 -0.0143  0.1269 -0.9591
  341TMC3     O 5170   3.272   2.115  10.015  0.4503  0.3151 -0.4058
  341TMC3     H 5171   3.024   1.861   9.861 -1.2904  1.4681  0.1926
  341TMC3    H1 5172   3.251   2.215   9.798 -1.3071 -1.1499  3.7620
  341TMC3    H2 5173   2.968   2.092   9.505  0.1002 -0.9549 -0.0207
  341TMC3    C7 5174   3.141   2.275   9.569  0.7361  0.4323  0.4454
  341TMC3    C8 5175   2.844   1.924   9.648  0.1212  1.0400  0.0470
  341TMC3    O1 5176   3.055   2.297   9.481 -0.0322 -0.5406  0.2029
  341TMC3    O2 5177   2.774   1.979   9.564  0.4504 -0.2586 -0.3670
  342MPD2     C 5178   1.885   0.897   0.078 -0.0956 -0.3822 -0.1864
  342MPD2    C1 5179   1.972   0.876  17.721 -0.6607 -0.2841  0.2055
  342MPD2    C2 5180   2.059   0.977  17.677  0.4700  0.8708 -0.7205
  342MPD2    C3 5181   2.063   1.099  17.744 -0.6817  0.4457 -0.4296
  342MPD2    C4 5182   1.979   1.118   0.100 -0.2119  0.0405  0.0393
  342MPD2    C5 5183   1.890   1.018   0.138  0.1044  0.4515 -0.1897
  342MPD2     H 5184   2.122   0.958  17.591  1.5714  1.1715  0.0220
  342MPD2    H1 5185   1.977   1.206   0.163  1.7698  0.5228 -0.5709
  342MPD2    H2 5186   1.815   0.822   0.115  1.3686 -1.5735  0.1498
  342MPD2    H3 5187   1.814   1.046   0.210 -0.6706  1.1396 -1.2737
  342MPD2     N 5188   2.153   1.203  17.708  0.5908 -0.3392 -0.1114
  342MPD2    H5 5189   2.142   1.290   0.016  0.9957  0.0538 -0.6768
  342MPD2    N1 5190   1.974   0.759  17.646  0.1696  0.7169  0.5303
  342MPD2    H7 5191   2.060   0.739  17.596 -1.1055  0.7389 -1.6617
  343TMC3    C1 5192   1.941   0.547  17.558  0.1456 -0.4849  0.4030
  343TMC3    C2 5193   2.022   0.581  17.452 -0.3180  0.0218  1.0838
  343TMC3    C3 5194   2.071   0.482  17.371  0.3815 -0.0625 -0.1991
  343TMC3    C4 5195   1.880   0.424  17.568 -0.1952  0.8743  0.3508
  343TMC3    C5 5196   1.921   0.335  17.473 -0.7261 -0.4242 -0.7348
  343TMC3    C6 5197   2.009   0.360  17.371 -0.7130  0.3272  0.1079
  343TMC3     C 5198   1.892   0.653  17.649  0.7165 -0.7447 -0.1647
  343TMC3     O 5199   1.781   0.640  17.705  0.3730 -0.0721 -0.4450
  343TMC3     H 5200   2.071   0.678  17.442 -0.8859  0.0907 -0.9416
  343TMC3    H1 5201   1.800   0.404  17.639  0.5476 -1.7884  0.4355
  343TMC3    H2 5202   2.049   0.281  17.308  0.4045  1.1004 -0.1619
  343TMC3    C7 5203   1.874   0.195  17.473  0.4872 -0.5417 -0.0642
  343TMC3    C8 5204   2.171   0.520  17.269 -0.0973  1.1670  0.4283
  343TMC3    O1 5205   1.834   0.144  17.366  0.4743 -0.1818  0.3324
  343TMC3    O2 5206   2.224   0.626  17.281  0.6557 -0.3219  0.5682
  344MPD2     C 5207   2.792   4.621  10.833  0.5494 -0.3969  0.0213
  344MPD2    C1 5208   2.675   4.629  10.763  0.2694  0.0911 -0.2344
  344MPD2    C2 5209   2.662   4.730  10.665  0.3088  0.1355  0.0496
  344MPD2    C3 5210   2.764   0.094  10.661 -0.0373 -0.1573  0.1922
  344MPD2    C4 5211   2.877   0.075  10.731  0.1286 -0.0455  1.1129
  344MPD2    C5 5212   2.893   4.712  10.816 -0.1202  0.3886 -0.0171
  344MPD2     H 5213   2.569   0.007  10.611  0.6387  1.0938 -0.2854
  344MPD2    H1 5214   2.959   0.144  10.720 -0.1591  0.5006  2.4495
  344MPD2    H2 5215   2.815   4.547  10.909  0.1755 -0.2783  0.2554
  344MPD2    H3 5216   2.987   4.722  10.869 -0.8212 -3.3102  1.9185
  344MPD2     N 5217   2.768   0.216  10.587  0.0910 -0.2608  0.4515
  344MPD2    H5 5218   2.837   0.277  10.629 -0.1043  0.8960 -0.9163
  344MPD2    N1 5219   2.563   4.541  10.793  0.6761 -0.4747 -0.7885
  344MPD2    H7 5220   2.475   4.563  10.748  0.4561 -0.7514 -0.4958
  345TMC3    C1 5221   2.720   0.382  10.445  0.2900 -0.3709  0.2722
  345TMC3    C2 5222   2.855   0.413  10.427 -0.1678  0.4085  0.3166
  345TMC3    C3 5223   2.890   0.538  10.379 -0.7530 -0.1952 -1.0362
  345TMC3    C4 5224   2.626   0.474  10.413  0.1995  0.1215  0.1516
  345TMC3    C5 5225   2.670   0.598  10.375 -0.3949  0.1763  0.8554
  345TMC3    C6 5226   2.798   0.632  10.357 -0.3625 -0.0883  0.9693
  345TMC3     C 5227   2.677   0.256  10.491  0.2749  0.3794 -0.0233
  345TMC3     O 5228   2.568   0.210  10.473 -0.7332 -0.1856 -0.0032
  345TMC3     H 5229   2.935   0.343  10.451  0.1121  0.3028 -0.9048
  345TMC3    H1 5230   2.522   0.444  10.419 -0.5582  2.3830 -1.7932
  345TMC3    H2 5231   2.822   0.736  10.338 -1.2175  0.0405  0.5837
  345TMC3    C7 5232   2.577   0.706  10.339 -0.0367  0.2200 -0.4382
  345TMC3    C8 5233   3.034   0.585  10.367 -0.7510 -0.5178  0.0673
  345TMC3    O1 5234   2.619   0.806  10.283  0.1246 -0.6381 -0.0701
  345TMC3    O2 5235   3.051   0.700  10.400  0.2285  0.0073 -0.1099
  346MPD2     C 5236   2.553   1.885  14.662 -0.5582  0.0200  0.4454
  346MPD2    C1 5237   2.668   1.870  14.588  0.4175 -0.1517  0.2267
  346MPD2    C2 5238   2.785   1.875  14.652  0.2848 -0.3219  0.6469
  346MPD2    C3 5239   2.801   1.913  14.784 -0.1447  0.1906  0.5185
  346MPD2    C4 5240   2.687   1.931  14.858  0.2935 -0.6880 -0.2315
  346MPD2    C5 5241   2.567   1.911  14.794 -0.0748 -0.6799 -0.6608
  346MPD2     H 5242   2.877   1.855  14.599  0.0449  0.5730 -0.1120
  346MPD2    H1 5243   2.683   1.948  14.965  4.2616  2.4400 -0.6137
  346MPD2    H2 5244   2.453   1.866  14.624 -0.5859 -0.8773  0.9757
  346MPD2    H3 5245   2.475   1.912  14.851  1.3481  0.2905  1.6034
  346MPD2     N 5246   2.927   1.923  14.845  1.0784  0.2894  0.0387
  346MPD2    H5 5247   3.004   1.900  14.783  1.6971  0.4022  0.7606
  346MPD2    N1 5248   2.676   1.831  14.450  0.0505 -0.1981 -0.3279
  346MPD2    H7 5249   2.769   1.825  14.409 -0.3753  1.1481 -1.5119
  347TMC3    C1 5250   3.106   1.915  15.003  0.7470  0.0859  0.6319
  347TMC3    C2 5251   3.194   1.971  14.907 -0.1815 -0.5935 -0.1313
  347TMC3    C3 5252   3.330   1.955  14.933  0.0469  0.2832 -1.2245
  347TMC3    C4 5253   3.149   1.864  15.124 -0.8897 -0.8572 -0.6673
  347TMC3    C5 5254   3.286   1.858  15.145  1.3134 -0.1596  0.3792
  347TMC3    C6 5255   3.370   1.903  15.049  0.9120 -0.2421 -0.5233
  347TMC3     C 5256   2.967   1.918  14.981  0.3741 -0.0402 -0.2421
  347TMC3     O 5257   2.894   1.933  15.080  0.4122  0.1261 -0.1591
  347TMC3     H 5258   3.155   2.019  14.818 -2.7614 -0.9170  0.8424
  347TMC3    H1 5259   3.075   1.825  15.193 -1.9368 -0.1225 -1.3604
  347TMC3    H2 5260   3.476   1.889  15.068  1.0405  0.2452 -0.8857
  347TMC3    C7 5261   3.325   1.749  15.224 -0.0062  0.5345 -0.1354
  347TMC3    C8 5262   3.431   1.948  14.822 -0.4940 -0.2643  0.6523
  347TMC3    O1 5263   3.410   1.672  15.177 -0.1124  0.0433  0.2033
  347TMC3    O2 5264   3.532   1.887  14.845 -0.0138 -0.1037 -0.4054
  348MPD2     C 5265   1.691   1.687  12.201  0.0816 -0.1281  0.0552
  348MPD2    C1 5266   1.758   1.726  12.081  0.8078  0.2592  0.9026
  348MPD2    C2 5267   1.686   1.773  11.977  0.0511 -0.4438  0.4610
  348MPD2    C3 5268   1.557   1.802  11.991  0.0844 -0.5975 -0.4836
  348MPD2    C4 5269   1.487   1.763  12.105 -0.0351 -0.2931 -0.9836
  348MPD2    C5 5270   1.559   1.704  12.205 -0.1058 -0.4736 -0.3109
  348MPD2     H 5271   1.746   1.800  11.891 -2.9391  1.8398 -0.8952
  348MPD2    H1 5272   1.381   1.782  12.118  0.0331 -0.1827 -0.5738
  348MPD2    H2 5273   1.739   1.636  12.284 -1.5651 -0.7314  0.6343
  348MPD2    H3 5274   1.511   1.665  12.294  1.9433 -0.7130  0.6768
  348MPD2     N 5275   1.500   1.876  11.880  0.0381 -0.5175  0.0735
  348MPD2    H5 5276   1.564   1.895  11.804  0.8572 -2.7731  0.2121
  348MPD2    N1 5277   1.894   1.697  12.069  0.0429 -0.6057 -0.4853
  348MPD2    H7 5278   1.933   1.723  11.979 -2.0708  1.9797 -0.6816
  349TMC3    C1 5279   2.090   1.574  12.080  0.6358  0.6562  0.3214
  349TMC3    C2 5280   2.110   1.447  12.131 -0.0009  0.0314 -0.2384
  349TMC3    C3 5281   2.113   1.338  12.048  0.8606 -0.5052 -0.5426
  349TMC3    C4 5282   2.083   1.591  11.943  0.1756  0.1929 -0.1441
  349TMC3    C5 5283   2.065   1.479  11.860 -0.3881 -0.3306 -0.5792
  349TMC3    C6 5284   2.077   1.355  11.912 -0.4710  0.2063  0.6747
  349TMC3     C 5285   1.975   1.629  12.155 -0.2562  0.5784 -0.7275
  349TMC3     O 5286   1.952   1.593  12.271  0.2851 -0.5253 -0.0799
  349TMC3     H 5287   2.115   1.431  12.238  2.4968 -1.7273 -0.6094
  349TMC3    H1 5288   2.083   1.684  11.888  1.5193  0.2298 -0.0780
  349TMC3    H2 5289   2.032   1.276  11.853 -2.5792  2.0847 -0.2355
  349TMC3    C7 5290   1.939   1.491  11.780 -0.8438  0.3365  0.3319
  349TMC3    C8 5291   2.096   1.202  12.102  0.2805 -0.1668  0.8737
  349TMC3    O1 5292   1.858   1.399  11.783  0.5934  0.4500 -0.2112
  349TMC3    O2 5293   2.059   1.199  12.215  0.5588  0.0390  0.3456
  350MPD2     C 5294   0.286   4.225  10.307 -0.0234  0.0820  0.7481
  350MPD2    C1 5295   0.191   4.127  10.338  0.2980 -0.3784 -0.2664
  350MPD2    C2 5296   0.150   4.111  10.469 -0.0667  0.7015 -0.4635
  350MPD2    C3 5297   0.185   4.199  10.573 -0.2752 -0.5286 -0.0174
  350MPD2    C4 5298   0.278   4.292  10.535 -0.9109  0.2122 -0.4949
  350MPD2    C5 5299   0.323   4.309  10.409 -0.6453 -0.0217  0.1715
  350MPD2     H 5300   0.084   4.026  10.482  2.3041 -1.4195 -2.2430
  350MPD2    H1 5301   0.301   4.374  10.602 -2.7623  0.7336 -0.4975
  350MPD2    H2 5302   0.336   4.235  10.211 -1.4234  0.3172  0.0531
  350MPD2    H3 5303   0.397   4.384  10.381 -1.6918  0.0004 -2.5513
  350MPD2     N 5304   0.141   4.171  10.707  0.3329 -0.4622  0.4909
  350MPD2    H5 5305   0.063   4.107  10.713 -0.1870  0.1210 -0.0946
  350MPD2    N1 5306   0.125   4.042  10.239 -0.3160  0.3752  0.1675
  350MPD2    H7 5307   0.059   3.974  10.277 -1.0267  1.1319  0.2831
  351TMC3    C1 5308   0.108   3.915  10.036 -0.4983 -0.3024 -0.7449
  351TMC3    C2 5309   0.194   3.846   9.960  0.1017  0.1201 -0.1322
  351TMC3    C3 5310   0.162   3.723   9.923 -0.0584  0.1827 -0.2157
  351TMC3    C4 5311   4.727   3.857  10.072  0.7496 -0.3057  0.1878
  351TMC3    C5 5312   4.697   3.725  10.051  0.2752  0.3084  0.3224
  351TMC3    C6 5313   0.042   3.658   9.952 -0.3771  0.4570  0.0184
  351TMC3     C 5314   0.156   4.033  10.105  0.3242 -0.4301 -0.1221
  351TMC3     O 5315   0.233   4.103  10.044 -0.3421  0.4964 -0.5609
  351TMC3     H 5316   0.275   3.904   9.917 -0.9819  2.7695  1.4236
  351TMC3    H1 5317   4.651   3.908  10.131  0.8799  0.1129 -0.0067
  351TMC3    H2 5318   0.035   3.550   9.940 -2.7106  0.5991  0.2422
  351TMC3    C7 5319   4.554   3.690  10.079  0.0485 -0.4073  0.5231
  351TMC3    C8 5320   0.260   3.661   9.832 -0.2872 -1.0486  0.0584
  351TMC3    O1 5321   4.503   3.715  10.186 -0.4466 -0.3841  0.1434
  351TMC3    O2 5322   0.369   3.715   9.813  0.5830  0.6240  0.0754
  352MPD2     C 5323   3.710   2.004   1.421  0.7382 -0.4463  0.2671
  352MPD2    C1 5324   3.596   1.984   1.353  0.1483 -0.8948  0.0193
  352MPD2    C2 5325   3.561   1.855   1.323 -0.2736 -0.4098  0.3805
  352MPD2    C3 5326   3.640   1.746   1.345 -0.1420 -0.6335 -0.1155
  352MPD2    C4 5327   3.761   1.769   1.409 -0.2295 -0.7012 -0.5471
  352MPD2    C5 5328   3.796   1.896   1.443 -0.0240 -0.0302 -0.1667
  352MPD2     H 5329   3.468   1.838   1.269  0.4371 -0.3539 -0.8758
  352MPD2    H1 5330   3.839   1.696   1.428 -0.0641 -0.8586 -1.8180
  352MPD2    H2 5331   3.743   2.104   1.446 -1.8954  1.0735 -2.2589
  352MPD2    H3 5332   3.896   1.900   1.485 -0.1350  0.8751  0.0261
  352MPD2     N 5333   3.617   1.608   1.310 -0.1740 -0.2469  0.3572
  352MPD2    H5 5334   3.670   1.544   1.369 -0.8992 -1.6073 -0.4415
  352MPD2    N1 5335   3.525   2.103   1.321 -0.2928  0.6632 -0.0984
  352MPD2    H7 5336   3.566   2.195   1.333  3.0631 -0.8195 -0.2321
  353TMC3    C1 5337   3.534   1.420   1.194  0.1127 -0.3394 -0.7581
  353TMC3    C2 5338   3.588   1.343   1.298  0.5052  0.0783  0.7870
  353TMC3    C3 5339   3.571   1.206   1.296 -0.0988  0.0830  0.0720
  353TMC3    C4 5340   3.450   1.370   1.101 -0.3328 -0.2700  0.6645
  353TMC3    C5 5341   3.430   1.235   1.108 -0.0901  0.2712 -0.0978
  353TMC3    C6 5342   3.498   1.151   1.191 -0.1651 -0.3890 -0.1294
  353TMC3     C 5343   3.541   1.565   1.205  0.8166  0.2592 -0.3055
  353TMC3     O 5344   3.480   1.636   1.124  0.2339 -0.9154 -0.4938
  353TMC3     H 5345   3.654   1.384   1.375 -0.5249  0.3056  1.5528
  353TMC3    H1 5346   3.394   1.437   1.036  1.2849  1.8606  1.4939
  353TMC3    H2 5347   3.472   1.045   1.192  1.4278 -0.7282  2.5612
  353TMC3    C7 5348   3.363   1.165   1.002  0.3942  0.2811  0.1128
  353TMC3    C8 5349   3.642   1.116   1.385  0.0878  0.7112  0.6290
  353TMC3    O1 5350   3.403   1.054   0.973  0.2952 -0.0924 -0.0614
  353TMC3    O2 5351   3.687   1.161   1.491 -0.1413 -0.0608 -0.1948
  354TMC3    C1 5352   0.617   2.754  13.685  0.6591 -0.6599 -0.4752
  354TMC3    C2 5353   0.632   2.881  13.735  0.2552 -0.0204  0.3036
  354TMC3    C3 5354   0.684   2.977  13.640  0.0653  0.2061 -0.1258
  354TMC3    C4 5355   0.646   2.722  13.557  0.2087  0.0139  0.1551
  354TMC3    C5 5356   0.703   2.812  13.478  0.0368 -0.5422 -0.2960
  354TMC3    C6 5357   0.719   2.944  13.511  0.0147 -0.0360  0.4732
  354TMC3     C 5358   0.581   2.651  13.780  0.5933 -0.1765  0.3997
  354TMC3     O 5359   0.527   2.552  13.727 -0.5981  0.5495  0.4887
  354TMC3     H 5360   0.586   2.912  13.829 -0.7760 -2.1086  0.5099
  354TMC3    H1 5361   0.634   2.620  13.524  0.6908  0.3111 -0.9306
  354TMC3    H2 5362   0.769   3.015  13.447 -1.1959  0.7511  0.3861
  354TMC3    C7 5363   0.706   2.788  13.334 -0.3879  0.4802 -0.2723
  354TMC3    C8 5364   0.679   3.114  13.666  0.8150  0.1092 -0.0963
  354TMC3    O1 5365   0.633   2.707  13.284  0.3231 -0.3220 -0.5868
  354TMC3    O2 5366   0.715   3.147  13.780  0.2639 -0.5415 -0.2524
  355MPD2     C 5367   0.604   3.731  12.104 -0.1130 -0.2049  0.4141
  355MPD2    C1 5368   0.708   3.795  12.045 -0.5340 -0.0870 -0.6012
  355MPD2    C2 5369   0.832   3.791  12.095 -0.2831 -0.0084  0.4857
  355MPD2    C3 5370   0.850   3.737  12.217  0.7108  0.3375 -0.0068
  355MPD2    C4 5371   0.747   3.673  12.282 -0.3279 -0.0035  0.2917
  355MPD2    C5 5372   0.621   3.677  12.228 -0.0009  0.1110 -0.0177
  355MPD2     H 5373   0.917   3.833  12.042 -1.7171  1.8541 -0.3428
  355MPD2    H1 5374   0.770   3.621  12.375  0.1645  0.7622  0.6032
  355MPD2    H2 5375   0.501   3.734  12.069 -0.0660 -0.0591  0.2919
  355MPD2    H3 5376   0.541   3.625  12.279 -0.1482 -1.4102 -1.7846
  355MPD2     N 5377   0.981   3.750  12.269 -0.5444 -0.4546 -0.1085
  355MPD2    H5 5378   1.042   3.810  12.215  1.8466 -0.6560  2.3856
  355MPD2    N1 5379   0.690   3.859  11.924 -0.4055 -0.2006  0.2591
  355MPD2    H7 5380   0.769   3.902  11.878  0.9104 -2.0442  0.7775
  356TMC3    C1 5381   1.172   3.739  12.380  0.5806  0.0750 -0.4249
  356TMC3    C2 5382   1.238   3.722  12.263 -0.4734 -1.0285  0.0817
  356TMC3    C3 5383   1.355   3.787  12.240  0.2628 -0.3348 -0.1668
  356TMC3    C4 5384   1.217   3.813  12.484  0.1346 -0.2202  0.6276
  356TMC3    C5 5385   1.331   3.886  12.453  0.0311 -0.5195  0.1172
  356TMC3    C6 5386   1.402   3.874  12.336 -0.4265  0.1079 -0.4555
  356TMC3     C 5387   1.030   3.715  12.388 -0.9346  0.3415 -0.2736
  356TMC3     O 5388   0.985   3.669  12.490  0.1306 -0.0661  0.0142
  356TMC3     H 5389   1.207   3.654  12.185  1.7786 -0.4794 -1.2871
  356TMC3    H1 5390   1.159   3.825  12.575  3.4790  1.1512  2.5598
  356TMC3    H2 5391   1.498   3.921  12.322  1.0707 -2.3751  1.5747
  356TMC3    C7 5392   1.380   3.975  12.560  0.7783  0.0230  0.8844
  356TMC3    C8 5393   1.408   3.776  12.105 -0.6298 -0.0807 -0.0222
  356TMC3    O1 5394   1.330   3.961  12.668  0.5111 -0.1882 -0.3037
  356TMC3    O2 5395   1.387   3.667  12.047  0.1547 -0.3513  0.5076
  357MPD2     C 5396   0.349   3.727   1.236  0.1611 -0.1015 -0.7699
  357MPD2    C1 5397   0.427   3.643   1.309 -0.3240 -0.5707  0.0547
  357MPD2    C2 5398   0.426   3.653   1.446  0.4785  0.0669 -0.3289
  357MPD2    C3 5399   0.330   3.725   1.515 -0.4466  0.1835 -0.5299
  357MPD2    C4 5400   0.242   3.804   1.441 -0.1166 -0.0350 -0.3373
  357MPD2    C5 5401   0.255   3.809   1.303 -0.3224  0.1431 -0.3454
  357MPD2     H 5402   0.499   3.606   1.511 -0.5879 -2.0499 -0.6908
  357MPD2    H1 5403   0.177   3.874   1.492  1.9334  3.0394 -1.8982
  357MPD2    H2 5404   0.350   3.730   1.127  0.3855 -1.7080 -0.8121
  357MPD2    H3 5405   0.181   3.864   1.245 -0.3089 -0.1793 -0.6685
  357MPD2     N 5406   0.321   3.731   1.658  0.0926 -0.6302  0.8310
  357MPD2    H5 5407   0.232   3.771   1.687 -0.7264 -0.7690 -1.4783
  357MPD2    N1 5408   0.504   3.545   1.240  0.5588 -0.4026  0.4761
  357MPD2    H7 5409   0.481   3.527   1.142 -0.3812  0.0185  0.6136
  358TMC3    C1 5410   0.631   3.350   1.248  0.6482  0.5030  0.0363
  358TMC3    C2 5411   0.581   3.296   1.127  0.0284  0.1747  0.1140
  358TMC3    C3 5412   0.600   3.165   1.111  0.2778  0.2334  0.0975
  358TMC3    C4 5413   0.682   3.271   1.350 -0.1711 -1.0502 -0.2847
  358TMC3    C5 5414   0.692   3.138   1.337  0.3984  0.2432 -0.3213
  358TMC3    C6 5415   0.660   3.085   1.214  0.6855  0.0707  0.6457
  358TMC3     C 5416   0.607   3.483   1.297 -0.0716  0.1272  0.6588
  358TMC3     O 5417   0.689   3.532   1.377  0.1758 -0.2787 -0.5203
  358TMC3     H 5418   0.523   3.351   1.054  1.6179 -0.7577 -1.8450
  358TMC3    H1 5419   0.709   3.322   1.442  0.5213 -2.0664  0.0740
  358TMC3    H2 5420   0.688   2.982   1.192  0.9733 -0.5638  3.9876
  358TMC3    C7 5421   0.774   3.059   1.428 -0.1547 -0.2872 -0.1023
  358TMC3    C8 5422   0.532   3.104   1.002 -0.3334 -0.4491  0.0284
  358TMC3    O1 5423   0.854   2.993   1.370 -0.3856 -0.1479  0.7182
  358TMC3    O2 5424   0.521   3.168   0.900  0.2076 -0.0545 -0.3699
  359MPD2     C 5425   1.634   2.076  12.545 -0.0032  0.8796 -0.6334
  359MPD2    C1 5426   1.544   2.101  12.447 -0.0388  0.7131  0.4833
  359MPD2    C2 5427   1.447   2.001  12.429 -0.2124  0.5045  0.3070
  359MPD2    C3 5428   1.453   1.879  12.493  0.1172 -0.6126  0.4106
  359MPD2    C4 5429   1.547   1.857  12.587 -0.3388  0.2176  0.8071
  359MPD2    C5 5430   1.640   1.954  12.614 -0.0162  0.3839  0.7098
  359MPD2     H 5431   1.370   2.010  12.353 -0.4640 -0.9849  0.3897
  359MPD2    H1 5432   1.554   1.762  12.640  0.1090 -0.9343 -1.2825
  359MPD2    H2 5433   1.704   2.150  12.583 -0.1914  0.2330  0.9608
  359MPD2    H3 5434   1.713   1.936  12.693  1.7419 -1.6616 -1.3546
  359MPD2     N 5435   1.350   1.780  12.476 -0.1174 -0.0832 -0.2026
  359MPD2    H5 5436   1.378   1.695  12.522 -0.8738 -0.1760  0.0876
  359MPD2    N1 5437   1.537   2.216  12.360 -0.2094  0.3401 -0.7405
  359MPD2    H7 5438   1.477   2.206  12.279 -0.2519  1.1401 -0.8063
  360TMC3    C1 5439   1.562   2.431  12.275  0.6141 -0.1226 -1.1628
  360TMC3    C2 5440   1.660   2.515  12.242 -0.0381  0.2686 -0.1231
  360TMC3    C3 5441   1.629   2.576  12.122  0.3526 -0.3309 -0.0738
  360TMC3    C4 5442   1.447   2.407  12.204  0.8775 -0.3043 -0.0831
  360TMC3    C5 5443   1.419   2.478  12.093  0.1915 -0.4239  0.0045
  360TMC3    C6 5444   1.519   2.560  12.048  0.3352  0.6128  0.5254
  360TMC3     C 5445   1.605   2.329  12.376 -0.0818  0.2561 -0.3352
  360TMC3     O 5446   1.706   2.349  12.433  0.2664  0.0180 -0.6206
  360TMC3     H 5447   1.757   2.528  12.288 -0.8958 -0.0373  1.7593
  360TMC3    H1 5448   1.367   2.344  12.239  0.7632 -0.3788 -0.4776
  360TMC3    H2 5449   1.501   2.611  11.954 -0.4591 -0.4996  0.0753
  360TMC3    C7 5450   1.317   2.444  12.003 -0.3705 -0.0441  0.4413
  360TMC3    C8 5451   1.741   2.646  12.059 -0.3391  0.0211  0.6018
  360TMC3    O1 5452   1.267   2.533  11.940  1.0085 -0.2587 -0.2640
  360TMC3    O2 5453   1.719   2.763  12.036  0.0840 -0.4332  0.6589
  361MPD2     C 5454   2.730   1.721  17.030 -0.3582 -0.1907  0.1618
  361MPD2    C1 5455   2.762   1.631  16.937  0.4858  0.4482  0.2586
  361MPD2    C2 5456   2.882   1.555  16.949 -0.5472  0.1318  0.1197
  361MPD2    C3 5457   2.967   1.576  17.059 -0.2535 -0.1541  0.5523
  361MPD2    C4 5458   2.936   1.680  17.146 -0.0463  0.3650  0.2692
  361MPD2    C5 5459   2.824   1.754  17.125 -0.4518  0.3926  0.9069
  361MPD2     H 5460   2.904   1.477  16.876  1.8159  1.0124 -0.1029
  361MPD2    H1 5461   3.004   1.719  17.221 -0.1535 -0.0415  0.5760
  361MPD2    H2 5462   2.635   1.773  17.038 -0.9733 -1.2608 -0.2123
  361MPD2    H3 5463   2.801   1.837  17.191  0.7921  0.7927  0.8379
  361MPD2     N 5464   3.089   1.506  17.076  0.1624  0.4292 -1.1352
  361MPD2    H5 5465   3.140   1.530  17.160  0.8605 -0.4223 -1.3157
  361MPD2    N1 5466   2.672   1.608  16.830 -0.2951 -0.4285 -0.0691
  361MPD2    H7 5467   2.577   1.642  16.825 -0.8284 -1.6733  1.7310
  362TMC3    C1 5468   2.586   1.505  16.641 -0.5322  0.1446  0.7280
  362TMC3    C2 5469   2.476   1.445  16.691 -0.2892  0.5338  0.2944
  362TMC3    C3 5470   2.362   1.445  16.611  0.4451  0.2350  0.1307
  362TMC3    C4 5471   2.577   1.589  16.531  0.1828 -0.2840  0.2081
  362TMC3    C5 5472   2.457   1.594  16.463  0.5798  0.3139 -0.2862
  362TMC3    C6 5473   2.349   1.521  16.499 -0.1938 -0.5275  0.0128
  362TMC3     C 5474   2.699   1.521  16.728 -0.2600 -1.0055  0.0497
  362TMC3     O 5475   2.808   1.494  16.684  0.3222  0.7174  0.2655
  362TMC3     H 5476   2.476   1.399  16.789  0.7721 -1.7400 -0.7718
  362TMC3    H1 5477   2.669   1.640  16.503  0.3348  0.4676  2.0624
  362TMC3    H2 5478   2.252   1.532  16.452 -0.3962 -0.4991  0.4477
  362TMC3    C7 5479   2.433   1.713  16.374  0.0851  0.0814 -0.4241
  362TMC3    C8 5480   2.241   1.410  16.682  0.2973 -0.2701 -0.5401
  362TMC3    O1 5481   2.508   1.810  16.387 -0.1874 -0.1157 -0.4408
  362TMC3    O2 5482   2.151   1.367  16.616  0.2214 -0.4706 -0.3638
  363TMC3    C1 5483   1.153   3.880   9.294 -0.1898 -0.0979 -0.2615
  363TMC3    C2 5484   1.153   3.769   9.370 -0.5661  0.5928 -0.3594
  363TMC3    C3 5485   1.041   3.728   9.440 -0.5131  0.8090  0.1148
  363TMC3    C4 5486   1.038   3.954   9.281 -0.0546 -0.1449 -0.7721
  363TMC3    C5 5487   0.920   3.911   9.341  0.0478 -0.0177  0.5902
  363TMC3    C6 5488   0.927   3.799   9.421  0.5715 -0.2044  0.0261
  363TMC3     C 5489   1.235   3.874   9.180 -0.4638  0.0745  0.8053
  363TMC3     O 5490   1.240   3.967   9.096  0.1884  0.4792  0.3317
  363TMC3     H 5491   1.251   3.740   9.405 -1.3266 -2.4973 -0.8319
  363TMC3    H1 5492   1.028   4.039   9.215  1.5902  1.0676  0.5170
  363TMC3    H2 5493   0.835   3.760   9.463  1.2036 -2.5475 -0.7887
  363TMC3    C7 5494   0.803   3.992   9.339 -0.1846  0.5592  0.2452
  363TMC3    C8 5495   1.054   3.662   9.570  0.6525 -0.2883 -0.2071
  363TMC3    O1 5496   0.701   3.934   9.349 -0.0566  0.1703 -0.3052
  363TMC3    O2 5497   0.962   3.689   9.646  0.1687  0.3947 -0.0993
  364MPD2     C 5498   0.219   2.802  10.450  0.2593  0.3033  0.1563
  364MPD2    C1 5499   0.136   2.859  10.545 -0.1988  0.0014 -0.0540
  364MPD2    C2 5500   0.071   2.774  10.632  0.1263 -0.3535 -0.3135
  364MPD2    C3 5501   0.084   2.637  10.617 -0.1499  0.2498  0.1165
  364MPD2    C4 5502   0.158   2.580  10.515  0.6371  0.0458  0.0926
  364MPD2    C5 5503   0.229   2.665  10.439  0.1675 -0.4381 -0.6623
  364MPD2     H 5504   4.734   2.818  10.700  0.3331  0.8636 -0.8821
  364MPD2    H1 5505   0.168   2.472  10.504  0.5176  0.1665 -1.2315
  364MPD2    H2 5506   0.276   2.861  10.380 -0.4120  0.3391 -0.3585
  364MPD2    H3 5507   0.283   2.629  10.353 -1.3910 -1.3053 -1.2885
  364MPD2     N 5508   0.004   2.538  10.681  0.5125 -0.2120  0.5368
  364MPD2    H5 5509   0.012   2.438  10.663  0.3245 -0.6146  2.6029
  364MPD2    N1 5510   0.122   3.007  10.542  0.4483  0.3642  0.0517
  364MPD2    H7 5511   0.167   3.055  10.465  0.1290 -0.5586 -0.7087
  365TMC3    C1 5512   0.027   3.220  10.590  0.1120 -0.0993 -0.3534
  365TMC3    C2 5513   0.098   3.282  10.492  0.1800 -0.0263  0.8580
  365TMC3    C3 5514   0.055   3.403  10.451 -0.2607 -0.5392 -0.5438
  365TMC3    C4 5515   4.661   3.287  10.655 -0.3812 -0.2270  0.5449
  365TMC3    C5 5516   4.621   3.412  10.614  0.2223  0.3813 -0.4759
  365TMC3    C6 5517   4.689   3.476  10.511 -0.4920 -0.2653 -0.4452
  365TMC3     C 5518   0.056   3.085  10.633 -0.6855 -0.1097  0.5535
  365TMC3     O 5519   4.726   3.050  10.730  0.1529  0.0444 -0.3126
  365TMC3     H 5520   0.167   3.224  10.433 -0.8463  0.7034 -1.0580
  365TMC3    H1 5521   4.620   3.239  10.743 -0.6697 -2.0563 -0.6022
  365TMC3    H2 5522   4.666   3.578  10.484  2.1936  0.5765  0.4138
  365TMC3    C7 5523   4.556   3.495  10.711 -0.2417 -1.2377  0.6091
  365TMC3    C8 5524   0.114   3.466  10.334 -0.5514 -0.0839 -1.0308
  365TMC3    O1 5525   4.575   3.615  10.701  0.5173  0.1488  0.0787
  365TMC3    O2 5526   0.093   3.586  10.309 -0.2757 -0.1459  0.4798
  366MPD2     C 5527   3.782   3.947  15.391  0.6083 -0.8873 -0.5288
  366MPD2    C1 5528   3.805   4.069  15.442  0.2730 -0.2477 -0.0259
  366MPD2    C2 5529   3.918   4.142  15.404  0.0255 -0.6210  0.5190
  366MPD2    C3 5530   4.001   4.098  15.304 -0.4179  0.0495  0.2909
  366MPD2    C4 5531   3.979   3.975  15.255 -0.3895  0.2009  0.1889
  366MPD2    C5 5532   3.871   3.902  15.298 -0.1188 -0.4341 -0.4530
  366MPD2     H 5533   3.936   4.239  15.450 -0.1997 -0.8720  1.1331
  366MPD2    H1 5534   4.032   3.927  15.174  0.0628 -0.1976  0.7148
  366MPD2    H2 5535   3.698   3.889  15.427  1.2205 -0.8563  0.9513
  366MPD2    H3 5536   3.851   3.805  15.252 -0.8076  0.4049 -1.9104
  366MPD2     N 5537   4.118   4.154  15.250 -0.4671 -0.3449  0.6618
  366MPD2    H5 5538   4.174   4.085  15.201 -0.6808  1.0344 -1.5194
  366MPD2    N1 5539   3.707   4.141  15.523  0.0983  0.1332 -0.0079
  366MPD2    H7 5540   3.736   4.234  15.550 -0.2430  0.3794 -0.4944
  367TMC3    C1 5541   3.502   4.207  15.604  0.5503 -0.1049 -0.4111
  367TMC3    C2 5542   3.561   4.307  15.680 -0.0527  0.3344  0.0879
  367TMC3    C3 5543   3.496   4.426  15.701 -0.3302  0.0676  0.2166
  367TMC3    C4 5544   3.370   4.212  15.564  0.1468 -0.3657  0.5773
  367TMC3    C5 5545   3.306   4.327  15.596  0.0566 -1.0626 -0.6220
  367TMC3    C6 5546   3.361   4.434  15.664 -1.0377 -0.3491  0.0899
  367TMC3     C 5547   3.584   4.094  15.565  0.7380 -0.9961 -0.1498
  367TMC3     O 5548   3.530   3.989  15.533 -0.3052 -0.3550  0.4624
  367TMC3     H 5549   3.654   4.289  15.734 -0.3301 -1.3944 -0.0222
  367TMC3    H1 5550   3.325   4.128  15.512  3.2218 -0.3069 -2.1481
  367TMC3    H2 5551   3.305   4.527  15.668 -2.1186 -1.0233  0.6596
  367TMC3    C7 5552   3.201   4.363  15.494 -0.2783  0.1283  0.5207
  367TMC3    C8 5553   3.554   4.521  15.788 -0.4332 -0.4778 -0.1437
  367TMC3    O1 5554   3.149   4.476  15.503 -0.0174 -0.8328 -0.6551
  367TMC3    O2 5555   3.629   4.464  15.868  0.1153 -0.3032  0.5623
  368MPD2     C 5556   0.019   1.094  13.413 -0.3043  0.2796 -0.6093
  368MPD2    C1 5557   0.016   1.195  13.319  0.5434 -0.5005  0.1368
  368MPD2    C2 5558   0.125   1.277  13.293  0.1750 -0.1300 -0.3319
  368MPD2    C3 5559   0.246   1.242  13.349  0.4762  0.0473  0.1656
  368MPD2    C4 5560   0.256   1.125  13.423  0.9681  0.5628 -0.5720
  368MPD2    C5 5561   0.146   1.058  13.459 -0.4497  0.6142 -0.5022
  368MPD2     H 5562   0.112   1.360  13.226 -0.9534  0.5473  0.7122
  368MPD2    H1 5563   0.350   1.095  13.469  1.0891  1.4627 -0.2456
  368MPD2    H2 5564   4.668   1.042  13.451  0.1179 -1.4004 -1.9609
  368MPD2    H3 5565   0.148   0.972  13.525 -0.1977  1.0097 -0.0003
  368MPD2     N 5566   0.361   1.319  13.341  0.5729 -0.0388 -0.0136
  368MPD2    H5 5567   0.449   1.282  13.374  0.3551 -1.3163 -0.8703
  368MPD2    N1 5568   4.628   1.220  13.266  0.2195  0.2477 -0.7434
  368MPD2    H7 5569   4.552   1.156  13.288  0.9081 -0.9190 -1.7659
  369TMC3    C1 5570   4.445   1.331  13.158  0.4955  0.1349 -0.1137
  369TMC3    C2 5571   4.395   1.455  13.132  0.3131 -0.0908  0.0195
  369TMC3    C3 5572   4.270   1.464  13.084  0.5522  0.7879  0.5427
  369TMC3    C4 5573   4.376   1.216  13.137  0.3305 -0.2175  0.5975
  369TMC3    C5 5574   4.250   1.229  13.085  0.2042 -0.0035  0.1069
  369TMC3    C6 5575   4.194   1.351  13.074  0.3939 -0.1438 -0.4871
  369TMC3     C 5576   4.588   1.328  13.186  0.2207 -0.7418  0.0368
  369TMC3     O 5577   4.656   1.425  13.147 -0.5122  0.8871  0.0485
  369TMC3     H 5578   4.449   1.544  13.163 -0.2266 -0.4818  2.0948
  369TMC3    H1 5579   4.427   1.120  13.141  0.1311 -0.3364  0.2909
  369TMC3    H2 5580   4.087   1.362  13.058  0.1801  0.4875  1.3674
  369TMC3    C7 5581   4.167   1.111  13.071 -0.4420  0.4577  0.2866
  369TMC3    C8 5582   4.209   1.598  13.078  0.6679  0.0860 -0.4066
  369TMC3    O1 5583   4.203   1.009  13.126 -0.9130  0.0050  0.5798
  369TMC3    O2 5584   4.085   1.589  13.083 -0.1698 -0.7858  0.4839
  370TMC3    C1 5585   3.860   2.110  16.421  0.3532 -0.6761 -0.1987
  370TMC3    C2 5586   3.783   2.023  16.495  0.8409 -0.6965  0.3792
  370TMC3    C3 5587   3.751   1.903  16.442  0.3098  0.6458  0.4770
  370TMC3    C4 5588   3.891   2.088  16.292  0.1688 -0.3481  1.0063
  370TMC3    C5 5589   3.863   1.966  16.245 -0.0719  0.6202 -0.3283
  370TMC3    C6 5590   3.794   1.868  16.316  0.2602 -0.3813 -0.4973
  370TMC3     C 5591   3.931   2.208  16.501 -0.4566 -0.3480 -0.4849
  370TMC3     O 5592   3.934   2.195  16.623 -0.6712  0.3657 -0.5437
  370TMC3     H 5593   3.760   2.049  16.598  0.5438 -1.0345  0.3938
  370TMC3    H1 5594   3.951   2.156  16.233 -0.5912  1.3080  2.1382
  370TMC3    H2 5595   3.782   1.764  16.285  1.2744 -0.6887  0.1504
  370TMC3    C7 5596   3.952   1.928  16.131  0.1224  0.2204 -0.0583
  370TMC3    C8 5597   3.716   1.794  16.530 -0.4874 -0.4039  0.1641
  370TMC3    O1 5598   3.985   2.012  16.048 -0.2856 -0.1187 -0.2260
  370TMC3    O2 5599   3.733   1.681  16.490  0.0071 -0.3118  0.4027
  371TMC3    C1 5600   0.572   0.465  15.672 -0.1624  0.4751  0.8675
  371TMC3    C2 5601   0.491   0.454  15.784 -0.3300 -0.9027  0.2452
  371TMC3    C3 5602   0.414   0.562  15.818 -0.3430 -0.5614 -0.4882
  371TMC3    C4 5603   0.576   0.575  15.589 -0.3502 -0.3971 -0.3641
  371TMC3    C5 5604   0.493   0.681  15.626  0.4511  0.3785  0.1879
  371TMC3    C6 5605   0.410   0.670  15.739  0.1926  0.5439  0.2753
  371TMC3     C 5606   0.626   0.347  15.615  0.5291  0.6357  0.6597
  371TMC3     O 5607   0.698   0.356  15.516 -0.0824 -0.4364 -0.3611
  371TMC3     H 5608   0.509   0.382  15.862  1.3892 -1.1142 -0.3532
  371TMC3    H1 5609   0.642   0.597  15.506 -1.2256 -0.0349 -0.9545
  371TMC3    H2 5610   0.342   0.752  15.759  0.3144  0.5650  0.6029
  371TMC3    C7 5611   0.524   0.814  15.575  0.2685  0.4381  0.5890
  371TMC3    C8 5612   0.311   0.542  15.925 -0.5316 -0.1125  0.4037
  371TMC3    O1 5613   0.468   0.910  15.627  0.0981  0.3097 -0.8310
  371TMC3    O2 5614   0.302   0.434  15.977 -0.1146  0.1696 -0.3627
  372MPD2     C 5615   4.458   1.474  13.563  0.2450 -0.9976 -0.1423
  372MPD2    C1 5616   4.592   1.440  13.555 -0.5542 -0.0380 -0.4325
  372MPD2    C2 5617   4.631   1.337  13.629 -0.1101  0.5778 -0.2231
  372MPD2    C3 5618   4.541   1.252  13.696 -0.3412  0.0128 -1.2534
  372MPD2    C4 5619   4.410   1.276  13.679 -0.4738  0.4490  0.0165
  372MPD2    C5 5620   4.370   1.394  13.621 -0.0634 -0.2656 -0.2361
  372MPD2     H 5621   0.000   1.311  13.623 -0.9928 -3.1453  0.1960
  372MPD2    H1 5622   4.337   1.206  13.719  1.0289  0.3713  2.6301
  372MPD2    H2 5623   4.412   1.564  13.524  0.2740  0.1782  2.4897
  372MPD2    H3 5624   4.264   1.413  13.629 -0.0069 -0.3705  0.7701
  372MPD2     N 5625   4.590   1.149  13.782  0.2779  0.0188 -0.0797
  372MPD2    H5 5626   4.689   1.154  13.802  0.7027 -0.1813 -2.1801
  372MPD2    N1 5627   4.692   1.513  13.483 -0.2907  0.0550 -0.2538
  372MPD2    H7 5628   0.045   1.466  13.490  0.3924  1.1641 -1.3975
  373TMC3    C1 5629   4.586   0.962  13.926 -0.0338 -0.1272 -0.0799
  373TMC3    C2 5630   4.531   0.930  14.049 -0.3720  0.1297  0.5008
  373TMC3    C3 5631   4.606   0.861  14.141  0.6456 -0.0533 -0.3219
  373TMC3    C4 5632   4.709   0.922  13.897 -0.2584 -0.1868  0.0355
  373TMC3    C5 5633   0.052   0.871  13.995  0.0731  0.0753  0.3783
  373TMC3    C6 5634   0.003   0.834  14.111 -0.3683 -0.2491  0.1885
  373TMC3     C 5635   4.517   1.062  13.849 -0.5498  0.1044 -0.6618
  373TMC3     O 5636   4.395   1.052  13.865 -0.3969 -0.7495  0.0710
  373TMC3     H 5637   4.432   0.968  14.073  0.1794  1.6074  0.4242
  373TMC3    H1 5638   0.023   0.948  13.805 -2.8533 -0.9623 -1.6024
  373TMC3    H2 5639   0.060   0.765  14.172  0.3094 -0.1471 -0.3217
  373TMC3    C7 5640   0.196   0.898  13.982  0.1463 -0.1576  0.3301
  373TMC3    C8 5641   4.528   0.766  14.230 -0.5837 -0.3569 -0.1942
  373TMC3    O1 5642   0.240   0.911  13.869  0.3198 -0.4456 -0.4170
  373TMC3    O2 5643   4.417   0.737  14.191 -0.5392 -0.2066  0.6887
  374TMC3    C1 5644   0.164   1.692  10.101 -0.1200 -0.3573  0.1501
  374TMC3    C2 5645   0.209   1.817  10.131  0.1085  0.0304  0.0666
  374TMC3    C3 5646   0.203   1.920  10.044  0.1764  0.3881  0.5006
  374TMC3    C4 5647   0.126   1.665   9.967 -0.2497  0.0080  0.0684
  374TMC3    C5 5648   0.139   1.764   9.873  0.6409  0.0567  0.2026
  374TMC3    C6 5649   0.170   1.898   9.914 -0.0692  0.8660 -0.3348
  374TMC3     C 5650   0.128   1.599  10.203 -0.1336 -0.2416 -0.2412
  374TMC3     O 5651   0.111   1.483  10.174  0.0571 -0.6505  0.2912
  374TMC3     H 5652   0.247   1.834  10.231 -2.4997 -0.7410  1.1833
  374TMC3    H1 5653   0.092   1.564   9.945  0.1307 -0.0251 -0.3664
  374TMC3    H2 5654   0.169   1.980   9.843 -1.6097  0.6920 -0.5121
  374TMC3    C7 5655   0.113   1.745   9.731 -0.2246  0.4127 -0.5693
  374TMC3    C8 5656   0.243   2.052  10.077 -0.4581 -0.1681  0.1242
  374TMC3    O1 5657   0.108   1.844   9.660  0.0317 -0.2925  0.0933
  374TMC3    O2 5658   0.208   2.144  10.006  0.0311 -0.0409  0.1786
  375MPD2     C 5659   0.824   2.651  17.234  0.2392  0.3292  0.5146
  375MPD2    C1 5660   0.731   2.566  17.181  0.4184 -0.8679 -0.0580
  375MPD2    C2 5661   0.764   2.443  17.118  0.7227  0.1583 -0.3591
  375MPD2    C3 5662   0.892   2.394  17.133 -0.1085 -0.2914 -0.5766
  375MPD2    C4 5663   0.979   2.474  17.202  0.3072  0.5028 -0.0966
  375MPD2    C5 5664   0.954   2.608  17.235 -0.7212 -0.2591  0.6089
  375MPD2     H 5665   0.690   2.380  17.069  0.0836  0.2887  0.4392
  375MPD2    H1 5666   1.080   2.439  17.217  0.0971 -1.1569 -2.4429
  375MPD2    H2 5667   0.803   2.752  17.268  0.2725 -0.3343  2.5103
  375MPD2    H3 5668   1.022   2.668  17.294 -1.6564  1.0822  0.3243
  375MPD2     N 5669   0.944   2.267  17.092 -0.7983 -0.0668  0.1471
  375MPD2    H5 5670   1.038   2.245  17.122 -1.9106 -0.4272  3.3556
  375MPD2    N1 5671   0.591   2.604  17.182  0.1682 -0.3638  0.1221
  375MPD2    H7 5672   0.538   2.540  17.124 -2.1102  3.0502 -1.5637
  376TMC3    C1 5673   0.951   2.063  16.981  0.4753  0.4955 -0.4432
  376TMC3    C2 5674   1.082   2.087  16.943 -0.6267  0.1264 -1.0781
  376TMC3    C3 5675   1.134   2.002  16.843  0.6119  0.7181 -1.3292
  376TMC3    C4 5676   0.878   1.969  16.912 -0.5265  0.3179 -0.0154
  376TMC3    C5 5677   0.919   1.912  16.794 -0.0217  0.4198  0.0140
  376TMC3    C6 5678   1.050   1.922  16.768 -0.1471 -0.4173 -0.1339
  376TMC3     C 5679   0.867   2.167  17.033  0.2315  0.2389  0.4320
  376TMC3     O 5680   0.745   2.169  17.018 -0.1097  0.4802  0.0441
  376TMC3     H 5681   1.146   2.165  16.984 -0.1974 -1.4592  1.2647
  376TMC3    H1 5682   0.773   1.959  16.935 -0.5883  0.5813 -0.1821
  376TMC3    H2 5683   1.088   1.863  16.685  2.7180 -0.5908  1.2844
  376TMC3    C7 5684   0.839   1.971  16.692  0.3878 -0.3681  0.4758
  376TMC3    C8 5685   1.252   2.057  16.766 -0.6416 -0.5954  0.1355
  376TMC3    O1 5686   0.807   2.088  16.698 -0.0644 -0.2979  0.0715
  376TMC3    O2 5687   1.272   2.179  16.760 -0.3408 -0.1234 -0.3570
  377MPD2     C 5688   3.482   1.683  12.853 -0.3349 -0.4502  0.1385
  377MPD2    C1 5689   3.527   1.563  12.803 -0.4224 -0.5592 -0.2420
  377MPD2    C2 5690   3.503   1.453  12.883 -0.0804  0.7032  0.1671
  377MPD2    C3 5691   3.445   1.467  13.010 -0.2386  0.4234 -0.2566
  377MPD2    C4 5692   3.401   1.589  13.057  0.2198 -0.0688 -0.2668
  377MPD2    C5 5693   3.411   1.694  12.972  0.0733  0.2321 -0.6984
  377MPD2     H 5694   3.534   1.355  12.846 -1.6989 -0.5198  2.0553
  377MPD2    H1 5695   3.339   1.605  13.145  0.4372 -1.0305  0.0591
  377MPD2    H2 5696   3.501   1.773  12.795 -0.7965 -1.5898 -1.7638
  377MPD2    H3 5697   3.369   1.791  12.997 -0.6497 -0.7092  1.7063
  377MPD2     N 5698   3.425   1.363  13.096  0.6411 -0.1786 -0.1108
  377MPD2    H5 5699   3.408   1.375  13.196  0.1570 -0.1434 -0.1982
  377MPD2    N1 5700   3.590   1.562  12.680 -0.3605 -0.1544  0.4339
  377MPD2    H7 5701   3.607   1.655  12.643 -1.5673 -0.0950  0.0129
  378TMC3    C1 5702   3.665   1.456  12.246 -1.1506 -0.3740  0.0777
  378TMC3    C2 5703   3.636   1.410  12.372  0.7322 -0.1926  0.9671
  378TMC3    C3 5704   3.678   1.479  12.479  0.1437  0.0716  0.0314
  378TMC3    C4 5705   3.734   1.573  12.229  0.0477 -0.3455  0.1113
  378TMC3    C5 5706   3.793   1.637  12.340 -0.3493 -0.5218  0.8073
  378TMC3    C6 5707   3.761   1.590  12.465  0.0181  0.1425 -0.1578
  378TMC3     C 5708   3.615   1.385  12.126  0.1515  0.3827 -0.6607
  378TMC3     O 5709   3.600   1.455  12.027  0.2525  0.3642  0.5074
  378TMC3     H 5710   3.590   1.312  12.377 -0.9370  0.5129 -0.3689
  378TMC3    H1 5711   3.754   1.621  12.133  1.2146 -0.7261  0.1685
  378TMC3    H2 5712   3.791   1.645  12.553 -1.5145  1.7840 -0.6562
  378TMC3    C7 5713   3.902   1.735  12.328  0.7372 -0.1180 -0.2130
  378TMC3    C8 5714   3.600   1.451  12.597 -0.2966 -0.1174 -0.1495
  378TMC3    O1 5715   3.917   1.807  12.424  0.4191 -0.0800  0.3120
  378TMC3    O2 5716   3.581   1.331  12.622  0.3421 -0.9143 -0.5786
  379MPD2     C 5717   0.019   0.218  16.312 -0.4510 -0.4290 -0.3823
  379MPD2    C1 5718   4.635   0.180  16.361 -0.4941  0.0069  1.0075
  379MPD2    C2 5719   4.631   0.142  16.489  0.1503 -0.3750 -0.2982
  379MPD2    C3 5720   0.010   0.133  16.565 -0.2497  0.1997 -0.2600
  379MPD2    C4 5721   0.129   0.172  16.513  0.0263  0.0663  0.3847
  379MPD2    C5 5722   0.131   0.217  16.386 -0.2433  0.1158  0.1261
  379MPD2     H 5723   4.540   0.111  16.540  0.5091  0.5916  0.9400
  379MPD2    H1 5724   0.216   0.170  16.578  2.7839  1.3646 -3.2639
  379MPD2    H2 5725   0.031   0.265  16.215 -0.5362 -1.2233 -0.7738
  379MPD2    H3 5726   0.226   0.246  16.344 -0.7976 -0.9772 -1.8938
  379MPD2     N 5727   0.008   0.082  16.704 -0.5134  0.0441  0.4022
  379MPD2    H5 5728   0.096   0.084  16.755 -0.8132  0.1999  0.9087
  379MPD2    N1 5729   4.525   0.171  16.271 -0.5296  0.4154 -0.7440
  379MPD2    H7 5730   4.544   0.185  16.172  3.0129 -0.4619 -0.2038
  380TMC3    C1 5731   4.310   0.109  16.182  0.0519 -0.2183 -0.6576
  380TMC3    C2 5732   4.365   0.079  16.057 -0.4363  0.2298 -1.0159
  380TMC3    C3 5733   4.279   0.076  15.951  0.8464 -0.0050  0.1889
  380TMC3    C4 5734   4.174   0.113  16.201 -0.0259  0.5106 -0.5532
  380TMC3    C5 5735   4.096   0.120  16.087  0.0247 -0.3227  0.0959
  380TMC3    C6 5736   4.145   0.107  15.963 -0.3352  0.5211 -0.0482
  380TMC3     C 5737   4.397   0.131  16.303 -0.8424  0.1180 -0.1817
  380TMC3     O 5738   4.342   0.110  16.414  0.1601 -0.1425 -0.3083
  380TMC3     H 5739   4.471   0.056  16.061 -0.5582 -0.0592  0.4643
  380TMC3    H1 5740   4.134   0.147  16.295  1.3757  1.6897 -0.3831
  380TMC3    H2 5741   4.089   0.139  15.876  0.5249 -3.1112 -1.9565
  380TMC3    C7 5742   3.956   0.155  16.098  0.2790 -0.1575 -0.4951
  380TMC3    C8 5743   4.337   0.067  15.817 -0.4918  0.8097  0.0976
  380TMC3    O1 5744   3.916   0.223  16.193 -0.3884 -0.6473  0.0887
  380TMC3    O2 5745   4.275   0.121  15.726  0.4511  0.1534 -0.4558
  381TMC3    C1 5746   3.947   1.154  16.299 -0.4969  0.6981 -0.2354
  381TMC3    C2 5747   4.043   1.246  16.341  0.2009 -0.6026  0.0195
  381TMC3    C3 5748   4.002   1.345  16.418 -0.0714  0.1954  0.3801
  381TMC3    C4 5749   3.812   1.172  16.301  0.2615 -0.4587  0.0132
  381TMC3    C5 5750   3.774   1.276  16.373 -0.4428  0.0509 -0.2042
  381TMC3    C6 5751   3.862   1.361  16.434  0.1646 -0.2551 -0.1347
  381TMC3     C 5752   4.004   1.039  16.232 -0.0042 -0.3520  0.0930
  381TMC3     O 5753   4.115   1.041  16.183 -0.2177 -0.6587  0.3209
  381TMC3     H 5754   4.147   1.217  16.331  1.2877  2.5211  2.2343
  381TMC3    H1 5755   3.749   1.126  16.225 -0.0567 -0.8228  0.4964
  381TMC3    H2 5756   3.822   1.436  16.501 -0.7761  0.1026 -1.0922
  381TMC3    C7 5757   3.634   1.286  16.385 -0.6395 -0.7112  0.0985
  381TMC3    C8 5758   4.096   1.454  16.440  0.2452 -0.0623 -0.1826
  381TMC3    O1 5759   3.557   1.200  16.346  0.1337  0.2604  0.5672
  381TMC3    O2 5760   4.195   1.442  16.370  0.1904 -0.4228 -0.0285
  382MPD2     C 5761   3.498   3.916  17.365 -0.1812  0.1460  0.1952
  382MPD2    C1 5762   3.376   3.893  17.308  0.6420 -0.5497 -0.0438
  382MPD2    C2 5763   3.292   3.801  17.372  0.0573  0.3810  0.4869
  382MPD2    C3 5764   3.318   3.753  17.499  0.3573  0.4563  0.0983
  382MPD2    C4 5765   3.442   3.773  17.554  0.4020  0.4439  0.3073
  382MPD2    C5 5766   3.526   3.857  17.486 -0.4233  0.8326  0.3109
  382MPD2     H 5767   3.199   3.779  17.322 -0.6656  3.2757  0.5712
  382MPD2    H1 5768   3.479   3.733  17.647 -2.3711 -0.0063  1.1988
  382MPD2    H2 5769   3.575   3.981  17.324 -0.8981  1.1933  0.5088
  382MPD2    H3 5770   3.618   3.869  17.542 -0.6853  0.1424  0.9007
  382MPD2     N 5771   3.238   3.670  17.573 -0.7058 -0.6008 -0.1783
  382MPD2    H5 5772   3.286   3.619  17.647  2.0884  0.5611 -1.2102
  382MPD2    N1 5773   3.333   3.961  17.190 -0.2658 -0.2695  0.3736
  382MPD2    H7 5774   3.242   3.930  17.157  0.1835 -2.8211  1.6073
  383TMC3    C1 5775   3.048   3.530  17.624  0.0641  0.7047 -0.5386
  383TMC3    C2 5776   2.928   3.483  17.594  0.7878  0.0780  0.5235
  383TMC3    C3 5777   2.870   3.392  17.675 -0.6443  0.2176 -0.2496
  383TMC3    C4 5778   3.116   3.480  17.736  0.2740 -0.5493 -0.6621
  383TMC3    C5 5779   3.051   3.393   0.078 -0.1002 -0.4228  0.0594
  383TMC3    C6 5780   2.924   3.349   0.047 -0.0659  0.5349  0.1958
  383TMC3     C 5781   3.111   3.629  17.537 -0.1502 -0.0324 -0.0851
  383TMC3     O 5782   3.053   3.659  17.439  0.2521 -0.4219  0.1193
  383TMC3     H 5783   2.871   3.536  17.519 -0.5004 -2.2757 -0.1481
  383TMC3    H1 5784   3.213   3.516   0.023  0.2252 -1.1776  0.2108
  383TMC3    H2 5785   2.872   3.280   0.113  0.8568  1.0865  1.5040
  383TMC3    C7 5786   3.127   3.329   0.182  0.3483 -0.2678  0.4002
  383TMC3    C8 5787   2.756   3.323  17.619  0.3709 -0.5005 -0.1247
  383TMC3    O1 5788   3.071   3.237   0.241 -0.1171 -0.4588  0.1462
  383TMC3    O2 5789   2.682   3.375  17.544  0.4060 -0.3494 -0.3832
  384MPD2     C 5790   4.657   4.525  12.097  0.3227 -0.0719  0.9032
  384MPD2    C1 5791   4.595   4.443  12.184  0.2874 -0.5587 -0.1707
  384MPD2    C2 5792   4.562   4.315  12.145  0.2820 -0.3880 -0.0506
  384MPD2    C3 5793   4.591   4.272  12.015 -0.2144  0.6260 -0.5291
  384MPD2    C4 5794   4.646   4.361  11.921  0.1934  0.1372 -0.7613
  384MPD2    C5 5795   4.675   4.488  11.960 -0.2092  0.5166 -0.6026
  384MPD2     H 5796   4.525   4.250  12.223  1.1170 -0.6503  0.1276
  384MPD2    H1 5797   4.668   4.328  11.821  0.3471  0.4371 -0.8283
  384MPD2    H2 5798   4.679   4.625  12.132  1.3077  0.1397 -0.3191
  384MPD2    H3 5799   4.714   4.561  11.889  0.6116 -0.5093 -1.2185
  384MPD2     N 5800   4.601   4.132  11.988  0.5299  0.0542 -0.1853
  384MPD2    H5 5801   4.640   4.102  11.899  1.5824  2.1990 -0.4741
  384MPD2    N1 5802   4.586   4.493  12.315 -0.2749 -0.6869 -0.4385
  384MPD2    H7 5803   4.638   4.578  12.334 -0.8125 -0.0425 -1.8885
  385TMC3    C1 5804   4.645   3.914  12.044 -0.7819 -0.6362 -0.3708
  385TMC3    C2 5805   4.593   3.789  12.063  0.7820  0.4914  0.0461
  385TMC3    C3 5806   4.675   3.694  12.119  0.0092 -0.6985  0.7262
  385TMC3    C4 5807   0.030   3.942  12.098  1.0189 -0.0962 -0.1808
  385TMC3    C5 5808   0.112   3.848  12.164  0.3807 -0.1724 -0.1716
  385TMC3    C6 5809   0.060   3.724  12.173  0.4440  0.0150  0.3881
  385TMC3     C 5810   4.555   4.026  12.059 -0.1423  0.3540  0.8699
  385TMC3     O 5811   4.486   4.017  12.155  0.6499  0.0687  0.1815
  385TMC3     H 5812   4.487   3.769  12.049  1.1509 -0.2591 -1.6641
  385TMC3    H1 5813   0.056   4.043  12.129  0.6280  0.1202 -0.5611
  385TMC3    H2 5814   0.121   3.651  12.225  0.4828 -0.7223 -0.6863
  385TMC3    C7 5815   0.188   3.905  12.277 -0.1927  0.2634 -0.6431
  385TMC3    C8 5816   4.630   3.557  12.141  0.2329  0.4729  0.2219
  385TMC3    O1 5817   0.226   4.019  12.263 -0.1896 -0.7563 -0.7503
  385TMC3    O2 5818   4.689   3.492  12.225 -0.4630  0.4026 -0.4062
  386TMC3    C1 5819   0.577   1.806  12.063  0.6136 -0.4792 -0.1903
  386TMC3    C2 5820   0.506   1.801  11.948 -0.2757  0.7267 -0.0240
  386TMC3    C3 5821   0.387   1.875  11.940  0.5941 -0.6442  0.4668
  386TMC3    C4 5822   0.532   1.873  12.168 -0.9084 -0.6468 -1.1209
  386TMC3    C5 5823   0.403   1.930  12.157 -0.0774  0.0928 -0.0924
  386TMC3    C6 5824   0.333   1.936  12.044  0.7542  0.1789 -0.3535
  386TMC3     C 5825   0.720   1.776  12.069 -1.3054  0.1175 -0.4552
  386TMC3     O 5826   0.779   1.843  12.157  0.1589  0.1167  0.5462
  386TMC3     H 5827   0.553   1.768  11.857 -1.1694 -0.0870 -0.1955
  386TMC3    H1 5828   0.575   1.863  12.267  1.1396  0.6231 -1.8807
  386TMC3    H2 5829   0.253   2.008  12.027  0.4702  0.0125  0.2857
  386TMC3    C7 5830   0.329   1.942  12.278  0.9721 -0.1930  0.4068
  386TMC3    C8 5831   0.301   1.879  11.824 -0.8153  0.6648 -0.4191
  386TMC3    O1 5832   0.388   1.975  12.379  0.0243  0.5940 -0.1002
  386TMC3    O2 5833   0.187   1.922  11.832 -0.0384 -0.5182 -0.2172
  387MPD2     C 5834   1.939   2.183  10.243  0.2727 -0.1477  0.0993
  387MPD2    C1 5835   2.042   2.161  10.323 -0.8463 -0.1693  0.6443
  387MPD2    C2 5836   2.063   2.033  10.376  0.2419 -0.0678  0.5681
  387MPD2    C3 5837   1.993   1.927  10.328  0.2218  0.2009 -0.7689
  387MPD2    C4 5838   1.889   1.950  10.237  0.0664  0.3065 -0.2481
  387MPD2    C5 5839   1.860   2.078  10.199  0.2207 -0.2114  0.0584
  387MPD2     H 5840   2.149   2.016  10.442 -0.4398  0.4572  1.5900
  387MPD2    H1 5841   1.817   1.880  10.197  0.8232 -1.0171  0.7206
  387MPD2    H2 5842   1.931   2.275  10.187 -0.2835 -0.2493  0.0059
  387MPD2    H3 5843   1.767   2.090  10.145  0.8629  0.0955 -0.9661
  387MPD2     N 5844   2.041   1.801  10.365 -0.0487 -0.4145  0.0086
  387MPD2    H5 5845   2.122   1.803  10.425 -0.6198  2.1639  0.6593
  387MPD2    N1 5846   2.134   2.257  10.367 -0.4692  0.4688 -0.0267
  387MPD2    H7 5847   2.203   2.231  10.437  0.2837  0.0669 -0.9365
  388TMC3    C1 5848   2.277   2.435  10.370  0.3817  0.4512 -0.1848
  388TMC3    C2 5849   2.306   2.565  10.344 -0.4987  0.0244  0.1117
  388TMC3    C3 5850   2.441   2.606  10.354 -0.8741 -0.1766 -0.5930
  388TMC3    C4 5851   2.381   2.345  10.404 -0.4385 -0.0552 -0.4521
  388TMC3    C5 5852   2.514   2.384  10.390  0.0554  0.0974 -0.3273
  388TMC3    C6 5853   2.544   2.512  10.367 -0.1112 -0.8383  0.6435
  388TMC3     C 5854   2.154   2.384  10.317  0.0290  0.1621 -0.2020
  388TMC3     O 5855   2.100   2.442  10.223  0.0444 -0.1326  0.2754
  388TMC3     H 5856   2.233   2.629  10.297  1.6928  0.3295 -2.8572
  388TMC3    H1 5857   2.359   2.245  10.441  0.3693 -0.5071 -1.1853
  388TMC3    H2 5858   2.648   2.539  10.374 -0.0073 -1.2354  0.6148
  388TMC3    C7 5859   2.617   2.274  10.422 -0.4115  0.7841 -0.7560
  388TMC3    C8 5860   2.458   2.743  10.334  0.0005 -0.6522  0.5063
  388TMC3    O1 5861   2.718   2.307  10.473 -0.3411  0.5197 -0.1737
  388TMC3    O2 5862   2.360   2.808  10.300  0.4849 -0.1705  0.0390
  389MPD2     C 5863   2.127   0.210  11.377  0.1773 -0.1475  0.1455
  389MPD2    C1 5864   2.002   0.178  11.326 -0.2880  0.1762 -0.3083
  389MPD2    C2 5865   1.905   0.118  11.407  0.1531 -0.2553  0.6425
  389MPD2    C3 5866   1.932   0.082  11.538 -1.1833 -0.1880 -0.6719
  389MPD2    C4 5867   2.050   0.127  11.590  0.8403  0.1134 -0.1906
  389MPD2    C5 5868   2.146   0.186  11.510 -0.5563  0.5988 -0.0686
  389MPD2     H 5869   1.821   0.074  11.353 -0.5870  0.4575  1.2309
  389MPD2    H1 5870   2.067   0.107  11.695 -0.7591 -0.3730 -0.0138
  389MPD2    H2 5871   2.202   0.256  11.314  1.1844 -0.4871  1.1065
  389MPD2    H3 5872   2.239   0.220  11.555 -1.2457  1.6356  0.5449
  389MPD2     N 5873   1.842   0.008  11.622  0.3822 -0.8722 -0.2042
  389MPD2    H5 5874   1.864   0.012  11.721  1.8124  1.3092 -0.5988
  389MPD2    N1 5875   1.989   0.214  11.188  0.2839  0.0641 -0.0286
  389MPD2    H7 5876   2.067   0.260  11.143  1.8587 -0.5612  2.0619
  390TMC3    C1 5877   1.645   4.624  11.683  0.0557 -0.7209 -0.5370
  390TMC3    C2 5878   1.565   4.517  11.660 -1.2823 -0.1214 -0.3742
  390TMC3    C3 5879   1.486   4.475  11.764 -0.1604  0.7055 -0.2295
  390TMC3    C4 5880   1.634   4.702  11.796  0.3944  0.0403  0.0489
  390TMC3    C5 5881   1.541   4.667  11.884  0.1036  0.0679 -0.8637
  390TMC3    C6 5882   1.471   4.544  11.879  0.2612  0.0281  0.1444
  390TMC3     C 5883   1.737   4.670  11.577  0.1582  0.0904  0.3788
  390TMC3     O 5884   1.706   4.633  11.467  0.1085  0.3323 -0.2368
  390TMC3     H 5885   1.556   4.460  11.569  1.4621 -2.8022  1.0178
  390TMC3    H1 5886   1.690   0.056  11.817 -0.3822  0.5901 -0.2805
  390TMC3    H2 5887   1.412   4.505  11.960  2.1558 -2.0938  0.4903
  390TMC3    C7 5888   1.497   0.039  11.976 -0.0560 -0.0691  0.5770
  390TMC3    C8 5889   1.360   4.426  11.711  0.0407  0.9225  0.3149
  390TMC3    O1 5890   1.557   0.147  11.969 -0.2839  0.4968  0.6279
  390TMC3    O2 5891   1.356   4.360  11.608  0.4062  0.2781  0.5072
  391MPD2     C 5892   0.810   1.979  11.422  0.5876 -0.7123 -0.3974
  391MPD2    C1 5893   0.938   2.017  11.398  0.0673 -0.3521  0.5848
  391MPD2    C2 5894   0.973   2.042  11.269 -0.2679 -0.0996 -0.5823
  391MPD2    C3 5895   0.882   2.032  11.163 -0.9099  0.0356 -0.7559
  391MPD2    C4 5896   0.751   2.015  11.193 -0.3290 -0.1898 -0.3406
  391MPD2    C5 5897   0.714   1.985  11.322 -0.0610  0.4052  0.6787
  391MPD2     H 5898   1.074   2.066  11.237 -1.0996  0.4096 -2.8612
  391MPD2    H1 5899   0.665   2.005  11.128  2.0235 -1.2920 -3.3069
  391MPD2    H2 5900   0.773   1.960  11.522 -1.3342 -1.2979 -1.2054
  391MPD2    H3 5901   0.612   1.964  11.350  0.0531 -0.3548  0.5323
  391MPD2     N 5902   0.931   2.046  11.031 -0.2551 -0.6525 -0.7984
  391MPD2    H5 5903   1.032   2.050  11.021 -0.4089  0.2721 -1.8986
  391MPD2    N1 5904   1.023   2.042  11.512  0.6749  0.4034  0.7694
  391MPD2    H7 5905   0.980   2.009  11.597 -1.2581 -1.5460 -0.9693
  392TMC3    C1 5906   0.921   2.094  10.798  0.1670 -0.0955 -0.5404
  392TMC3    C2 5907   0.849   2.056  10.693 -0.1133  0.3742  0.4428
  392TMC3    C3 5908   0.857   2.135  10.584  0.0314  0.8671  0.2739
  392TMC3    C4 5909   0.996   2.207  10.805  0.0937  0.2511  0.0780
  392TMC3    C5 5910   1.011   2.278  10.683 -0.2592 -0.5620 -0.2012
  392TMC3    C6 5911   0.929   2.252  10.576 -0.1005  0.0837 -0.4839
  392TMC3     C 5912   0.852   2.047  10.919  0.0324 -0.1067  0.4290
  392TMC3     O 5913   0.729   2.057  10.919  0.5443  0.1357  0.1662
  392TMC3     H 5914   0.774   1.979  10.705 -0.1582 -0.0088 -2.1372
  392TMC3    H1 5915   1.044   2.240  10.897 -0.6684 -2.9094  1.6039
  392TMC3    H2 5916   0.932   2.311  10.485  1.1796 -1.4170 -1.4257
  392TMC3    C7 5917   1.107   2.393  10.689 -0.6486  0.2859  0.7699
  392TMC3    C8 5918   0.741   2.116  10.495  0.9464  0.3177 -0.8408
  392TMC3    O1 5919   1.153   2.416  10.803 -0.0106  0.1845 -0.5602
  392TMC3    O2 5920   0.706   2.000  10.481  0.9171  0.1944 -0.4730
  393TMC3    C1 5921   4.046   4.569  11.205 -0.0422  0.5539 -0.4659
  393TMC3    C2 5922   4.060   4.584  11.337 -0.4512 -0.5162  0.0774
  393TMC3    C3 5923   3.991   4.493  11.419  0.4766  0.1594  0.2965
  393TMC3    C4 5924   3.966   4.466  11.156  0.0002  0.5538 -0.1316
  393TMC3    C5 5925   3.901   4.379  11.242 -0.1653 -0.3334  0.5730
  393TMC3    C6 5926   3.909   4.393  11.375  0.3056 -0.1900  0.6539
  393TMC3     C 5927   4.103   4.655  11.108 -0.5999 -0.2612 -0.3368
  393TMC3     O 5928   4.111   4.604  10.999  0.5220  0.2855  0.1316
  393TMC3     H 5929   4.136   4.649  11.379 -0.8872 -1.5210  2.4281
  393TMC3    H1 5930   3.946   4.461  11.050  1.2012 -0.7024 -0.3039
  393TMC3    H2 5931   3.876   4.311  11.438 -0.5233  0.0869  0.5727
  393TMC3    C7 5932   3.909   4.235  11.208  0.5029 -0.7610  0.1757
  393TMC3    C8 5933   3.999   4.506  11.566 -0.3904 -1.1701  0.2135
  393TMC3    O1 5934   3.830   4.159  11.262  0.2409  0.6042 -0.5253
  393TMC3    O2 5935   3.982   4.401  11.629 -0.4612  0.5774  0.4117
  394TMC3    C1 5936   1.879   0.237  10.974 -0.4647 -0.7830 -0.4644
  394TMC3    C2 5937   1.763   0.273  10.920 -0.8430 -0.0718 -0.5456
  394TMC3    C3 5938   1.765   0.320  10.791  0.9918 -0.5215 -0.1702
  394TMC3    C4 5939   2.001   0.261  10.909  0.1647  0.3507  0.6115
  394TMC3    C5 5940   1.996   0.315  10.785 -0.4738 -0.0104  0.3125
  394TMC3    C6 5941   1.880   0.341  10.719  0.2459  0.7287  0.2171
  394TMC3     C 5942   1.873   0.211  11.119  0.6484 -0.2217  0.1283
  394TMC3     O 5943   1.765   0.166  11.161 -0.5110 -0.1254 -0.4817
  394TMC3     H 5944   1.673   0.260  10.979  0.3070  0.5421  1.3385
  394TMC3    H1 5945   2.097   0.237  10.954  0.2007  0.8512  0.8006
  394TMC3    H2 5946   1.887   0.402  10.630  2.1762 -1.2375 -0.9648
  394TMC3    C7 5947   2.114   0.402  10.758 -0.6972 -0.5045 -0.7717
  394TMC3    C8 5948   1.643   0.334  10.728  0.0242 -0.2094  0.4793
  394TMC3    O1 5949   2.082   0.508  10.705 -0.4840  0.1756  0.1563
  394TMC3    O2 5950   1.548   0.360  10.799  0.5432 -0.4746 -0.5221
  395TMC3    C1 5951   1.562   2.047  14.989  0.9648  0.2147 -1.0343
  395TMC3    C2 5952   1.557   1.958  14.881  0.2314  0.1047  0.2344
  395TMC3    C3 5953   1.665   1.975  14.795 -0.2373  0.0145 -0.7823
  395TMC3    C4 5954   1.662   2.142  15.014  0.4625  0.0509 -0.1085
  395TMC3    C5 5955   1.779   2.136  14.935  0.0863 -0.4436 -0.0255
  395TMC3    C6 5956   1.774   2.060  14.818  0.5898 -0.6576  0.2514
  395TMC3     C 5957   1.474   2.015  15.098  0.7643 -0.8165 -0.8439
  395TMC3     O 5958   1.497   2.075  15.203  0.4249  0.5103  0.7747
  395TMC3     H 5959   1.469   1.904  14.850 -0.4696  1.6615 -0.5219
  395TMC3    H1 5960   1.667   2.202  15.104 -1.0908  1.7938 -1.1821
  395TMC3    H2 5961   1.846   2.054  14.737  1.4894 -0.1251  1.0120
  395TMC3    C7 5962   1.901   2.204  14.975 -0.4294  0.4951  0.4709
  395TMC3    C8 5963   1.622   2.009  14.658  0.3662  0.1293 -0.5726
  395TMC3    O1 5964   1.898   2.285  15.068  0.2416 -0.4233 -0.4682
  395TMC3    O2 5965   1.673   2.108  14.610 -0.4121  0.1957 -0.3370
  396MPD2     C 5966   1.184   3.025  17.381  0.1581  0.5465  0.2399
  396MPD2    C1 5967   1.248   3.144  17.404 -0.8284 -0.2841 -0.1606
  396MPD2    C2 5968   1.218   3.244  17.312  0.8572 -0.2829 -0.4522
  396MPD2    C3 5969   1.133   3.230  17.208 -0.1140 -0.3666 -0.6772
  396MPD2    C4 5970   1.068   3.104  17.192  0.2041 -0.6557  0.0241
  396MPD2    C5 5971   1.095   3.005  17.280  0.7284  0.1641  0.0777
  396MPD2     H 5972   1.266   3.340  17.326  0.4634 -0.0603 -0.6101
  396MPD2    H1 5973   0.999   3.096  17.109 -0.9081  1.7164  0.7264
  396MPD2    H2 5974   1.198   2.944  17.452  0.6372 -0.3740 -0.9201
  396MPD2    H3 5975   1.044   2.911  17.262 -1.6748  1.4086  0.3163
  396MPD2     N 5976   1.128   3.329  17.108  0.0856 -0.4292  0.4548
  396MPD2    H5 5977   1.197   3.402  17.124 -0.3993 -0.2312  1.6856
  396MPD2    N1 5978   1.331   3.157  17.517 -0.3519 -0.0549  0.5065
  396MPD2    H7 5979   1.358   3.073  17.568  2.1151  0.2121 -0.3272
  397TMC3    C1 5980   1.472   3.244  17.671 -0.7017  0.1003  0.1442
  397TMC3    C2 5981   1.590   3.273  17.608 -0.2628  0.0851  0.7001
  397TMC3    C3 5982   1.691   3.179  17.611 -0.3074  0.1602 -0.0032
  397TMC3    C4 5983   1.452   3.120  17.722  0.8522  0.1011 -0.4199
  397TMC3    C5 5984   1.558   3.045  17.743 -0.2705 -0.6665  0.2232
  397TMC3    C6 5985   1.682   3.070  17.693 -0.0237 -0.5297 -1.0174
  397TMC3     C 5986   1.374   3.273  17.564 -0.0680  0.3783  0.6527
  397TMC3     O 5987   1.350   3.389  17.522  0.0908  0.0415  0.2911
  397TMC3     H 5988   1.573   3.319  17.511  0.8846 -0.6713  0.1357
  397TMC3    H1 5989   1.355   3.090   0.016  0.3738  0.6069 -1.2291
  397TMC3    H2 5990   1.757   2.993  17.679  1.4645  0.5805  0.7741
  397TMC3    C7 5991   1.560   2.932   0.089 -0.8219 -0.9095 -0.0389
  397TMC3    C8 5992   1.777   3.162  17.492 -0.5193 -0.4677  0.6907
  397TMC3    O1 5993   1.640   2.841   0.077  0.5831  0.2790 -0.1541
  397TMC3    O2 5994   1.788   3.056  17.435 -0.1398 -0.4225  0.6323
  398MPD2     C 5995   4.070   0.342   0.311 -0.3301 -0.2426  0.4212
  398MPD2    C1 5996   4.146   0.265   0.391 -0.1005 -0.3338  0.3073
  398MPD2    C2 5997   4.236   0.325   0.476  0.1432  0.6470  0.4718
  398MPD2    C3 5998   4.257   0.461   0.476 -0.0081 -0.0887  0.0649
  398MPD2    C4 5999   4.190   0.541   0.379 -0.0961  1.2050 -0.1492
  398MPD2    C5 6000   4.093   0.480   0.305 -0.0353 -0.3068  0.0585
  398MPD2     H 6001   4.301   0.265   0.539 -1.0564 -0.1605  0.9262
  398MPD2    H1 6002   4.221   0.645   0.372 -1.7822  1.6620 -0.8532
  398MPD2    H2 6003   3.999   0.300   0.241  0.7975  1.3671 -1.7141
  398MPD2    H3 6004   4.036   0.541   0.235  1.0915 -1.4798 -1.8971
  398MPD2     N 6005   4.369   0.506   0.560  0.2839 -0.2435 -0.1698
  398MPD2    H5 6006   4.415   0.434   0.616  0.8501 -0.0134 -0.3338
  398MPD2    N1 6007   4.142   0.125   0.391 -0.2082 -0.3324 -0.4350
  398MPD2    H7 6008   4.214   0.076   0.444 -0.4550  0.3193  0.5020
  399TMC3    C1 6009   4.100   4.643   0.318  0.3635  0.2002 -0.0876
  399TMC3    C2 6010   4.180   4.601   0.420  0.5066 -0.0191  0.4953
  399TMC3    C3 6011   4.218   4.472   0.425 -0.1460  0.1824  0.2264
  399TMC3    C4 6012   4.078   4.563   0.203  0.7787 -0.4521  0.5219
  399TMC3    C5 6013   4.125   4.433   0.210 -0.1203  0.9259 -0.5116
  399TMC3    C6 6014   4.196   4.386   0.318 -0.1308 -0.0795 -0.5993
  399TMC3     C 6015   4.070   0.048   0.299  0.2858  0.1594 -0.2826
  399TMC3     O 6016   4.007   0.083   0.200  0.5538 -0.9717  0.1977
  399TMC3     H 6017   4.190   4.651   0.515  1.3952  2.4380 -0.9048
  399TMC3    H1 6018   4.010   4.599   0.126  1.5016 -0.4790 -0.1378
  399TMC3    H2 6019   4.237   4.286   0.308  2.1590  0.5784  1.8660
  399TMC3    C7 6020   4.041   4.334   0.132  0.9282 -0.8153 -0.0847
  399TMC3    C8 6021   4.303   4.439   0.537 -0.3376  0.0224  0.4484
  399TMC3    O1 6022   3.990   4.370   0.025 -0.0825  0.2945 -0.3350
  399TMC3    O2 6023   4.361   4.534   0.588 -0.2819 -0.9288 -0.4475
  400TMC3    C1 6024   2.786   3.154  17.205 -0.1350  0.0621 -0.7638
  400TMC3    C2 6025   2.729   3.063  17.120 -0.1197  0.1058  0.0717
  400TMC3    C3 6026   2.614   3.103  17.058  0.1024  0.0825 -0.1963
  400TMC3    C4 6027   2.722   3.275  17.229  0.2425 -0.2094  0.0788
  400TMC3    C5 6028   2.616   3.320  17.146 -0.8140 -0.3028  0.3534
  400TMC3    C6 6029   2.566   3.233  17.055 -0.7693 -0.0007  0.3958
  400TMC3     C 6030   2.886   3.105  17.302  0.2712 -0.1923  0.0618
  400TMC3     O 6031   2.903   2.987  17.335  0.3813  0.0109 -0.1064
  400TMC3     H 6032   2.792   2.978  17.096 -1.4861 -0.7709 -0.4246
  400TMC3    H1 6033   2.776   3.337  17.300  1.7630  0.0412 -1.2846
  400TMC3    H2 6034   2.466   3.262  17.024 -1.0489 -1.4324 -0.0494
  400TMC3    C7 6035   2.549   3.445  17.162  0.3549 -0.2836  0.4565
  400TMC3    C8 6036   2.529   3.004  16.985  0.0260 -0.3125 -0.0261
  400TMC3    O1 6037   2.468   3.473  17.070 -0.2161 -0.7344  0.2927
  400TMC3    O2 6038   2.443   3.052  16.909 -0.1280 -0.3930  0.0961
  401MPD2     C 6039   1.358   2.258   1.225 -0.2922 -0.3852  0.5640
  401MPD2    C1 6040   1.407   2.137   1.254  0.2990 -0.0134 -0.4507
  401MPD2    C2 6041   1.323   2.027   1.245  0.5013 -0.9799 -0.3521
  401MPD2    C3 6042   1.195   2.030   1.206  0.1306  0.3155  0.0133
  401MPD2    C4 6043   1.144   2.158   1.178  0.1411 -0.3807  0.4431
  401MPD2    C5 6044   1.226   2.268   1.187  0.3957  0.1788 -0.4480
  401MPD2     H 6045   1.367   1.930   1.267  0.4017 -0.3165  2.7453
  401MPD2    H1 6046   1.042   2.170   1.143 -0.1558  0.7501  1.6796
  401MPD2    H2 6047   1.410   2.353   1.221 -0.4141 -0.2735  1.5562
  401MPD2    H3 6048   1.187   2.367   1.169 -0.0755  0.3726  1.5983
  401MPD2     N 6049   1.127   1.912   1.187 -0.5962  0.3306  0.4977
  401MPD2    H5 6050   1.183   1.828   1.195 -0.8400  0.3199  2.2006
  401MPD2    N1 6051   1.538   2.100   1.294 -0.2088 -0.2166  0.6628
  401MPD2    H7 6052   1.558   2.000   1.288  0.3863 -0.0629  0.0961
  402TMC3    C1 6053   0.950   1.760   1.159  0.7076 -0.0180  0.6697
  402TMC3    C2 6054   1.044   1.656   1.143 -0.3365  0.1103  0.5384
  402TMC3    C3 6055   0.999   1.529   1.111 -0.3676 -0.0082 -0.2839
  402TMC3    C4 6056   0.824   1.744   1.103 -0.5398  0.5692  0.0454
  402TMC3    C5 6057   0.789   1.617   1.060  0.0773 -0.0983 -0.5256
  402TMC3    C6 6058   0.875   1.511   1.058 -0.0110  0.3365  0.3532
  402TMC3     C 6059   0.992   1.900   1.170 -0.0907 -0.2766  0.1395
  402TMC3     O 6060   0.908   1.983   1.157  0.0840 -0.0622  0.3344
  402TMC3     H 6061   1.141   1.654   1.191 -0.5453 -0.5424  0.9304
  402TMC3    H1 6062   0.754   1.827   1.106  0.0445  1.1512 -2.8372
  402TMC3    H2 6063   0.842   1.410   1.038  0.4551  0.3422 -0.4596
  402TMC3    C7 6064   0.665   1.604   1.001 -0.1308  0.2524  0.0798
  402TMC3    C8 6065   1.089   1.417   1.135 -0.2429 -0.0101  0.5433
  402TMC3    O1 6066   0.576   1.684   1.031 -0.5136  0.0269 -0.6381
  402TMC3    O2 6067   1.211   1.426   1.107  0.1492 -1.0386 -0.6902
  403MPD2     C 6068   4.511   3.692  13.583 -0.7030  0.3125  0.2365
  403MPD2    C1 6069   4.447   3.751  13.691 -0.8230 -0.8247 -0.1299
  403MPD2    C2 6070   4.495   3.758  13.818  0.4656  0.0457 -0.1015
  403MPD2    C3 6071   4.619   3.694  13.837 -0.5065 -0.3287  0.7398
  403MPD2    C4 6072   4.690   3.639  13.735  0.2603  0.4300  0.0933
  403MPD2    C5 6073   4.639   3.642  13.609  0.4015 -0.0357 -0.5715
  403MPD2     H 6074   4.446   3.803  13.904  0.9100 -1.0655  0.7399
  403MPD2    H1 6075   0.049   3.592  13.758  0.8328  1.4105 -0.2815
  403MPD2    H2 6076   4.460   3.675  13.489 -1.3261 -1.3194  0.8765
  403MPD2    H3 6077   4.694   3.596  13.527 -0.2671 -0.1272 -0.9679
  403MPD2     N 6078   4.662   3.704  13.970 -0.0566 -0.5920  0.0597
  403MPD2    H5 6079   4.602   3.760  14.029  1.9557  1.8204 -0.2102
  403MPD2    N1 6080   4.320   3.798  13.653 -0.2245  0.7261  0.3283
  403MPD2    H7 6081   4.295   3.774  13.558  0.9771 -1.8479  0.6814
  404TMC3    C1 6082   4.121   3.905  13.637 -0.2727  1.3684 -0.4650
  404TMC3    C2 6083   4.007   3.960  13.693 -0.1022  0.4375  0.1006
  404TMC3    C3 6084   3.906   3.999  13.611 -0.5161  0.0916 -0.4243
  404TMC3    C4 6085   4.135   3.923  13.502 -0.0948  0.1863  0.3338
  404TMC3    C5 6086   4.032   3.960  13.421 -0.0722  0.8670 -0.5152
  404TMC3    C6 6087   3.910   4.006  13.474 -0.2413  0.2575 -0.4731
  404TMC3     C 6088   4.225   3.862  13.725  0.2016  0.1543 -0.0511
  404TMC3     O 6089   4.214   3.885  13.843  0.4148 -0.4284 -0.3978
  404TMC3     H 6090   4.004   3.958  13.801  1.2145  1.6363  0.1692
  404TMC3    H1 6091   4.228   3.888  13.458  0.0630 -0.8230  1.4771
  404TMC3    H2 6092   3.833   4.050  13.412  1.2060 -0.1397 -2.5402
  404TMC3    C7 6093   4.050   3.979  13.282  0.5740 -0.1321 -0.0792
  404TMC3    C8 6094   3.801   4.062  13.682 -0.1950  0.1227 -0.6572
  404TMC3    O1 6095   4.167   3.993  13.244  0.3177 -0.4114 -0.0392
  404TMC3    O2 6096   3.722   4.116  13.610 -0.2824  0.1954  0.2663
  405MPD2     C 6097   4.511   1.007  15.431 -0.0977 -0.2356 -0.2528
  405MPD2    C1 6098   4.564   0.977  15.312  0.5841  0.0259  0.1608
  405MPD2    C2 6099   4.488   0.950  15.206 -0.2899  0.4067 -0.3609
  405MPD2    C3 6100   4.346   0.959  15.205  0.2295  0.3085 -0.6238
  405MPD2    C4 6101   4.289   0.984  15.327  0.6209 -0.1429 -0.9590
  405MPD2    C5 6102   4.375   1.014  15.435  0.4390  0.3043 -0.2565
  405MPD2     H 6103   4.535   0.929  15.111 -1.0449  1.5764 -1.0051
  405MPD2    H1 6104   4.181   0.983  15.337  0.8879  2.0776  1.8025
  405MPD2    H2 6105   4.567   1.019  15.523 -0.1185  1.7674 -0.5049
  405MPD2    H3 6106   4.319   1.034  15.526  1.3040 -1.4757  0.6694
  405MPD2     N 6107   4.282   0.924  15.086  0.3450  0.0176 -0.1388
  405MPD2    H5 6108   4.336   0.919  15.001  0.6300  1.3271 -0.0457
  405MPD2    N1 6109   4.704   0.987  15.287  0.3896 -0.3748 -0.1491
  405MPD2    H7 6110   4.729   0.983  15.188 -1.1855  3.4101 -0.7114
  406TMC3    C1 6111   3.992   0.887  14.764  0.4348  0.8257  0.2550
  406TMC3    C2 6112   4.078   0.805  14.688 -0.6766  0.4234  0.2680
  406TMC3    C3 6113   4.194   0.753  14.744  0.6107 -0.5622  0.3454
  406TMC3    C4 6114   4.022   0.916  14.897  0.3315  0.6976 -1.0571
  406TMC3    C5 6115   4.124   0.841  14.952 -0.2544  0.0177 -0.0386
  406TMC3    C6 6116   4.214   0.765  14.882 -0.5697 -0.2591  0.2742
  406TMC3     C 6117   3.856   0.903  14.725 -0.3508  0.4160  0.1744
  406TMC3     O 6118   3.783   0.980  14.787 -0.0864  0.5241  0.4180
  406TMC3     H 6119   4.071   0.802  14.580  1.6447 -0.4874  0.1523
  406TMC3    H1 6120   3.953   0.956  14.970  0.4131  0.2796 -0.7495
  406TMC3    H2 6121   4.291   0.720  14.943  0.3303  0.3711 -0.4075
  406TMC3    C7 6122   4.151   0.879  15.082 -0.4027  0.3926 -0.1023
  406TMC3    C8 6123   4.313   0.786  14.667 -0.1642  0.0507 -0.2334
  406TMC3    O1 6124   4.066   0.910  15.160  0.4908 -0.0439  0.6400
  406TMC3    O2 6125   4.286   0.840  14.560 -0.0484  0.2764 -0.9602
  407MPD2     C 6126   1.456   1.628  10.530  0.3858  1.2173 -0.1900
  407MPD2    C1 6127   1.585   1.651  10.479  0.0894  0.0691  0.3184
  407MPD2    C2 6128   1.663   1.765  10.515 -0.8857  0.5765  0.0267
  407MPD2    C3 6129   1.607   1.853  10.610  0.5243 -0.5561 -0.1821
  407MPD2    C4 6130   1.483   1.827  10.662  0.0412 -0.9854  0.0947
  407MPD2    C5 6131   1.408   1.717  10.623  0.0985  0.0763  0.4429
  407MPD2     H 6132   1.761   1.782  10.473 -0.9762 -1.5177 -1.0525
  407MPD2    H1 6133   1.443   1.895  10.736 -2.8106 -0.6730 -1.7105
  407MPD2    H2 6134   1.410   1.534  10.503 -0.8778  1.5585  0.7717
  407MPD2    H3 6135   1.312   1.695  10.667  0.1691  1.9941  1.5736
  407MPD2     N 6136   1.669   1.973  10.660 -0.4334  0.2488 -0.3839
  407MPD2    H5 6137   1.616   2.034  10.722 -1.6010 -1.1904  0.0177
  407MPD2    N1 6138   1.635   1.574  10.368  0.2246 -0.0131  0.3309
  407MPD2    H7 6139   1.724   1.608  10.334  0.9828 -0.2817  2.0775
  408TMC3    C1 6140   1.638   1.482  10.157  0.5538  0.4894 -0.2523
  408TMC3    C2 6141   1.751   1.403  10.166  0.2555 -0.0802 -0.2933
  408TMC3    C3 6142   1.829   1.413  10.053  0.3923  0.1515  0.2564
  408TMC3    C4 6143   1.597   1.555  10.052 -0.3717 -0.8910 -0.0513
  408TMC3    C5 6144   1.690   1.572   9.950  0.3783 -0.1169 -0.2739
  408TMC3    C6 6145   1.810   1.508   9.958  0.0677  0.6456 -1.1363
  408TMC3     C 6146   1.561   1.493  10.278 -0.0467 -0.4809  0.2496
  408TMC3     O 6147   1.438   1.482  10.277 -0.0701 -0.0117  0.4175
  408TMC3     H 6148   1.782   1.347  10.254  0.1108 -1.3247 -1.0292
  408TMC3    H1 6149   1.496   1.594  10.049 -0.4124 -1.0114 -0.2675
  408TMC3    H2 6150   1.872   1.519   9.871  1.6478 -2.4991 -0.3999
  408TMC3    C7 6151   1.714   1.711   9.905 -0.2291 -0.2717 -0.3051
  408TMC3    C8 6152   1.966   1.378  10.070 -0.7647  0.5072 -0.2934
  408TMC3    O1 6153   1.827   1.746   9.887  0.1968  0.1172  0.0345
  408TMC3    O2 6154   2.010   1.272  10.114  0.2324  0.4172 -0.0973
  409MPD2     C 6155   1.673   2.421  17.142  0.9749 -0.4695 -0.0561
  409MPD2    C1 6156   1.797   2.416  17.209 -0.5568  0.0527  0.4658
  409MPD2    C2 6157   1.860   2.532  17.209  0.3661 -0.0373  0.2309
  409MPD2    C3 6158   1.806   2.647  17.156  0.5689 -0.2775  0.1532
  409MPD2    C4 6159   1.690   2.640  17.083  0.4391 -0.0166  0.6569
  409MPD2    C5 6160   1.616   2.533  17.090 -0.1880  0.5295 -0.3981
  409MPD2     H 6161   1.957   2.540  17.256 -0.0224  1.9279  0.6894
  409MPD2    H1 6162   1.648   2.730  17.039 -1.1423 -0.4764  1.2395
  409MPD2    H2 6163   1.606   2.338  17.125  0.8515 -0.5159  0.6477
  409MPD2    H3 6164   1.523   2.529  17.034  0.0107 -1.8175 -0.5551
  409MPD2     N 6165   1.876   2.773  17.160 -0.1710 -0.0789  0.8316
  409MPD2    H5 6166   1.847   2.848  17.099 -0.0280  0.9759  2.0598
  409MPD2    N1 6167   1.862   2.302  17.256  0.0715  0.1155 -0.6816
  409MPD2    H7 6168   1.952   2.313  17.302  0.5446 -1.0882 -1.3016
  410TMC3    C1 6169   2.043   2.929  17.207  0.2105  0.5578  0.6566
  410TMC3    C2 6170   2.125   2.982  17.307 -0.6055 -0.2046  0.1906
  410TMC3    C3 6171   2.213   3.082  17.260 -0.5640  0.8855  0.2944
  410TMC3    C4 6172   2.026   2.995  17.088 -0.5272  0.8893 -0.4124
  410TMC3    C5 6173   2.113   3.096  17.054 -0.0873 -0.1478  0.6351
  410TMC3    C6 6174   2.197   3.152  17.144 -0.2452 -0.1907  0.7569
  410TMC3     C 6175   1.973   2.808  17.245  0.1445 -0.2069 -0.0007
  410TMC3     O 6176   2.008   2.745  17.346  0.0283 -0.0202  0.0782
  410TMC3     H 6177   2.147   2.921  17.394 -1.0770 -2.2416 -1.1199
  410TMC3    H1 6178   1.956   2.950  17.019 -0.6108  1.1983 -0.5303
  410TMC3    H2 6179   2.274   3.223  17.116 -0.5062 -0.0156  0.4728
  410TMC3    C7 6180   2.104   3.151  16.915 -0.2058  0.5405 -0.0740
  410TMC3    C8 6181   2.335   3.115  17.341  0.2912  0.4343 -0.2466
  410TMC3    O1 6182   2.046   3.084  16.833 -0.3456 -0.3667 -0.1708
  410TMC3    O2 6183   2.387   3.225  17.331  0.4686  0.0195 -0.3501
  411MPD2     C 6184   2.121   2.753  14.802  0.4648 -0.8862  0.4923
  411MPD2    C1 6185   1.992   2.807  14.806 -0.4760 -1.1703  0.4976
  411MPD2    C2 6186   1.881   2.727  14.781 -0.0596 -0.1222 -0.4229
  411MPD2    C3 6187   1.904   2.595  14.758 -0.1796 -0.2180  0.1285
  411MPD2    C4 6188   2.032   2.547  14.750  0.4886 -0.5970 -0.1055
  411MPD2    C5 6189   2.140   2.626  14.763 -0.3054  0.0134  0.9205
  411MPD2     H 6190   1.780   2.765  14.789 -1.5194 -2.9733 -5.0659
  411MPD2    H1 6191   2.048   2.442  14.727  2.2730 -0.3611  0.0587
  411MPD2    H2 6192   2.211   2.810  14.824  0.1952 -0.8368  1.4520
  411MPD2    H3 6193   2.240   2.587  14.768 -0.0882  0.6236  1.3465
  411MPD2     N 6194   1.797   2.505  14.725 -0.9274 -0.9404  0.0845
  411MPD2    H5 6195   1.815   2.417  14.678 -2.2800 -1.6731  0.9353
  411MPD2    N1 6196   1.979   2.942  14.842 -0.0712 -0.0290  0.0004
  411MPD2    H7 6197   1.885   2.979  14.831 -0.0963  0.6325  2.2771
  412TMC3    C1 6198   1.586   2.465  14.637  0.0068  0.5040 -0.0144
  412TMC3    C2 6199   1.454   2.478  14.644  0.7090 -0.1710 -0.3429
  412TMC3    C3 6200   1.378   2.419  14.546  0.4135  0.2349  0.0070
  412TMC3    C4 6201   1.652   2.415  14.527 -0.2536 -0.2426  0.0744
  412TMC3    C5 6202   1.574   2.372  14.426  0.5072  0.4377 -0.5125
  412TMC3    C6 6203   1.437   2.358  14.444  0.3791 -0.6817  0.0196
  412TMC3     C 6204   1.665   2.539  14.731  0.4710  0.1854  0.3385
  412TMC3     O 6205   1.609   2.629  14.792  0.1646  0.1800 -0.0819
  412TMC3     H 6206   1.402   2.540  14.716  2.0122  1.5391 -0.8674
  412TMC3    H1 6207   1.758   2.428  14.511 -0.8661  1.1423 -2.9255
  412TMC3    H2 6208   1.375   2.302  14.374  0.6238  0.8310 -1.4035
  412TMC3    C7 6209   1.596   2.414  14.291  0.7426  0.0297 -0.3265
  412TMC3    C8 6210   1.249   2.486  14.517 -0.4250 -0.4186  0.7069
  412TMC3    O1 6211   1.511   2.386  14.207 -0.2550 -0.0935  0.2285
  412TMC3    O2 6212   1.226   2.601  14.544 -0.8136  0.2276  0.3317
  413MPD2     C 6213   3.054   1.138  16.043 -0.5966 -0.2922  0.5078
  413MPD2    C1 6214   3.067   1.152  15.900 -0.2076 -0.2997  0.0175
  413MPD2    C2 6215   3.199   1.136  15.838 -0.4959 -0.3167 -0.0814
  413MPD2    C3 6216   3.319   1.133  15.914 -0.9980 -0.0052  0.2155
  413MPD2    C4 6217   3.301   1.153  16.053  0.5242  0.5164  0.5091
  413MPD2    C5 6218   3.172   1.147  16.111 -0.4125 -0.3500 -0.4667
  413MPD2     H 6219   3.203   1.119  15.731  0.3561  0.8654 -0.2408
  413MPD2    H1 6220   3.378   1.193  16.118 -1.0819  0.9396  2.1431
  413MPD2    H2 6221   2.956   1.146  16.089 -0.4328  0.2463  0.7624
  413MPD2    H3 6222   3.158   1.150  16.218  3.4443 -0.1525  0.0236
  413MPD2     N 6223   3.444   1.117  15.855 -0.5798 -0.0310  0.2244
  413MPD2    H5 6224   3.434   1.105  15.755 -0.9154 -0.9350  0.3633
  413MPD2    N1 6225   2.944   1.162  15.824  0.5801 -0.6456 -0.9936
  413MPD2    H7 6226   2.863   1.173  15.883  2.2733  1.0131  1.0500
  414TMC3    C1 6227   3.682   1.107  15.838  0.6572  0.0278 -0.4938
  414TMC3    C2 6228   3.788   1.031  15.887  0.1809 -0.0999 -0.2053
  414TMC3    C3 6229   3.911   1.035  15.828 -0.1183  0.7959  0.6655
  414TMC3    C4 6230   3.698   1.201  15.736  0.4164 -0.0131 -0.0092
  414TMC3    C5 6231   3.821   1.193  15.677  0.1613  0.0205  0.5276
  414TMC3    C6 6232   3.926   1.118  15.722  0.2753  0.4814  0.5304
  414TMC3     C 6233   3.563   1.108  15.923  0.0820  0.5076 -0.0256
  414TMC3     O 6234   3.573   1.079  16.041 -0.7527 -0.1525 -0.3120
  414TMC3     H 6235   3.771   0.964  15.970 -2.4165  1.4892  0.5486
  414TMC3    H1 6236   3.619   1.259  15.690 -1.7488 -0.2028  3.4593
  414TMC3    H2 6237   4.018   1.094  15.670  1.7079  1.8694  2.4377
  414TMC3    C7 6238   3.838   1.274  15.555  0.1685  0.2890  0.9144
  414TMC3    C8 6239   4.003   0.930  15.840 -0.2443 -0.1227 -0.2042
  414TMC3    O1 6240   3.745   1.305  15.484 -0.2123 -0.4879 -0.3069
  414TMC3    O2 6241   3.958   0.823  15.801 -0.0855 -0.5342 -0.6706
  415TMC3    C1 6242   4.271   3.966  10.017 -0.2019  0.2963  0.4692
  415TMC3    C2 6243   4.383   3.975   9.938  0.3569  0.1111  0.1916
  415TMC3    C3 6244   4.364   3.962   9.801 -0.2473  0.1996  0.3877
  415TMC3    C4 6245   4.150   3.928   9.967 -0.1024  0.3116  0.3514
  415TMC3    C5 6246   4.134   3.915   9.832 -0.6597  0.3645  1.1429
  415TMC3    C6 6247   4.245   3.932   9.750 -0.1304 -0.2295 -0.5261
  415TMC3     C 6248   4.284   3.970  10.163  0.3298 -0.4801 -0.2575
  415TMC3     O 6249   4.198   3.918  10.236  0.1970  0.1753  0.1522
  415TMC3     H 6250   4.482   3.978   9.981  0.1834 -0.4722  0.6319
  415TMC3    H1 6251   4.062   3.935  10.030 -2.2558 -3.3745 -2.2492
  415TMC3    H2 6252   4.228   3.912   9.644 -3.1979 -0.4417 -0.0149
  415TMC3    C7 6253   4.008   3.877   9.768 -0.0498  0.2463 -0.1137
  415TMC3    C8 6254   4.482   3.942   9.716 -0.0456 -0.8401 -0.0666
  415TMC3    O1 6255   4.011   3.861   9.648 -0.2978  0.1852 -0.0640
  415TMC3    O2 6256   4.462   3.870   9.620 -0.4660 -0.0358  0.1127
  416MPD2     C 6257   0.881   3.164  11.775  0.6065 -0.2823 -0.0137
  416MPD2    C1 6258   0.749   3.123  11.751 -0.7690  0.7347 -0.9871
  416MPD2    C2 6259   0.727   3.006  11.677  0.0232 -0.4381  0.2589
  416MPD2    C3 6260   0.837   2.938  11.623  0.3300 -0.1408  0.5064
  416MPD2    C4 6261   0.964   2.983  11.650 -0.5948 -0.9749  0.6687
  416MPD2    C5 6262   0.985   3.095  11.717  0.1654  0.1468  0.0962
  416MPD2     H 6263   0.624   2.970  11.677  0.3822 -1.4503  0.0182
  416MPD2    H1 6264   1.057   2.935  11.622 -0.5818 -1.1220  0.9565
  416MPD2    H2 6265   0.906   3.250  11.836  1.2050 -0.8236  0.5055
  416MPD2    H3 6266   1.085   3.112  11.754  0.3896  1.9248 -1.3218
  416MPD2     N 6267   0.822   2.811  11.556  0.3716 -0.0548  0.4307
  416MPD2    H5 6268   0.908   2.757  11.547  1.4083  1.2765  2.2123
  416MPD2    N1 6269   0.646   3.192  11.822 -0.7834  0.1492 -0.5245
  416MPD2    H7 6270   0.683   3.263  11.885 -0.4210 -0.3935 -0.1312
  417TMC3    C1 6271   0.423   3.272  11.871 -0.8485  0.1310  0.0117
  417TMC3    C2 6272   0.463   3.323  11.992 -0.2013  0.0589  0.3538
  417TMC3    C3 6273   0.374   3.394  12.059  0.3017 -0.3828 -0.2046
  417TMC3    C4 6274   0.299   3.298  11.820 -0.1522 -0.0985  0.4121
  417TMC3    C5 6275   0.213   3.369  11.891 -0.1576  0.0162 -0.3312
  417TMC3    C6 6276   0.249   3.430  12.005 -0.3923 -0.3008  1.1979
  417TMC3     C 6277   0.511   3.185  11.793 -0.4709 -0.3912 -0.6383
  417TMC3     O 6278   0.464   3.139  11.688 -0.5663 -1.2339 -0.2936
  417TMC3     H 6279   0.559   3.291  12.031  0.9873  1.7808 -1.1744
  417TMC3    H1 6280   0.272   3.246  11.729 -0.0485  0.1400  0.2456
  417TMC3    H2 6281   0.181   3.497  12.055 -1.8156 -3.9196  4.1046
  417TMC3    C7 6282   0.098   3.416  11.816  0.5386  0.5989 -0.1534
  417TMC3    C8 6283   0.382   3.396  12.199 -0.2856 -0.7241 -1.0965
  417TMC3    O1 6284   0.086   3.538  11.795 -0.4583 -0.2587  0.4195
  417TMC3    O2 6285   0.315   3.472  12.271 -0.1103 -0.0357  0.1355
  418TMC3    C1 6286   0.033   0.627   0.645  0.4276 -0.1031 -0.0276
  418TMC3    C2 6287   4.651   0.669   0.587  0.1458  0.6270 -0.1925
  418TMC3    C3 6288   4.533   0.628   0.649 -0.3742  0.3324 -0.2056
  418TMC3    C4 6289   0.034   0.533   0.748 -0.0164  0.7211 -0.0114
  418TMC3    C5 6290   4.652   0.490   0.796 -0.3106 -0.0076 -0.4170
  418TMC3    C6 6291   4.534   0.536   0.748  0.1349  0.4637  0.6495
  418TMC3     C 6292   0.150   0.628   0.562 -0.5318  0.0563  0.2550
  418TMC3     O 6293   0.162   0.730   0.491 -0.6571  0.3210 -0.2303
  418TMC3     H 6294   4.647   0.729   0.496  0.9221  2.5925  1.0546
  418TMC3    H1 6295   0.117   0.514   0.815 -1.3201  0.0603  1.4139
  418TMC3    H2 6296   4.447   0.486   0.790  0.2500 -0.2485  0.0390
  418TMC3    C7 6297   4.658   0.390   0.905  0.1242 -0.4833  0.0729
  418TMC3    C8 6298   4.423   0.629   0.557 -0.5157 -0.0908  0.5236
  418TMC3    O1 6299   0.020   0.311   0.910 -0.0787  0.2924 -0.3078
  418TMC3    O2 6300   4.392   0.728   0.495 -0.1547 -0.0439 -0.2059
  419MPD2     C 6301   3.255   2.829  12.775 -0.1364  0.7567  0.5369
  419MPD2    C1 6302   3.143   2.902  12.760  0.2979 -0.1446  0.4647
  419MPD2    C2 6303   3.094   2.984  12.862  0.2693  0.7855  0.1338
  419MPD2    C3 6304   3.156   2.976  12.981  0.0983 -0.2086  0.2786
  419MPD2    C4 6305   3.256   2.885  13.005 -0.1572 -0.2956 -0.2173
  419MPD2    C5 6306   3.314   2.813  12.900  0.2820 -0.3771  0.1914
  419MPD2     H 6307   3.007   3.048  12.853 -1.0060 -1.1719 -1.5440
  419MPD2    H1 6308   3.306   2.864  13.098 -1.2863  2.8560  1.0969
  419MPD2    H2 6309   3.299   2.774  12.692 -1.5374 -0.6667  0.7510
  419MPD2    H3 6310   3.400   2.749  12.919 -0.0952 -0.9474 -0.0416
  419MPD2     N 6311   3.110   3.061  13.076 -0.4423  0.6850 -0.1363
  419MPD2    H5 6312   3.038   3.130  13.058 -1.9019 -1.1104 -1.1599
  419MPD2    N1 6313   3.085   2.913  12.636 -0.3301  0.0229 -0.0987
  419MPD2    H7 6314   3.009   2.979  12.622  1.0430  2.0034  1.8329
  420TMC3    C1 6315   3.062   3.159  13.286  0.1202  0.7244 -0.5307
  420TMC3    C2 6316   3.013   3.274  13.225  0.0003  0.2360  0.0124
  420TMC3    C3 6317   2.936   3.362  13.296 -0.0730 -0.3240  0.8085
  420TMC3    C4 6318   3.034   3.145  13.419  0.3353  0.0769  0.2575
  420TMC3    C5 6319   2.962   3.241  13.501 -0.6860  0.4062 -0.4398
  420TMC3    C6 6320   2.911   3.347  13.433 -0.8841 -0.4556 -0.0983
  420TMC3     C 6321   3.124   3.042  13.213  0.2322 -0.3711  0.7828
  420TMC3     O 6322   3.159   2.942  13.280  0.1399 -0.4387  0.4562
  420TMC3     H 6323   3.044   3.297  13.124 -2.1900  0.7767 -0.5419
  420TMC3    H1 6324   3.054   3.046  13.459 -2.2011 -1.4611 -2.2594
  420TMC3    H2 6325   2.859   3.430  13.479  1.6317  1.0040  0.1427
  420TMC3    C7 6326   2.921   3.206  13.636  0.0469 -0.4073 -0.1593
  420TMC3    C8 6327   2.828   3.418  13.216 -0.3607  0.1363 -0.2629
  420TMC3    O1 6328   2.976   3.113  13.693 -0.3767 -0.2529  0.2705
  420TMC3    O2 6329   2.867   3.478  13.116 -0.2363  0.3323  0.3414
  421TMC3    C1 6330   0.048   3.670  14.163 -0.6624  1.1343  0.1528
  421TMC3    C2 6331   4.692   3.735  14.237 -0.2738  0.2287  0.2706
  421TMC3    C3 6332   4.731   3.781  14.358 -0.4964  0.3826 -0.6848
  421TMC3    C4 6333   0.172   3.633  14.218  0.2323  0.6248 -0.1811
  421TMC3    C5 6334   0.194   3.661  14.354 -0.0122 -0.0112  1.2697
  421TMC3    C6 6335   0.110   3.738  14.426 -0.5003 -0.3749 -0.0848
  421TMC3     C 6336   0.043   3.663  14.016  0.3775 -0.2241 -0.3241
  421TMC3     O 6337   0.138   3.608  13.958 -0.2826  0.0251  0.8865
  421TMC3     H 6338   4.594   3.756  14.197  0.4134  2.0818 -0.4230
  421TMC3    H1 6339   0.246   3.579  14.160 -0.2889  1.4165 -1.5620
  421TMC3    H2 6340   0.130   3.775  14.526 -1.4909  1.0910 -0.4182
  421TMC3    C7 6341   0.320   3.620  14.409 -0.1845  0.2380  0.0100
  421TMC3    C8 6342   4.628   3.841  14.430  0.3011  0.7059  0.0027
  421TMC3    O1 6343   0.382   3.702  14.470  0.3557 -0.3627 -0.0888
  421TMC3    O2 6344   4.628   3.805  14.547  0.4638  0.1258  0.2485
  422TMC3    C1 6345   2.309   1.127  12.676  0.0919 -0.3636  0.5154
  422TMC3    C2 6346   2.276   1.204  12.783  0.2079  0.1247  0.2177
  422TMC3    C3 6347   2.145   1.205  12.830  0.6357  0.2851  0.0601
  422TMC3    C4 6348   2.214   1.067  12.599  0.5039  0.0080 -0.2489
  422TMC3    C5 6349   2.083   1.063  12.646  0.6316  0.7288  0.7790
  422TMC3    C6 6350   2.048   1.131  12.759 -0.3579 -0.7014  0.1598
  422TMC3     C 6351   2.445   1.150  12.631 -0.0128 -0.1137 -0.6818
  422TMC3     O 6352   2.510   1.239  12.686 -0.2244  0.1553  0.5786
  422TMC3     H 6353   2.346   1.262  12.842 -1.4045  0.4655  1.7951
  422TMC3    H1 6354   2.252   0.989  12.534  2.3148  0.4155  0.3245
  422TMC3    H2 6355   1.948   1.137  12.802 -0.9713  0.7145 -1.4632
  422TMC3    C7 6356   2.000   0.960  12.593 -0.5094  0.4893  0.0399
  422TMC3    C8 6357   2.098   1.308  12.926  0.4555 -0.5669  0.1237
  422TMC3    O1 6358   2.044   0.900  12.496  0.1601  0.1904  0.3330
  422TMC3    O2 6359   2.170   1.406  12.936 -0.0722 -0.1782 -0.2988
  423MPD2     C 6360   3.278   2.559   0.681  0.6185  0.8662 -0.3230
  423MPD2    C1 6361   3.296   2.426   0.714 -0.0058 -0.6609  0.0275
  423MPD2    C2 6362   3.343   2.336   0.618 -0.6196  0.0416  0.2510
  423MPD2    C3 6363   3.360   2.380   0.491  1.3659  0.2294 -0.2236
  423MPD2    C4 6364   3.350   2.511   0.455  0.2960  0.9022  0.1074
  423MPD2    C5 6365   3.318   2.605   0.560  0.0267  0.2977 -0.6773
  423MPD2     H 6366   3.346   2.231   0.641  0.1886  0.3239  1.4175
  423MPD2    H1 6367   3.367   2.547   0.354  1.7039 -0.6985 -0.2231
  423MPD2    H2 6368   3.266   2.631   0.760 -1.2806 -0.3054  0.4522
  423MPD2    H3 6369   3.320   2.712   0.545 -0.0636  0.8792  3.6815
  423MPD2     N 6370   3.397   2.290   0.391  0.1354 -0.4562 -0.4478
  423MPD2    H5 6371   3.392   2.329   0.298 -3.0802 -0.0312 -0.1025
  423MPD2    N1 6372   3.272   2.370   0.842  0.1131 -0.0292  0.7404
  423MPD2    H7 6373   3.285   2.270   0.855 -0.6168 -0.0058  1.6027
  424TMC3    C1 6374   3.240   2.376   1.076  0.2651 -0.1396 -0.1583
  424TMC3    C2 6375   3.324   2.269   1.089  0.1995  0.8064 -0.1969
  424TMC3    C3 6376   3.372   2.242   1.213 -0.3540  0.6231 -0.2327
  424TMC3    C4 6377   3.182   2.437   1.186 -0.6466 -0.0035 -0.1020
  424TMC3    C5 6378   3.222   2.392   1.315 -0.0869  0.6556  0.4961
  424TMC3    C6 6379   3.321   2.293   1.326  0.3468 -0.5557  0.2950
  424TMC3     C 6380   3.215   2.438   0.946  0.1320  0.0096  0.4934
  424TMC3     O 6381   3.140   2.537   0.945  0.2104  0.1457 -0.2219
  424TMC3     H 6382   3.374   2.217   1.008  1.1083 -0.2306  1.0464
  424TMC3    H1 6383   3.100   2.507   1.173  0.4038  0.8730 -1.9930
  424TMC3    H2 6384   3.355   2.266   1.425  1.8580 -0.4924 -0.2065
  424TMC3    C7 6385   3.159   2.435   1.438 -0.4817  0.6927 -0.2500
  424TMC3    C8 6386   3.424   2.110   1.226 -0.8037 -0.8522  0.3129
  424TMC3    O1 6387   3.221   2.411   1.543  0.0248 -0.1290 -0.3916
  424TMC3    O2 6388   3.378   2.029   1.148  0.4135 -0.3891  0.0790
  425MPD2     C 6389   2.700   1.059  16.903 -0.4991  0.9904  0.3144
  425MPD2    C1 6390   2.662   0.987  17.015 -0.1154 -0.2114  0.2456
  425MPD2    C2 6391   2.588   1.051  17.116  0.4643 -0.1968 -0.5996
  425MPD2    C3 6392   2.556   1.177  17.101 -0.0358 -0.3921 -0.7508
  425MPD2    C4 6393   2.576   1.244  16.981 -0.5197  0.2522 -0.3726
  425MPD2    C5 6394   2.658   1.187  16.885 -0.0789 -0.5737  0.2173
  425MPD2     H 6395   2.556   0.991  17.200  2.2265 -0.2694  0.0216
  425MPD2    H1 6396   2.556   1.350  16.968  2.1839  1.0566  1.8345
  425MPD2    H2 6397   2.766   1.019  16.828 -1.5827 -2.7793  1.3902
  425MPD2    H3 6398   2.702   1.238  16.800  1.4224 -0.3903  1.0976
  425MPD2     N 6399   2.460   1.220  17.190 -0.1710  0.7178 -0.0969
  425MPD2    H5 6400   2.432   1.158  17.266  0.3413 -1.1199 -1.3895
  425MPD2    N1 6401   2.700   0.849  17.016 -0.7760 -0.5533 -0.5218
  425MPD2    H7 6402   2.759   0.808  16.944  1.1294 -1.5227  1.6036
  426TMC3    C1 6403   2.706   0.627  17.102  0.6471 -0.3841 -0.4739
  426TMC3    C2 6404   2.819   0.606  17.036 -0.5942  0.1334 -0.2174
  426TMC3    C3 6405   2.844   0.472  17.011  0.1906 -0.9774 -0.1068
  426TMC3    C4 6406   2.623   0.533  17.161 -0.0131 -0.1999 -0.4662
  426TMC3    C5 6407   2.667   0.404  17.148 -0.1363  0.0486  0.3667
  426TMC3    C6 6408   2.769   0.368  17.066 -0.2732  0.4004  0.2283
  426TMC3     C 6409   2.660   0.764  17.120 -0.0673  0.2128  0.2543
  426TMC3     O 6410   2.595   0.792  17.221 -0.2903 -0.4040 -0.0531
  426TMC3     H 6411   2.884   0.685  17.001 -0.4363 -0.8126 -2.0176
  426TMC3    H1 6412   2.531   0.564  17.210  0.2834 -0.1501  0.0545
  426TMC3    H2 6413   2.786   0.262  17.048 -3.2554  0.5583 -3.5750
  426TMC3    C7 6414   2.597   0.299  17.216 -0.2426  0.0858  0.1976
  426TMC3    C8 6415   2.963   0.445  16.939  0.2982  0.7508 -0.5480
  426TMC3    O1 6416   2.622   0.184  17.192  0.3057  0.1606 -0.1768
  426TMC3    O2 6417   3.056   0.528  16.942 -0.4698  0.6980  0.3369
  427MPD2     C 6418   1.316   2.969  15.087  0.4979  0.2154 -0.0615
  427MPD2    C1 6419   1.302   2.992  15.226 -0.9675  0.1445  0.1242
  427MPD2    C2 6420   1.176   3.018  15.273 -0.2906  0.7697 -0.5017
  427MPD2    C3 6421   1.068   3.042  15.193 -0.3829 -0.1307  0.3376
  427MPD2    C4 6422   1.085   3.012  15.057 -0.3176 -0.2571  0.1727
  427MPD2    C5 6423   1.206   2.970  15.012 -0.4607  0.1375 -0.0842
  427MPD2     H 6424   1.165   3.035  15.379 -1.0782 -0.0293 -0.4563
  427MPD2    H1 6425   0.997   3.001  14.995 -1.5200 -1.6136  2.1179
  427MPD2    H2 6426   1.410   2.944  15.040  0.1458 -0.2927 -0.4856
  427MPD2    H3 6427   1.216   2.959  14.904 -1.1871  0.4400 -0.1829
  427MPD2     N 6428   0.940   3.079  15.243 -0.0777  0.6927  1.0413
  427MPD2    H5 6429   0.865   3.100  15.178 -1.5782 -3.1111  1.6135
  427MPD2    N1 6430   1.404   2.979  15.323  0.3099 -0.2657 -0.4523
  427MPD2    H7 6431   1.378   2.971  15.421 -0.1913 -0.9325 -0.6388
  428TMC3    C1 6432   1.617   2.909  15.395 -0.0803 -0.3631  0.7837
  428TMC3    C2 6433   1.576   2.798  15.457 -0.2955 -0.4669 -0.0864
  428TMC3    C3 6434   1.617   2.776  15.588  0.8488  0.2175 -0.2882
  428TMC3    C4 6435   1.696   3.003  15.459 -0.2513  0.0473 -0.1569
  428TMC3    C5 6436   1.743   2.980  15.585  0.3123  0.0349  0.6383
  428TMC3    C6 6437   1.712   2.863  15.650 -0.4811 -0.1123 -0.2104
  428TMC3     C 6438   1.537   2.947  15.285 -1.3802  1.2713  0.5448
  428TMC3     O 6439   1.592   2.945  15.178  0.7735  0.1093 -0.0714
  428TMC3     H 6440   1.511   2.734  15.399 -1.3487 -0.1715  0.7623
  428TMC3    H1 6441   1.711   3.092  15.399  0.6691 -0.3905 -0.5709
  428TMC3    H2 6442   1.729   2.844  15.755  2.5435  1.8569 -0.3494
  428TMC3    C7 6443   1.819   3.078  15.653  0.5978 -0.6807  0.1515
  428TMC3    C8 6444   1.532   2.690  15.675 -0.7112  0.1669  0.2872
  428TMC3    O1 6445   1.809   3.103  15.771  0.6524 -0.2636  0.6691
  428TMC3    O2 6446   1.450   2.627  15.606  0.1270 -0.0324 -0.0052
  429MPD2     C 6447   1.921   3.003   0.459  0.2652  0.1909  0.0169
  429MPD2    C1 6448   2.055   3.007   0.420  0.2345  0.6341  0.1517
  429MPD2    C2 6449   2.120   3.127   0.387 -0.1516  0.0718  0.6308
  429MPD2    C3 6450   2.042   3.242   0.392 -0.2399  0.0716 -0.0226
  429MPD2    C4 6451   1.904   3.234   0.417 -1.0341  0.5289 -0.5310
  429MPD2    C5 6452   1.839   3.121   0.450 -0.1627  0.5380 -0.0917
  429MPD2     H 6453   2.228   3.131   0.383 -0.1375  0.6422  1.5255
  429MPD2    H1 6454   1.842   3.323   0.423  0.9284  1.6912  2.9549
  429MPD2    H2 6455   1.868   2.913   0.491  1.2572 -0.3018  0.2651
  429MPD2    H3 6456   1.732   3.113   0.469 -0.3405 -0.7863 -1.6191
  429MPD2     N 6457   2.111   3.367   0.364 -0.4548 -0.4531 -0.4060
  429MPD2    H5 6458   2.213   3.367   0.366 -0.4712  0.2441  0.1692
  429MPD2    N1 6459   2.131   2.887   0.421  0.4486 -0.4372  0.5279
  429MPD2    H7 6460   2.232   2.886   0.410  0.1681 -3.0826 -1.8425
  430TMC3    C1 6461   2.136   3.586   0.280  0.2288  0.6660  0.0936
  430TMC3    C2 6462   2.085   3.710   0.267  0.2172 -0.7208 -0.5657
  430TMC3    C3 6463   2.140   3.808   0.190 -0.0418 -0.0060 -0.2569
  430TMC3    C4 6464   2.254   3.549   0.217 -0.1840 -0.6485 -0.6779
  430TMC3    C5 6465   2.319   3.657   0.153 -0.3647  0.2292  0.0631
  430TMC3    C6 6466   2.262   3.782   0.141 -0.1755 -0.4313  0.3096
  430TMC3     C 6467   2.047   3.483   0.327 -0.0937  0.3888  0.0290
  430TMC3     O 6468   1.927   3.509   0.319 -0.6809 -0.6983 -0.6732
  430TMC3     H 6469   2.003   3.737   0.333  1.9804  0.2547  1.2188
  430TMC3    H1 6470   2.287   3.446   0.208  0.4120 -0.5805  0.7068
  430TMC3    H2 6471   2.322   3.865   0.105  0.0816 -1.5836 -1.9380
  430TMC3    C7 6472   2.381   3.622   0.024 -0.4763  0.5973 -0.1152
  430TMC3    C8 6473   2.061   3.848   0.075  0.1347 -0.2597  0.4844
  430TMC3    O1 6474   2.444   3.517   0.017 -0.3353  0.4520 -0.6043
  430TMC3    O2 6475   2.123   3.875  17.717 -0.2289 -0.4093 -0.2170
  431MPD2     C 6476   2.878   3.539  12.774  0.1011  0.4280 -0.5568
  431MPD2    C1 6477   2.966   3.515  12.674 -0.3429  0.3096 -0.8916
  431MPD2    C2 6478   2.954   3.418  12.584 -1.3954  0.1290 -0.5269
  431MPD2    C3 6479   2.845   3.336  12.594 -0.1394 -0.1841 -0.6981
  431MPD2    C4 6480   2.746   3.362  12.691 -1.0699 -0.3761 -0.0826
  431MPD2    C5 6481   2.760   3.465  12.778 -0.3443 -0.2986  0.4675
  431MPD2     H 6482   3.039   3.415  12.516 -0.6123 -0.0143  0.4452
  431MPD2    H1 6483   2.663   3.294  12.705 -1.4971  0.2575  0.5023
  431MPD2    H2 6484   2.878   3.614  12.853 -1.3121 -1.3548  1.1300
  431MPD2    H3 6485   2.679   3.491  12.845  0.6073  0.7111  1.2348
  431MPD2     N 6486   2.826   3.222  12.516 -0.2515  0.3774 -0.6287
  431MPD2    H5 6487   2.754   3.155  12.541 -0.9071  1.3753  0.1564
  431MPD2    N1 6488   3.078   3.597  12.657 -0.1129  0.1326 -1.1401
  431MPD2    H7 6489   3.140   3.569  12.582  1.7976  2.7170 -0.5166
  432TMC3    C1 6490   2.895   3.060  12.345 -0.9164  0.2577 -0.3363
  432TMC3    C2 6491   2.960   3.052  12.221 -0.0080  0.8173 -0.2556
  432TMC3    C3 6492   3.042   2.948  12.193  0.5418  0.0429  0.1717
  432TMC3    C4 6493   2.925   2.972  12.445 -0.1305  0.3254  0.9414
  432TMC3    C5 6494   3.021   2.877  12.418  0.0324 -0.1269 -0.1808
  432TMC3    C6 6495   3.082   2.871  12.300  0.1238  0.9546 -0.2017
  432TMC3     C 6496   2.902   3.197  12.403 -0.3955  0.2515  0.4699
  432TMC3     O 6497   2.970   3.275  12.336  0.3114  0.4108  0.0520
  432TMC3     H 6498   2.937   3.123  12.142 -1.8334 -1.1868 -1.5178
  432TMC3    H1 6499   2.875   2.978  12.541  0.7661  0.7105  1.3874
  432TMC3    H2 6500   3.166   2.806  12.277 -0.0260  1.1003 -1.1648
  432TMC3    C7 6501   3.109   2.830  12.528 -0.7472 -0.4817  0.8341
  432TMC3    C8 6502   3.126   2.953  12.079  0.4352  0.3229 -0.0819
  432TMC3    O1 6503   3.194   2.745  12.505 -0.0552 -0.2317 -0.3879
  432TMC3    O2 6504   3.081   2.923  11.969  0.5494 -0.2128 -0.1559
  433MPD2     C 6505   1.790   1.906  11.015  0.3237  0.2858  0.1505
  433MPD2    C1 6506   1.874   1.805  11.064 -0.5237  0.4869 -0.1286
  433MPD2    C2 6507   1.978   1.842  11.152 -0.4677 -0.7326  0.1261
  433MPD2    C3 6508   1.988   1.974  11.197 -0.5231 -0.2354 -0.1765
  433MPD2    C4 6509   1.907   2.072  11.141  0.4315 -0.2682 -0.0382
  433MPD2    C5 6510   1.807   2.038  11.055  0.1553 -0.6495 -0.1984
  433MPD2     H 6511   2.043   1.765  11.191  1.5699  1.1925  0.5522
  433MPD2    H1 6512   1.925   2.177  11.161 -2.8603  0.3006 -0.0036
  433MPD2    H2 6513   1.708   1.885  10.947  0.1924  1.2222  0.0240
  433MPD2    H3 6514   1.724   2.102  11.029 -0.0066 -0.2705  1.2696
  433MPD2     N 6515   2.098   2.002  11.281 -0.3268  0.0714 -0.5924
  433MPD2    H5 6516   2.156   1.925  11.311 -2.1366 -0.2206  2.1813
  433MPD2    N1 6517   1.858   1.675  11.030  0.7647  1.1168 -0.2536
  433MPD2    H7 6518   1.807   1.668  10.943  0.5262 -1.3748  0.0785
  434TMC3    C1 6519   1.890   1.441  11.004 -1.2827 -0.1237  0.2835
  434TMC3    C2 6520   1.998   1.359  11.022  0.8740 -0.4028  0.0384
  434TMC3    C3 6521   1.983   1.226  11.021  0.0821 -0.0547  0.2666
  434TMC3    C4 6522   1.766   1.386  11.002  0.3961 -0.3132 -0.0373
  434TMC3    C5 6523   1.750   1.252  10.999 -0.2020 -0.6377 -0.1393
  434TMC3    C6 6524   1.857   1.173  11.007  0.4974 -0.7199  0.5709
  434TMC3     C 6525   1.907   1.558  11.088  0.4493  0.2096 -0.5930
  434TMC3     O 6526   1.982   1.556  11.182  0.7590  0.4491  0.7061
  434TMC3     H 6527   2.090   1.414  11.038  0.2901  0.9120 -1.1211
  434TMC3    H1 6528   1.687   1.451  11.039  0.8775  0.6387 -0.6876
  434TMC3    H2 6529   1.855   1.064  11.011  1.0759 -0.7703 -0.4921
  434TMC3    C7 6530   1.617   1.205  11.048 -0.2323  0.0290  0.3737
  434TMC3    C8 6531   2.082   1.151  11.090 -0.4150 -0.1233 -1.6164
  434TMC3    O1 6532   1.536   1.293  11.081  0.4290 -0.5204  0.6309
  434TMC3    O2 6533   2.052   1.054  11.162 -0.2666 -0.2645  0.2898
  435MPD2     C 6534   4.115   2.297  15.608 -0.4515 -1.1062 -0.5621
  435MPD2    C1 6535   4.088   2.314  15.742 -0.3657  1.0070 -0.2686
  435MPD2    C2 6536   4.163   2.248  15.831  0.1164  0.3141  0.2217
  435MPD2    C3 6537   4.262   2.166  15.788  0.0485  0.3203 -0.1111
  435MPD2    C4 6538   4.299   2.148  15.657 -0.1355 -0.2862  0.2899
  435MPD2    C5 6539   4.217   2.215  15.567 -0.5056 -0.1615 -0.5503
  435MPD2     H 6540   4.144   2.257  15.938  0.0143  0.0168  0.2281
  435MPD2    H1 6541   4.370   2.074  15.623  0.6080  0.6261 -0.1368
  435MPD2    H2 6542   4.058   2.342  15.528  0.4646  1.3734  0.1788
  435MPD2    H3 6543   4.228   2.206  15.460  0.6601  0.9880 -0.5153
  435MPD2     N 6544   4.344   2.113  15.893 -0.2247 -0.4061  0.4967
  435MPD2    H5 6545   4.312   2.125  15.989 -2.0737  0.5114 -0.2261
  435MPD2    N1 6546   3.985   2.398  15.785 -0.7093 -0.0966  0.1380
  435MPD2    H7 6547   3.980   2.405  15.886  0.7001 -3.3178  0.4354
  436TMC3    C1 6548   3.755   2.595  16.015  0.4811 -0.2857  0.1864
  436TMC3    C2 6549   3.849   2.576  15.922  0.5060  0.1734 -0.0777
  436TMC3    C3 6550   3.806   2.544  15.792  0.0618 -0.3379 -0.8405
  436TMC3    C4 6551   3.620   2.588  15.992 -0.0754  0.3075  0.0611
  436TMC3    C5 6552   3.579   2.556  15.869 -0.3869  0.0173  0.3395
  436TMC3    C6 6553   3.670   2.527  15.768  0.2337 -0.1298  0.4725
  436TMC3     C 6554   3.787   2.661  16.140  0.4371  0.3963 -0.7010
  436TMC3     O 6555   3.894   2.721  16.149  0.0699  0.2978 -1.0629
  436TMC3     H 6556   3.954   2.596  15.944  0.8137 -0.7657 -0.6818
  436TMC3    H1 6557   3.544   2.590  16.070  0.0272  0.5388  0.1539
  436TMC3    H2 6558   3.627   2.512  15.669  0.7921 -1.9624  0.4930
  436TMC3    C7 6559   3.445   2.504  15.848  1.4697  0.3285 -0.8122
  436TMC3    C8 6560   3.900   2.469  15.712  0.1689 -0.5785 -0.2889
  436TMC3    O1 6561   3.432   2.392  15.800  0.3621 -0.2543  0.1653
  436TMC3    O2 6562   3.868   2.451  15.592 -0.2172 -0.4124  0.2284
  437TMC3    C1 6563   2.823   4.336  12.256  0.4133  0.0113 -0.2904
  437TMC3    C2 6564   2.766   4.368  12.140 -0.1814 -0.2231  0.4444
  437TMC3    C3 6565   2.821   4.456  12.053 -0.1118 -0.4567 -0.4499
  437TMC3    C4 6566   2.935   4.406  12.304  0.3965  0.4393 -0.2025
  437TMC3    C5 6567   2.982   4.512  12.227 -0.2800 -0.3937  0.7132
  437TMC3    C6 6568   2.919   4.546  12.099  0.7278 -0.0458  0.5564
  437TMC3     C 6569   2.775   4.215  12.317 -0.3417  0.6036 -0.4380
  437TMC3     O 6570   2.662   4.168  12.294  0.0734  0.2931 -0.2743
  437TMC3     H 6571   2.671   4.319  12.120 -0.1786  0.1242 -0.4190
  437TMC3    H1 6572   2.984   4.386  12.398  0.5243 -1.5908 -0.7054
  437TMC3    H2 6573   2.948   4.630  12.038  0.2630 -0.5856 -0.4257
  437TMC3    C7 6574   3.102   4.590  12.255 -0.1650  0.1230 -0.0171
  437TMC3    C8 6575   2.725   4.522  11.967 -0.2796 -0.5893  0.2585
  437TMC3    O1 6576   3.134   4.667  12.168  0.0868  0.2401 -0.0663
  437TMC3    O2 6577   2.608   4.503  11.987 -0.4513 -0.0737 -0.2866
  438MPD2     C 6578   0.209   0.270  17.019 -0.2621 -0.1806  0.3804
  438MPD2    C1 6579   0.281   0.166  17.077  0.1780  0.2540 -0.3105
  438MPD2    C2 6580   0.286   0.158  17.216 -0.6949  0.2620  0.0607
  438MPD2    C3 6581   0.221   0.257  17.296  0.4199 -0.4511 -0.1837
  438MPD2    C4 6582   0.147   0.352  17.228 -0.6325  0.7987 -0.4768
  438MPD2    C5 6583   0.144   0.362  17.095 -0.3069  0.3878 -0.5300
  438MPD2     H 6584   0.361   0.089  17.255 -1.4747 -0.8502 -0.4034
  438MPD2    H1 6585   0.078   0.411  17.288 -0.7574  0.8662 -0.6892
  438MPD2    H2 6586   0.201   0.288  16.913 -2.8020  0.1470  0.6166
  438MPD2    H3 6587   0.095   0.449  17.052  1.9562  1.7150 -0.4619
  438MPD2     N 6588   0.238   0.265  17.433 -0.2516  0.4469  0.1057
  438MPD2    H5 6589   0.201   0.350  17.476 -0.8622 -0.4081  1.2750
  438MPD2    N1 6590   0.354   0.066  17.003 -0.1677 -0.4680 -0.7285
  438MPD2    H7 6591   0.396   4.725  17.053  0.8970 -0.7220 -2.0059
  439TMC3    C1 6592   0.433   4.683  16.818 -0.8615  0.0677  0.1357
  439TMC3    C2 6593   0.400   4.628  16.700  0.3032  0.3728 -0.0812
  439TMC3    C3 6594   0.487   4.535  16.646  0.1195  0.1485 -0.3203
  439TMC3    C4 6595   0.542   4.627  16.886 -0.5624 -0.5570  0.4609
  439TMC3    C5 6596   0.610   4.517  16.842  0.0495  0.9988 -0.0719
  439TMC3    C6 6597   0.581   4.473  16.719 -0.0227 -0.2329 -0.0306
  439TMC3     C 6598   0.355   0.053  16.865  0.2838 -0.5049 -0.2601
  439TMC3     O 6599   0.287   0.117  16.783 -0.1965 -0.0465 -0.3114
  439TMC3     H 6600   0.315   4.659  16.640  0.0810 -1.2211 -0.5991
  439TMC3    H1 6601   0.577   4.676  16.976 -0.0764 -1.3749  0.7075
  439TMC3    H2 6602   0.645   4.405  16.665  1.4171 -0.1464  1.5452
  439TMC3    C7 6603   0.709   4.453  16.931  0.3513 -0.0672 -0.1161
  439TMC3    C8 6604   0.469   4.475  16.513  0.7562  0.0799 -0.3884
  439TMC3    O1 6605   0.737   4.511  17.033 -0.8546 -0.0193 -0.5953
  439TMC3    O2 6606   0.492   4.356  16.506  0.3377  0.5907 -0.4011
  440MPD2     C 6607   3.793   0.447  14.858 -0.1729  0.3094 -0.5052
  440MPD2    C1 6608   3.805   0.503  14.982  0.8329  0.0496 -0.6580
  440MPD2    C2 6609   3.930   0.511  15.041  0.7840  0.2118 -0.6941
  440MPD2    C3 6610   4.044   0.451  14.984  0.0665 -0.0527 -0.4836
  440MPD2    C4 6611   4.027   0.396  14.857 -0.5389  0.4536 -0.6363
  440MPD2    C5 6612   3.906   0.394  14.796  0.2843 -0.6629 -0.1233
  440MPD2     H 6613   3.935   0.567  15.134  1.6843 -0.8556 -0.0941
  440MPD2    H1 6614   4.113   0.348  14.811 -0.8361 -0.5439 -0.1491
  440MPD2    H2 6615   3.700   0.441  14.803 -0.1751  0.2069 -0.4916
  440MPD2    H3 6616   3.894   0.346  14.699 -2.0841 -0.3815  0.0284
  440MPD2     N 6617   4.171   0.456  15.045  0.1386 -0.0234  0.0702
  440MPD2    H5 6618   4.239   0.390  15.008  1.3170  0.3168  1.5991
  440MPD2    N1 6619   3.690   0.560  15.051  0.2086 -0.1761 -0.6400
  440MPD2    H7 6620   3.708   0.578  15.150 -1.2173  1.1187 -0.6227
  441TMC3    C1 6621   4.323   0.509  15.225 -0.0339 -0.3884  0.7346
  441TMC3    C2 6622   4.365   0.608  15.315  0.2493  0.1675  0.4885
  441TMC3    C3 6623   4.475   0.578  15.391 -0.5659 -0.3911  0.2146
  441TMC3    C4 6624   4.377   0.389  15.216 -0.9498  0.3261  0.4397
  441TMC3    C5 6625   4.480   0.354  15.299  0.1745 -0.5978 -0.3177
  441TMC3    C6 6626   4.535   0.450  15.384  0.6167  0.1964  0.0071
  441TMC3     C 6627   4.195   0.529  15.158 -0.2304  0.2546  0.6519
  441TMC3     O 6628   4.123   0.607  15.220 -0.5529  0.1237 -0.0027
  441TMC3     H 6629   4.325   0.708  15.310  1.3883  0.5822 -0.2954
  441TMC3    H1 6630   4.321   0.307  15.175 -0.6591  0.0850  0.5232
  441TMC3    H2 6631   4.617   0.424  15.450  0.0934  0.1911  0.6534
  441TMC3    C7 6632   4.468   0.220  15.353 -0.4985 -0.4111  0.0906
  441TMC3    C8 6633   4.494   0.648  15.518 -0.6770  0.3825 -0.0742
  441TMC3    O1 6634   4.355   0.182  15.390  0.2922 -0.0352 -0.5379
  441TMC3    O2 6635   4.587   0.624  15.594 -0.1310  0.2227  0.0155
  442MPD2     C 6636   2.426   0.413  16.472  0.3360  0.9171 -0.0161
  442MPD2    C1 6637   2.306   0.378  16.531  0.1613  0.3476  0.8398
  442MPD2    C2 6638   2.255   0.246  16.516 -0.0260 -0.2428  0.5945
  442MPD2    C3 6639   2.335   0.151  16.450 -0.2054 -0.6390 -0.3215
  442MPD2    C4 6640   2.453   0.193  16.393  0.1975 -0.4838  0.6279
  442MPD2    C5 6641   2.502   0.320  16.400  0.1082 -0.0811 -0.9533
  442MPD2     H 6642   2.157   0.225  16.557  0.1594 -0.6806  0.8190
  442MPD2    H1 6643   2.519   0.122  16.345 -2.0025 -1.2635 -1.2520
  442MPD2    H2 6644   2.457   0.517  16.470 -0.6881  1.1686 -3.0552
  442MPD2    H3 6645   2.601   0.349  16.366 -0.8914  0.8472 -3.0258
  442MPD2     N 6646   2.291   0.016  16.427  0.0815  0.2587 -0.5670
  442MPD2    H5 6647   2.349   4.691  16.371  0.4674  0.4665 -0.3965
  442MPD2    N1 6648   2.228   0.468  16.600  0.8733  0.1577  0.9524
  442MPD2    H7 6649   2.150   0.422  16.647  0.9419  0.8270  1.7314
  443TMC3    C1 6650   2.140   0.677  16.696  0.0139 -0.1207  1.2860
  443TMC3    C2 6651   2.107   0.804  16.652  0.9219 -0.3411 -0.9759
  443TMC3    C3 6652   2.017   0.875  16.724  0.8413 -0.8685 -0.5482
  443TMC3    C4 6653   2.088   0.613  16.808 -0.5326  0.2320 -0.5832
  443TMC3    C5 6654   2.008   0.688  16.879 -0.1791  0.3676 -0.0702
  443TMC3    C6 6655   1.963   0.814  16.841 -0.0345 -0.0965 -0.0222
  443TMC3     C 6656   2.238   0.606  16.611 -0.3122 -0.0488 -0.2539
  443TMC3     O 6657   2.315   0.674  16.544 -0.7018  0.2082 -0.6246
  443TMC3     H 6658   2.139   0.842  16.556  0.2267  1.0140 -0.6616
  443TMC3    H1 6659   2.112   0.510  16.834  1.3569  0.6194 -0.7635
  443TMC3    H2 6660   1.882   0.861  16.895  0.7317 -0.6172  1.6000
  443TMC3    C7 6661   1.933   0.634  16.990  0.1937 -0.5266 -0.2096
  443TMC3    C8 6662   1.908   0.923  16.643 -0.2777  0.0926  0.8658
  443TMC3    O1 6663   1.888   0.523  16.975 -0.0106  0.0421  0.8086
  443TMC3    O2 6664   1.806   0.853  16.652  0.5011  0.0375 -0.0106
  444MPD2     C 6665   2.349   0.557  17.037 -0.3622  0.4564 -0.4808
  444MPD2    C1 6666   2.291   0.438  17.065 -0.1639 -0.0323  1.0273
  444MPD2    C2 6667   2.321   0.331  16.980 -0.2812  0.3587 -0.3174
  444MPD2    C3 6668   2.413   0.343  16.878  0.3952 -0.1346 -0.0221
  444MPD2    C4 6669   2.476   0.464  16.853  0.2066  0.8940 -0.3618
  444MPD2    C5 6670   2.438   0.573  16.929  0.6059  0.3236  0.0388
  444MPD2     H 6671   2.265   0.240  16.995 -0.2368  0.6287  1.5134
  444MPD2    H1 6672   2.545   0.481  16.771  0.7907 -3.5098 -0.7466
  444MPD2    H2 6673   2.332   0.654  17.083 -0.9465 -0.9674  2.2989
  444MPD2    H3 6674   2.459   0.678  16.914  0.9940  0.0818 -1.1044
  444MPD2     N 6675   2.442   0.224  16.814 -1.2459  0.1062 -0.1572
  444MPD2    H5 6676   2.391   0.145  16.854 -1.2044  0.1939  0.0709
  444MPD2    N1 6677   2.193   0.426  17.172  0.2592  0.4142 -0.1425
  444MPD2    H7 6678   2.138   0.340  17.172  0.4294  0.3028 -0.7306
  445TMC3    C1 6679   2.568   0.050  16.725  0.0654  0.3173 -0.2034
  445TMC3    C2 6680   2.459   4.703  16.760  0.7825 -0.3319  1.0461
  445TMC3    C3 6681   2.486   4.576  16.798  0.7835  0.1088  0.2558
  445TMC3    C4 6682   2.697   0.001  16.710  0.7157  0.4589  0.6601
  445TMC3    C5 6683   2.701   4.595  16.738 -0.5135 -0.1081 -0.2401
  445TMC3    C6 6684   2.599   4.512  16.777 -0.0189 -0.1067 -0.0146
  445TMC3     C 6685   2.554   0.193  16.741 -0.1759  0.0048  0.0709
  445TMC3     O 6686   2.653   0.263  16.720  0.1482 -0.8882  0.2305
  445TMC3     H 6687   2.356   4.735  16.763  0.6049 -0.8665  0.5774
  445TMC3    H1 6688   2.779   0.067  16.685  0.7599  0.6600  1.3468
  445TMC3    H2 6689   2.619   4.412  16.813  2.5592 -0.3515 -2.0879
  445TMC3    C7 6690   2.823   4.538  16.680 -0.0687  0.2238  0.0344
  445TMC3    C8 6691   2.367   4.497  16.800  0.4851  0.5254  0.6041
  445TMC3    O1 6692   2.903   4.628  16.655 -0.1639 -0.0170 -0.0469
  445TMC3    O2 6693   2.282   4.542  16.878 -0.1191 -0.1346  0.1501
  446MPD2     C 6694   1.886   1.091  11.612  0.0860  0.0776 -0.0335
  446MPD2    C1 6695   1.854   1.167  11.500 -0.2748  0.1278  0.5105
  446MPD2    C2 6696   1.946   1.251  11.440  0.2151  0.4875 -0.0383
  446MPD2    C3 6697   2.075   1.256  11.494 -0.2109  0.1450  0.3543
  446MPD2    C4 6698   2.110   1.169  11.601  0.1399 -0.2390 -0.5265
  446MPD2    C5 6699   2.015   1.087  11.654 -0.7845  0.6568 -0.1774
  446MPD2     H 6700   1.911   1.317  11.362  0.9161  2.1979  1.0893
  446MPD2    H1 6701   2.210   1.153  11.640  0.5306  3.1005 -0.2028
  446MPD2    H2 6702   1.816   1.021  11.656 -0.9084 -0.9928 -3.2754
  446MPD2    H3 6703   2.042   1.010  11.726  1.6754  2.1937  0.5242
  446MPD2     N 6704   2.167   1.350  11.435  0.0916 -0.6706  0.0864
  446MPD2    H5 6705   2.133   1.413  11.363  1.0040  0.5076  0.6843
  446MPD2    N1 6706   1.721   1.167  11.451  0.1036  0.3861 -0.2681
  446MPD2    H7 6707   1.698   1.248  11.395  0.9110  1.2183  0.5975
  447TMC3    C1 6708   2.383   1.452  11.384 -0.0610  0.9190 -0.1032
  447TMC3    C2 6709   2.342   1.574  11.337  1.0672  0.1780 -0.0161
  447TMC3    C3 6710   2.440   1.645  11.267  0.1381 -0.2893 -0.1222
  447TMC3    C4 6711   2.515   1.411  11.385  0.0658  0.2440 -1.2591
  447TMC3    C5 6712   2.610   1.489  11.319  0.2125  0.6462 -0.2524
  447TMC3    C6 6713   2.569   1.602  11.257 -0.4533 -0.8186  0.0689
  447TMC3     C 6714   2.299   1.370  11.477 -0.4396  0.3067  0.1191
  447TMC3     O 6715   2.358   1.323  11.572  0.0216 -0.8567 -0.0675
  447TMC3     H 6716   2.238   1.602  11.330  1.5046  1.8938  0.3421
  447TMC3    H1 6717   2.544   1.328  11.448 -1.4963  0.1014 -0.7341
  447TMC3    H2 6718   2.649   1.647  11.200 -0.0805 -1.1807  0.3032
  447TMC3    C7 6719   2.743   1.438  11.269 -0.1656 -1.0347  0.3944
  447TMC3    C8 6720   2.388   1.737  11.176  0.9075  0.2460  0.5812
  447TMC3    O1 6721   2.793   1.506  11.177  0.2048 -0.2019 -0.1821
  447TMC3    O2 6722   2.279   1.784  11.204  0.1076 -0.3508  0.2099
  448TMC3    C1 6723   0.075   1.711  17.098 -0.1892 -0.6738  0.3817
  448TMC3    C2 6724   0.052   1.591  17.032 -0.0998 -0.3686  0.2817
  448TMC3    C3 6725   0.090   1.477  17.095  0.5582  0.4151  0.4139
  448TMC3    C4 6726   0.136   1.716  17.220  0.4684  0.5846 -0.0438
  448TMC3    C5 6727   0.172   1.599  17.277 -0.2704 -0.0933  0.5622
  448TMC3    C6 6728   0.145   1.476  17.224  0.0511 -0.2583 -0.5154
  448TMC3     C 6729   0.035   1.835  17.040 -0.7041 -1.2105  0.0000
  448TMC3     O 6730   4.665   1.826  16.973 -0.0329 -0.0329 -0.3916
  448TMC3     H 6731   4.725   1.590  16.944 -0.4472  1.2397  0.5211
  448TMC3    H1 6732   0.136   1.803  17.285 -0.2577 -1.5366  2.8290
  448TMC3    H2 6733   0.188   1.386  17.266  0.4246 -0.7323 -1.9132
  448TMC3    C7 6734   0.204   1.613  17.417 -0.2866 -0.4422 -1.2126
  448TMC3    C8 6735   0.092   1.348  17.023 -0.1437 -0.5122 -0.0472
  448TMC3    O1 6736   0.258   1.716  17.451  0.4823 -0.2726 -0.1279
  448TMC3    O2 6737   0.131   1.250  17.083 -0.7308 -0.3118 -0.6825
  449MPD2     C 6738   2.128   3.967  13.753 -0.7693  0.4850  0.6155
  449MPD2    C1 6739   2.003   4.008  13.721 -0.0892 -0.6070 -0.7970
  449MPD2    C2 6740   1.906   3.987  13.812 -0.9092  1.5934 -0.0927
  449MPD2    C3 6741   1.917   3.928  13.933 -0.0883  0.3138  0.1796
  449MPD2    C4 6742   2.043   3.891  13.964 -0.0730 -0.1896 -0.1558
  449MPD2    C5 6743   2.145   3.906  13.876  0.6878 -0.7070 -0.2070
  449MPD2     H 6744   1.809   4.026  13.783 -1.9510 -0.9949 -0.0740
  449MPD2    H1 6745   2.065   3.841  14.058 -3.7278  1.3762  1.5364
  449MPD2    H2 6746   2.213   3.985  13.688 -0.7589 -0.6784  0.3048
  449MPD2    H3 6747   2.241   3.868  13.908  0.6260 -0.6858  0.0052
  449MPD2     N 6748   1.804   3.913  14.021  0.1500  0.0683 -0.1776
  449MPD2    H5 6749   1.719   3.965  14.001  0.7662 -0.0572 -3.1226
  449MPD2    N1 6750   1.969   4.082  13.606 -0.0501  0.3775  0.7506
  449MPD2    H7 6751   1.870   4.099  13.591 -0.2401 -0.6839  0.7484
  450TMC3    C1 6752   1.981   4.200  13.414 -0.1993 -0.5779 -0.5856
  450TMC3    C2 6753   2.012   4.326  13.401 -0.1860  0.3927  0.0379
  450TMC3    C3 6754   1.917   4.420  13.391  0.3352 -0.2733  0.3447
  450TMC3    C4 6755   1.853   4.161  13.386 -0.5238  0.8205 -0.2030
  450TMC3    C5 6756   1.751   4.255  13.392 -0.7722  0.4529  0.0337
  450TMC3    C6 6757   1.781   4.395  13.402  0.1771 -0.0069  0.2002
  450TMC3     C 6758   2.057   4.129  13.509 -0.0753  0.6385 -0.3332
  450TMC3     O 6759   2.179   4.141  13.508  0.0779  0.1097  0.0837
  450TMC3     H 6760   2.115   4.350  13.427 -0.3253  0.3046  0.6789
  450TMC3    H1 6761   1.814   4.060  13.391  0.7071  0.4678  2.2413
  450TMC3    H2 6762   1.708   4.473  13.381  0.4850  0.2390  0.0466
  450TMC3    C7 6763   1.648   4.215  13.494  0.3782  0.3290 -0.4540
  450TMC3    C8 6764   1.943   4.562  13.364  0.1379 -0.4207  0.2675
  450TMC3    O1 6765   1.685   4.127  13.570 -0.1511 -0.2132  0.1380
  450TMC3    O2 6766   1.852   4.646  13.380  0.1926 -0.3019 -0.1289
  451MPD2     C 6767   3.729   3.489   0.896  0.3098 -0.6268  0.0362
  451MPD2    C1 6768   3.712   3.606   0.816  0.2300 -0.5036 -0.2656
  451MPD2    C2 6769   3.582   3.630   0.779 -0.5761  0.3889  0.3091
  451MPD2    C3 6770   3.478   3.554   0.832  0.0079 -0.6464  0.2251
  451MPD2    C4 6771   3.503   3.456   0.929 -0.0750  0.0392  0.1757
  451MPD2    C5 6772   3.631   3.417   0.962 -0.2141 -0.2309  0.6375
  451MPD2     H 6773   3.560   3.706   0.705 -1.0843 -0.0142  0.0431
  451MPD2    H1 6774   3.422   3.391   0.961  1.2547 -2.0455 -0.6935
  451MPD2    H2 6775   3.830   3.456   0.917  0.0072 -1.6823 -0.1703
  451MPD2    H3 6776   3.652   3.331   1.024  3.8070 -1.8022 -2.9631
  451MPD2     N 6777   3.340   3.569   0.793  0.3390  0.4283  0.2990
  451MPD2    H5 6778   3.274   3.497   0.821  0.6815  0.0674  0.1902
  451MPD2    N1 6779   3.828   3.679   0.767 -0.3504 -0.0567  0.3339
  451MPD2    H7 6780   3.917   3.629   0.770  0.1651  0.7089 -2.7129
  452TMC3    C1 6781   3.180   3.616   0.614 -0.0186  0.1486  1.2448
  452TMC3    C2 6782   3.083   3.558   0.683  0.6471 -0.1555 -0.5342
  452TMC3    C3 6783   2.958   3.548   0.623  0.4436  0.6537 -0.3083
  452TMC3    C4 6784   3.164   3.664   0.483 -0.5679  0.6039  0.0802
  452TMC3    C5 6785   3.039   3.647   0.425  1.1962  0.4137 -0.4787
  452TMC3    C6 6786   2.936   3.596   0.494 -0.6011  0.3119  0.3489
  452TMC3     C 6787   3.301   3.652   0.683  0.2201  0.7760 -0.5622
  452TMC3     O 6788   3.359   3.747   0.637 -0.0881 -0.2370 -0.1947
  452TMC3     H 6789   3.101   3.528   0.786  2.9178 -1.6975 -1.3809
  452TMC3    H1 6790   3.242   3.716   0.430 -0.6004 -1.5973 -2.1429
  452TMC3    H2 6791   2.835   3.580   0.458 -0.6146  1.4135 -0.1194
  452TMC3    C7 6792   3.024   3.690   0.292  0.5757  0.0512  0.3945
  452TMC3    C8 6793   2.844   3.498   0.703 -0.1105  0.6022  0.3758
  452TMC3    O1 6794   3.128   3.701   0.226 -0.1084 -0.1324  0.3670
  452TMC3    O2 6795   2.733   3.516   0.659 -0.2327 -0.3946  0.1823
  453TMC3    C1 6796   0.005   0.742  12.426  0.6236 -0.2035 -0.2384
  453TMC3    C2 6797   4.718   0.617  12.466  0.7460 -0.0264  0.0203
  453TMC3    C3 6798   4.683   0.524  12.372  0.2171  0.0379  0.0442
  453TMC3    C4 6799   0.011   0.774  12.297 -0.5196  0.5885 -0.0772
  453TMC3    C5 6800   4.725   0.681  12.206 -0.3875 -0.2082  0.3917
  453TMC3    C6 6801   4.689   0.549  12.235 -0.0121  0.1377 -0.4858
  453TMC3     C 6802   0.031   0.846  12.526  0.3402 -1.1946 -0.5391
  453TMC3     O 6803   0.086   0.816  12.630  0.2939 -0.3557  0.2692
  453TMC3     H 6804   0.000   0.585  12.567  2.1501  0.1589 -0.1872
  453TMC3    H1 6805   0.033   0.874  12.261  0.0691  0.7134  0.6357
  453TMC3    H2 6806   4.638   0.490  12.159 -0.0045 -0.3384 -0.1257
  453TMC3    C7 6807   0.046   0.707  12.074  0.1570 -0.6024  0.4647
  453TMC3    C8 6808   4.625   0.406  12.427 -0.6948 -0.0894 -0.4036
  453TMC3    O1 6809   0.070   0.825  12.047 -0.9915  1.4047 -1.0319
  453TMC3    O2 6810   4.610   0.405  12.550  0.1678 -0.3224  0.0823
  454MPD2     C 6811   3.219   4.324  15.932 -0.1245  0.4788  0.4071
  454MPD2    C1 6812   3.118   4.388  15.867 -0.0907  0.3959 -0.4406
  454MPD2    C2 6813   3.105   4.525  15.883 -0.5510 -0.3597  0.1194
  454MPD2    C3 6814   3.206   4.597  15.949  0.3230 -0.3030  0.9936
  454MPD2    C4 6815   3.311   4.525  16.005 -0.2158  1.0833  0.5703
  454MPD2    C5 6816   3.313   4.392  16.002  0.5858  0.2949  0.1799
  454MPD2     H 6817   3.026   4.572  15.825  0.4296 -0.6076 -1.4420
  454MPD2    H1 6818   3.393   4.578  16.052 -0.3850 -0.4441  2.6064
  454MPD2    H2 6819   3.219   4.217  15.948 -0.3452  0.3514 -0.4371
  454MPD2    H3 6820   3.401   4.345  16.043 -0.0893 -1.3840 -0.3219
  454MPD2     N 6821   3.193   4.732  15.983  0.4132  0.0692  0.0179
  454MPD2    H5 6822   3.249   0.035  16.058  2.5641 -0.4440 -1.3029
  454MPD2    N1 6823   3.020   4.320  15.786  0.6459  0.7543 -0.3326
  454MPD2    H7 6824   2.960   4.380  15.731  1.3001  0.3801 -1.4513
  455TMC3    C1 6825   2.999   0.107  16.024 -0.7197 -0.5818 -0.3082
  455TMC3    C2 6826   3.040   0.147  16.146 -0.9274  0.0676 -0.1156
  455TMC3    C3 6827   2.950   0.123  16.246 -0.2112 -0.0340 -0.1602
  455TMC3    C4 6828   2.879   0.047  16.002  0.4226 -0.6686  0.4522
  455TMC3    C5 6829   2.804   0.022  16.109  0.7990 -0.3286  0.1904
  455TMC3    C6 6830   2.828   0.066  16.234 -0.1465 -0.2386  0.0044
  455TMC3     C 6831   3.097   0.074  15.922 -0.6505  0.0441  0.1703
  455TMC3     O 6832   3.051   0.057  15.805  0.0009 -0.4861 -0.1401
  455TMC3     H 6833   3.134   0.201  16.153 -2.1923  2.3908 -1.1437
  455TMC3    H1 6834   2.845   0.002  15.909 -2.4352 -0.3012  1.3258
  455TMC3    H2 6835   2.777   0.043  16.327 -2.0434 -1.1557 -1.2737
  455TMC3    C7 6836   2.775   4.619  16.118 -0.9016 -0.1553 -0.5662
  455TMC3    C8 6837   2.969   0.193  16.367 -0.5245  0.7360  0.4649
  455TMC3    O1 6838   2.658   4.594  16.128 -0.7740  0.8947 -0.5869
  455TMC3    O2 6839   2.876   0.262  16.407 -0.0913  0.5274 -0.1039
  456MPD2     C 6840   0.618   0.185  16.232 -0.9088 -0.5126  0.3489
  456MPD2    C1 6841   0.661   0.148  16.360  0.4513 -0.3975 -0.2097
  456MPD2    C2 6842   0.601   0.214  16.465  0.8080  0.1403  0.2180
  456MPD2    C3 6843   0.506   0.313  16.442  0.3443  0.0813  0.1093
  456MPD2    C4 6844   0.467   0.343  16.317 -0.0824  0.0162 -0.0491
  456MPD2    C5 6845   0.519   0.276  16.209 -0.5211  0.4837  0.0530
  456MPD2     H 6846   0.634   0.189  16.565  1.9313 -0.4470 -0.3013
  456MPD2    H1 6847   0.410   0.430  16.289  0.2427 -0.4104 -2.0407
  456MPD2    H2 6848   0.652   0.134  16.143  0.2586  0.7281  0.0879
  456MPD2    H3 6849   0.475   0.291  16.111 -1.6065  1.9900  0.7700
  456MPD2     N 6850   0.463   0.386  16.551  0.7793 -0.1983  0.3638
  456MPD2    H5 6851   0.503   0.360  16.640  2.0805 -1.0085 -0.4456
  456MPD2    N1 6852   0.756   0.044  16.371  0.5612 -0.4909  0.0614
  456MPD2    H7 6853   0.782   4.735  16.284 -1.8372 -0.7894 -0.5133
  457TMC3    C1 6854   0.344   0.550  16.678 -0.0866  0.3267 -0.5778
  457TMC3    C2 6855   0.272   0.663  16.685 -0.1980 -0.0700 -0.2283
  457TMC3    C3 6856   0.220   0.706  16.805  0.0011  0.1123  0.0054
  457TMC3    C4 6857   0.398   0.494  16.792  0.3850 -0.1906 -0.6465
  457TMC3    C5 6858   0.365   0.548  16.913  0.3794  0.6247 -0.0761
  457TMC3    C6 6859   0.263   0.643  16.918 -0.6054  0.2894 -0.6931
  457TMC3     C 6860   0.366   0.487  16.549 -0.0890  0.1961  0.1322
  457TMC3     O 6861   0.314   0.551  16.456  0.2658  0.1437 -0.0916
  457TMC3     H 6862   0.238   0.708  16.593 -1.6611  0.5572  0.6085
  457TMC3    H1 6863   0.480   0.424  16.784 -0.7988 -1.8677  2.0095
  457TMC3    H2 6864   0.231   0.686  17.012  2.4464 -1.1957  1.0364
  457TMC3    C7 6865   0.435   0.519  17.038  0.0903 -1.1263  0.3251
  457TMC3    C8 6866   0.166   0.840  16.826 -0.9144  0.4666 -0.3847
  457TMC3    O1 6867   0.520   0.432  17.028  0.7746 -0.6330 -0.4918
  457TMC3    O2 6868   0.120   0.864  16.933  0.4222  0.5728 -0.0061
  458MPD2     C 6869   3.565   4.615  12.482 -0.8353 -0.4520  0.0422
  458MPD2    C1 6870   3.485   4.530  12.559  0.7331  0.5438 -0.0067
  458MPD2    C2 6871   3.356   4.508  12.518 -0.5319  0.0868 -0.2774
  458MPD2    C3 6872   3.303   4.560  12.397  0.3246 -0.4400  0.3406
  458MPD2    C4 6873   3.380   4.655  12.336 -0.0069 -0.1062 -0.0385
  458MPD2    C5 6874   3.506   4.678  12.369  0.0458 -0.2604 -0.2063
  458MPD2     H 6875   3.297   4.443  12.582 -0.7219  1.4994  1.0140
  458MPD2    H1 6876   3.342   4.716  12.254  1.6205  2.0023  0.7447
  458MPD2    H2 6877   3.671   4.632  12.500 -0.1623 -3.0821 -1.4710
  458MPD2    H3 6878   3.558   0.018  12.313 -0.3204 -2.0817 -3.0339
  458MPD2     N 6879   3.168   4.542  12.366  1.0588 -0.1833 -0.9397
  458MPD2    H5 6880   3.112   4.484  12.428 -0.8343  0.4089 -2.1038
  458MPD2    N1 6881   3.548   4.463  12.665  0.1744  0.2984  0.0548
  458MPD2    H7 6882   3.648   4.474  12.672  0.2164 -0.4050  0.4872
  459TMC3    C1 6883   3.569   4.351  12.869 -0.0208 -0.0961  0.2172
  459TMC3    C2 6884   3.698   4.396  12.870 -0.3356 -0.1182 -0.7329
  459TMC3    C3 6885   3.776   4.383  12.979 -0.2797  0.0970 -0.8163
  459TMC3    C4 6886   3.523   4.288  12.983 -0.4991  0.2927 -0.8341
  459TMC3    C5 6887   3.615   4.266  13.082 -0.1416 -0.3435  0.3015
  459TMC3    C6 6888   3.741   4.311  13.089  0.7534  0.2276 -0.5471
  459TMC3     C 6889   3.479   4.392  12.755  0.4970 -0.0191  0.4316
  459TMC3     O 6890   3.358   4.383  12.784 -0.3838 -0.1441 -0.5769
  459TMC3     H 6891   3.734   4.467  12.797  0.5404 -0.8855 -1.0508
  459TMC3    H1 6892   3.428   4.235  12.979  0.5054 -1.5516  0.2409
  459TMC3    H2 6893   3.806   4.281  13.170  1.2083  0.8815 -0.6705
  459TMC3    C7 6894   3.577   4.176  13.188  0.3170  0.0997 -0.0554
  459TMC3    C8 6895   3.898   4.454  12.974  0.1963  0.4218 -0.2677
  459TMC3    O1 6896   3.663   4.154  13.273  0.8942  0.6716  0.6328
  459TMC3    O2 6897   3.944   4.480  12.865  0.4301 -0.2464 -0.5412
  460MPD2     C 6898   2.517   1.830  10.850  1.0861  0.0593  0.4395
  460MPD2    C1 6899   2.442   1.844  10.963  0.6054  0.7273 -0.2215
  460MPD2    C2 6900   2.347   1.948  10.966  0.2260 -0.6317 -0.4087
  460MPD2    C3 6901   2.321   2.026  10.855 -0.5023 -0.1568  0.1596
  460MPD2    C4 6902   2.396   2.004  10.741 -0.2965  0.2750  0.0443
  460MPD2    C5 6903   2.485   1.904  10.742 -0.4474  0.6902  0.4209
  460MPD2     H 6904   2.284   1.969  11.051  0.5127  1.2780 -0.6750
  460MPD2    H1 6905   2.379   2.049  10.645 -3.4249  2.8552  1.8226
  460MPD2    H2 6906   2.598   1.758  10.843  0.1100 -0.9544 -0.4336
  460MPD2    H3 6907   2.527   1.867  10.649 -2.3998  0.4022 -0.3281
  460MPD2     N 6908   2.223   2.127  10.850  0.1534 -0.0899  0.6048
  460MPD2    H5 6909   2.166   2.125  10.934  0.0417 -0.1159  0.5285
  460MPD2    N1 6910   2.471   1.754  11.067 -0.0645  0.3541 -0.0679
  460MPD2    H7 6911   2.552   1.694  11.054 -1.6551 -2.3831  2.4997
  461TMC3    C1 6912   2.048   2.227  10.753  0.2249  0.2651 -0.1780
  461TMC3    C2 6913   1.962   2.121  10.784 -0.0959  0.3167 -0.1305
  461TMC3    C3 6914   1.835   2.119  10.722  0.2290 -0.6300 -0.6870
  461TMC3    C4 6915   2.017   2.326  10.666 -0.6577  0.4501 -0.3062
  461TMC3    C5 6916   1.885   2.338  10.618  0.1745 -0.1553 -1.0074
  461TMC3    C6 6917   1.803   2.232  10.651 -0.5112  0.5561 -0.1232
  461TMC3     C 6918   2.186   2.203  10.749  0.2344  0.0196 -0.2300
  461TMC3     O 6919   2.248   2.231  10.645 -0.4970 -0.0195 -0.0874
  461TMC3     H 6920   1.994   2.032  10.836  1.1127  1.0490  0.3697
  461TMC3    H1 6921   2.099   2.388  10.633 -2.9568  3.5945 -0.1005
  461TMC3    H2 6922   1.716   2.216  10.588 -1.7753 -0.3247  1.8659
  461TMC3    C7 6923   1.839   2.436  10.521  0.6967 -0.4763  0.6343
  461TMC3    C8 6924   1.802   1.992  10.665  0.0585  0.2148  0.0323
  461TMC3    O1 6925   1.744   2.404  10.446  0.4870 -0.5939 -0.1152
  461TMC3    O2 6926   1.896   1.912  10.654  0.3139 -0.5473  0.4726
  462TMC3    C1 6927   2.260   3.126   0.787  0.0777 -0.9899  0.1497
  462TMC3    C2 6928   2.391   3.098   0.822  0.1759 -0.4942 -0.0095
  462TMC3    C3 6929   2.399   2.988   0.902 -0.3501  0.8750  0.7480
  462TMC3    C4 6930   2.157   3.035   0.795 -0.2507 -0.3510  0.7750
  462TMC3    C5 6931   2.168   2.929   0.881  0.1014 -0.6410 -0.8398
  462TMC3    C6 6932   2.288   2.913   0.944 -0.7294  0.7507 -0.1636
  462TMC3     C 6933   2.231   3.255   0.743 -0.2446 -0.3347 -0.1027
  462TMC3     O 6934   2.335   3.326   0.731 -0.6853  0.2751 -0.2792
  462TMC3     H 6935   2.474   3.166   0.816 -1.5816  1.5035 -1.6599
  462TMC3    H1 6936   2.067   3.042   0.736  0.5784  2.2429 -0.1731
  462TMC3    H2 6937   2.310   2.822   0.999 -0.0020  1.3092  0.4695
  462TMC3    C7 6938   2.115   2.803   0.837 -0.4041 -0.6657  0.1476
  462TMC3    C8 6939   2.527   2.933   0.932 -0.3205  0.1932  0.2872
  462TMC3    O1 6940   2.191   2.719   0.791  0.3437  0.1679  0.1900
  462TMC3    O2 6941   2.549   2.875   1.035  0.5686  0.5294  0.2881
  463MPD2     C 6942   3.650   2.135   1.873 -0.2946 -0.1851 -0.7674
  463MPD2    C1 6943   3.664   2.020   1.796  0.3304  0.3850  0.4990
  463MPD2    C2 6944   3.781   1.946   1.796 -0.5561  0.2462  0.2018
  463MPD2    C3 6945   3.891   1.988   1.866 -0.5966  0.4329  0.5175
  463MPD2    C4 6946   3.876   2.102   1.945  0.1928  0.4394  0.3207
  463MPD2    C5 6947   3.756   2.166   1.948 -0.5551 -0.3237 -0.7400
  463MPD2     H 6948   3.788   1.863   1.726  0.7773  0.3793  0.1852
  463MPD2    H1 6949   3.952   2.134   2.016  1.8562 -1.5054 -0.5788
  463MPD2    H2 6950   3.557   2.188   1.886 -1.0068 -1.1780 -1.8124
  463MPD2    H3 6951   3.744   2.248   2.018  1.4350  0.0058 -0.7801
  463MPD2     N 6952   4.023   1.945   1.845 -0.0578  0.1025  0.2091
  463MPD2    H5 6953   4.096   1.977   1.907 -0.1763 -0.8991  0.8630
  463MPD2    N1 6954   3.555   1.963   1.711  0.3915  0.1745  0.9609
  463MPD2    H7 6955   3.566   1.880   1.654 -0.9949 -0.0497  1.0279
  464TMC3    C1 6956   3.349   1.966   1.594  0.2449  0.4744  0.1550
  464TMC3    C2 6957   3.247   2.043   1.538 -0.2961 -0.5782 -0.3605
  464TMC3    C3 6958   3.164   1.972   1.457 -0.3695 -0.1111 -0.7622
  464TMC3    C4 6959   3.372   1.837   1.580  0.1953 -0.2163  0.3770
  464TMC3    C5 6960   3.283   1.767   1.500  0.2982 -0.5323 -0.4309
  464TMC3    C6 6961   3.179   1.838   1.436 -0.5137 -0.1598 -0.7476
  464TMC3     C 6962   3.437   2.036   1.686  0.1040 -0.0446  0.4577
  464TMC3     O 6963   3.385   2.139   1.733 -0.4132 -0.3889  0.2910
  464TMC3     H 6964   3.236   2.145   1.573  0.9180  0.1216 -1.9990
  464TMC3    H1 6965   3.444   1.783   1.641 -0.9372 -0.3505  1.5878
  464TMC3    H2 6966   3.100   1.790   1.379 -0.0824 -0.5307 -1.0374
  464TMC3    C7 6967   3.285   1.622   1.520 -0.1095 -0.5593 -0.4978
  464TMC3    C8 6968   3.037   2.035   1.417  0.7701  0.4821  0.2337
  464TMC3    O1 6969   3.375   1.577   1.592 -0.1661  0.2509 -0.2698
  464TMC3    O2 6970   2.980   1.984   1.323  0.2953  0.3622 -0.2713
  465MPD2     C 6971   4.496   1.116  17.223  0.8190  0.7076 -0.2576
  465MPD2    C1 6972   4.494   0.982  17.248 -0.0283 -0.5796  0.1089
  465MPD2    C2 6973   4.508   0.897  17.143  0.4549 -0.0684  0.2038
  465MPD2    C3 6974   4.527   0.934  17.014 -0.0140 -0.1974 -0.1476
  465MPD2    C4 6975   4.525   1.069  16.989 -0.8432  0.5013 -0.3290
  465MPD2    C5 6976   4.502   1.159  17.092 -0.2521 -0.2011  0.4544
  465MPD2     H 6977   4.509   0.792  17.171 -3.8731  0.2917  1.7218
  465MPD2    H1 6978   4.547   1.108  16.891 -0.1385 -1.9720 -1.1662
  465MPD2    H2 6979   4.474   1.195  17.294 -1.0375 -0.6760  0.6907
  465MPD2    H3 6980   4.504   1.265  17.074 -0.2549 -0.2172  0.3571
  465MPD2     N 6981   4.548   0.841  16.910 -0.1643 -0.1648 -0.0636
  465MPD2    H5 6982   4.561   0.749  16.951  0.9456 -0.0964 -0.2613
  465MPD2    N1 6983   4.485   0.927  17.375  0.5412  0.6116 -0.6946
  465MPD2    H7 6984   4.480   0.826  17.380  2.0217  0.6484  1.4488
  466TMC3    C1 6985   4.651   0.536  16.662  0.0838 -0.5261 -0.4123
  466TMC3    C2 6986   4.608   0.533  16.539  0.3269  0.4785  0.4902
  466TMC3    C3 6987   4.536   0.637  16.487 -0.2370 -0.4081 -0.5927
  466TMC3    C4 6988   4.631   0.648  16.740 -0.6363 -0.3348 -0.1649
  466TMC3    C5 6989   4.569   0.756  16.683  0.3617 -0.6168  0.3176
  466TMC3    C6 6990   4.524   0.756  16.557  0.2897 -0.4143 -1.3499
  466TMC3     C 6991   4.601   0.418  16.732 -0.0654  0.0374  0.7748
  466TMC3     O 6992   4.650   0.413  16.846  0.3428 -0.1752 -0.2463
  466TMC3     H 6993   4.619   0.441  16.483  0.3595 -1.8139  4.2068
  466TMC3    H1 6994   4.664   0.642  16.844  0.1106 -1.5278 -0.4676
  466TMC3    H2 6995   4.480   0.846  16.515 -0.6719 -0.7572 -1.0807
  466TMC3    C7 6996   4.524   0.864  16.775  0.0325 -0.8212  0.3255
  466TMC3    C8 6997   4.409   0.587  16.426  0.0021  0.1061  0.5739
  466TMC3    O1 6998   4.464   0.959  16.729  0.8571 -0.0210 -0.2378
  466TMC3    O2 6999   4.411   0.464  16.400 -0.6472 -0.0620  0.1261
  467TMC3    C1 7000   0.617   3.385  14.054 -0.2197 -0.2994 -0.1922
  467TMC3    C2 7001   0.542   3.453  13.965 -0.5411  0.4814  0.9260
  467TMC3    C3 7002   0.416   3.419  13.928  0.0324  0.0786 -0.2770
  467TMC3    C4 7003   0.575   3.269  14.112 -0.5808 -0.0131  0.0530
  467TMC3    C5 7004   0.452   3.227  14.061 -0.2415 -0.6685 -0.0638
  467TMC3    C6 7005   0.373   3.294  13.968  0.3543 -1.4075  0.3069
  467TMC3     C 7006   0.765   3.410  14.066 -0.0590 -0.3517  0.1297
  467TMC3     O 7007   0.843   3.317  14.081 -0.1005 -0.1091 -0.2824
  467TMC3     H 7008   0.602   3.524  13.909 -1.3402 -1.0301 -1.8456
  467TMC3    H1 7009   0.624   3.226  14.198 -0.2560 -1.0010 -0.6298
  467TMC3    H2 7010   0.283   3.260  13.919  0.3557 -0.4558 -0.3637
  467TMC3    C7 7011   0.402   3.108  14.114  0.2015  0.5289 -0.5171
  467TMC3    C8 7012   0.367   3.471  13.801 -0.0338 -0.4793 -0.5505
  467TMC3    O1 7013   0.486   3.037  14.172 -0.5331  0.2717  0.3520
  467TMC3    O2 7014   0.305   3.393  13.730  0.7050  0.4027 -0.2898
  468MPD2     C 7015   3.936   1.607  11.096 -0.2415  0.4235  0.5606
  468MPD2    C1 7016   4.073   1.563  11.097  0.0067  0.1593  0.7475
  468MPD2    C2 7017   4.093   1.428  11.076  0.3937  1.5043 -0.6544
  468MPD2    C3 7018   3.992   1.339  11.046  0.7853 -0.0398  0.2052
  468MPD2    C4 7019   3.861   1.383  11.054 -0.1258 -0.6697 -0.2461
  468MPD2    C5 7020   3.836   1.516  11.082 -0.3984 -0.1800 -0.3634
  468MPD2     H 7021   4.192   1.386  11.076 -0.1070  0.3300 -0.2993
  468MPD2    H1 7022   3.783   1.309  11.040  0.9765 -2.0677  0.9543
  468MPD2    H2 7023   3.908   1.706  11.130  0.0610  0.0244  1.9679
  468MPD2    H3 7024   3.733   1.549  11.086 -0.8847 -1.5103 -1.9804
  468MPD2     N 7025   4.015   1.200  11.020 -0.2648  0.2961 -0.2448
  468MPD2    H5 7026   3.936   1.136  11.028  0.2646 -0.4016 -0.5334
  468MPD2    N1 7027   4.181   1.643  11.133 -0.5718  0.1649 -0.4274
  468MPD2    H7 7028   4.267   1.591  11.151 -1.7327 -1.9230 -0.9123
  469TMC3    C1 7029   4.288   1.831  11.244  0.1707  0.3750 -0.3316
  469TMC3    C2 7030   4.401   1.758  11.250 -0.0541 -0.8442  0.1741
  469TMC3    C3 7031   4.477   1.770  11.360  0.2598 -0.5792  0.1350
  469TMC3    C4 7032   4.257   1.923  11.339  0.1730  0.1594  0.6946
  469TMC3    C5 7033   4.338   1.930  11.451 -0.4188 -0.2404 -0.2312
  469TMC3    C6 7034   4.443   1.843  11.471 -0.2255 -0.5802 -0.0064
  469TMC3     C 7035   4.170   1.775  11.169 -0.3503  0.0279 -0.1519
  469TMC3     O 7036   4.076   1.849  11.153  0.6020 -0.1210 -0.2524
  469TMC3     H 7037   4.428   1.698  11.163  3.0875  0.2813  0.3664
  469TMC3    H1 7038   4.178   1.993  11.316  0.6822  0.5157  0.0176
  469TMC3    H2 7039   4.505   1.844  11.560  1.1684 -0.8522 -0.9639
  469TMC3    C7 7040   4.295   2.023  11.550  0.1816  0.2901  0.0340
  469TMC3    C8 7041   4.610   1.713  11.362 -0.0371 -0.6260 -0.5366
  469TMC3    O1 7042   4.191   2.075  11.529  0.0634  0.3440  0.2930
  469TMC3    O2 7043   4.628   1.624  11.283  0.3657  0.8379 -0.2897
  470TMC3    C1 7044   1.767   3.026   1.526 -0.3122 -0.0897  0.3321
  470TMC3    C2 7045   1.818   3.154   1.522 -1.1734  0.0067 -0.1800
  470TMC3    C3 7046   1.957   3.165   1.546 -0.0208  0.0952  0.8183
  470TMC3    C4 7047   1.844   2.917   1.551  0.2355  0.3226  0.1154
  470TMC3    C5 7048   1.976   2.930   1.572 -0.3774 -0.5877 -0.3167
  470TMC3    C6 7049   2.036   3.054   1.561 -0.2793 -0.3923 -0.1684
  470TMC3     C 7050   1.633   3.002   1.475 -0.0901  0.4576  0.3318
  470TMC3     O 7051   1.561   3.100   1.459 -0.4560  0.3667  0.0956
  470TMC3     H 7052   1.756   3.240   1.502 -1.4955 -0.1664  0.0681
  470TMC3    H1 7053   1.798   2.822   1.573  2.7126 -0.8412  0.2816
  470TMC3    H2 7054   2.144   3.054   1.571 -0.3856  0.6593  0.9200
  470TMC3    C7 7055   2.035   2.855   1.684 -0.3883 -0.0681 -0.3972
  470TMC3    C8 7056   2.041   3.286   1.548 -0.3850 -0.4689  0.0093
  470TMC3    O1 7057   2.138   2.898   1.726 -0.1880  0.3684  0.1084
  470TMC3    O2 7058   2.164   3.273   1.552 -0.1714  0.5748 -0.7158
  471MPD2     C 7059   1.622   3.859  17.547 -0.0228 -0.1647  1.0460
  471MPD2    C1 7060   1.748   3.847  17.504 -0.1320  0.4029  0.3963
  471MPD2    C2 7061   1.852   3.836  17.592  0.3347 -0.9532  0.8776
  471MPD2    C3 7062   1.832   3.827  17.728 -0.9596 -0.3757 -0.1420
  471MPD2    C4 7063   1.699   3.829   0.023  0.0428 -0.0889  0.0158
  471MPD2    C5 7064   1.598   3.862  17.683 -0.2982  1.2849  0.5568
  471MPD2     H 7065   1.952   3.819  17.553  0.2443 -0.0975  0.2905
  471MPD2    H1 7066   1.672   3.818   0.128 -1.8567  1.1662 -0.3472
  471MPD2    H2 7067   1.543   3.881  17.476  2.5800  0.5182 -1.6083
  471MPD2    H3 7068   1.495   3.868  17.716  0.2350  2.4588  2.0026
  471MPD2     N 7069   1.929   3.813   0.093 -0.3558  0.6092 -0.4714
  471MPD2    H5 7070   1.907   3.769   0.181  0.5166  2.2173  0.5426
  471MPD2    N1 7071   1.761   3.868  17.363  0.1239 -0.7425  0.5224
  471MPD2    H7 7072   1.674   3.863  17.311  1.5364 -0.4796 -1.8823
  472TMC3    C1 7073   1.867   3.894  17.148  0.0429 -0.1982  0.3494
  472TMC3    C2 7074   1.745   3.876  17.092  0.8761 -0.1995  0.9829
  472TMC3    C3 7075   1.736   3.890  16.952 -0.2771 -0.6412 -0.8464
  472TMC3    C4 7076   1.983   3.907  17.080  0.3631  0.3963 -0.0212
  472TMC3    C5 7077   1.974   3.906  16.947 -0.3153  0.4690 -0.2896
  472TMC3    C6 7078   1.851   3.913  16.878  0.2224  0.1778  0.0833
  472TMC3     C 7079   1.877   3.893  17.297 -0.4388  0.3087  0.5412
  472TMC3     O 7080   1.990   3.915  17.340 -0.0738  0.0348 -0.0179
  472TMC3     H 7081   1.655   3.850  17.146  0.6531 -0.2355  0.5915
  472TMC3    H1 7082   2.081   3.905  17.127  0.5310  0.8119 -0.3524
  472TMC3    H2 7083   1.859   3.905  16.771 -1.8139  2.6897 -0.2514
  472TMC3    C7 7084   2.063   3.808  16.894  0.3256 -0.6686  0.6517
  472TMC3    C8 7085   1.644   3.808  16.881 -0.2235  0.1462 -0.4786
  472TMC3    O1 7086   2.155   3.771  16.967  0.1727  0.5212  0.0641
  472TMC3    O2 7087   1.619   3.700  16.932 -0.6315 -0.6714 -0.7253
  473MPD2     C 7088   2.223   0.733  13.926 -0.1818 -0.7350 -0.3546
  473MPD2    C1 7089   2.204   0.849  13.854  0.6451  0.5218 -1.0272
  473MPD2    C2 7090   2.212   0.974  13.913 -0.0761  0.3895  0.9208
  473MPD2    C3 7091   2.258   0.982  14.045  0.6242  1.4040  0.5293
  473MPD2    C4 7092   2.284   0.864  14.117  0.2347  0.4228  0.3501
  473MPD2    C5 7093   2.271   0.743  14.058 -0.1015  0.1162  0.6705
  473MPD2     H 7094   2.181   1.061  13.856 -0.2241 -0.2403  0.0305
  473MPD2    H1 7095   2.332   0.871  14.214 -0.6464 -0.4897  0.8613
  473MPD2    H2 7096   2.211   0.635  13.881  0.4401 -1.0238  0.1013
  473MPD2    H3 7097   2.301   0.650  14.104 -0.4486 -0.2402  0.1720
  473MPD2     N 7098   2.275   1.106  14.111  0.4601  0.0174 -0.2269
  473MPD2    H5 7099   2.305   1.109  14.208 -1.4554 -0.8690  0.3909
  473MPD2    N1 7100   2.138   0.836  13.730 -0.5524 -0.0427 -0.0017
  473MPD2    H7 7101   2.094   0.920  13.693  1.1975  0.3764 -1.1225
  474TMC3    C1 7102   2.266   1.335  14.153 -0.0401  0.3603  0.4571
  474TMC3    C2 7103   2.205   1.455  14.140  0.1011  0.0400 -0.5479
  474TMC3    C3 7104   2.237   1.554  14.232  0.0194  0.1896 -0.2567
  474TMC3    C4 7105   2.374   1.318  14.228 -0.1491 -0.4647 -0.1593
  474TMC3    C5 7106   2.400   1.421  14.316 -0.7061  0.3881  0.0133
  474TMC3    C6 7107   2.337   1.542  14.325  0.7571  0.3955 -0.5495
  474TMC3     C 7108   2.237   1.224  14.059 -0.5039 -0.4978  0.5278
  474TMC3     O 7109   2.155   1.251  13.970  0.2856 -0.1174  0.0669
  474TMC3     H 7110   2.125   1.471  14.068  1.0420  0.2440 -1.5306
  474TMC3    H1 7111   2.439   1.233  14.214  0.6856  0.3205 -1.0731
  474TMC3    H2 7112   2.377   1.616  14.393 -0.9187  0.8110 -0.0138
  474TMC3    C7 7113   2.522   1.393  14.391 -0.7520 -0.2297  0.0748
  474TMC3    C8 7114   2.127   1.638  14.254 -0.5834 -0.1676 -0.1213
  474TMC3    O1 7115   2.610   1.338  14.329  0.1030 -0.0966  0.2251
  474TMC3    O2 7116   2.022   1.606  14.203  0.5148 -0.1685  0.1762
  475MPD2     C 7117   4.298   3.941  11.290  0.7346 -0.4877 -0.7206
  475MPD2    C1 7118   4.328   4.017  11.170  0.0898  0.0314  0.2641
  475MPD2    C2 7119   4.235   4.097  11.113 -0.1463 -0.1374 -0.8594
  475MPD2    C3 7120   4.109   4.102  11.171 -0.2302  0.0855 -0.0945
  475MPD2    C4 7121   4.076   4.016  11.264 -0.9055  0.3791 -0.0036
  475MPD2    C5 7122   4.166   3.936  11.317 -0.3123  0.1104 -0.2032
  475MPD2     H 7123   4.255   4.171  11.036 -1.6931  2.0071  0.8039
  475MPD2    H1 7124   3.981   4.013  11.317 -0.2653 -1.9242  1.0134
  475MPD2    H2 7125   4.369   3.875  11.337  1.6434  1.0804  0.1249
  475MPD2    H3 7126   4.136   3.864  11.392  0.2369 -0.0125 -0.0963
  475MPD2     N 7127   4.025   4.212  11.144  0.0980 -0.3158  0.3555
  475MPD2    H5 7128   4.059   4.287  11.085  1.3367 -2.2463 -1.3731
  475MPD2    N1 7129   4.464   4.018  11.128  0.6104  0.2200 -0.0535
  475MPD2    H7 7130   4.524   3.964  11.189  0.2582 -0.7461 -0.5619
  476TMC3    C1 7131   4.661   4.090  11.039 -0.2185 -0.9558 -0.0643
  476TMC3    C2 7132   4.727   4.118  10.925  0.3713  0.0707  0.5683
  476TMC3    C3 7133   0.097   4.205  10.937 -0.4297 -0.4441  0.3908
  476TMC3    C4 7134   4.687   4.156  11.154 -0.1849 -0.2759  0.4299
  476TMC3    C5 7135   0.054   4.232  11.160 -0.0571 -0.4676 -0.1493
  476TMC3    C6 7136   0.142   4.255  11.060  0.2038  0.1543 -0.1372
  476TMC3     C 7137   4.521   4.069  11.010  0.1522 -0.2313 -0.5031
  476TMC3     O 7138   4.464   4.114  10.911  0.3639  0.4596  0.1143
  476TMC3     H 7139   4.703   4.070  10.831  2.1306 -1.3610  0.8301
  476TMC3    H1 7140   4.630   4.144  11.245 -0.2781 -1.4334  0.2208
  476TMC3    H2 7141   0.222   4.327  11.075  1.1691 -0.5884 -1.7093
  476TMC3    C7 7142   0.055   4.327  11.274 -0.3172  0.6548 -0.4542
  476TMC3    C8 7143   0.183   4.237  10.823  0.3677 -0.4827  0.0100
  476TMC3    O1 7144   0.007   4.282  11.375 -1.0555  0.2506 -0.0155
  476TMC3    O2 7145   0.276   4.313  10.843 -0.3852 -0.3426  0.2620
  477MPD2     C 7146   2.936   0.621  11.897 -0.3385 -0.4870  1.0205
  477MPD2    C1 7147   2.830   0.660  11.982  0.5795  0.7413  1.2224
  477MPD2    C2 7148   2.851   0.661  12.120 -0.0719 -0.3354 -0.6673
  477MPD2    C3 7149   2.977   0.621  12.168  0.7385 -0.0882  0.1385
  477MPD2    C4 7150   3.072   0.583  12.081  0.1889 -0.1877 -0.5032
  477MPD2    C5 7151   3.046   0.577  11.949  0.0125  0.5695 -0.4007
  477MPD2     H 7152   2.776   0.696  12.190  0.4188 -1.7665  0.5613
  477MPD2    H1 7153   3.166   0.542  12.116  0.5925  0.6947 -0.5787
  477MPD2    H2 7154   2.921   0.632  11.790  1.1293 -2.8772  0.5521
  477MPD2    H3 7155   3.123   0.540  11.883  0.8803  0.0991  0.8816
  477MPD2     N 7156   3.005   0.628  12.311  0.7019  0.0613 -0.4415
  477MPD2    H5 7157   2.924   0.641  12.369  0.7972  0.0265 -0.3002
  477MPD2    N1 7158   2.719   0.718  11.917  0.2373 -0.0452 -0.1595
  477MPD2    H7 7159   2.721   0.728  11.816 -2.3118  3.5742  0.1709
  478TMC3    C1 7160   2.539   0.866  11.887  0.8889 -0.3424  0.1884
  478TMC3    C2 7161   2.499   0.985  11.948 -0.5292 -0.1480 -0.0697
  478TMC3    C3 7162   2.495   1.100  11.873  0.5758  0.6516  0.1876
  478TMC3    C4 7163   2.566   0.862  11.749 -0.0470 -0.5024 -0.1481
  478TMC3    C5 7164   2.538   0.973  11.681 -0.4283  0.0678  0.2609
  478TMC3    C6 7165   2.495   1.090  11.736  0.1972  0.1484 -0.1043
  478TMC3     C 7166   2.608   0.772  11.976  0.3265  0.1504 -0.6722
  478TMC3     O 7167   2.578   0.767  12.092 -0.4469 -0.2060 -0.6584
  478TMC3     H 7168   2.513   0.988  12.056 -0.7851  1.1861 -0.0771
  478TMC3    H1 7169   2.577   0.768  11.696  2.4480  0.6076 -1.6286
  478TMC3    H2 7170   2.504   1.178  11.674 -1.8158  1.0645  0.9148
  478TMC3    C7 7171   2.553   0.979  11.534  0.4602 -0.0943  0.1867
  478TMC3    C8 7172   2.473   1.228  11.936 -0.4618  0.4544 -0.6652
  478TMC3    O1 7173   2.642   0.915  11.483  0.2687  0.1009 -0.1819
  478TMC3    O2 7174   2.454   1.224  12.060  0.2536 -0.1613 -0.0529
  479MPD2     C 7175   2.083   3.272  15.492 -0.0370 -0.1078  0.6244
  479MPD2    C1 7176   2.008   3.223  15.596  0.4788  0.5779 -0.2521
  479MPD2    C2 7177   2.017   3.288  15.719 -0.0935 -0.6125  0.1921
  479MPD2    C3 7178   2.092   3.406  15.726 -0.7382  0.0352  0.3371
  479MPD2    C4 7179   2.166   3.451  15.624 -0.2972  0.6759 -0.0108
  479MPD2    C5 7180   2.169   3.373  15.505 -0.1808  0.2601  0.4030
  479MPD2     H 7181   1.954   3.261  15.803  0.6107  0.3847  1.0441
  479MPD2    H1 7182   2.228   3.540  15.630 -0.6472  0.8951  0.4304
  479MPD2    H2 7183   2.064   3.243  15.390  1.7288 -1.0772  0.5680
  479MPD2    H3 7184   2.227   3.411  15.421  0.1668  2.4661  1.6370
  479MPD2     N 7185   2.106   3.489  15.842 -0.8082  0.2710  0.1586
  479MPD2    H5 7186   2.170   3.567  15.836 -0.0150 -0.2939  1.3976
  479MPD2    N1 7187   1.909   3.125  15.569 -0.3940  0.4988 -0.1329
  479MPD2    H7 7188   1.914   3.085  15.476 -1.3455 -0.5425  0.2645
  480TMC3    C1 7189   1.697   3.402  16.072 -0.7477 -0.0227  0.2299
  480TMC3    C2 7190   1.621   3.381  15.958  0.1325 -0.5042  0.6200
  480TMC3    C3 7191   1.679   3.413  15.840 -0.0605  0.6816  0.8848
  480TMC3    C4 7192   1.826   3.448  16.071 -0.8050  0.3151 -0.0078
  480TMC3    C5 7193   1.885   3.478  15.951 -0.4382 -0.5495 -0.7609
  480TMC3    C6 7194   1.812   3.466  15.831 -0.6150  0.3395 -0.1437
  480TMC3     C 7195   1.676   3.307  16.180  0.1796  0.2619 -0.2947
  480TMC3     O 7196   1.778   3.269  16.235  0.1431  0.0427  0.1873
  480TMC3     H 7197   1.522   3.337  15.966  0.8104 -2.2809 -0.9549
  480TMC3    H1 7198   1.881   3.467  16.162  1.0702 -1.4058 -0.7777
  480TMC3    H2 7199   1.857   3.506  15.740 -2.2802 -0.2704 -1.2273
  480TMC3    C7 7200   2.031   3.494  15.957 -0.4977 -0.0080 -0.4190
  480TMC3    C8 7201   1.617   3.363  15.723 -0.1204 -0.9764 -0.3206
  480TMC3    O1 7202   2.059   3.553  16.057 -0.0863 -0.2862 -0.9636
  480TMC3    O2 7203   1.510   3.306  15.743  0.7051 -0.1712  0.0276
  481MPD2     C 7204   3.433   2.862  14.441  0.5212 -0.2934  0.1235
  481MPD2    C1 7205   3.330   2.785  14.477 -0.2690  0.5843 -1.5198
  481MPD2    C2 7206   3.337   2.718  14.603  0.4127  0.1663 -0.5673
  481MPD2    C3 7207   3.447   2.706  14.681  0.5176  0.1593 -0.1116
  481MPD2    C4 7208   3.558   2.770  14.632 -0.5375 -0.0638 -0.4447
  481MPD2    C5 7209   3.548   2.847  14.521 -0.0508 -0.5289  0.6656
  481MPD2     H 7210   3.250   2.662  14.633 -0.0653  0.1346 -2.0108
  481MPD2    H1 7211   3.654   2.765  14.683 -1.3303  0.0598  1.0471
  481MPD2    H2 7212   3.440   2.909  14.344  0.3546 -1.2605 -0.3517
  481MPD2    H3 7213   3.636   2.903  14.491 -0.2573 -0.3439  0.4050
  481MPD2     N 7214   3.450   2.632  14.801 -0.2843 -0.8886 -0.1856
  481MPD2    H5 7215   3.542   2.615  14.841 -0.4699 -2.3377 -0.4009
  481MPD2    N1 7216   3.214   2.778  14.396  0.3956 -0.3088 -0.0469
  481MPD2    H7 7217   3.208   2.839  14.315 -0.9727 -2.8402 -1.8529
  482TMC3    C1 7218   2.997   2.720  14.337  1.0705 -0.0436 -0.6520
  482TMC3    C2 7219   2.895   2.630  14.336 -0.0773  0.4426  0.1319
  482TMC3    C3 7220   2.782   2.664  14.265 -0.3376  0.1424 -0.3022
  482TMC3    C4 7221   2.974   2.846  14.292  0.6683 -0.5987  0.3856
  482TMC3    C5 7222   2.860   2.879  14.220  0.2725 -0.3616 -0.2374
  482TMC3    C6 7223   2.767   2.779  14.204  0.1028 -0.2697 -0.4755
  482TMC3     C 7224   3.123   2.683  14.406  0.4356 -0.6442  0.1733
  482TMC3     O 7225   3.128   2.572  14.458 -0.4896 -0.0840  0.0655
  482TMC3     H 7226   2.906   2.533  14.383  1.0366 -0.0226 -1.0751
  482TMC3    H1 7227   3.036   2.928  14.326  0.0369 -0.0600  0.2538
  482TMC3    H2 7228   2.673   2.797  14.153 -0.1350 -0.7974 -0.2271
  482TMC3    C7 7229   2.855   2.980  14.116 -0.2509  0.7069 -0.3252
  482TMC3    C8 7230   2.713   2.542  14.220  0.2961  0.7626 -0.0271
  482TMC3    O1 7231   2.957   3.001  14.053  0.1956  0.2822 -0.4296
  482TMC3    O2 7232   2.742   2.440  14.275 -0.4187 -0.0531  0.9896
  483TMC3    C1 7233   1.748   2.149   1.384 -0.2750  0.5082  0.1802
  483TMC3    C2 7234   1.861   2.211   1.342  0.8047  0.6215  0.3589
  483TMC3    C3 7235   1.985   2.169   1.380  0.1065 -0.3901 -0.0440
  483TMC3    C4 7236   1.752   2.021   1.440 -0.0772  0.7141  0.1229
  483TMC3    C5 7237   1.880   1.976   1.471  0.8691 -0.3757 -0.0995
  483TMC3    C6 7238   1.993   2.050   1.449 -0.5366 -0.8676 -0.1132
  483TMC3     C 7239   1.626   2.196   1.334  0.2781  0.3085 -0.3651
  483TMC3     O 7240   1.619   2.315   1.317  0.2014 -1.1244  0.8501
  483TMC3     H 7241   1.853   2.291   1.268 -2.3408 -0.3476 -0.3424
  483TMC3    H1 7242   1.666   1.985   1.495  0.3450 -1.2381 -0.5212
  483TMC3    H2 7243   2.091   2.010   1.472 -0.1885 -0.5109 -0.9809
  483TMC3    C7 7244   1.898   1.836   1.457  0.5183 -0.0605  0.6068
  483TMC3    C8 7245   2.066   2.156   1.259 -0.5068  0.4140  0.1083
  483TMC3    O1 7246   2.015   1.801   1.458 -0.5602  0.2990 -0.1430
  483TMC3    O2 7247   2.035   2.228   1.163  0.2452  0.5730 -0.2311
  484MPD2     C 7248   4.120   4.540  13.244  0.3627 -0.2707 -0.1341
  484MPD2    C1 7249   4.087   4.486  13.120  0.3204  0.0436 -0.1671
  484MPD2    C2 7250   4.185   4.437  13.036 -0.4873 -0.0345  0.2858
  484MPD2    C3 7251   4.317   4.451  13.061 -0.0524 -0.6940  0.5583
  484MPD2    C4 7252   4.355   4.513  13.181 -0.8247 -0.9103 -0.4137
  484MPD2    C5 7253   4.256   4.562  13.266 -0.1984 -0.3841  0.5067
  484MPD2     H 7254   4.147   4.405  12.940 -0.4449  1.9673 -0.3965
  484MPD2    H1 7255   4.454   4.520  13.225  0.1006 -4.4511 -1.9263
  484MPD2    H2 7256   4.049   4.573  13.319  2.7845 -0.9219  2.4471
  484MPD2    H3 7257   4.278   4.583  13.370  1.3353 -0.7323  0.2592
  484MPD2     N 7258   4.418   4.422  12.969  0.2632 -0.4602  0.5971
  484MPD2    H5 7259   4.511   4.455  12.992 -0.4887  1.6667  0.6856
  484MPD2    N1 7260   3.947   4.472  13.095 -0.2278 -0.4926  0.0641
  484MPD2    H7 7261   3.890   4.464  13.179 -0.1198  0.3609  0.2248
  485TMC3    C1 7262   4.505   4.393  12.759 -0.0732  0.5264  0.1381
  485TMC3    C2 7263   4.635   4.393  12.789  0.0362 -0.9088 -0.1311
  485TMC3    C3 7264   4.715   4.424  12.681 -0.5122  0.1781 -0.1630
  485TMC3    C4 7265   4.458   4.435  12.635  0.0114 -0.0360  0.0305
  485TMC3    C5 7266   4.538   4.481  12.539 -0.1918  0.1848 -0.2464
  485TMC3    C6 7267   4.673   4.487  12.568 -0.5425  0.6620 -0.0206
  485TMC3     C 7268   4.398   4.356  12.847  0.5329 -0.6179 -0.1457
  485TMC3     O 7269   4.290   4.306  12.803  0.2197 -0.2799 -0.4151
  485TMC3     H 7270   4.665   4.340  12.879  2.2804 -0.3940 -0.5956
  485TMC3    H1 7271   4.351   4.443  12.617 -0.2315  1.0941  1.9824
  485TMC3    H2 7272   4.735   4.503  12.481 -0.0527 -0.4623  0.1178
  485TMC3    C7 7273   4.494   4.446  12.402  0.7186  0.2908  0.8487
  485TMC3    C8 7274   0.060   4.309  12.627 -0.7781  0.3659 -0.2707
  485TMC3    O1 7275   4.394   4.375  12.391  0.5196 -0.5806  0.7767
  485TMC3    O2 7276   0.109   4.326  12.516  0.1367  0.3052 -0.4796
  486MPD2     C 7277   1.556   3.436  13.159 -0.3726 -0.1305  0.7422
  486MPD2    C1 7278   1.487   3.409  13.039 -0.0336  0.1587 -0.6447
  486MPD2    C2 7279   1.421   3.518  12.983  0.0670 -0.1671  0.4659
  486MPD2    C3 7280   1.412   3.642  13.045 -0.0179 -0.3689 -0.0793
  486MPD2    C4 7281   1.492   3.669  13.157  0.0961  0.5957 -0.1878
  486MPD2    C5 7282   1.572   3.566  13.205 -0.0598  0.7772 -0.7173
  486MPD2     H 7283   1.358   3.501  12.896  0.8113 -0.1888 -0.0752
  486MPD2    H1 7284   1.500   3.769  13.197  0.8993 -0.1763  1.5657
  486MPD2    H2 7285   1.610   3.362  13.218 -0.9151 -1.3660 -0.3021
  486MPD2    H3 7286   1.642   3.580  13.287  0.7922 -0.6749 -1.1941
  486MPD2     N 7287   1.324   3.733  12.990 -0.1531  0.2237 -0.5421
  486MPD2    H5 7288   1.273   3.692  12.913 -0.2089  0.3219 -0.5579
  486MPD2    N1 7289   1.487   3.274  12.985  0.2141  0.1041  0.0283
  486MPD2    H7 7290   1.545   3.207  13.033 -0.6054 -0.8216 -0.2789
  487TMC3    C1 7291   1.409   3.082  12.862 -0.0108 -0.4566 -0.4159
  487TMC3    C2 7292   1.325   3.040  12.759 -0.5577 -0.2854 -0.5228
  487TMC3    C3 7293   1.266   2.917  12.761  0.1560 -0.7352 -0.4385
  487TMC3    C4 7294   1.432   2.996  12.969 -0.1244  0.4648  0.2931
  487TMC3    C5 7295   1.363   2.877  12.973 -0.6873 -0.2701  0.0044
  487TMC3    C6 7296   1.285   2.841  12.870 -0.3179  0.1828 -0.0688
  487TMC3     C 7297   1.418   3.231  12.876 -0.3814 -0.7241  0.6165
  487TMC3     O 7298   1.352   3.291  12.789 -0.3602  0.4127 -0.4371
  487TMC3     H 7299   1.301   3.105  12.676  1.2369 -2.3834 -2.7074
  487TMC3    H1 7300   1.492   3.017  13.057 -1.2744 -1.2753  1.4873
  487TMC3    H2 7301   1.277   2.734  12.854  0.3182  0.0948  0.2024
  487TMC3    C7 7302   1.331   2.841  13.111 -0.7421 -0.2889 -0.0509
  487TMC3    C8 7303   1.122   2.927  12.760 -0.0575 -0.1577  0.1901
  487TMC3    O1 7304   1.371   2.905  13.206  1.2106  0.6610  0.1762
  487TMC3    O2 7305   1.065   2.938  12.651 -0.4387 -0.0415  0.5913
  488MPD2     C 7306   1.065   0.357  16.438  0.5870  0.2892  0.4389
  488MPD2    C1 7307   1.081   0.482  16.502  0.0338  0.5218 -0.4845
  488MPD2    C2 7308   1.084   0.481  16.641 -0.0786 -0.4290  0.6695
  488MPD2    C3 7309   1.061   0.366  16.717  0.5005  0.4055 -0.2587
  488MPD2    C4 7310   1.038   0.249  16.652 -0.0899 -0.3795 -0.1519
  488MPD2    C5 7311   1.032   0.251  16.517 -0.6179 -0.3385 -0.2808
  488MPD2     H 7312   1.094   0.579  16.688  1.1705 -0.7780  1.1271
  488MPD2    H1 7313   1.011   0.158  16.705  1.6055  0.3537  1.9298
  488MPD2    H2 7314   1.049   0.348  16.331 -0.4757  0.0144  0.6314
  488MPD2    H3 7315   1.000   0.156  16.476  1.3984 -2.4596  3.0497
  488MPD2     N 7316   1.073   0.386  16.859 -0.1039 -0.0411  0.0709
  488MPD2    H5 7317   1.107   0.476  16.891 -0.0467  0.0608 -0.2741
  488MPD2    N1 7318   1.106   0.607  16.435 -0.4993  0.1035 -0.1667
  488MPD2    H7 7319   1.130   0.686  16.494 -0.2123  0.7789 -1.2068
  489TMC3    C1 7320   1.122   0.322  17.081 -0.5700 -0.0380 -0.4216
  489TMC3    C2 7321   1.216   0.426  17.085 -0.1570  0.1706  0.1225
  489TMC3    C3 7322   1.289   0.442  17.201  0.0751  0.1248 -0.0114
  489TMC3    C4 7323   1.117   0.240  17.190 -0.3391 -0.1872 -0.2560
  489TMC3    C5 7324   1.170   0.266  17.313 -0.1206  0.2302  0.5483
  489TMC3    C6 7325   1.261   0.367  17.314  0.3448 -0.0132 -0.1515
  489TMC3     C 7326   1.063   0.285  16.954 -0.2352  0.9584 -0.1678
  489TMC3     O 7327   1.014   0.173  16.945  0.1097 -0.0609  0.5425
  489TMC3     H 7328   1.235   0.493  17.002 -0.6721  0.0952 -0.0587
  489TMC3    H1 7329   1.033   0.171  17.180 -1.5949  1.0950  1.3651
  489TMC3    H2 7330   1.330   0.361  17.398 -0.1957  0.2070  0.3070
  489TMC3    C7 7331   1.158   0.182  17.429 -0.5367 -1.0192  0.1056
  489TMC3    C8 7332   1.427   0.482  17.172  0.3818  0.1710 -0.1857
  489TMC3    O1 7333   1.185   0.235  17.540  0.2581 -0.0028 -0.3462
  489TMC3    O2 7334   1.472   0.472  17.057 -0.1204  0.1054  0.1532
  490MPD2     C 7335   2.298   4.334  17.136  0.3484  0.2212  0.2910
  490MPD2    C1 7336   2.245   4.373  17.259 -0.1718  0.3899  0.8786
  490MPD2    C2 7337   2.333   4.423  17.355  0.6287  0.0067  0.3190
  490MPD2    C3 7338   2.465   4.457  17.319  0.4316  0.1886 -0.7106
  490MPD2    C4 7339   2.515   4.418  17.197 -0.0356 -0.2528  0.2583
  490MPD2    C5 7340   2.428   4.349  17.113 -0.1644  0.2414 -0.3910
  490MPD2     H 7341   2.289   4.438  17.453  2.3744  2.7717  0.6578
  490MPD2    H1 7342   2.621   4.434  17.180  0.3198 -2.1134  0.7251
  490MPD2    H2 7343   2.244   4.279  17.060  3.0884 -2.8313  0.5377
  490MPD2    H3 7344   2.467   4.311  17.020 -0.3610 -0.1535 -0.3111
  490MPD2     N 7345   2.555   4.523  17.410 -0.6336 -0.3640 -0.1371
  490MPD2    H5 7346   2.646   4.549  17.374 -1.0957  0.8995 -0.3836
  490MPD2    N1 7347   2.110   4.349  17.297 -1.2617  0.4149  0.3213
  490MPD2    H7 7348   2.078   4.379  17.389 -0.4191  3.4618 -0.3619
  491TMC3    C1 7349   1.888   4.271  17.288  1.1039 -0.3251  0.3317
  491TMC3    C2 7350   1.894   4.254  17.425  0.2928 -0.1556 -0.3925
  491TMC3    C3 7351   1.787   4.212  17.495 -0.2544 -0.2791  0.5015
  491TMC3    C4 7352   1.777   4.235  17.221 -0.6833 -0.5099 -0.6774
  491TMC3    C5 7353   1.666   4.207  17.291  0.5491 -0.7971 -0.1515
  491TMC3    C6 7354   1.670   4.184  17.428 -0.3004  0.9478  1.1711
  491TMC3     C 7355   2.008   4.303  17.212 -0.1013  0.6563 -1.0289
  491TMC3     O 7356   2.008   4.278  17.093  0.8432  0.3086  0.4163
  491TMC3     H 7357   1.987   4.276  17.475 -1.1449  1.0275  1.7541
  491TMC3    H1 7358   1.770   4.257  17.115 -2.0379  1.2286 -0.2159
  491TMC3    H2 7359   1.586   4.142  17.481 -0.9273  0.3831 -0.2932
  491TMC3    C7 7360   1.569   4.134  17.219 -0.9229 -0.2181 -0.1681
  491TMC3    C8 7361   1.786   4.209  17.644  1.0032 -0.1531 -0.5610
  491TMC3    O1 7362   1.512   4.041  17.273 -0.2219  0.1873 -0.5541
  491TMC3    O2 7363   1.672   4.202  17.691 -0.6874 -0.1707  0.2151
  492MPD2     C 7364   2.555   4.381  11.476 -0.9721  0.3589  0.3335
  492MPD2    C1 7365   2.442   4.312  11.436  0.7189  0.2435  0.0639
  492MPD2    C2 7366   2.370   4.236  11.525  0.1207  0.6143 -0.1963
  492MPD2    C3 7367   2.403   4.236  11.663 -0.5356  0.7299 -0.1159
  492MPD2    C4 7368   2.524   4.296  11.704 -0.4497 -0.1264  0.0167
  492MPD2    C5 7369   2.593   4.370  11.607  0.5346  0.4098  0.8295
  492MPD2     H 7370   2.289   4.174  11.486  1.1624 -0.0424 -1.3151
  492MPD2    H1 7371   2.551   4.313  11.807 -0.8834  1.2996 -0.1122
  492MPD2    H2 7372   2.619   4.441  11.413 -0.2029 -0.8390 -0.0069
  492MPD2    H3 7373   2.673   4.437  11.639  0.0332  0.4907  1.9044
  492MPD2     N 7374   2.316   4.178  11.759  0.1504  0.3878  0.0234
  492MPD2    H5 7375   2.369   4.176  11.845 -0.3752 -0.0031  0.3355
  492MPD2    N1 7376   2.416   4.314  11.294 -0.3602  0.4317  0.2097
  492MPD2    H7 7377   2.458   4.397  11.253 -4.1464  0.8052 -2.8974
  493TMC3    C1 7378   2.319   4.263  11.083  0.5075  0.2463 -0.4390
  493TMC3    C2 7379   2.441   4.304  11.042 -0.6444  0.3794  0.8332
  493TMC3    C3 7380   2.442   4.369  10.918  0.1229  0.0424 -0.0940
  493TMC3    C4 7381   2.203   4.283  11.021 -0.6725  0.0229  0.2591
  493TMC3    C5 7382   2.206   4.347  10.899  0.9340  0.1979  0.3383
  493TMC3    C6 7383   2.326   4.393  10.847  0.1310 -0.1421 -0.0980
  493TMC3     C 7384   2.313   4.245  11.227  0.5061  0.4068  0.0111
  493TMC3     O 7385   2.218   4.186  11.268 -0.3557  0.1690 -0.0256
  493TMC3     H 7386   2.534   4.274  11.089 -0.0816 -2.6689 -2.2418
  493TMC3    H1 7387   2.112   4.264  11.078 -0.4928 -1.3038  0.0956
  493TMC3    H2 7388   2.325   4.447  10.753  2.1365  1.2026  0.6535
  493TMC3    C7 7389   2.083   4.364  10.825  0.2199 -0.2352 -0.1689
  493TMC3    C8 7390   2.572   4.429  10.881  0.0598 -0.4662 -0.0609
  493TMC3    O1 7391   2.086   4.426  10.720 -0.4252 -0.0222 -0.2762
  493TMC3    O2 7392   2.670   4.386  10.937  0.5396 -0.9098 -0.7336
  494TMC3    C1 7393   2.926   1.700   0.269 -0.0074 -0.6504 -0.7547
  494TMC3    C2 7394   2.956   1.561   0.268  0.0354 -0.4683 -0.0866
  494TMC3    C3 7395   3.029   1.509   0.163  1.1713 -0.0085  0.2845
  494TMC3    C4 7396   2.950   1.774   0.157 -0.0251  0.6591  0.0273
  494TMC3    C5 7397   3.014   1.720   0.048 -0.6159  0.2911 -0.9864
  494TMC3    C6 7398   3.052   1.585   0.049  0.6252  0.1013  0.2317
  494TMC3     C 7399   2.848   1.755   0.376 -0.6059 -0.5793 -0.5338
  494TMC3     O 7400   2.778   1.856   0.354 -0.0239  0.2581  0.0395
  494TMC3     H 7401   2.924   1.503   0.353  1.3434 -1.4286 -0.2620
  494TMC3    H1 7402   2.916   1.876   0.160  1.1216  0.9495  2.9745
  494TMC3    H2 7403   3.097   1.531  17.709 -0.5676 -1.2584  0.4778
  494TMC3    C7 7404   3.064   1.803  17.682  0.2467 -0.2139  0.4319
  494TMC3    C8 7405   3.028   1.365   0.162 -0.1515 -0.4873  0.8424
  494TMC3    O1 7406   3.093   1.750  17.576  0.8319  0.8646  0.3997
  494TMC3    O2 7407   3.010   1.299   0.264 -0.3390  0.3445 -0.2012
  495TMC3    C1 7408   2.004   3.164  14.882 -0.0371 -0.0460 -0.1947
  495TMC3    C2 7409   1.916   3.192  14.781 -0.4691 -0.9486  0.1435
  495TMC3    C3 7410   1.842   3.307  14.799 -0.7636 -0.6480  0.4611
  495TMC3    C4 7411   2.022   3.244  14.991 -0.1892 -0.1920  0.1511
  495TMC3    C5 7412   1.950   3.359  15.000  0.1331 -0.1619  0.1092
  495TMC3    C6 7413   1.867   3.396  14.900 -0.0699  0.0419  0.5469
  495TMC3     C 7414   2.067   3.038  14.881 -0.0956 -0.3086 -0.3689
  495TMC3     O 7415   2.181   3.034  14.918  0.2026 -0.2434 -0.4222
  495TMC3     H 7416   1.891   3.115  14.709 -0.1309 -0.7217 -0.2186
  495TMC3    H1 7417   2.076   3.206  15.076  0.6726  0.9236  0.1013
  495TMC3    H2 7418   1.802   3.481  14.918 -0.1908 -0.2191  1.3615
  495TMC3    C7 7419   1.898   3.385  15.135  0.2262  0.3693 -0.1327
  495TMC3    C8 7420   1.707   3.315  14.747  0.3668  0.2849 -0.2257
  495TMC3    O1 7421   1.982   3.394  15.222 -0.8614  0.3550  0.1795
  495TMC3    O2 7422   1.619   3.363  14.822 -0.8711 -0.1199  0.4456
  496MPD2     C 7423   4.304   4.128  15.573 -0.0107 -0.0551  0.5253
  496MPD2    C1 7424   4.258   4.012  15.520 -0.0227  0.2986 -0.2084
  496MPD2    C2 7425   4.142   3.954  15.568 -0.3279  0.3350  0.2999
  496MPD2    C3 7426   4.076   4.010  15.671  0.1478 -0.5583  0.0980
  496MPD2    C4 7427   4.121   4.135  15.726 -0.4634  0.2254  0.6448
  496MPD2    C5 7428   4.233   4.187  15.669  0.8650  0.0077 -0.0454
  496MPD2     H 7429   4.093   3.872  15.518 -1.3024  0.7485  0.5785
  496MPD2    H1 7430   4.053   4.192  15.790  0.8188  1.2804  1.0706
  496MPD2    H2 7431   4.395   4.173  15.536  0.0499 -0.5036  0.1273
  496MPD2    H3 7432   4.252   4.285  15.712 -2.5442 -0.1735  1.8665
  496MPD2     N 7433   3.960   3.941  15.720  0.1461 -0.0694  1.1429
  496MPD2    H5 7434   3.952   3.847  15.683  1.2661 -0.7851  2.7399
  496MPD2    N1 7435   4.339   3.953  15.421 -0.3577  0.3092  0.0492
  496MPD2    H7 7436   4.430   3.995  15.405 -0.6263  1.8910  2.5967
  497TMC3    C1 7437   3.768   3.886  15.839  0.0015 -0.9983 -0.8350
  497TMC3    C2 7438   3.722   3.815  15.732 -0.1772  0.3288  0.1599
  497TMC3    C3 7439   3.616   3.725  15.754  0.0846  0.0852 -1.2004
  497TMC3    C4 7440   3.714   3.871  15.965 -0.4028  0.0691  0.3567
  497TMC3    C5 7441   3.597   3.792  15.983  0.2468  0.4411  0.1160
  497TMC3    C6 7442   3.560   3.709  15.878  0.2168  0.0632 -0.6601
  497TMC3     C 7443   3.884   3.981  15.826  0.1283  0.7562 -0.3420
  497TMC3     O 7444   3.885   4.075  15.905  0.1869  0.1942 -0.9973
  497TMC3     H 7445   3.749   3.827  15.628 -0.2321  0.7171  0.1915
  497TMC3    H1 7446   3.743   3.942  16.042 -1.0729  2.1622 -1.3103
  497TMC3    H2 7447   3.489   3.629  15.896 -1.4965  1.9821  1.0851
  497TMC3    C7 7448   3.554   3.754  16.119  0.0268  0.1130  0.4936
  497TMC3    C8 7449   3.546   3.677  15.640 -0.0113  0.7178 -0.2253
  497TMC3    O1 7450   3.473   3.664  16.115 -0.0971 -0.8523  0.1997
  497TMC3    O2 7451   3.612   3.661  15.539  0.2964 -0.0849  0.3769
  498MPD2     C 7452   0.242   3.951   9.586  0.4737 -0.3135  0.2309
  498MPD2    C1 7453   0.224   4.042   9.686  0.5584  0.0253  0.9274
  498MPD2    C2 7454   0.104   4.055   9.735  0.2412  0.5266 -0.6771
  498MPD2    C3 7455   4.726   3.979   9.694 -0.3567  0.0520  0.0684
  498MPD2    C4 7456   0.018   3.873   9.601 -0.4416  0.4091 -0.1301
  498MPD2    C5 7457   0.142   3.867   9.549  0.1973 -0.5170  0.4072
  498MPD2     H 7458   0.090   4.116   9.823  0.6191  2.3405 -1.8665
  498MPD2    H1 7459   4.681   3.803   9.563  2.8431 -2.1776 -1.6851
  498MPD2    H2 7460   0.333   3.913   9.542  0.9148  0.5890  0.3854
  498MPD2    H3 7461   0.160   3.788   9.477  0.8189  0.5113 -0.5640
  498MPD2     N 7462   4.599   3.995   9.758 -0.5224 -0.6717  0.1746
  498MPD2    H5 7463   4.592   4.073   9.823 -1.0441 -1.8341  1.5039
  498MPD2    N1 7464   0.326   4.131   9.724  0.6014 -0.3628 -0.1184
  498MPD2    H7 7465   0.314   4.202   9.795  0.2647 -1.4863  0.9556
  499TMC3    C1 7466   0.530   4.239   9.728 -0.0799 -0.1595 -0.3093
  499TMC3    C2 7467   0.665   4.219   9.737 -0.3486  0.1416 -0.6368
  499TMC3    C3 7468   0.751   4.324   9.749  0.2716 -0.2722  0.3063
  499TMC3    C4 7469   0.475   4.358   9.713 -0.1013  0.2077  0.0850
  499TMC3    C5 7470   0.565   4.462   9.728  0.0557 -0.5679  0.1101
  499TMC3    C6 7471   0.699   4.449   9.760  0.0265 -0.1058  0.7398
  499TMC3     C 7472   0.453   4.125   9.679  0.4912  0.3401  0.1670
  499TMC3     O 7473   0.513   4.036   9.627 -0.3341 -0.1976  0.3486
  499TMC3     H 7474   0.706   4.119   9.728 -1.0712 -0.3079  1.1074
  499TMC3    H1 7475   0.374   4.376   9.678  0.4712 -2.5742 -2.9877
  499TMC3    H2 7476   0.762   4.535   9.775 -0.9654  0.7192  0.1437
  499TMC3    C7 7477   0.524   4.606   9.723 -0.2754  0.6549  1.1492
  499TMC3    C8 7478   0.891   4.308   9.714 -0.6713 -0.4818  0.2137
  499TMC3    O1 7479   0.619   4.683   9.704 -0.6002  0.3111  0.0385
  499TMC3    O2 7480   0.950   4.409   9.668  0.0759 -0.5166 -0.3886
  500MPD2     C 7481   1.548   1.109  10.604 -0.5542  0.9286  0.5613
  500MPD2    C1 7482   1.466   1.010  10.658  0.2467  0.5822 -0.5573
  500MPD2    C2 7483   1.332   1.031  10.653  0.0473  0.2058  0.2368
  500MPD2    C3 7484   1.278   1.142  10.599  0.3683  0.1747 -1.0309
  500MPD2    C4 7485   1.360   1.236  10.545  0.1439  0.3749  0.3336
  500MPD2    C5 7486   1.497   1.225  10.556 -0.2735  1.0954  0.0202
  500MPD2     H 7487   1.276   0.953  10.701  1.3084 -0.0750  1.2672
  500MPD2    H1 7488   1.319   1.330  10.509 -1.2991 -0.4424 -0.1835
  500MPD2    H2 7489   1.656   1.107  10.595 -0.5699 -0.1485  0.6801
  500MPD2    H3 7490   1.569   1.295  10.516  0.5765  0.8714  1.1474
  500MPD2     N 7491   1.136   1.167  10.591  0.1431  0.1661  0.0418
  500MPD2    H5 7492   1.112   1.261  10.560  0.7941  0.4692  0.4680
  500MPD2    N1 7493   1.525   0.884  10.714 -0.0154  0.8128 -0.4284
  500MPD2    H7 7494   1.457   0.811  10.733 -1.6410  2.4084 -0.1315
  501TMC3    C1 7495   1.683   0.737  10.806 -0.3064  0.0606 -0.2403
  501TMC3    C2 7496   1.579   0.676  10.873 -0.6822 -0.4935  0.2987
  501TMC3    C3 7497   1.616   0.604  10.984  0.8189 -0.2838 -0.1668
  501TMC3    C4 7498   1.813   0.731  10.852  0.3612 -0.4070  0.1767
  501TMC3    C5 7499   1.846   0.646  10.955 -0.2098  0.0267 -0.3663
  501TMC3    C6 7500   1.747   0.575  11.013  0.2785  0.3628  0.0358
  501TMC3     C 7501   1.660   0.864  10.737 -0.2293  0.7531  0.3398
  501TMC3     O 7502   1.757   0.937  10.699  0.6326 -0.2312  0.3233
  501TMC3     H 7503   1.474   0.664  10.850 -0.0196 -3.0225 -1.4910
  501TMC3    H1 7504   1.892   0.768  10.787  0.8943  1.0912  1.6742
  501TMC3    H2 7505   1.771   0.519  11.103 -0.9837  0.0283  0.1590
  501TMC3    C7 7506   1.974   0.645  11.007 -1.4152 -0.1839 -0.0319
  501TMC3    C8 7507   1.514   0.548  11.067 -0.1095  0.2114 -0.2280
  501TMC3    O1 7508   1.994   0.550  11.088  0.0369 -0.4942 -0.3053
  501TMC3    O2 7509   1.525   0.427  11.102  0.1676 -0.4697 -0.3359
  502TMC3    C1 7510   1.015   4.349  15.066  0.1775 -0.5138 -0.6326
  502TMC3    C2 7511   1.049   4.364  14.937  0.3778  0.1576  0.3116
  502TMC3    C3 7512   0.956   4.384  14.840 -0.3535  0.0342 -0.1959
  502TMC3    C4 7513   0.887   4.360  15.109  0.1784 -0.0659  0.3128
  502TMC3    C5 7514   0.798   4.405  15.014  0.2116 -0.3504 -0.0646
  502TMC3    C6 7515   0.826   4.415  14.877  0.1636  0.7950 -0.2189
  502TMC3     C 7516   1.108   4.267  15.149 -0.4466  0.2138 -0.0650
  502TMC3     O 7517   1.231   4.273  15.120  0.3144 -0.0553  0.4822
  502TMC3     H 7518   1.154   4.349  14.914 -0.0003 -0.3144 -1.0877
  502TMC3    H1 7519   0.861   4.349  15.214  0.4471 -1.2050  0.2538
  502TMC3    H2 7520   0.752   4.450  14.806 -0.9501 -1.7823 -0.3476
  502TMC3    C7 7521   0.705   4.501  15.068 -0.3271 -0.8097  0.3977
  502TMC3    C8 7522   0.990   4.445  14.711  0.0686  0.9336 -0.1957
  502TMC3    O1 7523   0.749   4.564  15.164  0.2670  0.0531  0.0812
  502TMC3    O2 7524   0.924   4.536  14.663 -0.1955  0.2811 -0.1132
  503MPD2     C 7525   3.492   0.776  16.817 -0.2918 -0.0075 -0.5249
  503MPD2    C1 7526   3.452   0.781  16.954 -0.1753 -1.0206  0.8027
  503MPD2    C2 7527   3.471   0.667  17.029  0.4015  0.0407 -0.0909
  503MPD2    C3 7528   3.529   0.553  16.969 -0.0884 -0.5406  1.0088
  503MPD2    C4 7529   3.574   0.554  16.833 -0.6051  0.3438 -0.0696
  503MPD2    C5 7530   3.551   0.664  16.753 -0.2350  0.6219 -0.4067
  503MPD2     H 7531   3.427   0.670  17.128  1.7120  0.9472  0.4724
  503MPD2    H1 7532   3.602   0.463  16.781 -2.5809 -1.0597  1.2950
  503MPD2    H2 7533   3.500   0.860  16.749  1.9801  1.5062  1.6180
  503MPD2    H3 7534   3.581   0.663  16.649  0.5939  2.6856 -0.1936
  503MPD2     N 7535   3.540   0.437  17.048 -0.2298 -0.6580  0.1153
  503MPD2    H5 7536   3.503   0.442  17.142  2.1152 -1.2845  1.0590
  503MPD2    N1 7537   3.394   0.891  17.015  0.3515 -0.2816 -0.5978
  503MPD2    H7 7538   3.376   0.890  17.115 -3.1659  3.0799 -1.1982
  504TMC3    C1 7539   3.603   0.225  17.113  0.6873  0.5123 -0.0533
  504TMC3    C2 7540   3.529   0.251  17.220 -0.0239  0.4690 -0.0596
  504TMC3    C3 7541   3.572   0.179  17.323 -0.4577  0.0850 -0.6412
  504TMC3    C4 7542   3.700   0.127  17.098 -0.0774  0.1464 -0.1166
  504TMC3    C5 7543   3.718   0.041  17.199  0.1429  0.4731  0.7473
  504TMC3    C6 7544   3.662   0.074  17.316 -0.0924  0.7943  0.0738
  504TMC3     C 7545   3.612   0.329  17.015 -0.1984  0.1474 -0.1253
  504TMC3     O 7546   3.682   0.305  16.922 -0.6437  0.1482  0.5628
  504TMC3     H 7547   3.468   0.339  17.238 -1.3332 -0.6470  1.0098
  504TMC3    H1 7548   3.756   0.119  17.006  1.2137 -1.6520  0.8058
  504TMC3    H2 7549   3.690   0.002  17.392 -3.0445  0.7024  1.0730
  504TMC3    C7 7550   3.837   4.695  17.191  0.3954 -0.1841  0.4456
  504TMC3    C8 7551   3.510   0.211  17.453 -0.6925  0.2173  0.0925
  504TMC3    O1 7552   3.914   4.684  17.284  0.4606 -0.4960  0.2764
  504TMC3    O2 7553   3.408   0.275  17.453 -0.1477  0.3599  0.2097
  505MPD2     C 7554   3.497   3.937  10.520  0.5644  0.0933 -0.1195
  505MPD2    C1 7555   3.532   3.808  10.550 -0.2038  0.1311  0.2264
  505MPD2    C2 7556   3.636   3.791  10.637  0.7038  0.4618 -0.3321
  505MPD2    C3 7557   3.703   3.896  10.697  0.1680  0.3579  0.3070
  505MPD2    C4 7558   3.659   4.027  10.673  0.5628  0.0202 -0.6594
  505MPD2    C5 7559   3.554   4.049  10.583 -0.2024  0.1447 -0.1906
  505MPD2     H 7560   3.677   3.692  10.648 -2.5401 -0.9134 -0.7667
  505MPD2    H1 7561   3.705   4.109  10.726  1.2517 -1.6750  1.3649
  505MPD2    H2 7562   3.417   3.963  10.452 -0.3467  0.9388  1.2493
  505MPD2    H3 7563   3.527   4.151  10.557 -1.4206 -0.1173  0.0556
  505MPD2     N 7564   3.820   3.859  10.772  0.4426  0.0545  0.0854
  505MPD2    H5 7565   3.840   3.760  10.777  3.3164  0.6116 -0.5405
  505MPD2    N1 7566   3.457   3.701  10.488 -0.3076 -0.2311  0.3146
  505MPD2    H7 7567   3.389   3.727  10.418 -2.5627 -1.2123  2.1150
  506TMC3    C1 7568   3.402   3.486  10.409 -0.0052 -0.4145 -0.0289
  506TMC3    C2 7569   3.419   3.528  10.280 -0.2554  0.3056  0.0004
  506TMC3    C3 7570   3.460   3.425  10.193 -1.0071  0.0203 -0.3322
  506TMC3    C4 7571   3.420   3.359  10.450 -0.4969 -0.1780  0.5016
  506TMC3    C5 7572   3.479   3.271  10.368 -0.0638  0.1486 -0.0038
  506TMC3    C6 7573   3.479   3.298  10.233  0.4657 -0.0639 -0.8848
  506TMC3     C 7574   3.472   3.571  10.515 -0.5944 -0.1749 -0.4986
  506TMC3     O 7575   3.540   3.517  10.603  0.2742 -0.0739  0.0710
  506TMC3     H 7576   3.396   3.630  10.250 -1.4067 -0.0138 -0.1877
  506TMC3    H1 7577   3.407   3.334  10.555 -3.4533 -1.1544 -0.1092
  506TMC3    H2 7578   3.505   3.223  10.159 -0.7353  0.2844 -1.6588
  506TMC3    C7 7579   3.595   3.203  10.409 -1.0638 -0.0058  0.2826
  506TMC3    C8 7580   3.487   3.456  10.055 -1.0475 -0.5047  0.7857
  506TMC3    O1 7581   3.639   3.112  10.338 -0.4349  0.3322 -0.6199
  506TMC3    O2 7582   3.456   3.375   9.965  0.4611  0.1775 -0.0737
  507TMC3    C1 7583   0.315   0.776  15.248 -0.0599 -0.3462  0.2071
  507TMC3    C2 7584   0.318   0.815  15.116  0.2988  0.8354  0.2642
  507TMC3    C3 7585   0.250   0.931  15.079  0.1037  0.5540  0.0989
  507TMC3    C4 7586   0.264   0.853  15.356 -0.1441  0.2662  0.3800
  507TMC3    C5 7587   0.197   0.967  15.312 -0.4283 -0.1395  0.1479
  507TMC3    C6 7588   0.181   1.000  15.179 -0.0092  0.6663 -0.0773
  507TMC3     C 7589   0.352   0.640  15.278  0.0603  0.1454  0.5568
  507TMC3     O 7590   0.437   0.592  15.206 -0.0747  0.5547  0.7956
  507TMC3     H 7591   0.341   0.743  15.038  0.2660  2.2020 -1.0133
  507TMC3    H1 7592   0.267   0.839  15.464 -0.9305  0.2268  0.3942
  507TMC3    H2 7593   0.127   1.091  15.156  0.0510  0.6031 -0.4701
  507TMC3    C7 7594   0.074   0.995  15.385  0.2340  0.3255 -0.7441
  507TMC3    C8 7595   0.147   0.900  14.984  0.6070  0.1000 -0.2976
  507TMC3    O1 7596   0.055   0.989  15.505  0.2215 -0.0049  0.6080
  507TMC3    O2 7597   0.117   0.784  14.971 -0.3420  0.6054  0.2644
  508MPD2     C 7598   0.664   1.777  16.425  0.0757 -0.1558  0.0899
  508MPD2    C1 7599   0.722   1.890  16.490  0.4228 -0.5963 -0.4107
  508MPD2    C2 7600   0.708   2.020  16.432  0.3454 -0.0186  0.5748
  508MPD2    C3 7601   0.626   2.038  16.324 -0.5693  0.2400  0.5288
  508MPD2    C4 7602   0.555   1.932  16.268  0.2241  0.2476  0.0184
  508MPD2    C5 7603   0.578   1.806  16.323 -0.4486 -0.0370  0.6238
  508MPD2     H 7604   0.762   2.106  16.470 -0.5063  0.4707  0.6758
  508MPD2    H1 7605   0.491   1.941  16.181  0.2412  2.0211  0.1895
  508MPD2    H2 7606   0.670   1.676  16.464 -1.6866 -0.4531 -0.4617
  508MPD2    H3 7607   0.519   1.724  16.284  1.3175 -0.1432 -1.8074
  508MPD2     N 7608   0.606   2.172  16.286  0.4494  0.2799  0.1128
  508MPD2    H5 7609   0.664   2.249  16.317  1.9675 -0.9491  0.3278
  508MPD2    N1 7610   0.791   1.869  16.610 -0.4461 -0.2616 -0.3567
  508MPD2    H7 7611   0.827   1.775  16.625 -0.4905  0.0752  1.8035
  509TMC3    C1 7612   0.416   2.553  16.115  0.4852 -0.0316  0.1432
  509TMC3    C2 7613   0.534   2.623  16.137  0.0508  0.2095 -0.5129
  509TMC3    C3 7614   0.651   2.551  16.170  0.0847 -0.0888  0.2528
  509TMC3    C4 7615   0.411   2.424  16.148  0.6929  0.3836  0.5758
  509TMC3    C5 7616   0.522   2.351  16.175 -0.6478 -1.1885 -0.3584
  509TMC3    C6 7617   0.644   2.417  16.180  0.0204 -0.7120 -0.7578
  509TMC3     C 7618   0.317   2.622  16.032 -0.0878 -0.1731  0.7509
  509TMC3     O 7619   0.208   2.564  16.014 -0.0792 -0.4415 -0.0292
  509TMC3     H 7620   0.539   2.729  16.157  0.9571  0.1253 -0.2559
  509TMC3    H1 7621   0.313   2.377  16.149  1.3444 -0.9876  0.2386
  509TMC3    H2 7622   0.742   2.372  16.192  0.5673  0.8128  0.4107
  509TMC3    C7 7623   0.507   2.209  16.199  0.2736  0.0200  0.2326
  509TMC3    C8 7624   0.781   2.616  16.149  0.1269  0.6549 -0.1446
  509TMC3    O1 7625   0.403   2.154  16.164 -0.3062 -0.1119 -0.3717
  509TMC3    O2 7626   0.866   2.577  16.223 -0.3781 -0.2927 -0.3268
  510MPD2     C 7627   2.871   3.801  14.928  0.2455 -0.6891 -0.0379
  510MPD2    C1 7628   2.965   3.713  14.976 -0.2087 -0.2237  0.4727
  510MPD2    C2 7629   3.095   3.721  14.922  0.2120 -0.1851  0.3320
  510MPD2    C3 7630   3.122   3.823  14.826 -0.2444 -0.2881  0.6322
  510MPD2    C4 7631   3.024   3.908  14.783 -0.0874  0.2883  0.1955
  510MPD2    C5 7632   2.894   3.898  14.833  0.1606  0.3046 -0.1754
  510MPD2     H 7633   3.162   3.639  14.945 -0.3206 -1.1638 -1.6752
  510MPD2    H1 7634   3.035   3.981  14.704  2.1990  0.7920  0.9988
  510MPD2    H2 7635   2.765   3.780  14.940 -0.1055  1.6646  0.8333
  510MPD2    H3 7636   2.815   3.957  14.789  0.1920  1.2899  1.0864
  510MPD2     N 7637   3.247   3.822  14.763 -0.7168 -0.4385  0.5045
  510MPD2    H5 7638   3.322   3.774  14.811  0.1507  0.2295 -0.1886
  510MPD2    N1 7639   2.924   3.613  15.066  0.0328  0.5523  0.0607
  510MPD2    H7 7640   2.824   3.618  15.085 -0.1971  3.3516 -1.9297
  511TMC3    C1 7641   2.886   3.404  15.128 -0.7713  1.0475 -0.0327
  511TMC3    C2 7642   2.805   3.440  15.226 -0.1301 -0.3717 -0.4119
  511TMC3    C3 7643   2.764   3.344  15.307  0.7216  0.3691  0.0269
  511TMC3    C4 7644   2.920   3.274  15.111  0.4993 -0.1793 -0.6065
  511TMC3    C5 7645   2.878   3.181  15.195  0.8726  0.1123  0.3789
  511TMC3    C6 7646   2.795   3.210  15.297 -0.0878  0.5626 -0.5760
  511TMC3     C 7647   2.986   3.502  15.100  0.9495 -0.2577  0.0609
  511TMC3     O 7648   3.098   3.453  15.076  0.0797 -0.6551  0.9297
  511TMC3     H 7649   2.769   3.541  15.244  1.2438  0.0389  0.0214
  511TMC3    H1 7650   2.985   3.240  15.031  1.7884 -3.5139  1.8801
  511TMC3    H2 7651   2.747   3.135  15.358  0.2743  0.6783 -0.1502
  511TMC3    C7 7652   2.890   3.040  15.145  0.3001 -0.4999 -0.3380
  511TMC3    C8 7653   2.701   3.387  15.433 -0.1258  0.3791 -0.5260
  511TMC3    O1 7654   2.912   3.021  15.026 -0.3596 -0.7386  0.1238
  511TMC3    O2 7655   2.742   3.492  15.476  0.1436 -0.5603  0.0683
  512TMC3    C1 7656   1.659   3.146  13.602 -0.3971  0.1329 -0.6640
  512TMC3    C2 7657   1.792   3.160  13.641  0.0972  0.1955 -0.0014
  512TMC3    C3 7658   1.847   3.040  13.688 -0.8263  0.4390  0.0823
  512TMC3    C4 7659   1.586   3.032  13.597  0.0365 -0.9114 -0.6206
  512TMC3    C5 7660   1.662   2.916  13.611 -0.1734 -0.8059  0.1131
  512TMC3    C6 7661   1.784   2.919  13.669 -0.5839  0.9797 -0.0391
  512TMC3     C 7662   1.585   3.268  13.585 -0.1349  0.5469  0.3781
  512TMC3     O 7663   1.658   3.365  13.561 -0.2248  0.3138 -0.0947
  512TMC3     H 7664   1.834   3.258  13.657 -1.7133  0.9929 -0.1696
  512TMC3    H1 7665   1.486   3.040  13.556  0.2938  0.1100 -1.0532
  512TMC3    H2 7666   1.829   2.825  13.701 -2.0287 -0.0504 -1.0470
  512TMC3    C7 7667   1.593   2.802  13.567 -0.1600  0.4501  0.4486
  512TMC3    C8 7668   1.992   3.030  13.688  0.1783 -0.5970  0.7414
  512TMC3    O1 7669   1.472   2.818  13.566 -0.1604 -0.1540  0.0995
  512TMC3    O2 7670   2.044   2.923  13.719  0.4786  0.0692  0.1628
  513MPD2     C 7671   3.703   3.084  13.744 -1.0138  0.5653 -0.7249
  513MPD2    C1 7672   3.712   2.946  13.728 -0.0525  1.5822  1.1185
  513MPD2    C2 7673   3.815   2.880  13.791 -0.6490 -0.0973 -0.1217
  513MPD2    C3 7674   3.901   2.946  13.878 -0.3578  0.1040 -0.3610
  513MPD2    C4 7675   3.881   3.076  13.903  0.5769 -0.4155  0.0899
  513MPD2    C5 7676   3.783   3.144  13.834 -0.2259 -0.3091  0.1867
  513MPD2     H 7677   3.837   2.774  13.786 -1.4158 -0.2297 -0.7571
  513MPD2    H1 7678   3.937   3.130  13.979  3.0934  0.8470 -2.5997
  513MPD2    H2 7679   3.633   3.150  13.693 -1.8576 -1.1764 -1.8329
  513MPD2    H3 7680   3.775   3.251  13.850  2.0400 -0.1427  0.1793
  513MPD2     N 7681   3.988   2.857  13.941 -0.7788  0.0006  0.1875
  513MPD2    H5 7682   3.979   2.758  13.925 -1.2630 -0.0182  0.5874
  513MPD2    N1 7683   3.626   2.894  13.626 -0.0428 -0.4488 -0.2374
  513MPD2    H7 7684   3.564   2.953  13.572 -0.6378 -2.2135 -1.4683
  514TMC3    C1 7685   3.579   2.743  13.454  0.3848 -0.0911  0.4650
  514TMC3    C2 7686   3.595   2.845  13.367 -0.4772  0.4683  0.4844
  514TMC3    C3 7687   3.613   2.801  13.237  0.0697  0.0732 -0.1699
  514TMC3    C4 7688   3.566   2.610  13.423  0.4934  0.1802  0.8351
  514TMC3    C5 7689   3.596   2.573  13.295 -0.2084  0.0154  0.6101
  514TMC3    C6 7690   3.621   2.669  13.202 -0.0483  0.5313 -0.4979
  514TMC3     C 7691   3.644   2.765  13.584 -0.1202 -0.1114 -0.0436
  514TMC3     O 7692   3.677   2.663  13.643 -0.0102  0.0631  0.2458
  514TMC3     H 7693   3.595   2.950  13.393 -2.4167  1.2065 -2.4868
  514TMC3    H1 7694   3.534   2.538  13.498  1.5859  1.0680  2.1567
  514TMC3    H2 7695   3.649   2.642  13.101  2.6337  0.2894  0.2882
  514TMC3    C7 7696   3.705   2.475  13.298  0.4771  0.7326 -0.2840
  514TMC3    C8 7697   3.607   2.904  13.136 -0.3066  0.5783 -0.0808
  514TMC3    O1 7698   3.759   2.436  13.192 -0.4107 -0.0265  0.2633
  514TMC3    O2 7699   3.556   3.006  13.178 -0.2616  0.5788  0.4754
  515MPD2     C 7700   2.437   4.732  14.316 -0.0305 -0.7369  0.0268
  515MPD2    C1 7701   2.421   4.623  14.399  0.1880 -0.4357  0.0023
  515MPD2    C2 7702   2.460   4.640  14.533 -0.2939  0.1083 -0.4880
  515MPD2    C3 7703   2.535   0.018  14.576 -0.5252 -0.3040 -0.1845
  515MPD2    C4 7704   2.557   0.120  14.489 -0.1892  0.6910  0.5905
  515MPD2    C5 7705   2.507   0.105  14.363 -0.7111  0.4077 -0.3178
  515MPD2     H 7706   2.432   4.559  14.600  2.2595 -0.3279  0.0429
  515MPD2    H1 7707   2.620   0.205  14.512 -0.2074  1.1707 -1.0885
  515MPD2    H2 7708   2.402   0.008  14.215  0.8589  0.0127 -0.1901
  515MPD2    H3 7709   2.545   0.178  14.292 -1.8242  3.0762  1.8304
  515MPD2     N 7710   2.581   0.045  14.706  0.3459  0.4615  0.2642
  515MPD2    H5 7711   2.639   0.128  14.721 -0.1527  0.3011  3.1000
  515MPD2    N1 7712   2.358   4.510  14.349 -0.0948 -0.2595 -0.4729
  515MPD2    H7 7713   2.360   4.506  14.248  1.3165  0.8901 -0.4911
  516TMC3    C1 7714   2.276   4.289  14.333  0.6401 -0.7163 -0.6401
  516TMC3    C2 7715   2.184   4.325  14.234  0.1053  0.5570 -0.4375
  516TMC3    C3 7716   2.093   4.230  14.204 -0.8572  0.0059 -0.2959
  516TMC3    C4 7717   2.273   4.161  14.392 -0.1706  0.3840 -0.2942
  516TMC3    C5 7718   2.165   4.079  14.362 -0.4011  0.7184  0.4050
  516TMC3    C6 7719   2.082   4.104  14.254 -0.0135 -0.1629  0.0196
  516TMC3     C 7720   2.330   4.396  14.423 -0.5408  0.2633  0.7810
  516TMC3     O 7721   2.359   4.356  14.535  0.7767 -0.3905 -0.4617
  516TMC3     H 7722   2.170   4.419  14.182 -0.3975 -0.1532 -1.6012
  516TMC3    H1 7723   2.334   4.137  14.477  0.7812 -1.2418 -1.4378
  516TMC3    H2 7724   2.004   4.043  14.210 -0.6373  1.1828 -0.7493
  516TMC3    C7 7725   2.124   3.999  14.479 -0.0301  0.1727 -0.2169
  516TMC3    C8 7726   1.970   4.270  14.136 -0.6854  0.8420  0.0671
  516TMC3    O1 7727   2.179   4.017  14.584 -0.1036  0.0393 -0.0438
  516TMC3    O2 7728   1.868   4.253  14.192  0.3825 -0.2035  0.7942
  517MPD2     C 7729   1.842   1.775  17.507  0.8490 -0.0949 -0.6462
  517MPD2    C1 7730   1.961   1.739  17.576 -0.4004 -0.4279  0.6480
  517MPD2    C2 7731   1.991   1.795  17.696  0.2571  0.2718 -0.4598
  517MPD2    C3 7732   1.909   1.895   0.002  0.3797  0.7042 -0.7256
  517MPD2    C4 7733   1.796   1.937  17.672 -0.2980 -0.4717  0.2890
  517MPD2    C5 7734   1.770   1.881  17.553  0.8802  1.0863 -0.2939
  517MPD2     H 7735   2.073   1.753   0.009  0.2303  1.4969  0.4758
  517MPD2    H1 7736   1.728   2.012  17.711 -0.2800 -1.0864  1.5060
  517MPD2    H2 7737   1.815   1.725  17.415 -3.1211  2.0508 -0.6641
  517MPD2    H3 7738   1.679   1.906  17.500 -0.2917 -0.4526  0.9905
  517MPD2     N 7739   1.935   1.947   0.131  0.2027 -0.1221 -0.1161
  517MPD2    H5 7740   1.870   2.022   0.152  0.9446 -0.1552  2.2155
  517MPD2    N1 7741   2.045   1.636  17.535 -0.0738 -0.4931 -0.4049
  517MPD2    H7 7742   2.136   1.618  17.577  0.0497  0.4221 -0.2777
  518TMC3    C1 7743   2.142   1.458  17.418 -0.0071  0.5581  0.4754
  518TMC3    C2 7744   2.179   1.403  17.530 -0.1027 -0.0139  0.0386
  518TMC3    C3 7745   2.271   1.301  17.523  0.3224 -0.5799 -0.0188
  518TMC3    C4 7746   2.201   1.441  17.299  0.2589 -0.0841 -0.5497
  518TMC3    C5 7747   2.298   1.351  17.292  0.1068 -0.4756 -0.6271
  518TMC3    C6 7748   2.335   1.277  17.402  0.4757 -0.1068  0.4697
  518TMC3     C 7749   2.035   1.564  17.421  0.1551  0.2580  0.2296
  518TMC3     O 7750   1.941   1.550  17.344  0.0235  0.5881  0.1340
  518TMC3     H 7751   2.112   1.421  17.614  0.4024 -2.6517  1.0397
  518TMC3    H1 7752   2.168   1.504  17.218  0.8972  0.0458 -0.7083
  518TMC3    H2 7753   2.426   1.220  17.412  0.6033  0.2521  1.3446
  518TMC3    C7 7754   2.374   1.328  17.170 -0.2643 -0.3596 -0.2054
  518TMC3    C8 7755   2.248   1.184  17.606  0.2915 -0.1744  0.7176
  518TMC3    O1 7756   2.347   1.390  17.067 -0.0270 -0.0775  0.2719
  518TMC3    O2 7757   2.301   1.083  17.562 -0.0811  0.1012 -0.1393
  519MPD2     C 7758   3.564   4.273  14.723  0.2043  1.2422 -1.0476
  519MPD2    C1 7759   3.530   4.288  14.592 -0.0507 -0.2604 -0.3229
  519MPD2    C2 7760   3.634   4.260  14.504  0.4010 -0.1560  0.6436
  519MPD2    C3 7761   3.764   4.235  14.547 -0.8289  0.0914  1.2672
  519MPD2    C4 7762   3.797   4.239  14.679 -0.4997  0.8177  0.0326
  519MPD2    C5 7763   3.692   4.244  14.766 -0.0532  0.2948  0.2439
  519MPD2     H 7764   3.605   4.247  14.400  0.8482 -1.6905  0.7179
  519MPD2    H1 7765   3.895   4.235  14.725 -0.5051 -3.4383 -0.3077
  519MPD2    H2 7766   3.486   4.302  14.792  0.1365  0.3549 -0.7485
  519MPD2    H3 7767   3.709   4.251  14.873  0.8868  0.7331  0.0640
  519MPD2     N 7768   3.860   4.209  14.457  0.4460 -0.0592  0.7030
  519MPD2    H5 7769   3.954   4.177  14.479  0.8684  0.6971 -0.0004
  519MPD2    N1 7770   3.390   4.300  14.566 -0.2438 -0.2933  0.7367
  519MPD2    H7 7771   3.329   4.325  14.643  0.1692 -1.1892  1.3550
  520TMC3    C1 7772   3.958   4.176  14.248  0.3426  0.3197 -0.6367
  520TMC3    C2 7773   4.012   4.251  14.151 -0.6536 -0.4061 -0.0090
  520TMC3    C3 7774   4.134   4.213  14.085  0.3228 -0.2588 -0.5548
  520TMC3    C4 7775   4.018   4.062  14.287 -0.3941 -0.5704  0.4889
  520TMC3    C5 7776   4.119   4.013  14.208 -0.1980  0.0643 -0.8556
  520TMC3    C6 7777   4.181   4.087  14.110 -0.1397  0.7296  0.6056
  520TMC3     C 7778   3.843   4.230  14.321  0.2346  0.0647  0.5512
  520TMC3     O 7779   3.772   4.311  14.265  0.4658 -0.5362 -0.4352
  520TMC3     H 7780   3.958   4.342  14.130 -0.6055 -1.0089 -2.8275
  520TMC3    H1 7781   3.976   3.996  14.362  1.4186 -0.4988  1.5552
  520TMC3    H2 7782   4.268   4.045  14.061 -0.8252 -0.9958  0.8391
  520TMC3    C7 7783   4.184   3.890  14.254  0.3294 -0.0202 -0.7043
  520TMC3    C8 7784   4.169   4.266  13.955 -0.1210 -0.5897 -0.3307
  520TMC3    O1 7785   4.176   3.875  14.373 -0.0667 -0.0963  0.1298
  520TMC3    O2 7786   4.274   4.234  13.903 -0.3692 -0.4904  0.6261
  521MPD2     C 7787   4.397   2.995  17.623  0.0824 -1.0142 -1.1482
  521MPD2    C1 7788   4.380   2.959  17.493  0.4822  0.2009 -0.1609
  521MPD2    C2 7789   4.484   2.927  17.412 -0.0401  0.0802 -0.6053
  521MPD2    C3 7790   4.616   2.925  17.451 -0.7010  0.1135  0.2347
  521MPD2    C4 7791   4.633   2.966  17.584  0.1907  0.5223  1.0120
  521MPD2    C5 7792   4.527   2.994  17.669 -0.0304 -0.6975 -0.1000
  521MPD2     H 7793   4.477   2.897  17.308 -0.2191 -0.1676 -0.5206
  521MPD2    H1 7794   4.728   2.987  17.633  2.2382 -0.5570 -2.4596
  521MPD2    H2 7795   4.322   3.035  17.690  2.0776  1.1121 -0.1777
  521MPD2    H3 7796   4.539   3.009   0.032  2.8919  0.7653 -0.6388
  521MPD2     N 7797   4.719   2.899  17.363 -0.0277  0.2542 -0.3212
  521MPD2    H5 7798   4.694   2.855  17.275  0.6636 -1.9447  0.5824
  521MPD2    N1 7799   4.244   2.965  17.448 -0.0566 -0.5411 -0.0862
  521MPD2    H7 7800   4.166   2.976  17.511 -1.5294  2.1442 -2.3909
  522TMC3    C1 7801   0.205   2.845  17.276 -0.3389 -0.7352 -0.4147
  522TMC3    C2 7802   0.327   2.800  17.314 -1.2253 -0.6802 -0.2809
  522TMC3    C3 7803   0.398   2.737  17.216  0.7775 -0.3276 -0.4419
  522TMC3    C4 7804   0.166   2.838  17.145 -0.5375  0.2366  0.3347
  522TMC3    C5 7805   0.246   2.779  17.047 -0.2365  0.4082  0.2379
  522TMC3    C6 7806   0.361   2.718  17.084 -0.2766  0.1717  0.7568
  522TMC3     C 7807   0.121   2.905  17.381  0.4622 -0.0557  0.7356
  522TMC3     O 7808   0.181   2.932  17.482  0.3127  0.2333 -0.2476
  522TMC3     H 7809   0.368   2.819  17.413 -0.1013 -1.0006 -0.6941
  522TMC3    H1 7810   0.078   2.898  17.122 -0.5529  0.1926  0.2777
  522TMC3    H2 7811   0.427   2.675  17.011 -3.0729 -1.4206 -0.8284
  522TMC3    C7 7812   0.203   2.781  16.909  0.8316  0.8990 -0.3695
  522TMC3    C8 7813   0.540   2.718  17.248  0.1058 -0.1249  0.2867
  522TMC3    O1 7814   0.281   2.765  16.820  0.6543 -0.0580  0.0389
  522TMC3    O2 7815   0.582   2.799  17.331 -0.4399 -0.1590  0.0925
  523MPD2     C 7816   2.025   2.744  10.468  0.6619 -0.0527 -0.5308
  523MPD2    C1 7817   1.924   2.656  10.450 -0.3993 -0.5643 -0.4494
  523MPD2    C2 7818   1.827   2.683  10.351  0.5698 -0.5814  0.3114
  523MPD2    C3 7819   1.825   2.804  10.286 -0.0105 -0.3549  0.2107
  523MPD2    C4 7820   1.924   2.898  10.312 -0.1091 -0.2975  0.6911
  523MPD2    C5 7821   2.021   2.860  10.400  0.1134 -0.7964  0.1896
  523MPD2     H 7822   1.738   2.625  10.330  0.5263 -1.0407  1.7623
  523MPD2    H1 7823   1.925   2.997  10.270  0.5442 -0.0824  1.1968
  523MPD2    H2 7824   2.101   2.737  10.546  0.3988 -0.0247 -0.2726
  523MPD2    H3 7825   2.084   2.936  10.444  0.0345  1.1230 -2.9871
  523MPD2     N 7826   1.728   2.847  10.194 -0.0590 -0.3403  0.1402
  523MPD2    H5 7827   1.744   2.939  10.154  0.4279 -0.5348 -0.1147
  523MPD2    N1 7828   1.920   2.538  10.527 -0.2362 -0.2432 -0.7242
  523MPD2    H7 7829   1.992   2.530  10.598 -0.4000  0.3383 -0.4995
  524TMC3    C1 7830   1.567   2.844  10.025 -0.1214 -0.0591 -0.4314
  524TMC3    C2 7831   1.507   2.778   9.917 -0.6450  0.1672 -0.3603
  524TMC3    C3 7832   1.452   2.854   9.817 -0.2889  0.0669  0.0556
  524TMC3    C4 7833   1.554   2.979  10.022  0.0198 -0.8396  0.7477
  524TMC3    C5 7834   1.489   3.055   9.920 -0.1621  0.5828  1.0637
  524TMC3    C6 7835   1.441   2.988   9.813 -0.4776  0.0654  0.1023
  524TMC3     C 7836   1.621   2.776  10.143 -0.3030  0.5610  0.4698
  524TMC3     O 7837   1.585   2.662  10.165  0.4852 -0.3752  0.0252
  524TMC3     H 7838   1.534   2.674   9.900  0.3730  0.3931 -0.1492
  524TMC3    H1 7839   1.576   3.033  10.113 -2.0985  3.2417 -1.1433
  524TMC3    H2 7840   1.389   3.052   9.742  0.0581  2.5154  1.9690
  524TMC3    C7 7841   1.470   3.199   9.939 -0.2279  0.1681  0.4687
  524TMC3    C8 7842   1.364   2.794   9.719 -0.0683 -0.1845 -0.3130
  524TMC3    O1 7843   1.507   3.249  10.047 -0.2171  0.0279 -0.1626
  524TMC3    O2 7844   1.335   2.866   9.627 -0.0407 -0.2672  0.0372
  525MPD2     C 7845   0.283   3.865  14.955 -0.4559 -0.2095 -0.2978
  525MPD2    C1 7846   0.341   3.979  15.002  0.3089 -0.2316  0.4378
  525MPD2    C2 7847   0.393   4.077  14.911 -0.6267  0.5825  0.7500
  525MPD2    C3 7848   0.359   4.065  14.779  0.4141 -0.2684  0.1121
  525MPD2    C4 7849   0.307   3.940  14.739  0.6900  0.7022  0.4149
  525MPD2    C5 7850   0.274   3.842  14.824  0.0874 -0.3803  0.2899
  525MPD2     H 7851   0.447   4.162  14.952 -1.3257  1.0310  0.7450
  525MPD2    H1 7852   0.300   3.930  14.632  0.1554  1.7699  0.3468
  525MPD2    H2 7853   0.256   3.791  15.030 -1.4955  2.1306  1.6393
  525MPD2    H3 7854   0.254   3.744  14.782  2.9400 -0.8019 -0.1129
  525MPD2     N 7855   0.384   4.166  14.680 -0.0083  0.1279  0.1386
  525MPD2    H5 7856   0.352   4.141  14.587 -0.5795 -0.0137  0.3766
  525MPD2    N1 7857   0.363   4.003  15.139  0.1303 -0.0023  0.0476
  525MPD2    H7 7858   0.409   4.087  15.172 -0.0062  0.4793 -1.0154
  526TMC3    C1 7859   0.339   3.963  15.362 -0.4543 -0.1450 -0.6333
  526TMC3    C2 7860   0.247   3.953  15.465 -0.1127 -0.9040 -0.4792
  526TMC3    C3 7861   0.297   3.919  15.589  0.0411  0.2242 -0.1143
  526TMC3    C4 7862   0.473   3.950  15.391 -0.0593 -0.7363 -0.4197
  526TMC3    C5 7863   0.512   3.905  15.515 -0.2094 -0.2702 -0.6683
  526TMC3    C6 7864   0.425   3.892  15.624 -1.6594  0.9163  0.5039
  526TMC3     C 7865   0.299   3.926  15.235  0.5227  0.3197 -0.1315
  526TMC3     O 7866   0.204   3.846  15.236  0.5285 -0.1593 -0.0331
  526TMC3     H 7867   0.141   3.954  15.444  0.0860  0.3682 -1.4330
  526TMC3    H1 7868   0.541   3.951  15.306  4.7029 -0.7065  3.3986
  526TMC3    H2 7869   0.451   3.842  15.717 -0.8434 -2.4162 -1.5452
  526TMC3    C7 7870   0.625   3.816  15.526  0.7860 -0.9880  0.3116
  526TMC3    C8 7871   0.211   3.944  15.696 -0.1510 -0.1047 -0.3124
  526TMC3    O1 7872   0.677   3.803  15.637 -0.1371  0.0670  0.5218
  526TMC3    O2 7873   0.132   4.035  15.675 -0.2538 -0.5804 -0.3130
  527MPD2     C 7874   2.790   2.635   1.722 -0.0164 -0.7544  0.2043
  527MPD2    C1 7875   2.750   2.631   1.589 -0.7201 -0.7092  0.8430
  527MPD2    C2 7876   2.843   2.599   1.494 -0.0320  0.0533 -0.1916
  527MPD2    C3 7877   2.969   2.554   1.527 -0.6847 -0.3237  0.1348
  527MPD2    C4 7878   3.011   2.558   1.664 -0.1905  0.0540  0.0334
  527MPD2    C5 7879   2.918   2.601   1.754  0.2067  0.3095  0.1780
  527MPD2     H 7880   2.809   2.594   1.391  1.7134 -0.0819 -0.7546
  527MPD2    H1 7881   3.102   2.516   1.706 -0.3146 -1.2854 -1.0418
  527MPD2    H2 7882   2.722   2.658   1.804 -0.0670  0.0419 -0.0642
  527MPD2    H3 7883   2.942   2.609   1.859 -1.2268  1.1539  0.4379
  527MPD2     N 7884   3.039   2.503   1.420  0.3844 -0.0580  0.6770
  527MPD2    H5 7885   2.999   2.507   1.326  0.0355  0.3050  0.8377
  527MPD2    N1 7886   2.615   2.651   1.550  0.0015 -0.2207 -0.0446
  527MPD2    H7 7887   2.590   2.653   1.452 -0.0589  3.1723  0.0193
  528TMC3    C1 7888   2.382   2.639   1.568  0.9261  1.2297  0.4522
  528TMC3    C2 7889   2.364   2.697   1.442  0.0069  0.1162 -0.2098
  528TMC3    C3 7890   2.248   2.669   1.375 -0.6000  0.7141 -0.0276
  528TMC3    C4 7891   2.289   2.555   1.631  0.4647 -0.4771  0.5530
  528TMC3    C5 7892   2.176   2.535   1.561  0.2157 -0.4774  0.5620
  528TMC3    C6 7893   2.154   2.595   1.436  0.4249 -0.3679  0.3538
  528TMC3     C 7894   2.511   2.640   1.632  0.3619  0.8091 -0.2159
  528TMC3     O 7895   2.507   2.617   1.752  0.0660 -0.7095 -0.1168
  528TMC3     H 7896   2.439   2.757   1.392 -0.6725  2.0873  1.1187
  528TMC3    H1 7897   2.299   2.501   1.725  0.3347 -0.3756  0.6237
  528TMC3    H2 7898   2.062   2.574   1.384  0.3043  0.4048  0.2486
  528TMC3    C7 7899   2.061   2.456   1.612  0.1120 -0.1478 -0.1959
  528TMC3    C8 7900   2.203   2.790   1.311 -0.1053  0.1703 -0.0252
  528TMC3    O1 7901   1.961   2.461   1.541 -0.3864  0.4516 -0.7661
  528TMC3    O2 7902   2.276   2.885   1.330 -0.0834 -0.5420  0.0577
  529MPD2     C 7903   4.575   0.755   1.133  0.2383 -0.5964  0.0088
  529MPD2    C1 7904   4.691   0.757   1.062  0.2018 -1.1108  0.0433
  529MPD2    C2 7905   4.696   0.821   0.947 -0.3588  0.0754  0.3722
  529MPD2    C3 7906   4.592   0.908   0.910 -0.5442  0.7163  0.4981
  529MPD2    C4 7907   4.478   0.917   0.983  0.0826  0.2193  0.4771
  529MPD2    C5 7908   4.470   0.835   1.093  0.1116  0.7068  0.7202
  529MPD2     H 7909   0.053   0.821   0.892 -0.5703  0.1084  0.0204
  529MPD2    H1 7910   4.390   0.971   0.950  1.1906 -0.1016 -3.0308
  529MPD2    H2 7911   4.563   0.696   1.224  1.2720 -0.6604  0.1011
  529MPD2    H3 7912   4.375   0.827   1.145 -0.6258  0.4885 -0.6636
  529MPD2     N 7913   4.594   0.983   0.794  0.2333  0.1352  1.1470
  529MPD2    H5 7914   4.514   1.043   0.778  2.9776  3.1004 -1.4521
  529MPD2    N1 7915   0.069   0.671   1.084 -0.4447  0.5854  0.0633
  529MPD2    H7 7916   0.153   0.670   1.026 -0.6989 -0.9347 -0.2616
  530TMC3    C1 7917   0.214   0.510   1.172 -0.4075 -0.4064 -0.5746
  530TMC3    C2 7918   0.334   0.575   1.151 -0.1281  1.5641 -0.3353
  530TMC3    C3 7919   0.452   0.509   1.158 -0.2212  0.1502 -0.3982
  530TMC3    C4 7920   0.222   0.374   1.198  0.4549 -0.0251 -0.4547
  530TMC3    C5 7921   0.336   0.310   1.201  0.2853  0.4362 -0.4385
  530TMC3    C6 7922   0.463   0.371   1.175 -0.8346 -0.1717 -0.5722
  530TMC3     C 7923   0.082   0.579   1.183 -0.6383  0.1026 -0.3525
  530TMC3     O 7924   4.729   0.523   1.248 -0.3367 -0.1703 -0.3872
  530TMC3     H 7925   0.338   0.684   1.151 -1.7874  1.6225 -0.0695
  530TMC3    H1 7926   0.129   0.324   1.223 -0.2441  1.2397 -0.5183
  530TMC3    H2 7927   0.555   0.315   1.187  0.3240  1.9681  0.4860
  530TMC3    C7 7928   0.343   0.180   1.261  0.5220 -0.1807  0.4658
  530TMC3    C8 7929   0.573   0.577   1.115  0.6947  0.4759  0.4609
  530TMC3    O1 7930   0.456   0.135   1.258 -0.1269  0.1692  0.1333
  530TMC3    O2 7931   0.565   0.695   1.090 -0.2053  0.2448  0.2538
  531MPD2     C 7932   4.096   2.285  13.560 -0.2947  0.1457  0.3387
  531MPD2    C1 7933   4.040   2.383  13.637  0.2852  0.0417 -0.5806
  531MPD2    C2 7934   3.927   2.439  13.585  0.8980  0.1806 -0.1683
  531MPD2    C3 7935   3.870   2.396  13.460  0.1954 -0.7554  0.5943
  531MPD2    C4 7936   3.938   2.305  13.386  0.0312  0.8620  0.0032
  531MPD2    C5 7937   4.054   2.253  13.434 -0.0955  0.6911 -0.4201
  531MPD2     H 7938   3.866   2.512  13.635  1.1587 -0.6961  1.4388
  531MPD2    H1 7939   3.914   2.297  13.280  0.8673 -0.0645 -0.1083
  531MPD2    H2 7940   4.192   2.242  13.588 -0.1076  0.0729 -0.4010
  531MPD2    H3 7941   4.116   2.190  13.372  0.7203 -1.6588  2.8124
  531MPD2     N 7942   3.744   2.460  13.428 -0.1143 -0.2922 -0.7229
  531MPD2    H5 7943   3.707   2.527  13.495  1.1449  1.3279 -1.6494
  531MPD2    N1 7944   4.100   2.420  13.761  0.6152  0.0260 -0.1178
  531MPD2    H7 7945   4.192   2.388  13.788  0.5329  1.6929  2.1100
  532TMC3    C1 7946   4.150   2.576  13.923 -0.3477 -0.1801 -0.2504
  532TMC3    C2 7947   4.104   2.667  14.012  0.7089  0.4985 -0.2641
  532TMC3    C3 7948   4.174   2.784  14.042 -0.4059 -0.3202 -0.2720
  532TMC3    C4 7949   4.281   2.587  13.865  0.1634  0.4328  0.0089
  532TMC3    C5 7950   4.348   2.701  13.902  1.2316 -0.0524 -0.1499
  532TMC3    C6 7951   4.295   2.801  13.985 -0.2385  0.2515  0.0619
  532TMC3     C 7952   4.047   2.519  13.845  0.0578  1.0460 -0.1683
  532TMC3     O 7953   3.933   2.558  13.861  0.4453 -0.1484 -0.7424
  532TMC3     H 7954   4.009   2.640  14.058  0.7931  2.0330  0.7888
  532TMC3    H1 7955   4.319   2.514  13.794 -0.9638  1.0985 -1.2840
  532TMC3    H2 7956   4.347   2.896  13.983 -0.3201  0.3039  0.6189
  532TMC3    C7 7957   4.494   2.697  13.895  1.1821  0.6253 -0.1000
  532TMC3    C8 7958   4.083   2.898  14.032  0.0964  0.2519 -0.4774
  532TMC3    O1 7959   4.553   2.797  13.940  0.3965  0.4345  0.1409
  532TMC3    O2 7960   4.137   3.003  14.042 -0.1655 -0.5375 -0.0690
  533TMC3    C1 7961   0.407   4.370  14.585  1.1070  0.3928  0.4759
  533TMC3    C2 7962   0.491   4.473  14.564  0.6379  0.9180  0.1653
  533TMC3    C3 7963   0.440   4.566  14.485 -0.1133 -0.2476  0.1524
  533TMC3    C4 7964   0.281   4.363  14.530 -0.0986  0.4262  0.1389
  533TMC3    C5 7965   0.242   4.465  14.441  0.2674  0.7429 -0.0773
  533TMC3    C6 7966   0.316   4.574  14.433  0.1812  0.4700 -0.2676
  533TMC3     C 7967   0.438   4.288  14.693 -0.8351  0.3851  0.3809
  533TMC3     O 7968   0.513   4.317  14.786  0.2782  0.1280  0.1076
  533TMC3     H 7969   0.591   4.477  14.607  0.7003 -2.4944  0.3600
  533TMC3    H1 7970   0.211   4.282  14.546 -0.9296  0.6862 -2.2328
  533TMC3    H2 7971   0.276   4.670  14.401 -0.1412  0.2440 -0.5399
  533TMC3    C7 7972   0.098   4.458  14.403 -0.2397  0.2731  0.1978
  533TMC3    C8 7973   0.536   4.666  14.437  0.4606 -0.1751  0.7484
  533TMC3    O1 7974   0.026   4.361  14.423  0.0073  0.0664  0.0653
  533TMC3    O2 7975   0.651   4.668  14.488  0.4714 -0.0677  0.5417
  534MPD2     C 7976   3.261   1.330   1.495  0.6834  0.5363  0.2134
  534MPD2    C1 7977   3.192   1.419   1.418  0.1132 -0.6684  0.1111
  534MPD2    C2 7978   3.101   1.368   1.329  0.0077 -0.3329  0.3474
  534MPD2    C3 7979   3.085   1.233   1.304 -0.4942  0.5501 -0.0948
  534MPD2    C4 7980   3.163   1.149   1.376 -1.0310  0.5099 -0.5871
  534MPD2    C5 7981   3.248   1.192   1.473 -0.1811  0.5248  0.3170
  534MPD2     H 7982   3.051   1.449   1.278 -0.8973 -0.4777  1.0056
  534MPD2    H1 7983   3.159   1.043   1.352  2.2447  0.3937 -0.6082
  534MPD2    H2 7984   3.315   1.359   1.584  1.3711 -1.1327  0.3413
  534MPD2    H3 7985   3.295   1.121   1.540  0.5896 -2.2733 -3.2012
  534MPD2     N 7986   3.015   1.204   1.193 -0.2999  0.2414 -0.1349
  534MPD2    H5 7987   2.969   1.285   1.151 -1.0746  0.2338  0.7083
  534MPD2    N1 7988   3.198   1.554   1.440 -0.4106 -0.0618  0.0685
  534MPD2    H7 7989   3.143   1.606   1.372 -0.5052  1.5077  1.3561
  535TMC3    C1 7990   2.846   1.095   1.083  0.4673 -0.4990 -0.4554
  535TMC3    C2 7991   2.734   1.027   1.134  0.5191 -0.5688 -0.3347
  535TMC3    C3 7992   2.639   0.992   1.041  0.4585 -0.0924 -0.6487
  535TMC3    C4 7993   2.851   1.155   0.956  0.3276  0.6128  0.1623
  535TMC3    C5 7994   2.757   1.105   0.868  0.1673  0.9166 -1.0613
  535TMC3    C6 7995   2.657   1.013   0.906 -0.6472  0.4808 -0.0336
  535TMC3     C 7996   2.959   1.085   1.169 -0.4313 -0.4429  0.5807
  535TMC3     O 7997   2.983   0.976   1.214  0.4831  0.5061  0.3343
  535TMC3     H 7998   2.728   1.002   1.240  1.5183  1.0317  0.1003
  535TMC3    H1 7999   2.938   1.209   0.921  1.1877  1.1471  3.1452
  535TMC3    H2 8000   2.594   0.972   0.829 -3.0026  0.4163  1.9469
  535TMC3    C7 8001   2.765   1.128   0.728 -0.8015  0.3036  0.1186
  535TMC3    C8 8002   2.503   0.992   1.079 -0.1704 -0.0094 -0.6513
  535TMC3    O1 8003   2.747   1.029   0.660 -0.4347 -0.6400 -0.7115
  535TMC3    O2 8004   2.422   0.961   0.995 -0.0098 -0.2027 -0.1888
  536MPD2     C 8005   1.049   3.346  16.282 -0.3205 -0.5894 -0.9282
  536MPD2    C1 8006   1.058   3.467  16.355 -0.6098 -0.0252  0.2596
  536MPD2    C2 8007   1.037   3.591  16.294 -0.0761  0.4860  0.0206
  536MPD2    C3 8008   1.024   3.596  16.154 -0.2219 -0.0054  0.2117
  536MPD2    C4 8009   1.020   3.479  16.082  0.5838 -0.2191  0.5832
  536MPD2    C5 8010   1.035   3.354  16.146 -0.2541  0.0750 -0.1904
  536MPD2     H 8011   1.049   3.682  16.351  0.8444  0.2857  0.1525
  536MPD2    H1 8012   1.011   3.485  15.974 -0.2162  0.9129  0.7114
  536MPD2    H2 8013   1.049   3.249  16.330 -1.1716 -0.7540 -1.2672
  536MPD2    H3 8014   1.034   3.256  16.099 -0.0604 -1.0747  2.1929
  536MPD2     N 8015   1.005   3.716  16.089  0.0172  0.0004  0.2759
  536MPD2    H5 8016   1.015   3.727  15.989  0.1967  1.0199  0.4032
  536MPD2    N1 8017   1.094   3.443  16.489  0.2205 -0.2597 -0.2456
  536MPD2    H7 8018   1.097   3.345  16.512  2.1945  0.2947  1.8669
  537TMC3    C1 8019   1.182   3.493  16.703 -0.1344 -0.3173 -0.0001
  537TMC3    C2 8020   1.253   3.596  16.765 -0.3174  0.2118 -0.1398
  537TMC3    C3 8021   1.227   3.621  16.892  0.0884 -0.4190 -0.2334
  537TMC3    C4 8022   1.090   3.422  16.775 -0.4866 -0.2111  0.7006
  537TMC3    C5 8023   1.085   3.440  16.907  0.4718 -0.2025 -0.2632
  537TMC3    C6 8024   1.150   3.540  16.972 -0.4814 -0.1302 -0.2783
  537TMC3     C 8025   1.135   3.544  16.579 -0.0670 -0.0388  0.0366
  537TMC3     O 8026   1.117   3.663  16.576  0.0083  0.6565 -0.5603
  537TMC3     H 8027   1.319   3.655  16.703  1.5990 -3.2192 -1.3439
  537TMC3    H1 8028   1.043   3.336  16.727 -1.7163  0.8385  0.0065
  537TMC3    H2 8029   1.134   3.572  17.074  0.5877 -0.1851 -0.0849
  537TMC3    C7 8030   1.046   3.330  16.993 -0.2136 -0.6813  0.9257
  537TMC3    C8 8031   1.273   3.745  16.956 -0.1423 -0.0076 -0.6487
  537TMC3    O1 8032   0.957   3.253  16.951 -0.3528 -0.1218 -0.0662
  537TMC3    O2 8033   1.305   3.736  17.072 -0.2425  0.1344 -0.2707
  538TMC3    C1 8034   2.645   2.085  11.095 -0.1212 -0.2370 -0.5261
  538TMC3    C2 8035   2.739   2.042  11.008  0.1135  0.5690 -0.0036
  538TMC3    C3 8036   2.753   2.118  10.898 -0.1215  0.7234 -0.2845
  538TMC3    C4 8037   2.558   2.184  11.069 -0.9212  0.7053  0.3144
  538TMC3    C5 8038   2.576   2.252  10.953  0.0222 -0.1783  1.1233
  538TMC3    C6 8039   2.666   2.220  10.859 -0.3267  0.1341 -0.2856
  538TMC3     C 8040   2.621   2.018  11.221 -0.4299  0.9257 -0.1014
  538TMC3     O 8041   2.507   2.020  11.267 -0.2265  0.2906 -0.6177
  538TMC3     H 8042   2.799   1.953  11.019  1.3131  1.4229  0.3151
  538TMC3    H1 8043   2.472   2.198  11.133 -0.3379  2.5141  0.7013
  538TMC3    H2 8044   2.679   2.279  10.770  0.9393 -0.0918 -0.2518
  538TMC3    C7 8045   2.473   2.356  10.911  0.3152 -0.1996 -0.0995
  538TMC3    C8 8046   2.867   2.083  10.811 -0.0442 -0.7534 -0.5569
  538TMC3    O1 8047   2.365   2.355  10.963 -0.4968 -0.1623  0.1087
  538TMC3    O2 8048   2.905   1.967  10.804 -0.6209  0.4555  0.0486
  539MPD2     C 8049   2.519   1.499  12.001 -0.8437  0.8075 -0.6313
  539MPD2    C1 8050   2.463   1.469  11.885  0.9163  0.3785 -0.5038
  539MPD2    C2 8051   2.407   1.568  11.807 -0.4729 -0.1560 -0.4518
  539MPD2    C3 8052   2.413   1.704  11.847  0.1669  0.0300  0.3091
  539MPD2    C4 8053   2.467   1.737  11.969  0.6873 -0.2969 -0.1475
  539MPD2    C5 8054   2.515   1.630  12.044  0.2345  0.2150  0.0799
  539MPD2     H 8055   2.350   1.549  11.717 -1.5202 -0.6344  0.3096
  539MPD2    H1 8056   2.470   1.838  12.007 -1.9579  0.2701 -1.4344
  539MPD2    H2 8057   2.572   1.428  12.064 -2.6878 -0.0229 -0.0007
  539MPD2    H3 8058   2.563   1.668  12.134 -1.0518  0.2584  0.7402
  539MPD2     N 8059   2.380   1.816  11.766  0.5167 -0.0352 -0.4415
  539MPD2    H5 8060   2.413   1.906  11.802  0.8107  0.5710 -2.2428
  539MPD2    N1 8061   2.466   1.334  11.846  0.1589  0.3167 -0.8043
  539MPD2    H7 8062   2.428   1.312  11.754  0.7128 -0.4410 -0.8450
  540TMC3    C1 8063   2.279   1.958  11.610 -0.0024 -0.5455  0.7727
  540TMC3    C2 8064   2.254   1.972  11.478  0.6454  0.4478 -0.3600
  540TMC3    C3 8065   2.223   2.106  11.446  0.1451  0.0949  0.1363
  540TMC3    C4 8066   2.270   2.056  11.704  0.2604  0.6709  0.2493
  540TMC3    C5 8067   2.252   2.186  11.672  0.1613 -0.1115  0.4446
  540TMC3    C6 8068   2.222   2.209  11.542  0.1047  0.0151  0.4828
  540TMC3     C 8069   2.296   1.819  11.657 -0.8328  0.2867  0.3828
  540TMC3     O 8070   2.230   1.724  11.605  0.0817 -0.7509 -0.2905
  540TMC3     H 8071   2.276   1.887  11.415  1.5355 -1.2456  2.2240
  540TMC3    H1 8072   2.263   2.028  11.808 -0.2755 -0.7364 -0.1655
  540TMC3    H2 8073   2.185   2.305  11.509 -2.1589 -0.1199  2.6322
  540TMC3    C7 8074   2.186   2.271  11.771 -0.4515 -0.1538  0.4620
  540TMC3    C8 8075   2.129   2.127  11.337 -0.1168 -0.0186 -0.6264
  540TMC3    O1 8076   2.148   2.220  11.875  0.7262 -1.0974 -0.2739
  540TMC3    O2 8077   2.060   2.230  11.336  0.1680 -0.1034 -0.3085
  541MPD2     C 8078   0.702   3.409  13.649 -0.6205  0.0338  0.4326
  541MPD2    C1 8079   0.662   3.332  13.544 -0.1422  0.1826  0.5283
  541MPD2    C2 8080   0.634   3.394  13.419 -0.4875  0.7393  0.1246
  541MPD2    C3 8081   0.635   3.530  13.403  0.9995  0.9000  0.0535
  541MPD2    C4 8082   0.702   3.599  13.509 -0.4685 -0.0057 -0.0790
  541MPD2    C5 8083   0.715   3.544  13.633 -0.2696  0.0039 -0.0293
  541MPD2     H 8084   0.601   3.333  13.336 -2.8428  0.1146  1.5098
  541MPD2    H1 8085   0.735   3.701  13.489  0.0527 -0.8365 -3.4215
  541MPD2    H2 8086   0.720   3.360  13.744 -0.7048 -2.9672 -1.0848
  541MPD2    H3 8087   0.745   3.601  13.720  1.1673 -0.5797 -0.1373
  541MPD2     N 8088   0.608   3.601  13.288  0.2227  0.8015 -0.0704
  541MPD2    H5 8089   0.629   3.700  13.288 -3.2196  1.5428 -0.7560
  541MPD2    N1 8090   0.653   3.190  13.554  0.4552 -0.1253 -0.6664
  541MPD2    H7 8091   0.618   3.149  13.468 -2.0691 -0.8627  0.7485
  542TMC3    C1 8092   0.551   3.638  13.059  0.1846 -0.1147  0.1031
  542TMC3    C2 8093   0.523   3.571  12.942 -0.4179 -0.7523  0.1746
  542TMC3    C3 8094   0.488   3.650  12.834 -0.4606  0.0483  0.1810
  542TMC3    C4 8095   0.522   3.771  13.077 -0.5465  0.5954  0.2598
  542TMC3    C5 8096   0.512   3.847  12.969 -0.5219  0.3555  0.1140
  542TMC3    C6 8097   0.489   3.792  12.846  0.6668  0.4678 -0.1150
  542TMC3     C 8098   0.572   3.546  13.170 -0.2018  0.6245 -0.6523
  542TMC3     O 8099   0.577   3.430  13.135  0.2020 -0.7660 -0.5189
  542TMC3     H 8100   0.522   3.464  12.929 -0.6857 -0.8082  0.6713
  542TMC3    H1 8101   0.546   3.817  13.172 -1.4059  1.3322  0.1189
  542TMC3    H2 8102   0.487   3.836  12.747 -0.8534  0.6913  0.0214
  542TMC3    C7 8103   0.460   3.977  12.983 -0.0487  0.7579 -0.1698
  542TMC3    C8 8104   0.486   3.584  12.705  0.6545 -0.1726  0.2243
  542TMC3    O1 8105   0.402   4.004  13.089 -0.0415  0.0453  0.5175
  542TMC3    O2 8106   0.425   3.638  12.618 -0.4229  0.3333 -0.0476
  543TMC3    C1 8107   0.337   0.231  17.648  0.3633 -0.3788  0.5439
  543TMC3    C2 8108   0.383   0.128  17.734 -0.6152 -0.1349  0.0868
  543TMC3    C3 8109   0.361   0.145   0.125 -0.4323  0.2595  0.7501
  543TMC3    C4 8110   0.280   0.345  17.697  0.2773  0.0969 -0.3697
  543TMC3    C5 8111   0.273   0.363   0.087 -0.2804 -0.4726  0.1463
  543TMC3    C6 8112   0.308   0.260   0.168  0.5494  0.1391  0.3275
  543TMC3     C 8113   0.303   0.175  17.516  0.1645  0.1558  0.9702
  543TMC3     O 8114   0.342   0.068  17.484 -0.0742 -0.2945 -0.3496
  543TMC3     H 8115   0.430   0.039  17.694  1.2337  1.3088 -0.9823
  543TMC3    H1 8116   0.241   0.414  17.623  0.3752  0.4440 -0.0933
  543TMC3    H2 8117   0.295   0.288   0.272  2.2262 -2.0119  1.1311
  543TMC3    C7 8118   0.172   0.450   0.136  0.1356  0.4856  0.1243
  543TMC3    C8 8119   0.387   0.030   0.214 -0.0039  0.0036 -0.5861
  543TMC3    O1 8120   0.128   0.426   0.250 -0.2456 -0.0342 -0.5912
  543TMC3    O2 8121   0.456   4.673   0.176 -0.1322  0.3324  0.3602
  544MPD2     C 8122   0.311   4.515   0.655 -0.5340 -0.3856  0.1729
  544MPD2    C1 8123   0.370   4.471   0.539 -0.0772  0.1468 -0.0668
  544MPD2    C2 8124   0.369   4.550   0.429  0.4656  0.6218 -0.0843
  544MPD2    C3 8125   0.314   4.677   0.436  0.3408 -0.3962  0.7796
  544MPD2    C4 8126   0.252   4.713   0.551 -0.3211 -0.0873  0.0217
  544MPD2    C5 8127   0.257   4.640   0.663  0.0413  0.1682 -0.1606
  544MPD2     H 8128   0.391   4.511   0.330 -1.5160 -2.2982  0.5904
  544MPD2    H1 8129   0.205   0.073   0.563  1.7301  0.7060  1.6458
  544MPD2    H2 8130   0.304   4.449   0.740 -1.3892 -0.7474 -0.1800
  544MPD2    H3 8131   0.219   4.673   0.758  0.4349  0.6560 -0.1692
  544MPD2     N 8132   0.329   0.043   0.337 -0.2395  0.0071  0.3259
  544MPD2    H5 8133   0.274   0.125   0.360 -0.0105  1.0415 -2.8526
  544MPD2    N1 8134   0.431   4.342   0.533 -0.0777  0.2871 -0.2274
  544MPD2    H7 8135   0.404   4.288   0.615  0.5636 -1.9912 -1.4986
  545TMC3    C1 8136   0.450   4.135   0.448  0.0365 -0.9115  0.0517
  545TMC3    C2 8137   0.511   4.087   0.568  0.3639 -1.1347  0.3128
  545TMC3    C3 8138   0.516   3.954   0.593 -0.1229 -0.3188  0.9324
  545TMC3    C4 8139   0.401   4.044   0.361 -0.3170 -0.2418 -0.1920
  545TMC3    C5 8140   0.399   3.913   0.395 -0.2142  0.4224 -0.8998
  545TMC3    C6 8141   0.452   3.866   0.510 -0.1511 -0.3288 -0.3587
  545TMC3     C 8142   0.445   4.270   0.421  0.1578  0.3823 -0.5203
  545TMC3     O 8143   0.460   4.299   0.301  1.0683 -0.6426 -0.5325
  545TMC3     H 8144   0.546   4.163   0.638 -1.6744  0.5679 -0.5245
  545TMC3    H1 8145   0.358   4.085   0.270  0.2537  0.9140  0.0598
  545TMC3    H2 8146   0.465   3.760   0.528 -0.0496 -0.5533 -1.7690
  545TMC3    C7 8147   0.293   3.833   0.329 -0.1253 -0.6072  0.0118
  545TMC3    C8 8148   0.593   3.891   0.716 -0.0817 -0.1007  0.4489
  545TMC3    O1 8149   0.212   3.900   0.267 -0.2087 -0.1201  0.0520
  545TMC3    O2 8150   0.556   3.778   0.754 -0.2819  0.5270 -0.5488
  546MPD2     C 8151   1.718   4.533   0.008  0.4879  0.0424  0.1849
  546MPD2    C1 8152   1.670   4.588  17.633 -0.6050  0.0652 -0.4821
  546MPD2    C2 8153   1.717   4.706  17.584  0.6087  0.7664  0.1490
  546MPD2    C3 8154   1.818   0.036  17.650 -0.0833 -0.8056 -0.4636
  546MPD2    C4 8155   1.860   4.731   0.028 -0.2931 -0.5251  0.1613
  546MPD2    C5 8156   1.809   4.614   0.076  1.2032 -0.3085  0.3687
  546MPD2     H 8157   1.684   0.013  17.490 -0.6028 -0.5865 -0.0516
  546MPD2    H1 8158   1.931   0.053   0.086 -0.4121 -1.2908  1.0635
  546MPD2    H2 8159   1.673   4.445   0.053  0.7409  0.0902  0.5236
  546MPD2    H3 8160   1.836   4.573   0.173  0.9595 -0.5308  0.3418
  546MPD2     N 8161   1.886   0.144  17.603  0.0395 -0.4695  0.6211
  546MPD2    H5 8162   1.949   0.190  17.668 -1.2423 -1.3933  2.5190
  546MPD2    N1 8163   1.562   4.527  17.575 -0.2352  0.3119  0.6448
  546MPD2    H7 8164   1.539   4.442  17.625 -0.4670  0.2287  0.4018
  547TMC3    C1 8165   1.373   4.463  17.451  0.0713 -0.2545  0.2352
  547TMC3    C2 8166   1.325   4.442  17.327 -0.1132  0.3472  0.4226
  547TMC3    C3 8167   1.262   4.321  17.299  0.1305  0.6219 -0.0784
  547TMC3    C4 8168   1.356   4.371  17.554  0.7792 -0.5948 -0.1166
  547TMC3    C5 8169   1.292   4.254  17.522 -0.3291  0.2798  0.7007
  547TMC3    C6 8170   1.243   4.224  17.401  0.0964 -0.0044 -0.1483
  547TMC3     C 8171   1.476   4.563  17.469 -0.1465 -0.0578 -0.3158
  547TMC3     O 8172   1.489   4.646  17.379  0.4234 -0.0281 -0.1985
  547TMC3     H 8173   1.336   4.519  17.251  0.1546 -0.6947 -0.5807
  547TMC3    H1 8174   1.363   4.409  17.656 -3.2439  1.8897 -0.7577
  547TMC3    H2 8175   1.204   4.129  17.367 -0.8955  0.3209  0.0754
  547TMC3    C7 8176   1.264   4.155  17.627  0.2579  0.0648  0.6636
  547TMC3    C8 8177   1.156   4.324  17.199  0.5360  0.2418 -0.1508
  547TMC3    O1 8178   1.179   4.073  17.598 -0.2078 -0.0812  0.2194
  547TMC3    O2 8179   1.141   4.433  17.145  0.2371 -0.3443  0.1148
  548MPD2     C 8180   1.408   0.454  12.335  0.6632  0.4450 -0.7047
  548MPD2    C1 8181   1.392   0.334  12.409 -0.0898 -0.0807 -0.3906
  548MPD2    C2 8182   1.480   0.227  12.391  0.7734  0.1767  0.2344
  548MPD2    C3 8183   1.597   0.251  12.316  0.1805  0.2418 -0.3948
  548MPD2    C4 8184   1.602   0.362  12.234 -0.0775 -0.0318 -0.1344
  548MPD2    C5 8185   1.514   0.467  12.245  0.8211 -0.0059  0.9662
  548MPD2     H 8186   1.480   0.134  12.446  0.7304 -0.1723 -0.3484
  548MPD2    H1 8187   1.689   0.369  12.169  1.3503  0.8699  1.8809
  548MPD2    H2 8188   1.328   0.525  12.322 -0.6574 -0.4421  2.6060
  548MPD2    H3 8189   1.529   0.553  12.181  1.3763 -1.3288 -0.6676
  548MPD2     N 8190   1.693   0.150  12.303 -0.3246  0.2237  0.9787
  548MPD2    H5 8191   1.664   0.063  12.346 -1.2524  1.3567  2.6692
  548MPD2    N1 8192   1.275   0.333  12.483  0.4580  0.3870 -0.6843
  548MPD2    H7 8193   1.236   0.426  12.493 -1.7379 -0.3304 -2.8197
  549TMC3    C1 8194   1.138   0.287  12.669 -0.1008  0.0524 -0.2201
  549TMC3    C2 8195   1.116   0.423  12.674 -0.1763  0.4355 -0.7714
  549TMC3    C3 8196   1.018   0.464  12.762 -0.3754 -0.2900 -0.2963
  549TMC3    C4 8197   1.084   0.205  12.762  0.0092 -0.1522 -0.0126
  549TMC3    C5 8198   0.984   0.247  12.839  0.2475 -0.2761 -0.2519
  549TMC3    C6 8199   0.940   0.375  12.832  0.2161  0.1903  0.4390
  549TMC3     C 8200   1.236   0.236  12.572 -0.1816  0.7121 -0.2389
  549TMC3     O 8201   1.287   0.126  12.595 -0.0116  0.3891 -0.2335
  549TMC3     H 8202   1.179   0.499  12.631 -0.0001 -0.0688 -1.4038
  549TMC3    H1 8203   1.123   0.104  12.762 -0.2574 -0.2547 -0.0619
  549TMC3    H2 8204   0.857   0.418  12.887 -2.0397 -2.7913 -0.6538
  549TMC3    C7 8205   0.888   0.161  12.895  0.3444  0.1479  0.0255
  549TMC3    C8 8206   0.967   0.600  12.756 -0.1306 -0.3107  0.0984
  549TMC3    O1 8207   0.779   0.213  12.912  0.2608  0.1078 -0.1790
  549TMC3    O2 8208   0.909   0.642  12.857  0.0058 -0.3421  0.2582
  550TMC3    C1 8209   0.333   3.001  12.650 -0.2383 -0.3732 -0.3709
  550TMC3    C2 8210   0.387   3.058  12.762 -0.2409 -0.0364  0.4142
  550TMC3    C3 8211   0.299   3.130  12.837 -0.3726 -0.1731  0.1561
  550TMC3    C4 8212   0.205   3.020  12.598 -0.1147 -0.4365  0.6175
  550TMC3    C5 8213   0.126   3.101  12.673 -1.0394 -0.6220 -0.0841
  550TMC3    C6 8214   0.175   3.157  12.791 -0.1526  0.8133  0.2498
  550TMC3     C 8215   0.424   2.910  12.588 -0.3022  0.2663 -0.6475
  550TMC3     O 8216   0.534   2.898  12.643 -0.3601 -0.5690 -0.2039
  550TMC3     H 8217   0.487   3.045  12.801 -0.3412  0.4692  0.8392
  550TMC3    H1 8218   0.164   2.970  12.511  0.3545  2.7820 -1.4805
  550TMC3    H2 8219   0.110   3.211  12.859  0.9467  0.7760  1.3254
  550TMC3    C7 8220   4.731   3.131  12.621  0.0986  0.4480  0.4819
  550TMC3    C8 8221   0.347   3.215  12.940 -0.1923 -0.0433  0.3984
  550TMC3    O1 8222   4.673   3.036  12.568 -0.2094 -0.1881  0.3732
  550TMC3    O2 8223   0.423   3.177  13.025 -0.1071 -0.0350  0.0477
  551TMC3    C1 8224   2.477   0.543  13.541  0.4777 -0.2526  1.0523
  551TMC3    C2 8225   2.567   0.447  13.505 -0.1434 -0.5542  0.2413
  551TMC3    C3 8226   2.690   0.462  13.558  0.0840 -0.6475 -0.7729
  551TMC3    C4 8227   2.493   0.638  13.637  1.0859 -0.9545 -0.2577
  551TMC3    C5 8228   2.615   0.634  13.705  0.2116  0.0310 -0.3853
  551TMC3    C6 8229   2.719   0.553  13.655 -0.4475  0.1340  0.9208
  551TMC3     C 8230   2.382   0.569  13.436 -0.4530 -0.1111  0.1881
  551TMC3     O 8231   2.329   0.472  13.383 -0.2332 -0.2868  0.0263
  551TMC3     H 8232   2.561   0.388  13.414 -0.5882 -1.4438  0.8423
  551TMC3    H1 8233   2.409   0.695  13.676  1.8706  0.1404 -0.1651
  551TMC3    H2 8234   2.823   0.561  13.682 -0.4840  0.7638  0.8671
  551TMC3    C7 8235   2.661   0.743  13.791 -0.3500  0.5070 -0.7173
  551TMC3    C8 8236   2.787   0.418  13.459 -0.3480 -0.2041 -0.5041
  551TMC3    O1 8237   2.754   0.712  13.864 -0.0354  0.5359  0.4667
  551TMC3    O2 8238   2.777   0.309  13.414 -0.7754  0.4265 -0.3297
  552MPD2     C 8239   4.267   2.577  14.580  0.4970  0.6062 -0.1313
  552MPD2    C1 8240   4.346   2.462  14.570  0.4979  0.0216  0.9335
  552MPD2    C2 8241   4.448   2.445  14.657 -0.3465  0.1282  1.3736
  552MPD2    C3 8242   4.482   2.556  14.736 -0.4630  0.1919  0.7262
  552MPD2    C4 8243   4.408   2.665  14.738 -0.6756 -0.7770  0.0071
  552MPD2    C5 8244   4.292   2.675  14.668  0.9525 -0.1814 -0.2283
  552MPD2     H 8245   4.513   2.359  14.664  0.2063  0.4676  0.4556
  552MPD2    H1 8246   4.443   2.747  14.801 -0.1469 -1.0183  0.0308
  552MPD2    H2 8247   4.178   2.599  14.523 -0.2769 -1.9242  0.1356
  552MPD2    H3 8248   4.234   2.766  14.680  1.1167 -0.2693  1.2363
  552MPD2     N 8249   4.596   2.566  14.818 -0.7250  0.0642 -0.4815
  552MPD2    H5 8250   4.591   2.644  14.883 -1.1266  0.4650 -0.9908
  552MPD2    N1 8251   4.324   2.361  14.467  0.6015  0.0993 -0.3428
  552MPD2    H7 8252   4.370   2.274  14.490 -1.0461 -0.7473 -0.3136
  553TMC3    C1 8253   4.237   2.265  14.279 -0.1714  0.0587  0.1523
  553TMC3    C2 8254   4.207   2.281  14.143  0.5028 -0.2210  0.5770
  553TMC3    C3 8255   4.189   2.169  14.066 -0.0912  0.2058 -0.4383
  553TMC3    C4 8256   4.262   2.145  14.334 -0.0621  0.5852  0.5380
  553TMC3    C5 8257   4.237   2.034  14.257  0.3419 -0.0096 -0.0825
  553TMC3    C6 8258   4.210   2.047  14.123 -0.1199 -0.4014 -0.4434
  553TMC3     C 8259   4.245   2.386  14.359 -0.1412 -0.5751  0.3525
  553TMC3     O 8260   4.186   2.487  14.317 -0.1936  0.2347 -0.1847
  553TMC3     H 8261   4.177   2.374  14.096  0.4998 -1.0711 -1.0771
  553TMC3    H1 8262   4.281   2.128  14.439  2.0432  2.2539  0.4303
  553TMC3    H2 8263   4.231   1.961  14.059 -2.6891 -2.1994  1.1154
  553TMC3    C7 8264   4.316   1.922  14.280 -0.2821  0.2666  0.2041
  553TMC3    C8 8265   4.226   2.162  13.923  1.6274  0.6797  0.1027
  553TMC3    O1 8266   4.258   1.816  14.301  0.4198 -0.2267 -0.1262
  553TMC3    O2 8267   4.284   2.265  13.883  0.1957  0.5309  0.5084
  554TMC3    C1 8268   1.352   2.010  11.768  0.0641 -0.4313 -0.0122
  554TMC3    C2 8269   1.223   2.018  11.715 -0.5639 -0.4187 -0.3172
  554TMC3    C3 8270   1.201   2.130  11.638 -0.4288 -0.2552 -0.3000
  554TMC3    C4 8271   1.448   2.105  11.759  0.2523 -0.0561  0.2133
  554TMC3    C5 8272   1.416   2.221  11.693 -0.1913  0.1542  0.1240
  554TMC3    C6 8273   1.294   2.230  11.637 -0.2564  0.3562 -0.2830
  554TMC3     C 8274   1.368   1.912  11.869 -0.6381  0.3254 -0.3723
  554TMC3     O 8275   1.267   1.870  11.928 -0.5065 -0.4138 -0.1530
  554TMC3     H 8276   1.152   1.937  11.726 -0.9216  0.1141  1.3440
  554TMC3    H1 8277   1.550   2.095  11.795  0.1670  1.2177  0.8391
  554TMC3    H2 8278   1.265   2.322  11.588 -2.2247  0.0707  0.3341
  554TMC3    C7 8279   1.506   2.339  11.703  0.7874  0.3220 -0.4464
  554TMC3    C8 8280   1.146   2.107  11.512  0.1535 -0.4680  0.0201
  554TMC3    O1 8281   1.572   2.351  11.804  0.2197  0.4913 -0.1362
  554TMC3    O2 8282   1.207   2.145  11.414 -0.3180 -0.3345 -0.1991
  555TMC3    C1 8283   0.469   1.644  15.488 -0.1537 -0.2106 -0.5500
  555TMC3    C2 8284   0.510   1.718  15.594 -0.5452  0.7786 -0.0905
  555TMC3    C3 8285   0.622   1.671  15.661 -0.2521  0.2863  0.2756
  555TMC3    C4 8286   0.535   1.534  15.447  0.7654 -0.2340  0.2695
  555TMC3    C5 8287   0.653   1.494  15.507  0.4056 -0.2128 -0.2311
  555TMC3    C6 8288   0.696   1.564  15.616 -0.3130 -0.1963 -0.4242
  555TMC3     C 8289   0.374   1.695  15.390  0.6035  0.0732  0.4383
  555TMC3     O 8290   0.336   1.611  15.308  0.2567 -0.4619  0.1495
  555TMC3     H 8291   0.450   1.798  15.636  0.0601 -0.1730  2.5805
  555TMC3    H1 8292   0.485   1.462  15.384  2.0128 -0.6338 -0.2765
  555TMC3    H2 8293   0.789   1.528  15.659  0.2895  1.8720  0.0380
  555TMC3    C7 8294   0.654   1.351  15.517  0.5211 -0.5034 -0.3551
  555TMC3    C8 8295   0.667   1.750  15.776 -0.8850  0.3848 -0.2290
  555TMC3    O1 8296   0.650   1.295  15.626  0.6183  0.3186  0.3917
  555TMC3    O2 8297   0.655   1.872  15.763 -0.1567  0.5023 -0.0675
  556MPD2     C 8298   3.081   3.350  10.693 -0.9347 -0.1911  0.3782
  556MPD2    C1 8299   3.144   3.257  10.763  0.4034  0.4014 -0.0635
  556MPD2    C2 8300   3.200   3.144  10.701 -0.5877  0.6872 -0.5382
  556MPD2    C3 8301   3.193   3.145  10.558  0.1612 -0.4557  0.1783
  556MPD2    C4 8302   3.129   3.246  10.490 -0.0980  0.1648  0.3201
  556MPD2    C5 8303   3.070   3.345  10.558  0.5981  0.2529 -0.2703
  556MPD2     H 8304   3.252   3.067  10.757  0.5972  0.5787 -1.7802
  556MPD2    H1 8305   3.134   3.258  10.382  1.3922  0.4972  0.4250
  556MPD2    H2 8306   3.032   3.438  10.734 -0.6498 -0.6609  1.7404
  556MPD2    H3 8307   3.009   3.424  10.517 -0.2582  0.0873  0.6872
  556MPD2     N 8308   3.260   3.032  10.499  0.6553 -0.2853 -0.4879
  556MPD2    H5 8309   3.298   2.963  10.562 -0.4914  0.1982  0.7415
  556MPD2    N1 8310   3.157   3.258  10.908  0.0829 -0.2574 -0.0118
  556MPD2    H7 8311   3.205   3.181  10.954  1.9474  0.8724 -0.0710
  557TMC3    C1 8312   3.292   2.880  10.330 -0.2221 -0.6274 -0.9553
  557TMC3    C2 8313   3.299   2.849  10.199  0.5011  0.3813  0.2377
  557TMC3    C3 8314   3.272   2.719  10.157  0.1930  0.3073  0.1250
  557TMC3    C4 8315   3.273   2.784  10.422  0.0871 -0.2146  0.5355
  557TMC3    C5 8316   3.265   2.652  10.382 -0.7832  0.1596  0.0475
  557TMC3    C6 8317   3.264   2.619  10.250  0.2028 -0.3137  0.0245
  557TMC3     C 8318   3.259   3.015  10.363 -1.0799  0.0402 -0.4487
  557TMC3     O 8319   3.242   3.097  10.275 -0.0289  0.1014  0.2163
  557TMC3     H 8320   3.312   2.928  10.126 -1.7837  0.6405  0.1209
  557TMC3    H1 8321   3.258   2.798  10.529  0.7238  2.5977  0.2611
  557TMC3    H2 8322   3.290   2.523  10.206  0.6658  0.5311 -1.5606
  557TMC3    C7 8323   3.196   2.563  10.473  0.3639 -0.0198 -0.2600
  557TMC3    C8 8324   3.219   2.702  10.024  0.2139 -0.0292  0.4241
  557TMC3    O1 8325   3.120   2.602  10.557 -0.1115 -1.0945 -0.2020
  557TMC3    O2 8326   3.233   2.792   9.946 -0.0567  0.0810  0.2669
  558TMC3    C1 8327   0.910   1.122  10.567 -0.1355  0.3731 -0.1055
  558TMC3    C2 8328   0.804   1.042  10.597 -0.2880  0.1172  0.5257
  558TMC3    C3 8329   0.687   1.066  10.532  0.2424 -0.3312  0.0656
  558TMC3    C4 8330   0.911   1.192  10.446  0.3002  0.1370 -0.0163
  558TMC3    C5 8331   0.799   1.183  10.372  0.1323 -0.2208  0.6499
  558TMC3    C6 8332   0.684   1.121  10.409 -0.5834 -0.1499  0.4506
  558TMC3     C 8333   1.036   1.079  10.630  0.5586 -1.1015  0.1559
  558TMC3     O 8334   1.037   0.973  10.691  0.7282 -0.2345 -0.4890
  558TMC3     H 8335   0.807   0.983  10.688 -1.1718  0.0632  0.5206
  558TMC3    H1 8336   0.999   1.242  10.405  0.7266 -1.4163 -1.0052
  558TMC3    H2 8337   0.591   1.132  10.355 -0.8575 -2.1937  0.5238
  558TMC3    C7 8338   0.810   1.226  10.236  0.7967 -0.0759  0.3958
  558TMC3    C8 8339   0.580   0.973  10.540 -0.8390  0.3940 -0.9449
  558TMC3    O1 8340   0.905   1.300  10.213 -0.1826  0.5071  0.2837
  558TMC3    O2 8341   0.503   0.950  10.446 -0.1643 -0.4516  0.1476
  559MPD2     C 8342   0.911   1.679  11.213 -0.5490 -1.1147  0.0415
  559MPD2    C1 8343   0.843   1.565  11.226  0.5886 -0.0728 -0.0856
  559MPD2    C2 8344   0.918   1.459  11.268 -0.2271  0.5174  0.1804
  559MPD2    C3 8345   1.056   1.460  11.293  0.3802 -0.1593 -0.3447
  559MPD2    C4 8346   1.122   1.587  11.272  0.2160  0.4801  0.6423
  559MPD2    C5 8347   1.041   1.693  11.237 -0.6030 -0.1108 -0.0316
  559MPD2     H 8348   0.869   1.364  11.289 -0.4187  0.0383 -2.5146
  559MPD2    H1 8349   1.229   1.600  11.274  0.2058  0.9823 -1.2392
  559MPD2    H2 8350   0.865   1.768  11.171  0.6476  0.1916  1.5230
  559MPD2    H3 8351   1.088   1.790  11.224 -2.9429  1.0795  0.2448
  559MPD2     N 8352   1.123   1.343  11.329  0.0846  0.2982 -0.1897
  559MPD2    H5 8353   1.068   1.257  11.335  2.8903 -1.5477 -0.7395
  559MPD2    N1 8354   0.706   1.557  11.179  0.0371  0.2211  0.0556
  559MPD2    H7 8355   0.680   1.622  11.105  0.7581  0.7333  0.2466
  560TMC3    C1 8356   1.313   1.201  11.368  0.6048  0.2096 -0.3943
  560TMC3    C2 8357   1.225   1.095  11.386  0.2829 -0.4878 -0.1250
  560TMC3    C3 8358   1.279   0.977  11.429 -0.3583 -0.0279  0.1375
  560TMC3    C4 8359   1.448   1.190  11.391  0.1165  0.1315  0.5880
  560TMC3    C5 8360   1.499   1.071  11.423 -0.7950 -0.4577 -0.4380
  560TMC3    C6 8361   1.412   0.963  11.449  0.5587  0.1078  0.2825
  560TMC3     C 8362   1.261   1.333  11.345 -0.2751  0.0003  0.0638
  560TMC3     O 8363   1.343   1.427  11.351 -0.5256  0.1461 -0.2823
  560TMC3     H 8364   1.120   1.115  11.405  1.0079  2.5365  0.6690
  560TMC3    H1 8365   1.509   1.277  11.373 -0.9693  0.6083 -0.7939
  560TMC3    H2 8366   1.458   0.867  11.470  0.7671  0.2350  0.4144
  560TMC3    C7 8367   1.637   1.053  11.470 -0.2308 -0.1396 -0.5891
  560TMC3    C8 8368   1.188   0.864  11.422 -0.5196  0.5503 -1.1326
  560TMC3    O1 8369   1.668   0.943  11.519 -0.5193 -0.2464  0.2651
  560TMC3    O2 8370   1.079   0.891  11.371  0.2808 -0.3218  0.1701
  561TMC3    C1 8371   3.711   0.159  11.769  0.2552 -0.1473  0.4586
  561TMC3    C2 8372   3.714   0.126  11.902  0.5416  0.8656 -0.8214
  561TMC3    C3 8373   3.713   0.228  11.991  0.2598  0.2767  0.6850
  561TMC3    C4 8374   3.685   0.290  11.723  0.2292 -0.4411 -1.1307
  561TMC3    C5 8375   3.679   0.386  11.821  0.2183 -0.0752  0.1919
  561TMC3    C6 8376   3.677   0.357  11.955  0.6940  0.1793 -0.4991
  561TMC3     C 8377   3.729   0.058  11.670 -0.1452 -0.0518  0.0895
  561TMC3     O 8378   3.718   4.677  11.702  0.5928 -0.6531 -0.7494
  561TMC3     H 8379   3.734   0.025  11.934  2.6778  1.3995 -0.4258
  561TMC3    H1 8380   3.642   0.315  11.627 -0.0404 -1.9801 -1.4092
  561TMC3    H2 8381   3.683   0.446  12.017 -0.4655 -0.1150  0.0275
  561TMC3    C7 8382   3.643   0.523  11.775  0.6965  0.8781 -0.1046
  561TMC3    C8 8383   3.713   0.192  12.134 -0.0641 -0.3699  0.5685
  561TMC3    O1 8384   3.578   0.584  11.861 -0.3066  0.1079  0.0848
  561TMC3    O2 8385   3.757   0.079  12.163 -0.4565  0.1533 -0.0109
  562TMC3    C1 8386   0.498   1.925  16.905 -0.3076  0.1145 -0.3235
  562TMC3    C2 8387   0.532   2.039  16.835 -0.3568  0.1053 -0.3005
  562TMC3    C3 8388   0.492   2.050  16.707  0.7814 -0.1016 -0.0351
  562TMC3    C4 8389   0.421   1.830  16.841 -0.0032  0.3607 -0.1031
  562TMC3    C5 8390   0.406   1.841  16.703 -0.7451  0.1640  0.4878
  562TMC3    C6 8391   0.438   1.952  16.633  0.4015 -0.5129  0.4838
  562TMC3     C 8392   0.493   1.911  17.051 -0.4526  0.2906 -0.1738
  562TMC3     O 8393   0.423   1.817  17.090  0.1299 -0.1790  0.0084
  562TMC3     H 8394   0.599   2.117  16.870  0.1520 -0.2787 -0.4217
  562TMC3    H1 8395   0.368   1.749  16.891 -0.5975  0.0401 -1.2639
  562TMC3    H2 8396   0.432   1.952  16.525  1.0841 -1.2994  0.4451
  562TMC3    C7 8397   0.361   1.733  16.613  0.1555  0.1187 -0.1011
  562TMC3    C8 8398   0.451   2.188  16.666  0.0201 -0.9079 -0.1856
  562TMC3    O1 8399   0.276   1.760  16.530  0.5016 -0.0818 -0.1016
  562TMC3    O2 8400   0.503   2.282  16.732 -0.6329 -0.5389  0.5357
  563MPD2     C 8401   2.532   3.269  16.168 -0.0730  1.0750 -0.0930
  563MPD2    C1 8402   2.616   3.338  16.251 -0.3336  0.3656  0.0589
  563MPD2    C2 8403   2.745   3.284  16.270  0.2986  0.0216 -0.1701
  563MPD2    C3 8404   2.789   3.165  16.218 -0.2925  0.3231 -0.0042
  563MPD2    C4 8405   2.702   3.099  16.142  0.3968 -0.3944 -0.0581
  563MPD2    C5 8406   2.577   3.147  16.118 -0.1298  0.0991  0.4643
  563MPD2     H 8407   2.795   3.346  16.343 -0.8450  0.7826 -0.0285
  563MPD2    H1 8408   2.719   2.993  16.129 -1.3336 -0.3291 -3.0165
  563MPD2    H2 8409   2.426   3.290  16.156 -0.3499 -1.4963 -2.2823
  563MPD2    H3 8410   2.509   3.084  16.062  0.7760  0.9674 -1.6437
  563MPD2     N 8411   2.915   3.111  16.259 -0.6232 -0.4004  0.2185
  563MPD2    H5 8412   2.971   3.181  16.307 -0.3819 -1.2754  1.2019
  563MPD2    N1 8413   2.561   3.447  16.319  0.8770 -0.3985 -0.1063
  563MPD2    H7 8414   2.461   3.459  16.320  0.5367 -3.2329 -1.2687
  564TMC3    C1 8415   2.561   3.560  16.525 -0.1688  0.6125  0.1029
  564TMC3    C2 8416   2.430   3.526  16.511 -0.0107 -0.0725  0.0176
  564TMC3    C3 8417   2.376   3.431  16.593  0.7896 -0.7508  0.2446
  564TMC3    C4 8418   2.638   3.517  16.635  0.1283 -0.2241  0.0398
  564TMC3    C5 8419   2.579   3.416  16.712 -0.4899  0.5953  0.5018
  564TMC3    C6 8420   2.453   3.372  16.696 -0.0166  0.3103 -0.7178
  564TMC3     C 8421   2.632   3.540  16.399 -0.0104  0.6276 -0.8340
  564TMC3     O 8422   2.750   3.568  16.402 -0.1589  0.4385 -0.7409
  564TMC3     H 8423   2.371   3.586  16.443 -1.2605 -0.8243  0.4322
  564TMC3    H1 8424   2.746   3.515  16.625 -0.0090 -0.2628 -1.3864
  564TMC3    H2 8425   2.403   3.306  16.766 -0.1020 -0.1735 -1.2378
  564TMC3    C7 8426   2.669   3.304  16.726 -0.3234 -0.3933  0.0370
  564TMC3    C8 8427   2.321   3.321  16.518 -0.4412  0.2796  0.2126
  564TMC3    O1 8428   2.786   3.318  16.753 -0.2631 -0.2043  0.0986
  564TMC3    O2 8429   2.335   3.212  16.571  0.1442 -0.9172 -0.5200
  565TMC3    C1 8430   2.233   3.820  10.267  0.1460  0.0601  0.6328
  565TMC3    C2 8431   2.290   3.762  10.378 -0.6653 -1.0469  0.7436
  565TMC3    C3 8432   2.225   3.670  10.444 -0.2008 -0.4882  0.0339
  565TMC3    C4 8433   2.107   3.789  10.217  0.2505  0.0648 -0.3627
  565TMC3    C5 8434   2.038   3.689  10.281 -0.2935  0.1604 -0.0760
  565TMC3    C6 8435   2.093   3.639  10.400  0.6824  0.3185  0.1447
  565TMC3     C 8436   2.306   3.936  10.219 -0.0845  0.4589  0.1407
  565TMC3     O 8437   2.385   3.982  10.305 -0.2080 -0.4078 -0.5728
  565TMC3     H 8438   2.392   3.785  10.404 -0.7576 -1.1225  1.1656
  565TMC3    H1 8439   2.080   3.843  10.126  0.8504 -2.1382 -1.8452
  565TMC3    H2 8440   2.051   3.551  10.447 -0.3803  1.3844  1.1920
  565TMC3    C7 8441   1.895   3.679  10.271  0.6765 -0.4394  0.5325
  565TMC3    C8 8442   2.264   3.641  10.577  0.2047  0.4868 -0.1451
  565TMC3    O1 8443   1.837   3.608  10.353 -0.1226 -0.2816  0.3775
  565TMC3    O2 8444   2.381   3.673  10.604  0.8105 -0.5712  0.2641
  566MPD2     C 8445   0.143   0.889  14.582 -0.8185 -0.0441  0.1260
  566MPD2    C1 8446   0.085   0.963  14.481  0.4196  1.1015  0.1189
  566MPD2    C2 8447   4.714   0.907  14.414  0.0171  0.1488  0.1274
  566MPD2    C3 8448   4.682   0.776  14.432  0.5530 -0.0625  0.4327
  566MPD2    C4 8449   0.004   0.703  14.530 -0.4072  0.3554  0.8101
  566MPD2    C5 8450   0.100   0.757  14.600 -0.3026 -0.7601  0.3769
  566MPD2     H 8451   4.667   0.980  14.349 -1.5070  1.4925  2.7054
  566MPD2    H1 8452   4.712   0.599  14.544 -2.8570  1.3594  3.3618
  566MPD2    H2 8453   0.231   0.918  14.639  0.9788 -1.3728 -1.9528
  566MPD2    H3 8454   0.160   0.691  14.662  1.0967  0.4989  0.3708
  566MPD2     N 8455   4.584   0.720  14.347  1.1317  0.1967 -0.1938
  566MPD2    H5 8456   4.537   0.638  14.384 -0.8137  1.4221  0.0510
  566MPD2    N1 8457   0.137   1.092  14.455 -0.5021 -0.6611  0.0394
  566MPD2    H7 8458   0.202   1.125  14.526 -1.7061  0.9970  0.3578
  567TMC3    C1 8459   0.212   1.276  14.312  0.4751  1.2123 -0.4286
  567TMC3    C2 8460   0.269   1.277  14.184 -0.7164  1.5885 -0.7433
  567TMC3    C3 8461   0.386   1.336  14.169  0.0379 -0.4831 -0.0534
  567TMC3    C4 8462   0.260   1.341  14.417  0.1248  0.6877 -0.6841
  567TMC3    C5 8463   0.383   1.388  14.395 -0.3915 -0.3916  0.1616
  567TMC3    C6 8464   0.441   1.401  14.274 -0.1776 -1.2609  0.4394
  567TMC3     C 8465   0.121   1.162  14.335 -0.2427 -0.9029  0.0374
  567TMC3     O 8466   0.072   1.120  14.230  0.1015 -0.2026 -0.0056
  567TMC3     H 8467   0.214   1.224  14.106  3.1807 -0.9685 -1.7935
  567TMC3    H1 8468   0.210   1.333  14.513 -3.6997 -1.1951 -2.8123
  567TMC3    H2 8469   0.543   1.437  14.271  0.5425 -3.3653 -0.6548
  567TMC3    C7 8470   0.431   1.477  14.501 -0.4625 -0.1124 -0.3469
  567TMC3    C8 8471   0.417   1.385  14.032 -0.3638  0.2060  0.2706
  567TMC3    O1 8472   0.543   1.526  14.489 -0.0812  0.0060 -0.0457
  567TMC3    O2 8473   0.341   1.336  13.951  0.1015  0.0491  0.6384
  568MPD2     C 8474   2.194   1.775  16.106 -0.0387 -0.0267  0.2344
  568MPD2    C1 8475   2.271   1.807  16.213  0.8424 -0.4021  0.4078
  568MPD2    C2 8476   2.281   1.937  16.260 -0.1906  0.0681  0.0055
  568MPD2    C3 8477   2.210   2.042  16.206 -0.1405 -0.1624 -0.4124
  568MPD2    C4 8478   2.143   2.015  16.088  0.5239  0.2428 -0.1914
  568MPD2    C5 8479   2.134   1.887  16.040 -0.2347 -0.0487  0.6105
  568MPD2     H 8480   2.324   1.963  16.356 -0.4522  1.1496 -0.1652
  568MPD2    H1 8481   2.089   2.093  16.037  2.6473 -0.1060 -2.9435
  568MPD2    H2 8482   2.185   1.676  16.063  0.7301  0.6777 -1.5478
  568MPD2    H3 8483   2.072   1.861  15.955  0.6503 -1.9259  0.5334
  568MPD2     N 8484   2.213   2.169  16.272  0.6026  0.1098 -0.2236
  568MPD2    H5 8485   2.246   2.172  16.368  2.3983 -0.6840 -0.8144
  568MPD2    N1 8486   2.329   1.703  16.284  0.1773 -0.2584 -0.2313
  568MPD2    H7 8487   2.298   1.608  16.272  0.1498 -0.1657 -0.9024
  569TMC3    C1 8488   2.191   2.411  16.291  0.9472 -0.3572 -0.1442
  569TMC3    C2 8489   2.212   2.403  16.426  0.2795 -0.1755  0.1319
  569TMC3    C3 8490   2.208   2.518  16.496  0.5801 -0.2776 -0.5289
  569TMC3    C4 8491   2.176   2.536  16.226  0.0529 -0.0028  0.1250
  569TMC3    C5 8492   2.179   2.648  16.300 -0.1899 -0.1164 -0.2040
  569TMC3    C6 8493   2.190   2.645  16.439  0.4614 -0.4124  0.2887
  569TMC3     C 8494   2.173   2.291  16.210  0.4162 -0.1371 -0.1828
  569TMC3     O 8495   2.123   2.316  16.098  0.4327  0.9517  0.6408
  569TMC3     H 8496   2.208   2.306  16.473  0.6836  0.5097  1.5858
  569TMC3    H1 8497   2.171   2.546  16.119 -1.7739 -1.0085  0.1319
  569TMC3    H2 8498   2.186   2.735  16.499  1.6293 -1.0963  1.4034
  569TMC3    C7 8499   2.146   2.773  16.229 -0.6613 -0.2609 -0.6077
  569TMC3    C8 8500   2.269   2.500  16.629 -0.6462 -0.0966 -0.7190
  569TMC3    O1 8501   2.077   2.763  16.131 -0.1663  0.5115  0.3113
  569TMC3    O2 8502   2.275   2.385  16.669 -0.0329 -0.5232  0.4021
  570TMC3    C1 8503   1.193   0.725  16.242 -0.1814 -0.0213  0.2438
  570TMC3    C2 8504   1.167   0.760  16.111 -0.1016  0.2898 -0.8869
  570TMC3    C3 8505   1.232   0.873  16.068 -0.2142 -0.5044  0.3346
  570TMC3    C4 8506   1.287   0.787  16.322 -0.2336 -0.2748 -0.9043
  570TMC3    C5 8507   1.348   0.895  16.269  0.2847  0.4555  0.2691
  570TMC3    C6 8508   1.325   0.942  16.142  0.2620 -0.3830 -0.3099
  570TMC3     C 8509   1.115   0.614  16.298  0.2876 -0.4760  0.0783
  570TMC3     O 8510   1.067   0.536  16.218 -0.0234 -0.1553  0.3349
  570TMC3     H 8511   1.084   0.720  16.055 -0.7819  2.5541 -1.4879
  570TMC3    H1 8512   1.312   0.743  16.418 -0.2954  0.4799 -0.5412
  570TMC3    H2 8513   1.382   1.023  16.098  0.8040 -1.1599 -1.0409
  570TMC3    C7 8514   1.466   0.942  16.346  0.1218 -0.2509  0.0027
  570TMC3    C8 8515   1.223   0.898  15.923 -1.0630  0.1644 -0.1483
  570TMC3    O1 8516   1.489   0.885  16.450  0.1250 -0.2877  0.1261
  570TMC3    O2 8517   1.249   1.018  15.898  0.4628 -0.2850  0.2166
  571MPD2     C 8518   4.699   2.612   0.624  0.2292  0.2286 -0.1049
  571MPD2    C1 8519   4.703   2.705   0.521 -0.0867 -0.2961 -0.4789
  571MPD2    C2 8520   0.010   2.836   0.552 -0.4157 -0.6691  0.0484
  571MPD2    C3 8521   0.050   2.862   0.679 -0.0377  0.6524 -0.3023
  571MPD2    C4 8522   0.044   2.769   0.779  0.2214  0.3337 -0.0064
  571MPD2    C5 8523   0.009   2.639   0.748  0.0256  0.2668  0.1509
  571MPD2     H 8524   0.018   2.907   0.470  2.5376 -0.0107  0.9019
  571MPD2    H1 8525   0.073   2.788   0.882 -1.5821 -0.4903  0.6525
  571MPD2    H2 8526   4.670   2.510   0.603  2.2528 -0.2238 -0.6489
  571MPD2    H3 8527   0.020   2.559   0.820 -1.2319  0.4846  0.5710
  571MPD2     N 8528   0.103   2.987   0.710  0.4214 -0.0629 -0.4305
  571MPD2    H5 8529   0.123   2.992   0.809  2.5191  1.4691 -0.9161
  571MPD2    N1 8530   4.672   2.654   0.392  0.0051  0.8123 -0.3067
  571MPD2    H7 8531   4.651   2.555   0.392 -2.3433  1.3113 -0.3602
  572TMC3    C1 8532   0.170   3.215   0.707 -0.8395 -0.1684 -0.7278
  572TMC3    C2 8533   0.201   3.200   0.836  0.5015 -0.8018 -0.3926
  572TMC3    C3 8534   0.221   3.315   0.908  0.3510 -0.2904 -0.4589
  572TMC3    C4 8535   0.163   3.337   0.640  0.5173 -0.4702 -0.8106
  572TMC3    C5 8536   0.179   3.450   0.717  0.9039 -0.3226  0.4712
  572TMC3    C6 8537   0.199   3.439   0.856 -0.1618  0.4584  0.6957
  572TMC3     C 8538   0.117   3.105   0.635  0.0738 -0.6496 -0.0585
  572TMC3     O 8539   0.086   3.122   0.521  0.5389 -0.5236 -0.1881
  572TMC3     H 8540   0.233   3.102   0.870  0.5101  0.1675  2.3256
  572TMC3    H1 8541   0.149   3.330   0.533  0.0483 -0.9043 -0.7210
  572TMC3    H2 8542   0.206   3.525   0.921  2.9956  0.0384  0.8931
  572TMC3    C7 8543   0.167   3.579   0.648  0.3568  0.0675  0.3679
  572TMC3    C8 8544   0.243   3.308   1.052  0.3848  0.7114 -0.0189
  572TMC3    O1 8545   0.115   3.585   0.536  0.0723 -0.0310 -0.1860
  572TMC3    O2 8546   0.259   3.409   1.116 -0.5858 -0.8640 -0.2238
  573MPD2     C 8547   0.434   2.752   0.982  0.1048  0.4030  0.2381
  573MPD2    C1 8548   0.457   2.877   0.927  0.5711 -0.2909 -0.8926
  573MPD2    C2 8549   0.443   2.897   0.788 -0.7831  0.1738  0.4942
  573MPD2    C3 8550   0.398   2.795   0.705 -0.1186 -0.6515  0.6666
  573MPD2    C4 8551   0.371   2.672   0.762 -0.2037  0.4761 -0.3532
  573MPD2    C5 8552   0.385   2.654   0.898 -0.0940 -0.8056 -0.4659
  573MPD2     H 8553   0.463   2.995   0.746 -3.2044  0.9930  1.2428
  573MPD2    H1 8554   0.358   2.586   0.697 -3.7375  0.1189  0.8364
  573MPD2    H2 8555   0.444   2.728   1.087 -1.7284 -0.5081  0.2025
  573MPD2    H3 8556   0.359   2.557   0.939 -0.1050 -0.3977  0.4934
  573MPD2     N 8557   0.374   2.809   0.567  0.1228  0.3361 -0.5403
  573MPD2    H5 8558   0.319   2.743   0.513 -0.0887  2.3733 -2.8233
  573MPD2    N1 8559   0.496   2.975   1.025 -0.9590  0.5528 -0.0095
  573MPD2    H7 8560   0.496   2.938   1.119 -2.5540  0.4077 -0.0716
  574TMC3    C1 8561   0.360   2.910   0.348  0.1531 -0.0232  0.0259
  574TMC3    C2 8562   0.348   3.027   0.275  0.2361 -0.6088 -0.4542
  574TMC3    C3 8563   0.305   3.025   0.146  0.0064 -0.3048 -0.6594
  574TMC3    C4 8564   0.329   2.793   0.278 -0.3413  0.5240  0.8941
  574TMC3    C5 8565   0.284   2.792   0.148 -0.3073  0.1381 -0.5308
  574TMC3    C6 8566   0.268   2.911   0.084 -0.2360  0.8249  0.0260
  574TMC3     C 8567   0.415   2.917   0.488 -0.6288 -0.6316  0.2361
  574TMC3     O 8568   0.491   3.012   0.517 -0.0506  0.0256 -0.4896
  574TMC3     H 8569   0.347   3.117   0.335 -0.8002 -0.7610 -0.2374
  574TMC3    H1 8570   0.340   2.695   0.323  0.9468 -0.5246 -1.7224
  574TMC3    H2 8571   0.226   2.913  17.729  0.0789  0.2872 -0.1145
  574TMC3    C7 8572   0.282   2.662   0.082  0.5581 -0.2128 -0.2201
  574TMC3    C8 8573   0.274   3.154   0.076 -0.1612  0.2606  0.5368
  574TMC3    O1 8574   0.321   2.560   0.141 -0.3921 -0.6452 -0.6600
  574TMC3    O2 8575   0.195   3.159  17.729 -0.4535  0.0249 -0.0019
  575TMC3    C1 8576   2.828   3.633  11.223 -0.5898  0.1093  0.9720
  575TMC3    C2 8577   2.786   3.616  11.356 -0.4295 -0.5129 -0.1531
  575TMC3    C3 8578   2.664   3.558  11.380  0.6031  0.1422  0.0397
  575TMC3    C4 8579   2.741   3.608  11.115 -0.1637  0.2471 -0.0618
  575TMC3    C5 8580   2.623   3.551  11.144 -0.0027 -0.4715 -0.2204
  575TMC3    C6 8581   2.586   3.521  11.271 -0.2154  0.0490  0.4228
  575TMC3     C 8582   2.953   3.703  11.210 -0.5377 -1.1482  0.5172
  575TMC3     O 8583   2.983   3.782  11.307  0.0946 -0.3597 -0.3935
  575TMC3     H 8584   2.861   3.624  11.434 -1.0432  0.3755  0.3375
  575TMC3    H1 8585   2.772   3.632  11.014  0.1465  0.9175  0.1878
  575TMC3    H2 8586   2.493   3.475  11.301  0.5241 -0.2832  2.1732
  575TMC3    C7 8587   2.532   3.536  11.030 -0.3521  0.1504 -0.0278
  575TMC3    C8 8588   2.626   3.550  11.524 -0.9078  0.6229 -0.2874
  575TMC3    O1 8589   2.579   3.546  10.919 -0.6264 -0.5429 -0.2176
  575TMC3    O2 8590   2.679   3.632  11.602  0.1894  0.7942 -0.1192
  576MPD2     C 8591   2.754   0.553  13.026 -0.5475  0.4488 -0.1351
  576MPD2    C1 8592   2.857   0.632  13.003  0.4640  0.6134 -0.4838
  576MPD2    C2 8593   2.877   0.736  13.091  0.3327  0.1968  0.0155
  576MPD2    C3 8594   2.794   0.762  13.201  0.1472 -0.1131  0.2290
  576MPD2    C4 8595   2.681   0.682  13.223  0.5468 -0.3659 -0.2243
  576MPD2    C5 8596   2.671   0.576  13.140  0.1035 -0.0460 -0.4263
  576MPD2     H 8597   2.963   0.798  13.071  0.2386  0.5059  0.5684
  576MPD2    H1 8598   2.608   0.689  13.302 -0.8363  0.8054 -1.5909
  576MPD2    H2 8599   2.733   0.474  12.954 -0.7463 -0.8508  1.3496
  576MPD2    H3 8600   2.599   0.497  13.160  0.2219 -0.1366 -0.3563
  576MPD2     N 8601   2.828   0.866  13.289 -0.9585  0.0900 -0.5775
  576MPD2    H5 8602   2.901   0.931  13.263  0.5829 -1.4265 -0.0712
  576MPD2    N1 8603   2.941   0.615  12.888  0.4617  0.3653 -0.6755
  576MPD2    H7 8604   3.029   0.665  12.897  1.4559 -1.2350 -1.5709
  577TMC3    C1 8605   3.024   0.527  12.693 -0.3886  0.4409 -0.5700
  577TMC3    C2 8606   3.141   0.535  12.763 -0.1862 -0.1227  0.1649
  577TMC3    C3 8607   3.247   0.584  12.700 -0.2386 -0.3498  0.0550
  577TMC3    C4 8608   3.006   0.571  12.566 -0.5855 -0.1897  0.1076
  577TMC3    C5 8609   3.118   0.628  12.510 -0.0110 -0.0474 -0.0903
  577TMC3    C6 8610   3.238   0.632  12.576 -0.5537  0.7633 -0.2298
  577TMC3     C 8611   2.910   0.541  12.774 -0.2342 -0.1052  0.6811
  577TMC3     O 8612   2.803   0.527  12.721 -0.3472  0.8427 -0.4642
  577TMC3     H 8613   3.157   0.492  12.861 -2.5123  0.9103  0.9959
  577TMC3    H1 8614   2.906   0.553  12.531 -0.9534 -0.2035  1.1517
  577TMC3    H2 8615   3.322   0.687  12.535  0.3832 -0.2568  0.3310
  577TMC3    C7 8616   3.131   0.613  12.373  0.4482  0.4878  0.3772
  577TMC3    C8 8617   3.356   0.490  12.709  0.6224  0.1703 -1.0139
  577TMC3    O1 8618   3.243   0.590  12.332 -0.1252  0.1304  0.6674
  577TMC3    O2 8619   3.387   0.447  12.819 -0.3187 -0.0459  0.2093
  578MPD2     C 8620   1.021   1.135   1.345  0.6164 -0.1708 -0.1101
  578MPD2    C1 8621   1.096   1.205   1.258  0.5355  0.3345  0.2714
  578MPD2    C2 8622   1.219   1.159   1.224 -0.6102 -0.4789  1.0848
  578MPD2    C3 8623   1.254   1.032   1.262 -0.8066 -0.3845  0.3069
  578MPD2    C4 8624   1.171   0.954   1.342 -0.4944  0.2094  0.7030
  578MPD2    C5 8625   1.059   1.007   1.386 -0.0325  0.0105  0.1045
  578MPD2     H 8626   1.278   1.211   1.150  0.3701 -0.6154  1.7692
  578MPD2    H1 8627   1.205   0.854   1.368 -0.6335  0.3674  1.5201
  578MPD2    H2 8628   0.922   1.169   1.370  0.5705  0.0814 -0.6268
  578MPD2    H3 8629   0.989   0.952   1.447  1.5304 -3.0583 -0.8577
  578MPD2     N 8630   1.374   0.990   1.212  0.3654 -0.0176  0.2316
  578MPD2    H5 8631   1.422   1.063   1.161  1.0811  0.8254  2.1160
  578MPD2    N1 8632   1.028   1.318   1.207 -0.1960 -0.4181 -0.0739
  578MPD2    H7 8633   0.932   1.326   1.238 -1.0450  0.0919 -2.8064
  579TMC3    C1 8634   1.568   0.861   1.181 -0.2503 -0.0161 -0.2484
  579TMC3    C2 8635   1.653   0.960   1.222 -0.0279 -0.4002  0.0128
  579TMC3    C3 8636   1.786   0.929   1.198  0.0637  0.3363 -0.0182
  579TMC3    C4 8637   1.607   0.742   1.134  0.0843  0.4007  1.1257
  579TMC3    C5 8638   1.742   0.716   1.119  0.1750  1.0379  0.1331
  579TMC3    C6 8639   1.832   0.806   1.160  0.7498  0.6980 -0.4264
  579TMC3     C 8640   1.433   0.867   1.228  0.3194 -0.1883 -0.2950
  579TMC3     O 8641   1.373   0.763   1.251  0.2834  0.2586  0.1853
  579TMC3     H 8642   1.620   1.057   1.256 -2.6042 -1.9261  1.8622
  579TMC3    H1 8643   1.536   0.661   1.126  0.3440  0.1001  1.8053
  579TMC3    H2 8644   1.937   0.789   1.141  0.4124 -0.0160 -1.6356
  579TMC3    C7 8645   1.789   0.582   1.119  1.0555 -0.0569 -0.0946
  579TMC3    C8 8646   1.877   1.035   1.242 -0.8333  0.8080 -0.0863
  579TMC3    O1 8647   1.894   0.563   1.175  0.2910  0.1276 -0.8463
  579TMC3    O2 8648   1.829   1.133   1.292  0.3900 -0.3249 -0.3811
  580TMC3    C1 8649   0.580   4.683  12.395  0.0546 -0.1183  0.0887
  580TMC3    C2 8650   0.686   0.025  12.444  0.1268  0.4316  0.8757
  580TMC3    C3 8651   0.813   4.719  12.448  0.4201  0.5375  0.5410
  580TMC3    C4 8652   0.618   4.553  12.356  0.8130  0.0605 -0.4955
  580TMC3    C5 8653   0.743   4.506  12.379  0.1208  0.4730  0.4685
  580TMC3    C6 8654   0.843   4.591  12.426 -0.1246 -0.2477 -0.5474
  580TMC3     C 8655   0.486   0.026  12.318  0.1722  0.0420 -0.5631
  580TMC3     O 8656   0.480   4.736  12.203 -0.9402 -0.0170  0.0619
  580TMC3     H 8657   0.674   0.131  12.464  0.1617  0.4801  0.6460
  580TMC3    H1 8658   0.545   4.509  12.288 -0.2538 -0.9270  1.2779
  580TMC3    H2 8659   0.947   4.559  12.420 -0.0909 -0.4242  0.9250
  580TMC3    C7 8660   0.773   4.366  12.377  0.8126  0.3978 -0.0811
  580TMC3    C8 8661   0.921   0.081  12.431 -0.7382  0.3440 -0.1750
  580TMC3    O1 8662   0.890   4.345  12.390  0.1440  0.1467 -0.5755
  580TMC3    O2 8663   0.887   0.200  12.445 -0.2218 -0.4928  0.0886
  581MPD2     C 8664   3.606   4.089  15.134 -0.4596 -0.3009  0.1714
  581MPD2    C1 8665   3.605   4.233  15.144  0.0111 -0.3867  0.1665
  581MPD2    C2 8666   3.496   4.301  15.091 -0.5374 -0.5984  0.4206
  581MPD2    C3 8667   3.388   4.235  15.042 -0.1099 -0.8104  0.1070
  581MPD2    C4 8668   3.388   4.099  15.033  0.2667 -0.4330 -0.1988
  581MPD2    C5 8669   3.492   4.029  15.091  1.0671  0.4503 -0.0812
  581MPD2     H 8670   3.497   4.410  15.082  1.0674 -0.4696  2.1991
  581MPD2    H1 8671   3.309   4.037  14.991  2.6825 -3.3414 -0.4338
  581MPD2    H2 8672   3.694   4.035  15.166  0.0551  1.0915  1.0972
  581MPD2    H3 8673   3.491   3.921  15.092 -0.3795  0.4649  1.1781
  581MPD2     N 8674   3.283   4.317  14.990 -0.8493  0.4844 -0.4524
  581MPD2    H5 8675   3.277   4.413  15.024 -2.0983 -0.9994  3.5573
  581MPD2    N1 8676   3.721   4.294  15.192 -0.2050 -0.6692 -0.2342
  581MPD2    H7 8677   3.796   4.231  15.219 -0.6256 -1.1114 -0.0897
  582TMC3    C1 8678   3.864   4.464  15.267  0.0533  0.7378  0.1769
  582TMC3    C2 8679   3.866   4.512  15.395  0.0178  0.6651 -0.2657
  582TMC3    C3 8680   3.977   4.505  15.470 -0.3078  0.4514 -0.0794
  582TMC3    C4 8681   3.970   4.398  15.221  0.3326  0.1542  0.3662
  582TMC3    C5 8682   4.074   4.382  15.303 -0.3992 -0.0680 -0.3149
  582TMC3    C6 8683   4.091   4.441  15.421 -0.1420  0.2147 -0.0620
  582TMC3     C 8684   3.733   4.432  15.224 -0.3696  0.4664 -0.2443
  582TMC3     O 8685   3.656   4.524  15.237  0.1459 -0.6523  0.1871
  582TMC3     H 8686   3.773   4.539  15.444 -0.1127  0.2240 -0.2725
  582TMC3    H1 8687   3.969   4.335  15.133  0.6790  0.0558  0.4337
  582TMC3    H2 8688   4.166   4.394  15.483 -1.2295 -0.8648  0.4318
  582TMC3    C7 8689   4.170   4.280  15.270 -0.0802 -0.0432 -0.3717
  582TMC3    C8 8690   3.951   4.484  15.612  0.4204 -0.4502 -0.1858
  582TMC3    O1 8691   4.289   4.315  15.247  0.2258  0.3671  0.0496
  582TMC3    O2 8692   3.852   4.417  15.636  0.0591 -0.4312  0.4024
  583MPD2     C 8693   3.373   1.323  16.536 -0.9122 -0.1349  0.2251
  583MPD2    C1 8694   3.471   1.421  16.525  0.3798  0.0877 -0.4832
  583MPD2    C2 8695   3.454   1.539  16.593  0.2221 -0.7724 -0.5051
  583MPD2    C3 8696   3.340   1.571  16.662 -0.1292  0.7538 -1.0966
  583MPD2    C4 8697   3.239   1.474  16.679  0.2011 -0.4560 -0.0569
  583MPD2    C5 8698   3.265   1.354  16.614  0.1144  0.9458  0.1426
  583MPD2     H 8699   3.533   1.613  16.602 -1.9472  1.7117 -1.9010
  583MPD2    H1 8700   3.152   1.491  16.742 -0.5074  0.1700 -1.1917
  583MPD2    H2 8701   3.362   1.232  16.478 -1.7164  0.9355 -1.2735
  583MPD2    H3 8702   3.184   1.282  16.620 -0.6544  1.7027 -1.2499
  583MPD2     N 8703   3.341   1.691  16.734 -0.2170 -0.1526 -0.1226
  583MPD2    H5 8704   3.428   1.743  16.729 -0.1561 -0.3356 -1.0226
  583MPD2    N1 8705   3.595   1.398  16.459 -0.2448  0.1705 -0.4969
  583MPD2    H7 8706   3.662   1.475  16.461  1.1483 -1.0017 -1.5753
  584TMC3    C1 8707   3.279   1.865  16.880  0.0945 -0.0634 -0.2248
  584TMC3    C2 8708   3.370   1.954  16.823  0.2985  0.7091 -0.7201
  584TMC3    C3 8709   3.418   2.057  16.905  0.5143  0.2346  0.4264
  584TMC3    C4 8710   3.239   1.888  17.009  0.3430 -0.2933 -0.0749
  584TMC3    C5 8711   3.293   1.985  17.086 -0.7863 -0.1660 -0.1752
  584TMC3    C6 8712   3.381   2.074  17.037 -0.1651  0.8253 -0.0907
  584TMC3     C 8713   3.246   1.739  16.819  0.1109 -0.7367  0.0269
  584TMC3     O 8714   3.126   1.700  16.828  0.7866  0.0019 -0.5403
  584TMC3     H 8715   3.397   1.954  16.718  3.1990  0.4633  0.0010
  584TMC3    H1 8716   3.157   1.827  17.043  0.2922 -0.1392  0.0796
  584TMC3    H2 8717   3.433   2.140  17.105 -0.3161  0.9068 -0.0531
  584TMC3    C7 8718   3.255   1.979  17.224  0.5849  1.0649 -0.3226
  584TMC3    C8 8719   3.513   2.145  16.844  0.0654  0.7061 -0.2498
  584TMC3    O1 8720   3.241   1.870  17.276  0.1106  0.0456  0.5111
  584TMC3    O2 8721   3.565   2.110  16.736  0.0969  0.0304  0.4140
  585MPD2     C 8722   2.546   0.592   0.276  0.3355  0.3473 -0.4261
  585MPD2    C1 8723   2.586   0.618   0.148  0.7075  0.9262  0.2987
  585MPD2    C2 8724   2.597   0.508   0.068 -0.3145  0.0387  0.8267
  585MPD2    C3 8725   2.578   0.378   0.114  0.3085 -0.0882  0.1531
  585MPD2    C4 8726   2.538   0.353   0.241  0.3029 -0.3178 -0.3301
  585MPD2    C5 8727   2.517   0.463   0.319 -0.1963  0.2810  0.4059
  585MPD2     H 8728   2.651   0.510  17.719  0.9046 -1.7211  1.4974
  585MPD2    H1 8729   2.536   0.250   0.274  0.5177  0.2265  1.3744
  585MPD2    H2 8730   2.533   0.676   0.343  1.8633 -1.5606  2.2498
  585MPD2    H3 8731   2.479   0.445   0.419  0.7129  0.1274  0.7251
  585MPD2     N 8732   2.597   0.262   0.031 -0.3737 -0.4347 -0.4451
  585MPD2    H5 8733   2.579   0.170   0.069 -1.4164 -0.2517 -0.5084
  585MPD2    N1 8734   2.602   0.755   0.107  0.2529 -0.0390 -0.3845
  585MPD2    H7 8735   2.589   0.824   0.180 -2.6236  0.8922 -1.7729
  586TMC3    C1 8736   2.653   0.133  17.583 -0.0985 -0.5755  0.7041
  586TMC3    C2 8737   2.748   0.128  17.486  0.2349  0.4511 -0.0711
  586TMC3    C3 8738   2.799   0.006  17.463 -0.5438 -0.5036  0.3076
  586TMC3    C4 8739   2.601   0.019  17.648 -0.1352 -0.5019 -0.2596
  586TMC3    C5 8740   2.641   4.636  17.605 -0.4515  0.0577  0.7643
  586TMC3    C6 8741   2.747   4.629  17.523 -0.3507  0.1223 -0.3781
  586TMC3     C 8742   2.648   0.259  17.645  0.0215 -0.2791 -0.4384
  586TMC3     O 8743   2.705   0.351  17.587 -0.6797  0.3970 -0.1309
  586TMC3     H 8744   2.771   0.218  17.430  0.3458  2.2755  2.8910
  586TMC3    H1 8745   2.509   0.033  17.703  0.8253 -0.6905  1.3956
  586TMC3    H2 8746   2.790   4.535  17.491 -0.4249 -0.4434  1.1905
  586TMC3    C7 8747   2.528   4.567  17.538 -0.3541  0.1586  0.1479
  586TMC3    C8 8748   2.851   4.714  17.329 -0.1202 -0.0720  0.4217
  586TMC3    O1 8749   2.417   4.572  17.597  0.3064  0.2351  0.6724
  586TMC3    O2 8750   2.820   4.611  17.270  0.1365  0.0515 -0.5432
  587TMC3    C1 8751   0.167   3.604  17.432  0.2979 -0.0006 -0.0727
  587TMC3    C2 8752   0.207   3.735  17.395 -0.3510 -0.0620 -0.2827
  587TMC3    C3 8753   0.336   3.767  17.436 -0.3921 -0.1257  0.0838
  587TMC3    C4 8754   0.245   3.515  17.494 -0.7766  0.4600  0.4704
  587TMC3    C5 8755   0.370   3.552  17.524  0.2030 -0.5233 -0.8915
  587TMC3    C6 8756   0.419   3.673  17.492 -0.6923  0.9625 -0.3659
  587TMC3     C 8757   0.030   3.592  17.459 -0.0256  0.0053 -0.2599
  587TMC3     O 8758   4.730   3.506  17.539  0.1046 -0.3467 -0.0517
  587TMC3     H 8759   0.143   3.796  17.331 -0.1922 -0.7192 -1.0677
  587TMC3    H1 8760   0.204   3.423  17.534 -1.7291  0.9642  0.6634
  587TMC3    H2 8761   0.521   3.702  17.513 -0.6755  0.4091  0.2951
  587TMC3    C7 8762   0.453   3.463  17.602  0.3705  1.1570 -0.2968
  587TMC3    C8 8763   0.399   3.879  17.377 -0.2274  0.2385  0.3287
  587TMC3    O1 8764   0.530   3.520  17.681 -0.1331 -0.5080  0.8254
  587TMC3    O2 8765   0.522   3.877  17.381  0.6562  0.2970 -0.3091
  588TMC3    C1 8766   2.098   1.581  10.373  0.0433  0.4391 -0.7675
  588TMC3    C2 8767   2.070   1.448  10.371 -0.4354  0.2847 -0.7379
  588TMC3    C3 8768   2.169   1.353  10.393  0.3591 -0.3871 -0.2548
  588TMC3    C4 8769   2.229   1.625  10.376  0.2569  0.1685  0.1843
  588TMC3    C5 8770   2.329   1.529  10.399  0.4943  0.7781 -0.2471
  588TMC3    C6 8771   2.299   1.397  10.423  0.0115  0.9513  0.4213
  588TMC3     C 8772   1.991   1.675  10.335 -0.2469 -0.3949 -0.7233
  588TMC3     O 8773   1.891   1.644  10.274 -0.0271  0.0504  0.0377
  588TMC3     H 8774   1.969   1.424  10.337 -0.8017  1.3219 -0.3895
  588TMC3    H1 8775   2.252   1.730  10.361 -0.3663  0.2393 -0.2835
  588TMC3    H2 8776   2.369   1.325  10.463 -1.3428 -0.7576 -0.3025
  588TMC3    C7 8777   2.473   1.565  10.388  0.5920 -0.0951 -0.2624
  588TMC3    C8 8778   2.141   1.212  10.405  0.8169  0.2658  0.1510
  588TMC3    O1 8779   2.552   1.496  10.450  0.0906  0.0260 -0.2653
  588TMC3    O2 8780   2.021   1.189  10.431 -0.3196  0.6082  0.3079
  589TMC3    C1 8781   2.570   3.846   1.138  0.5834  0.3859 -0.3891
  589TMC3    C2 8782   2.684   3.783   1.101  0.1680  0.6980  0.2255
  589TMC3    C3 8783   2.705   3.670   1.176 -0.6215  0.1655 -0.0319
  589TMC3    C4 8784   2.469   3.799   1.223  0.5245  0.0635  0.1962
  589TMC3    C5 8785   2.493   3.682   1.286 -0.8068  0.7249 -0.7494
  589TMC3    C6 8786   2.606   3.617   1.259 -1.0069  0.3182  0.3035
  589TMC3     C 8787   2.536   3.965   1.054 -0.4993 -0.1058  0.1234
  589TMC3     O 8788   2.588   3.961   0.939  0.0901 -0.5889 -0.2873
  589TMC3     H 8789   2.754   3.821   1.027  1.3218 -1.2303  0.3366
  589TMC3    H1 8790   2.376   3.855   1.225 -0.0775 -0.8981 -1.3674
  589TMC3    H2 8791   2.642   3.525   1.304 -0.2346  0.1189 -0.7004
  589TMC3    C7 8792   2.381   3.619   1.351 -0.2851 -0.4337 -0.4258
  589TMC3    C8 8793   2.843   3.619   1.198  1.1685  0.1505 -0.7446
  589TMC3    O1 8794   2.405   3.502   1.376 -0.8080 -0.7331  0.2578
  589TMC3    O2 8795   2.856   3.557   1.303  0.3393  1.2029  0.5877
  590MPD2     C 8796   1.522   1.850  16.645  0.1787  0.5058 -0.3262
  590MPD2    C1 8797   1.456   1.967  16.664 -0.8941 -0.1705 -0.0877
  590MPD2    C2 8798   1.506   2.091  16.615 -0.2505 -0.3699  0.1187
  590MPD2    C3 8799   1.627   2.097  16.550 -0.6483  0.1592  0.0093
  590MPD2    C4 8800   1.693   1.974  16.534 -0.4811  0.2229 -0.4265
  590MPD2    C5 8801   1.645   1.855  16.589 -0.0582 -0.2426 -0.2188
  590MPD2     H 8802   1.447   2.181  16.625 -1.2287 -0.8405 -1.4278
  590MPD2    H1 8803   1.790   1.966  16.487 -0.9438  0.6250 -1.4683
  590MPD2    H2 8804   1.488   1.750  16.673  2.1598  0.1419  0.8104
  590MPD2    H3 8805   1.710   1.771  16.569 -0.3620 -0.7298  0.8458
  590MPD2     N 8806   1.670   2.220  16.504  0.1220  0.2383  0.8322
  590MPD2    H5 8807   1.602   2.294  16.514  1.2530  1.3433  0.3285
  590MPD2    N1 8808   1.340   1.958  16.740 -0.0971 -0.3326  0.2346
  590MPD2    H7 8809   1.307   1.864  16.760  1.6911 -1.2969 -1.2966
  591TMC3    C1 8810   1.771   2.377  16.353 -0.5833 -0.0446 -0.1540
  591TMC3    C2 8811   1.821   2.387  16.226  0.2859 -0.5195 -0.3521
  591TMC3    C3 8812   1.805   2.498  16.163  0.4242 -0.1570 -0.6022
  591TMC3    C4 8813   1.695   2.478  16.410  0.0210 -0.8571  0.7938
  591TMC3    C5 8814   1.684   2.595  16.340  0.2587 -0.1628 -0.3392
  591TMC3    C6 8815   1.735   2.602  16.212  0.3792  0.5097 -0.6125
  591TMC3     C 8816   1.764   2.238  16.405  0.1829  0.6165  0.5946
  591TMC3     O 8817   1.832   2.152  16.349  0.0164  0.3901  0.5126
  591TMC3     H 8818   1.858   2.302  16.169 -1.9802 -2.5695  1.2626
  591TMC3    H1 8819   1.654   2.466  16.509  2.8224 -3.3850  1.6074
  591TMC3    H2 8820   1.713   2.682  16.142 -1.6100 -1.6802 -2.4692
  591TMC3    C7 8821   1.576   2.685  16.383 -0.3535 -0.4359  0.9110
  591TMC3    C8 8822   1.796   2.472  16.020  0.0977 -0.2648  1.2897
  591TMC3    O1 8823   1.496   2.643  16.469 -0.0978  0.4895 -0.7711
  591TMC3    O2 8824   1.759   2.361  15.984  0.7902 -0.5624  0.1261
  592MPD2     C 8825   1.655   3.967  11.698  0.0584  0.0196 -0.5641
  592MPD2    C1 8826   1.671   4.055  11.802 -0.8260 -0.0946  0.7286
  592MPD2    C2 8827   1.612   4.021  11.922 -0.0777  0.1338  0.2282
  592MPD2    C3 8828   1.531   3.910  11.937 -0.4135 -0.0910 -0.2184
  592MPD2    C4 8829   1.524   3.816  11.832  0.1306  0.0443  0.1515
  592MPD2    C5 8830   1.577   3.853  11.713  0.8346  0.7192 -0.4852
  592MPD2     H 8831   1.615   4.087  12.008 -1.0182  0.7978 -0.2455
  592MPD2    H1 8832   1.459   3.729  11.827 -1.9079  1.4875  1.5219
  592MPD2    H2 8833   1.697   3.983  11.599 -1.7859 -0.5235 -1.4505
  592MPD2    H3 8834   1.568   3.771  11.642  1.4447  1.3371 -1.2859
  592MPD2     N 8835   1.471   3.888  12.064 -0.2374  0.2794 -0.2449
  592MPD2    H5 8836   1.472   3.964  12.131 -0.9640 -1.0768  1.2960
  592MPD2    N1 8837   1.749   4.174  11.776  0.5256 -0.2365 -0.7670
  592MPD2    H7 8838   1.770   4.192  11.679  0.3887 -1.5117 -1.0350
  593TMC3    C1 8839   1.877   4.369  11.812 -0.3804 -0.3539  0.4018
  593TMC3    C2 8840   1.904   4.462  11.907 -0.9350  0.8211  0.9291
  593TMC3    C3 8841   2.021   4.527  11.904 -0.6244 -0.0965  0.1045
  593TMC3    C4 8842   1.965   4.343  11.710  0.7291  0.5023 -0.4095
  593TMC3    C5 8843   2.087   4.416  11.709 -0.0568 -0.3013 -0.5954
  593TMC3    C6 8844   2.116   4.502  11.812  0.4606 -0.2407  0.5420
  593TMC3     C 8845   1.782   4.273  11.859  0.3761  0.4439  0.5207
  593TMC3     O 8846   1.745   4.281  11.975 -0.0845 -0.3683  0.8067
  593TMC3     H 8847   1.833   4.488  11.984 -0.3858  0.9745  1.3830
  593TMC3    H1 8848   1.939   4.283  11.623  0.5324  0.0740 -0.0605
  593TMC3    H2 8849   2.201   4.569  11.809  0.5179 -0.2728  1.3360
  593TMC3    C7 8850   2.128   4.454  11.578 -0.2371 -0.5866 -0.3706
  593TMC3    C8 8851   2.022   4.666  11.952  0.7093  0.1303  0.2121
  593TMC3    O1 8852   2.230   4.516  11.567 -0.2287 -0.2876 -0.4548
  593TMC3    O2 8853   1.918   4.725  11.936 -0.7982  0.3424  0.2231
  594MPD2     C 8854   0.640   2.584  14.596  0.3413  0.3159 -0.0073
  594MPD2    C1 8855   0.583   2.655  14.707  0.0518 -0.6965 -0.3151
  594MPD2    C2 8856   0.654   2.768  14.743  0.3625 -0.5221 -0.4003
  594MPD2    C3 8857   0.768   2.815  14.671  0.3607  0.2460 -0.7894
  594MPD2    C4 8858   0.813   2.742  14.564  0.7447  0.1903 -0.0100
  594MPD2    C5 8859   0.748   2.633  14.519  0.5780  0.5109 -0.1485
  594MPD2     H 8860   0.622   2.822  14.831 -0.5439 -0.0278 -1.0298
  594MPD2    H1 8861   0.903   2.757  14.506 -0.0271  0.5742 -1.1130
  594MPD2    H2 8862   0.578   2.501  14.565  2.6896 -1.8776  1.1495
  594MPD2    H3 8863   0.780   2.575  14.433  1.4253  1.1107 -0.2295
  594MPD2     N 8864   0.831   2.940  14.709  0.0871 -0.2338  0.1109
  594MPD2    H5 8865   0.904   2.975  14.648  1.9685 -0.4581  2.2377
  594MPD2    N1 8866   0.467   2.598  14.763 -0.0261  0.2872  0.6339
  594MPD2    H7 8867   0.433   2.515  14.718 -0.8726  1.0330 -0.0951
  595TMC3    C1 8868   1.044   3.286  14.751 -0.9538 -1.2658  0.3795
  595TMC3    C2 8869   0.981   3.158  14.743 -0.5189 -0.7955  0.5881
  595TMC3    C3 8870   0.861   3.146  14.810  0.0522 -0.1745 -0.1702
  595TMC3    C4 8871   0.991   3.382  14.829 -0.0029 -0.7250  0.3217
  595TMC3    C5 8872   0.879   3.364  14.903 -0.4754  0.2754 -0.0982
  595TMC3    C6 8873   0.813   3.248  14.891 -0.6127  0.0882 -0.7371
  595TMC3     C 8874   1.177   3.317  14.691 -0.2454  0.2222 -0.1517
  595TMC3     O 8875   1.243   3.393  14.760 -0.4127  0.4238 -0.1269
  595TMC3     H 8876   1.036   3.079  14.692 -0.5289  0.6260 -1.6292
  595TMC3    H1 8877   1.023   3.484  14.810  1.5533 -1.2562  0.0907
  595TMC3    H2 8878   0.718   3.232  14.941  0.0170  2.3661  1.1672
  595TMC3    C7 8879   0.840   3.441  15.024  0.0638  0.0852  0.0971
  595TMC3    C8 8880   0.805   3.012  14.822  0.3466 -0.3555 -0.4875
  595TMC3    O1 8881   0.721   3.428  15.050 -0.2335 -0.7657 -0.0976
  595TMC3    O2 8882   0.747   2.978  14.924 -0.0074  0.8799  0.2055
  596MPD2     C 8883   4.182   1.314  16.952  0.5041  0.8609  0.0896
  596MPD2    C1 8884   4.243   1.414  16.884  0.0095  0.0159  0.4979
  596MPD2    C2 8885   4.306   1.391  16.766 -0.6486 -0.4592 -0.4927
  596MPD2    C3 8886   4.297   1.264  16.703 -0.0948  0.3473  0.4543
  596MPD2    C4 8887   4.225   1.169  16.767 -0.7080  0.2064 -0.3146
  596MPD2    C5 8888   4.168   1.194  16.888 -0.8999  0.5961 -0.2814
  596MPD2     H 8889   4.354   1.480  16.725 -0.3255  0.3965  1.7607
  596MPD2    H1 8890   4.208   1.077  16.711  2.3258 -2.5385  3.2465
  596MPD2    H2 8891   4.135   1.326  17.049 -0.3584 -2.2651  0.0602
  596MPD2    H3 8892   4.117   1.114  16.939 -1.2260 -0.3765 -2.1400
  596MPD2     N 8893   4.357   1.227  16.579  0.2773  0.0588  0.4730
  596MPD2    H5 8894   4.350   1.128  16.557 -1.5748  0.1004  0.8820
  596MPD2    N1 8895   4.239   1.549  16.931 -0.7264  0.1285  0.2433
  596MPD2    H7 8896   4.295   1.620  16.884  0.8701 -1.7082 -0.6420
  597TMC3    C1 8897   4.152   1.743  17.031  0.9893 -0.9032  0.3439
  597TMC3    C2 8898   4.199   1.822  16.932 -0.2528  0.0153 -0.4841
  597TMC3    C3 8899   4.180   1.952  16.947  0.1403  0.4012 -1.2191
  597TMC3    C4 8900   4.082   1.795  17.139  0.2278  0.8236 -0.6022
  597TMC3    C5 8901   4.052   1.927  17.144  0.1284 -0.0665  0.0980
  597TMC3    C6 8902   4.104   2.010  17.046  0.4275  0.1298 -1.1601
  597TMC3     C 8903   4.153   1.598  17.028  0.4183 -0.0432 -0.9960
  597TMC3     O 8904   4.088   1.533  17.111 -0.0610 -0.4353  0.4383
  597TMC3     H 8905   4.235   1.790  16.835  1.4663  2.1414 -0.5612
  597TMC3    H1 8906   4.034   1.732  17.214 -0.4934  0.4145 -1.4064
  597TMC3    H2 8907   4.095   2.117  17.059  1.1502 -0.0276  0.6166
  597TMC3    C7 8908   3.936   1.957  17.228  0.3041 -0.2952  0.0605
  597TMC3    C8 8909   4.242   2.044  16.854 -0.8599 -0.4209 -0.6728
  597TMC3    O1 8910   3.914   1.888  17.327  0.1319 -0.5707  0.1287
  597TMC3    O2 8911   4.191   2.157  16.850 -0.0540 -0.2963 -0.6510
  598TMC3    C1 8912   2.702   2.339  15.818  0.1508 -0.5395 -0.2035
  598TMC3    C2 8913   2.677   2.205  15.816 -0.3392  0.1385  0.0753
  598TMC3    C3 8914   2.687   2.129  15.706  0.4236  0.5271  0.4251
  598TMC3    C4 8915   2.730   2.397  15.704  0.4722 -0.8818 -0.3211
  598TMC3    C5 8916   2.741   2.322  15.589  0.1244  0.1998 -0.1043
  598TMC3    C6 8917   2.720   2.188  15.582  0.1216  0.7542 -0.2584
  598TMC3     C 8918   2.691   2.423  15.939  0.4236 -0.9415 -0.1535
  598TMC3     O 8919   2.694   2.540  15.918  0.0382  0.2283 -0.1280
  598TMC3     H 8920   2.650   2.152  15.906  0.6001 -1.2192 -0.4448
  598TMC3    H1 8921   2.752   2.503  15.705 -1.4706 -0.4632 -0.5801
  598TMC3    H2 8922   2.740   2.140  15.487 -0.2027 -0.7174  0.4082
  598TMC3    C7 8923   2.730   2.391  15.462 -0.5409 -0.8372 -1.0721
  598TMC3    C8 8924   2.610   2.003  15.694  0.8369  0.7435 -0.0739
  598TMC3    O1 8925   2.673   2.324  15.380  0.5614  0.8593 -0.0292
  598TMC3    O2 8926   2.594   1.937  15.794 -0.3079  0.1677  0.3534
  599MPD2     C 8927   2.187   4.123  15.665  0.1138  0.0186  0.2197
  599MPD2    C1 8928   2.290   4.180  15.736  0.3283 -0.4910 -0.0703
  599MPD2    C2 8929   2.257   4.258  15.845  0.0101 -0.0397 -0.3549
  599MPD2    C3 8930   2.120   4.265  15.883  0.0275 -0.0257  0.3531
  599MPD2    C4 8931   2.014   4.216  15.806 -0.1530 -0.0676 -0.2044
  599MPD2    C5 8932   2.052   4.139  15.698  0.0404 -0.0317 -0.1151
  599MPD2     H 8933   2.322   4.309  15.914 -0.5375  0.4784 -0.2250
  599MPD2    H1 8934   1.909   4.226  15.829 -0.1308 -0.6011  0.1328
  599MPD2    H2 8935   2.214   4.065  15.577 -0.5787  0.3113 -0.1858
  599MPD2    H3 8936   1.969   4.088  15.650  2.1687 -3.0511 -0.6124
  599MPD2     N 8937   2.080   4.339  15.998 -0.2797 -0.1567 -0.4023
  599MPD2    H5 8938   1.979   4.337  16.012  0.0285 -1.7333  1.6310
  599MPD2    N1 8939   2.422   4.167  15.686 -0.3205 -0.4693  0.2629
  599MPD2    H7 8940   2.434   4.118  15.597 -0.1001  3.3078 -1.7718
  600TMC3    C1 8941   2.093   4.452  16.214 -0.3829  0.4357 -0.1180
  600TMC3    C2 8942   1.994   4.382  16.278 -0.7554 -0.4417  0.8009
  600TMC3    C3 8943   1.969   4.411  16.405  0.0532 -0.8240 -0.9719
  600TMC3    C4 8944   2.173   4.546  16.286 -0.3959 -0.3486 -0.2271
  600TMC3    C5 8945   2.141   4.568  16.414  0.5535  0.2850  0.5572
  600TMC3    C6 8946   2.040   4.501  16.474 -0.3926  0.7707  0.3884
  600TMC3     C 8947   2.163   4.401  16.092 -0.2369  0.7009  0.0331
  600TMC3     O 8948   2.282   4.422  16.100 -0.2710  0.1767  0.1008
  600TMC3     H 8949   1.927   4.323  16.217  0.5524  0.3881 -1.4652
  600TMC3    H1 8950   2.228   4.614  16.221  0.3008 -0.4536  0.2573
  600TMC3    H2 8951   2.013   4.523  16.577 -0.5960  0.2120  0.4502
  600TMC3    C7 8952   2.177   4.695  16.483  0.3862  0.2627  0.4981
  600TMC3    C8 8953   1.833   4.396  16.440  0.1179 -0.2821 -0.0570
  600TMC3    O1 8954   2.129   0.004  16.587 -0.5286 -0.3262  0.4003
  600TMC3    O2 8955   1.752   4.360  16.359  0.3720 -0.0117  0.2465
  601MPD2     C 8956   0.168   4.101   0.677  0.1787 -0.2601 -0.1025
  601MPD2    C1 8957   0.128   4.021   0.571 -0.5442  0.1462  0.1840
  601MPD2    C2 8958   0.138   3.879   0.590 -0.0601  0.1953 -0.6126
  601MPD2    C3 8959   0.210   3.826   0.696 -0.2043  0.4909 -0.5659
  601MPD2    C4 8960   0.264   3.914   0.797 -0.3224 -0.5416  0.0408
  601MPD2    C5 8961   0.233   4.051   0.790  0.4848  0.0792 -0.1090
  601MPD2     H 8962   0.090   3.826   0.509  0.5727 -2.6130  0.8828
  601MPD2    H1 8963   0.305   3.873   0.888  2.2128 -0.4840 -1.0726
  601MPD2    H2 8964   0.160   4.209   0.681 -0.0491 -0.2226 -1.5968
  601MPD2    H3 8965   0.275   4.124   0.859 -0.0248 -0.6053  0.9195
  601MPD2     N 8966   0.212   3.685   0.729 -0.2573 -0.1229 -0.1341
  601MPD2    H5 8967   0.266   3.663   0.812 -0.6746 -0.9000 -0.0694
  601MPD2    N1 8968   0.055   4.070   0.459  0.1288  0.0536 -0.0714
  601MPD2    H7 8969   0.027   4.004   0.387  1.4927 -0.7190  0.1090
  602TMC3    C1 8970   4.680   4.217   0.318  0.3126 -0.1193  0.5053
  602TMC3    C2 8971   4.666   4.342   0.260 -0.3116  0.2899 -0.0353
  602TMC3    C3 8972   4.572   4.356   0.163  0.3353 -0.1138 -0.4901
  602TMC3    C4 8973   4.616   4.107   0.273  0.1866  0.4167  0.5422
  602TMC3    C5 8974   4.515   4.126   0.179  0.1329 -0.0633  0.0057
  602TMC3    C6 8975   4.483   4.247   0.138  0.1246 -0.2159  0.4205
  602TMC3     C 8976   0.037   4.200   0.426  0.3614  0.7207  0.1394
  602TMC3     O 8977   0.074   4.304   0.481 -0.1767  0.6836  0.3965
  602TMC3     H 8978   4.735   4.422   0.285 -0.5520  0.0054  1.5147
  602TMC3    H1 8979   4.619   4.005   0.309  1.0891  1.1764  2.6501
  602TMC3    H2 8980   4.399   4.262   0.071 -0.2991 -0.6345  0.8569
  602TMC3    C7 8981   4.419   4.022   0.160  0.1195 -0.4544  0.7477
  602TMC3    C8 8982   4.527   4.488   0.108 -0.0887  0.1254  0.2620
  602TMC3    O1 8983   4.418   3.934   0.246  0.3823 -0.4309  0.6604
  602TMC3    O2 8984   4.549   4.588   0.169  0.1669 -0.3851 -0.6261
  603TMC3    C1 8985   2.256   3.638  11.486 -0.4479  0.5990  0.0776
  603TMC3    C2 8986   2.267   3.687  11.614  0.3816  0.2832  0.1742
  603TMC3    C3 8987   2.336   3.803  11.631 -0.1597 -0.8640  0.6038
  603TMC3    C4 8988   2.291   3.719  11.381  0.6295 -0.3075 -0.3877
  603TMC3    C5 8989   2.325   3.845  11.404  0.0491 -0.0106 -0.1221
  603TMC3    C6 8990   2.373   3.885  11.530  0.0979  0.1864 -0.0772
  603TMC3     C 8991   2.220   3.503  11.453 -0.2859  0.1374 -0.6555
  603TMC3     O 8992   2.261   3.458  11.351 -0.5289  0.2399 -0.7825
  603TMC3     H 8993   2.255   3.622  11.700  1.5012 -0.8399 -0.5216
  603TMC3    H1 8994   2.309   3.677  11.282  0.6312 -1.1297 -0.0377
  603TMC3    H2 8995   2.408   3.984  11.554 -1.9197  0.6512  0.9789
  603TMC3    C7 8996   2.369   3.911  11.288  0.2429 -0.3805 -0.0233
  603TMC3    C8 8997   2.418   3.803  11.751 -0.1788 -0.1015  0.1410
  603TMC3    O1 8998   2.478   3.965  11.298 -0.3415 -0.0878  0.4522
  603TMC3    O2 8999   2.343   3.773  11.848  0.7867  0.1940  0.3861
  604MPD2     C 9000   3.714   2.762  16.634 -0.5312  1.0033  0.1560
  604MPD2    C1 9001   3.606   2.683  16.590  0.2635 -0.4115  0.7100
  604MPD2    C2 9002   3.607   2.628  16.461  0.9219 -0.0158 -0.7910
  604MPD2    C3 9003   3.716   2.664  16.378  0.1030  0.6610 -0.0561
  604MPD2    C4 9004   3.825   2.734  16.425 -0.0095 -0.5840 -0.0477
  604MPD2    C5 9005   3.820   2.777  16.558  0.1137  0.2945  1.3217
  604MPD2     H 9006   3.533   2.555  16.431  0.9267 -0.5662  0.5376
  604MPD2    H1 9007   3.922   2.738  16.375  0.3738 -0.8151  0.6739
  604MPD2    H2 9008   3.721   2.799  16.735  1.1576 -1.1613  0.8097
  604MPD2    H3 9009   3.910   2.822  16.597  1.5526 -0.6753 -0.9182
  604MPD2     N 9010   3.708   2.617  16.243 -0.0495  0.1712 -0.8069
  604MPD2    H5 9011   3.638   2.547  16.220 -0.0682  0.1989 -0.8339
  604MPD2    N1 9012   3.506   2.659  16.683 -0.1381  0.5158 -0.3692
  604MPD2    H7 9013   3.524   2.714  16.767 -0.8735  0.5791 -0.2488
  605TMC3    C1 9014   3.281   2.648  16.760  0.2422 -0.0891  0.3277
  605TMC3    C2 9015   3.340   2.668  16.882 -0.2185  0.0284  0.3168
  605TMC3    C3 9016   3.300   2.767  16.966  0.0492 -0.5982 -0.4378
  605TMC3    C4 9017   3.171   2.706  16.722  0.4446 -0.0434  0.2840
  605TMC3    C5 9018   3.120   2.795  16.814  0.3592 -0.2117  0.3489
  605TMC3    C6 9019   3.185   2.834  16.932 -0.4874  0.1795 -0.0249
  605TMC3     C 9020   3.374   2.615  16.661  0.3420  0.5275  0.1394
  605TMC3     O 9021   3.332   2.580  16.552  0.2484  0.2920 -0.5409
  605TMC3     H 9022   3.427   2.608  16.908  0.0934  0.4759  0.2905
  605TMC3    H1 9023   3.126   2.674  16.629  0.0412  0.7991  0.1884
  605TMC3    H2 9024   3.155   2.927  16.978  0.1628 -0.3148  1.3873
  605TMC3    C7 9025   3.009   2.881  16.786  0.1481  0.2552 -0.6024
  605TMC3    C8 9026   3.415   2.843  17.010 -0.5654 -1.0905  0.3879
  605TMC3    O1 9027   2.987   2.983  16.849  0.1652 -0.7229 -0.0891
  605TMC3    O2 9028   3.517   2.804  16.961 -0.5249 -0.3988  0.2955
  606TMC3    C1 9029   3.753   1.517  17.743 -1.2421 -0.6991 -0.3049
  606TMC3    C2 9030   3.798   1.467   0.113  0.0156 -0.1275  0.7389
  606TMC3    C3 9031   3.815   1.332   0.114 -0.8622 -0.4408  0.5285
  606TMC3    C4 9032   3.733   1.453  17.628  0.1595  0.3854  0.3379
  606TMC3    C5 9033   3.756   1.323  17.630  0.7220 -0.0098 -0.5988
  606TMC3    C6 9034   3.804   1.263  17.744 -0.2040  0.0416 -0.9827
  606TMC3     C 9035   3.741   1.665  17.739  0.4130 -0.4354 -0.0620
  606TMC3     O 9036   3.746   1.722  17.631  0.1730  0.3774 -0.3379
  606TMC3     H 9037   3.816   1.512   0.211  0.2245  3.1341 -0.7957
  606TMC3    H1 9038   3.712   1.494  17.529  0.5196  0.9436  0.4889
  606TMC3    H2 9039   3.847   1.164  17.740  1.3331  0.6225  1.1133
  606TMC3    C7 9040   3.824   1.276  17.510  0.5462  0.2216  0.2024
  606TMC3    C8 9041   3.904   1.283   0.218 -0.0430 -0.3905 -0.5141
  606TMC3    O1 9042   3.892   1.358  17.452  0.4228  0.0803  0.1723
  606TMC3    O2 9043   3.995   1.354   0.270  0.2785 -0.0185  0.1002
  607MPD2     C 9044   1.738   3.640  12.142 -0.5068  0.1417 -1.1162
  607MPD2    C1 9045   1.774   3.755  12.200 -0.0832  0.3412  0.1657
  607MPD2    C2 9046   1.743   3.783  12.332  0.1195 -0.0806 -0.3034
  607MPD2    C3 9047   1.686   3.686  12.420 -0.1516 -0.4945 -0.4875
  607MPD2    C4 9048   1.656   3.564  12.360 -0.0142  0.2474  0.1021
  607MPD2    C5 9049   1.683   3.543  12.223  0.3660 -0.6482 -0.3486
  607MPD2     H 9050   1.782   3.875  12.374 -1.2844  0.6109 -0.5284
  607MPD2    H1 9051   1.614   3.480  12.414  0.1463 -0.5117 -0.9616
  607MPD2    H2 9052   1.778   3.622  12.043  2.3403  0.4191 -0.0107
  607MPD2    H3 9053   1.643   3.456  12.173 -0.2618 -0.3047 -0.4486
  607MPD2     N 9054   1.687   3.719  12.557  0.1371 -0.3109  0.4255
  607MPD2    H5 9055   1.718   3.814  12.571 -0.6319 -0.4188  2.9037
  607MPD2    N1 9056   1.850   3.854  12.133  0.7691 -0.9409  0.0603
  607MPD2    H7 9057   1.873   3.937  12.187 -3.5043  1.5476 -1.9835
  608TMC3    C1 9058   2.018   3.948  12.012 -0.3848  0.4379  0.6274
  608TMC3    C2 9059   2.063   4.020  12.125 -0.3001  0.0634 -0.3787
  608TMC3    C3 9060   2.133   4.134  12.104  0.9611  0.4946  0.0300
  608TMC3    C4 9061   2.060   3.985  11.884 -0.5347  0.6035  0.8795
  608TMC3    C5 9062   2.132   4.098  11.869  0.0739 -0.3230 -0.8051
  608TMC3    C6 9063   2.178   4.169  11.977  0.2821  0.7161 -0.1051
  608TMC3     C 9064   1.922   3.845  12.019 -0.5180 -0.9177 -0.2637
  608TMC3     O 9065   1.915   3.764  11.926  0.0362 -0.4528 -0.6687
  608TMC3     H 9066   2.061   3.986  12.228 -1.6811 -0.3980 -0.5534
  608TMC3    H1 9067   2.016   3.931  11.801  3.5865 -1.1496 -0.1358
  608TMC3    H2 9068   2.232   4.262  11.965  0.5195  1.0317  3.3986
  608TMC3    C7 9069   2.192   4.119  11.739 -0.5093  0.2289 -0.0123
  608TMC3    C8 9070   2.165   4.224  12.215  0.6531  0.6046  0.1045
  608TMC3    O1 9071   2.124   4.104  11.638 -0.2887  0.0322  0.7355
  608TMC3    O2 9072   2.261   4.300  12.212  0.8909  0.5244  0.1808
  609TMC3    C1 9073   0.180   2.796   9.229 -0.4616 -0.4771 -0.0529
  609TMC3    C2 9074   0.101   2.719   9.151  0.3015  0.6429  0.2708
  609TMC3    C3 9075   0.120   2.586   9.132  0.2360 -0.4797  0.3391
  609TMC3    C4 9076   0.297   2.744   9.285  0.1628 -0.4840  0.3323
  609TMC3    C5 9077   0.319   2.608   9.257  0.0481  0.2275 -0.2867
  609TMC3    C6 9078   0.234   2.527   9.178 -0.8884  0.6517 -0.4517
  609TMC3     C 9079   0.110   2.867   9.326  0.2585  0.0520 -0.4231
  609TMC3     O 9080   4.732   2.825   9.352 -0.1187 -0.0340 -0.0776
  609TMC3     H 9081   0.002   2.758   9.129  0.4836 -0.6162 -2.7600
  609TMC3    H1 9082   0.358   2.800   9.355  0.8488  1.5630 -1.8989
  609TMC3    H2 9083   0.245   2.419   9.176  1.5256  0.8652  1.7735
  609TMC3    C7 9084   0.425   2.551   9.332 -0.8796  0.0587  0.2993
  609TMC3    C8 9085   0.031   2.506   9.047  0.1721 -0.1018  0.4342
  609TMC3    O1 9086   0.487   2.628   9.403 -0.3339 -0.1079 -0.6208
  609TMC3    O2 9087   0.043   2.386   9.057 -0.5332  0.2831 -0.0312
  610TMC3    C1 9088   2.486   4.092  12.864  0.1703 -0.2035  0.6737
  610TMC3    C2 9089   2.417   4.081  12.740 -0.3767 -0.7391  0.2493
  610TMC3    C3 9090   2.373   3.960  12.707 -0.1562  0.2996  0.4120
  610TMC3    C4 9091   2.490   3.989  12.954  0.0363  0.2413 -0.1955
  610TMC3    C5 9092   2.445   3.870  12.907  0.2489  0.5169 -0.1909
  610TMC3    C6 9093   2.396   3.849  12.777 -0.8468  0.7824  0.5024
  610TMC3     C 9094   2.568   4.206  12.897 -0.0760  0.3006  0.2597
  610TMC3     O 9095   2.591   4.207  13.021 -0.4577 -0.4244  0.1625
  610TMC3     H 9096   2.402   4.167  12.675  0.7880 -0.2525  0.6212
  610TMC3    H1 9097   2.542   3.996  13.049  1.7514  2.8797 -1.3390
  610TMC3    H2 9098   2.357   3.752  12.749 -2.8920  1.5341  0.7637
  610TMC3    C7 9099   2.498   3.753  12.984 -0.5694 -0.1426  0.0055
  610TMC3    C8 9100   2.309   3.955  12.576 -0.2750 -0.4512  0.4318
  610TMC3    O1 9101   2.592   3.776  13.059 -0.0658 -0.4018 -0.3541
  610TMC3    O2 9102   2.350   4.036  12.497 -0.2795  0.2122 -0.1226
  611MPD2     C 9103   1.331   3.539  10.975 -0.7530  0.7775 -0.1035
  611MPD2    C1 9104   1.332   3.516  10.839 -0.4030 -0.4390 -0.5807
  611MPD2    C2 9105   1.433   3.570  10.760 -0.1054  0.1656  0.5164
  611MPD2    C3 9106   1.538   3.644  10.821 -0.5802  0.0268 -0.7871
  611MPD2    C4 9107   1.529   3.664  10.955 -0.1307  0.3069 -0.8102
  611MPD2    C5 9108   1.440   3.599  11.033  0.1080  0.2852 -0.1136
  611MPD2     H 9109   1.432   3.543  10.655  2.3024 -1.6447  0.9675
  611MPD2    H1 9110   1.594   3.733  11.008  1.9974 -1.2262 -1.4181
  611MPD2    H2 9111   1.258   3.506  11.048  0.8615  0.8150  1.5138
  611MPD2    H3 9112   1.431   3.619  11.139 -1.8854 -1.5450  0.0636
  611MPD2     N 9113   1.641   3.707  10.748 -0.1572  0.1816  0.6130
  611MPD2    H5 9114   1.707   3.761  10.803  0.4546  0.6617 -0.5943
  611MPD2    N1 9115   1.224   3.444  10.787 -0.1822  0.9035 -0.0537
  611MPD2    H7 9116   1.156   3.410  10.855  0.1917 -2.5593 -1.3719
  612TMC3    C1 9117   1.730   3.840  10.571 -0.2431  0.0412  0.8721
  612TMC3    C2 9118   1.847   3.858  10.625 -0.6034 -0.3400  0.3198
  612TMC3    C3 9119   1.913   3.963  10.582  0.1490  0.7156 -0.9114
  612TMC3    C4 9120   1.680   3.927  10.480 -0.4699 -0.0192  0.0713
  612TMC3    C5 9121   1.760   4.028  10.425 -0.1280  0.2932  0.1596
  612TMC3    C6 9122   1.876   4.053  10.481 -0.0034  0.2131  0.0207
  612TMC3     C 9123   1.638   3.727  10.611 -0.8273 -0.1012  0.3048
  612TMC3     O 9124   1.562   3.680  10.527  0.3765 -0.5794 -0.2298
  612TMC3     H 9125   1.891   3.778  10.684 -1.4751 -1.4042 -0.4879
  612TMC3    H1 9126   1.589   3.900  10.428 -0.1346 -2.0744  0.5899
  612TMC3    H2 9127   1.935   4.137  10.447  1.2917 -0.8899 -0.4294
  612TMC3    C7 9128   1.711   4.126  10.332  0.1108 -0.5243 -0.3029
  612TMC3    C8 9129   2.046   3.985  10.636 -0.7608  0.0767  0.2469
  612TMC3    O1 9130   1.789   4.197  10.270 -0.4404  0.3235  0.2717
  612TMC3    O2 9131   2.123   4.042  10.558 -0.1305 -0.0179  0.8904
  613MPD2     C 9132   1.303   1.102  16.953 -0.1953  0.7540 -0.2375
  613MPD2    C1 9133   1.210   1.172  16.883  0.0462 -0.1595  0.0439
  613MPD2    C2 9134   1.078   1.139  16.899  0.1521 -0.0623  0.6382
  613MPD2    C3 9135   1.045   1.033  16.984 -0.3533 -0.1022 -0.1692
  613MPD2    C4 9136   1.142   0.961  17.056 -0.0923  0.3497  0.1850
  613MPD2    C5 9137   1.272   0.996  17.037  0.8001  0.3100  0.2648
  613MPD2     H 9138   0.998   1.179  16.838  2.1956  2.3216 -0.4735
  613MPD2    H1 9139   1.116   0.888  17.131  1.9495  1.1987  1.7065
  613MPD2    H2 9140   1.408   1.121  16.935  0.0161 -0.0386  0.1405
  613MPD2    H3 9141   1.342   0.939  17.096 -0.5647 -1.3489  0.2954
  613MPD2     N 9142   0.910   0.983  17.001  0.1630 -0.9977  0.3955
  613MPD2    H5 9143   0.902   0.892  17.046 -0.9784 -1.1210 -0.0656
  613MPD2    N1 9144   1.254   1.273  16.789 -0.0018 -0.1828 -0.1725
  613MPD2    H7 9145   1.351   1.263  16.761 -0.4632 -0.2395 -1.7416
  614TMC3    C1 9146   1.233   1.436  16.627  0.1189 -0.0347 -0.2454
  614TMC3    C2 9147   1.296   1.350  16.541 -0.0865 -0.0582  0.6431
  614TMC3    C3 9148   1.246   1.335  16.412  0.5769 -0.6813  0.1804
  614TMC3    C4 9149   1.149   1.530  16.580 -1.2482 -0.6489  0.0206
  614TMC3    C5 9150   1.111   1.514  16.447 -0.0914  0.2248 -0.1218
  614TMC3    C6 9151   1.144   1.413  16.363  0.4040  0.5169 -0.5463
  614TMC3     C 9152   1.176   1.377  16.748 -0.5149  0.0901  0.8762
  614TMC3     O 9153   1.062   1.415  16.771 -0.9236 -0.1778 -0.6420
  614TMC3     H 9154   1.354   1.265  16.574 -0.5286 -0.3887  0.5679
  614TMC3    H1 9155   1.110   1.610  16.643 -1.0861 -1.7643  1.5416
  614TMC3    H2 9156   1.121   1.406  16.258  1.3832  0.0745 -0.7297
  614TMC3    C7 9157   1.039   1.631  16.396 -0.6109 -0.3766  0.0504
  614TMC3    C8 9158   1.211   1.194  16.386  0.1270 -0.4965  0.1803
  614TMC3    O1 9159   1.060   1.740  16.448 -0.2365 -0.0657 -0.6303
  614TMC3    O2 9160   1.210   1.120  16.489 -0.2339  0.7355 -0.0450
  615MPD2     C 9161   4.732   3.217  16.958  0.8674  0.4247 -0.2722
  615MPD2    C1 9162   0.105   3.185  16.877 -0.0937  0.4153 -0.0390
  615MPD2    C2 9163   0.089   3.204  16.747  0.3864  0.3773 -0.0193
  615MPD2    C3 9164   4.708   3.256  16.694  0.2370  0.6104 -0.1351
  615MPD2    C4 9165   4.603   3.275  16.777 -0.7543 -0.0995  0.1874
  615MPD2    C5 9166   4.613   3.247  16.907  0.0305 -0.2550  0.0880
  615MPD2     H 9167   0.165   3.181  16.673 -2.7902  0.3831 -3.2812
  615MPD2    H1 9168   4.506   3.307  16.740  0.0703 -0.3477 -2.1769
  615MPD2    H2 9169   4.728   3.216  17.067  0.2075 -0.3717 -0.2950
  615MPD2    H3 9170   4.536   3.255  16.983 -0.1759 -0.0254 -0.1469
  615MPD2     N 9171   4.690   3.309  16.562 -0.5197  0.7368 -0.2008
  615MPD2    H5 9172   4.597   3.338  16.534 -1.1937 -0.2836  0.9749
  615MPD2    N1 9173   0.225   3.140  16.929  0.5622 -0.0274  0.3114
  615MPD2    H7 9174   0.306   3.135  16.867  0.6746  0.2941  0.4304
  616TMC3    C1 9175   0.406   3.127  17.086 -0.0925 -0.1948  0.3042
  616TMC3    C2 9176   0.498   3.060  17.005 -0.0215  0.4824 -0.3990
  616TMC3    C3 9177   0.627   3.079  17.022  0.1660 -0.4312  0.2918
  616TMC3    C4 9178   0.457   3.230  17.162 -0.5476 -0.8733 -0.2279
  616TMC3    C5 9179   0.591   3.249  17.173 -0.1429  0.5817 -0.3280
  616TMC3    C6 9180   0.678   3.171  17.104  0.1623  0.3532 -0.7911
  616TMC3     C 9181   0.261   3.138  17.061 -0.2555  0.3317 -0.3115
  616TMC3     O 9182   0.191   3.179  17.152 -0.2367 -0.1613  0.2747
  616TMC3     H 9183   0.462   2.985  16.936 -1.9115  0.5123  0.5554
  616TMC3    H1 9184   0.391   3.292  17.221  0.4443 -0.1657  0.1551
  616TMC3    H2 9185   0.786   3.164  17.107 -0.1099 -3.0601  0.1560
  616TMC3    C7 9186   0.643   3.347  17.273 -1.1128 -0.8042 -0.2197
  616TMC3    C8 9187   0.707   2.969  16.971 -0.0998  0.6497  0.2673
  616TMC3    O1 9188   0.600   3.461  17.269 -0.2547 -0.2732  0.1118
  616TMC3    O2 9189   0.645   2.862  16.965 -0.2518  0.2125 -0.2690
  617MPD2     C 9190   3.422   1.049  14.298 -0.5526  0.3788 -0.0966
  617MPD2    C1 9191   3.450   0.926  14.245  0.2533 -0.7288 -0.4965
  617MPD2    C2 9192   3.353   0.838  14.218 -0.1084  0.3248  0.0588
  617MPD2    C3 9193   3.221   0.879  14.231 -0.4949  0.4273 -0.4866
  617MPD2    C4 9194   3.191   0.998  14.286  0.2554 -0.1404  0.4488
  617MPD2    C5 9195   3.290   1.085  14.318  0.2939 -0.4345  0.0455
  617MPD2     H 9196   3.368   0.747  14.160 -2.1042 -0.0335  0.1143
  617MPD2    H1 9197   3.089   1.028  14.308  0.6137  0.1873  1.7031
  617MPD2    H2 9198   3.495   1.126  14.320  0.9564 -1.0447 -0.1372
  617MPD2    H3 9199   3.267   1.180  14.365  1.4795  0.5707 -1.4124
  617MPD2     N 9200   3.106   0.794  14.201  0.3674  0.5904  0.3033
  617MPD2    H5 9201   3.014   0.831  14.224 -1.2860 -4.4747  1.7386
  617MPD2    N1 9202   3.588   0.902  14.217  0.1830  0.1292  0.0019
  617MPD2    H7 9203   3.656   0.975  14.241 -0.1271  0.0003  1.2902
  618TMC3    C1 9204   3.781   0.769  14.184 -0.1748  0.0241 -0.0042
  618TMC3    C2 9205   3.834   0.662  14.245  0.4615  0.5302  0.0135
  618TMC3    C3 9206   3.973   0.645  14.231 -0.9517 -0.1270  0.6179
  618TMC3    C4 9207   3.851   0.861  14.115 -0.2933 -0.0609  0.1192
  618TMC3    C5 9208   3.984   0.837  14.102 -0.4077 -0.5730  0.0000
  618TMC3    C6 9209   4.050   0.731  14.156  0.0329  0.5513 -1.1304
  618TMC3     C 9210   3.637   0.776  14.185 -0.0282  0.2412  0.2871
  618TMC3     O 9211   3.585   0.662  14.176  0.1286 -0.1250 -0.9978
  618TMC3     H 9212   3.778   0.603  14.317  2.9554 -0.2230  1.3472
  618TMC3    H1 9213   3.810   0.955  14.079  0.3277  0.4517  0.7632
  618TMC3    H2 9214   4.156   0.710  14.148  0.0603  0.4348 -0.4501
  618TMC3    C7 9215   4.058   0.930  14.011  0.5409  0.0525 -0.2751
  618TMC3    C8 9216   4.027   0.582  14.348  0.0474 -0.9356 -0.3318
  618TMC3    O1 9217   4.043   1.053  14.029  0.4070 -0.0738  0.0013
  618TMC3    O2 9218   3.956   0.559  14.443  0.5655  0.5050  0.3920
  619MPD2     C 9219   0.005   1.531  13.959 -0.7787 -0.0300 -0.4624
  619MPD2    C1 9220   4.669   1.632  13.898 -0.3801 -0.0027  0.2042
  619MPD2    C2 9221   4.530   1.620  13.905 -0.2708  0.5350 -0.1935
  619MPD2    C3 9222   4.467   1.518  13.975  0.2291  0.0664 -0.8293
  619MPD2    C4 9223   4.540   1.412  14.018 -0.2869 -0.4216 -0.6707
  619MPD2    C5 9224   4.671   1.421  14.012  0.7469 -0.2612  0.0269
  619MPD2     H 9225   4.473   1.698  13.858 -0.9625 -1.0323 -1.9645
  619MPD2    H1 9226   4.481   1.331  14.059 -0.9896  0.5717  0.2725
  619MPD2    H2 9227   0.112   1.532  13.974 -0.5412 -1.9260 -2.0051
  619MPD2    H3 9228   4.727   1.335  14.048  1.2800 -0.3361 -0.9828
  619MPD2     N 9229   4.327   1.521  14.000 -0.6691  0.1777 -0.3395
  619MPD2    H5 9230   4.284   1.432  14.024  3.2617 -1.9759 -1.2095
  619MPD2    N1 9231   4.716   1.745  13.828 -0.0317 -0.6154  0.1267
  619MPD2    H7 9232   4.642   1.809  13.802  1.6028  0.8910 -0.8516
  620TMC3    C1 9233   0.120   1.873  13.685 -0.1047 -0.1164 -0.2473
  620TMC3    C2 9234   0.013   1.886  13.602 -0.0923 -0.4602  0.4699
  620TMC3    C3 9235   0.007   1.993  13.517  1.0233  0.5423  0.2559
  620TMC3    C4 9236   0.228   1.954  13.690 -0.3582  0.4455  0.3548
  620TMC3    C5 9237   0.208   2.075  13.621  0.1329 -0.4430  0.1920
  620TMC3    C6 9238   0.102   2.093  13.530  0.1359  0.1478 -0.1603
  620TMC3     C 9239   0.114   1.767  13.792  0.1909 -0.4496 -0.2742
  620TMC3     O 9240   0.219   1.713  13.838 -0.2369 -0.1163  0.0807
  620TMC3     H 9241   4.660   1.824  13.610 -0.7461  0.3527 -0.6134
  620TMC3    H1 9242   0.315   1.949  13.754 -1.8140  2.2602  2.4684
  620TMC3    H2 9243   0.089   2.192  13.489 -1.1870 -0.3650 -0.9823
  620TMC3    C7 9244   0.234   2.188  13.709 -0.6848  0.0191  0.0462
  620TMC3    C8 9245   4.614   2.062  13.525  0.8373 -0.4823  0.2472
  620TMC3    O1 9246   0.342   2.194  13.764  0.4270 -0.4573 -0.0801
  620TMC3    O2 9247   4.619   2.158  13.600 -0.7279  0.9528  0.1830
  621MPD2     C 9248   4.720   2.599  10.146  0.6514 -0.7806 -0.0307
  621MPD2    C1 9249   0.061   2.509  10.073 -0.2040 -0.0289  0.1495
  621MPD2    C2 9250   0.183   2.546  10.023 -0.2070  0.3094 -0.2405
  621MPD2    C3 9251   0.228   2.668  10.037  0.1660  0.2621 -0.3812
  621MPD2    C4 9252   0.154   2.756  10.114 -0.5199  0.5240  0.2371
  621MPD2    C5 9253   0.034   2.719  10.170  0.3742  0.3181  0.0074
  621MPD2     H 9254   0.241   2.476   9.964  0.5596  0.1873  0.6713
  621MPD2    H1 9255   0.187   2.856  10.140 -3.0309  1.0298  1.5507
  621MPD2    H2 9256   4.619   2.574  10.180  0.8635  0.5894  1.6018
  621MPD2    H3 9257   4.720   2.781  10.244 -1.3162  0.7873 -1.5327
  621MPD2     N 9258   0.356   2.705   9.983  0.2014  0.3395  0.0184
  621MPD2    H5 9259   0.404   2.626   9.941 -0.7774  0.0278 -0.5243
  621MPD2    N1 9260   0.011   2.383  10.030  0.0080  0.5436  0.0656
  621MPD2    H7 9261   0.066   2.317   9.976  0.5839  0.0627  1.2517
  622TMC3    C1 9262   4.615   2.191  10.006 -0.2517 -0.0542  0.0305
  622TMC3    C2 9263   4.565   2.084  10.069  0.1230  0.1383  0.7039
  622TMC3    C3 9264   4.550   1.971   9.997 -0.0630  0.8084 -0.3340
  622TMC3    C4 9265   4.648   2.190   9.873  0.7113  0.5987  0.0498
  622TMC3    C5 9266   4.616   2.075   9.802  0.2908  0.3226  0.0216
  622TMC3    C6 9267   4.580   1.961   9.866 -0.4295 -0.3244 -0.6262
  622TMC3     C 9268   4.635   2.317  10.083 -0.9464  0.0611 -0.1585
  622TMC3     O 9269   4.581   2.324  10.190  0.7746  0.3563  0.5616
  622TMC3     H 9270   4.558   2.086  10.177  1.0528  0.4913  0.7629
  622TMC3    H1 9271   4.669   2.278   9.814  0.4949  0.0410 -0.8540
  622TMC3    H2 9272   4.539   1.882   9.804 -0.4314  3.4109 -5.3831
  622TMC3    C7 9273   4.555   2.091   9.676 -0.0161  0.5350  0.3735
  622TMC3    C8 9274   4.496   1.845  10.059 -0.1089 -0.1370 -0.2896
  622TMC3    O1 9275   4.563   2.001   9.589  0.2702 -0.0635  0.2474
  622TMC3    O2 9276   4.508   1.736  10.005  0.5033  0.1758  0.4388
  623MPD2     C 9277   3.714   3.018  16.104  0.3352 -0.7096  0.0004
  623MPD2    C1 9278   3.664   2.992  16.232 -0.8695 -0.0510  0.3885
  623MPD2    C2 9279   3.735   3.025  16.344  0.7795  0.1774  0.9057
  623MPD2    C3 9280   3.858   3.087  16.336 -0.4273  0.5657 -0.2414
  623MPD2    C4 9281   3.915   3.117  16.211  0.1798 -0.4021  1.0990
  623MPD2    C5 9282   3.838   3.085  16.102 -0.6377  0.1521  0.1811
  623MPD2     H 9283   3.690   3.018  16.443  0.9872  0.1064  0.9962
  623MPD2    H1 9284   4.005   3.176  16.205  0.3345 -0.9839 -2.4990
  623MPD2    H2 9285   3.654   3.009  16.014 -2.8188 -2.7609  2.2970
  623MPD2    H3 9286   3.887   3.107  16.008 -2.3587  1.8292 -0.3111
  623MPD2     N 9287   3.915   3.136  16.453 -0.0199 -0.4043  0.0657
  623MPD2    H5 9288   3.849   3.124  16.529 -0.9517 -1.3340 -0.8864
  623MPD2    N1 9289   3.528   2.950  16.252 -0.5455 -0.1992  0.1261
  623MPD2    H7 9290   3.497   2.973  16.347 -0.2717 -1.0131  0.4068
  624TMC3    C1 9291   4.212   3.061  16.765 -1.1047  0.9789  0.6434
  624TMC3    C2 9292   4.109   3.061  16.859  0.1991 -0.3689  0.0918
  624TMC3    C3 9293   3.987   3.116  16.820 -0.2494 -0.1568 -0.2064
  624TMC3    C4 9294   4.194   3.126  16.649  0.5159 -0.4545 -0.8827
  624TMC3    C5 9295   4.070   3.182  16.615 -0.2796 -0.1418 -0.0438
  624TMC3    C6 9296   3.967   3.176  16.703 -0.6377 -0.1451 -0.3323
  624TMC3     C 9297   4.331   2.982  16.780  0.2322 -0.0448  0.8000
  624TMC3     O 9298   4.359   2.948  16.894  0.5765 -0.2453 -0.3266
  624TMC3     H 9299   4.112   2.997  16.946  0.4944 -1.1156 -0.4586
  624TMC3    H1 9300   4.270   3.142  16.574  2.0609 -3.2840  0.0779
  624TMC3    H2 9301   3.869   3.219  16.690 -0.5271  0.0404 -0.5690
  624TMC3    C7 9302   4.037   3.192  16.471 -0.2219  0.1811 -0.7862
  624TMC3    C8 9303   3.865   3.076  16.884 -0.1591 -0.1629 -0.0058
  624TMC3    O1 9304   4.126   3.233  16.397 -0.6365  0.2058 -0.2584
  624TMC3    O2 9305   3.783   3.037  16.803  0.0603  0.1361 -0.1837
  625MPD2     C 9306   4.036   4.060   0.703 -0.0036  0.7674 -0.3527
  625MPD2    C1 9307   4.037   4.196   0.729 -0.0587  0.1028  0.1272
  625MPD2    C2 9308   4.114   4.241   0.832 -0.1658  0.7215  0.0032
  625MPD2    C3 9309   4.207   4.157   0.905 -0.0932  0.2926  0.0252
  625MPD2    C4 9310   4.206   4.025   0.866 -0.0371 -0.0377  0.1797
  625MPD2    C5 9311   4.125   3.981   0.763 -0.3717 -0.0238 -0.1492
  625MPD2     H 9312   4.107   4.347   0.854 -2.6738  0.2842  1.3066
  625MPD2    H1 9313   4.271   3.956   0.919  0.4550 -0.5615 -1.1054
  625MPD2    H2 9314   3.969   4.007   0.637  1.0544 -1.1165  0.0679
  625MPD2    H3 9315   4.130   3.876   0.739  1.9740  0.2098 -0.7165
  625MPD2     N 9316   4.284   4.210   1.004 -0.0809  0.6320  0.4942
  625MPD2    H5 9317   4.297   4.311   1.006  1.0220  0.5197 -1.1258
  625MPD2    N1 9318   3.959   4.301   0.669  0.0912 -0.6889 -0.0258
  625MPD2    H7 9319   3.969   4.396   0.703 -3.7020 -0.4027  0.2768
  626TMC3    C1 9320   3.805   4.420   0.541  1.0372  0.0164 -0.0367
  626TMC3    C2 9321   3.800   4.472   0.415 -0.2867  0.5356 -0.6241
  626TMC3    C3 9322   3.751   4.604   0.401  0.0189  0.1915  0.2159
  626TMC3    C4 9323   3.769   4.491   0.653 -0.1104  0.4290  0.2689
  626TMC3    C5 9324   3.718   4.617   0.635 -0.5779  0.1762 -0.2612
  626TMC3    C6 9325   3.711   4.675   0.515 -0.7676  0.5815  0.5825
  626TMC3     C 9326   3.872   4.288   0.564  0.3052  0.9471  0.3515
  626TMC3     O 9327   3.853   4.202   0.481  0.0829  0.0820  0.1230
  626TMC3     H 9328   3.817   4.412   0.326  1.8502  3.0180 -1.9035
  626TMC3    H1 9329   3.782   4.445   0.750  1.5058  1.5776  0.5899
  626TMC3    H2 9330   3.663   0.035   0.504 -1.1795  0.2854 -0.2292
  626TMC3    C7 9331   3.660   4.690   0.751 -0.6207 -0.1618  0.4791
  626TMC3    C8 9332   3.706   4.644   0.272 -0.2290 -0.0544  0.1980
  626TMC3    O1 9333   3.726   4.671   0.854 -0.5793  1.0501  0.0066
  626TMC3    O2 9334   3.760   4.592   0.177  0.5898 -0.0858 -0.7589
  627MPD2     C 9335   2.702   4.212  14.358  0.7796  0.1999  0.5097
  627MPD2    C1 9336   2.701   4.165  14.485  0.3039  0.0853 -0.3091
  627MPD2    C2 9337   2.627   4.049  14.512  0.0204  0.3472  0.0392
  627MPD2    C3 9338   2.568   3.974  14.418  0.3975 -0.1312 -0.1270
  627MPD2    C4 9339   2.579   4.020  14.289  1.0319  0.3057  0.1480
  627MPD2    C5 9340   2.636   4.141  14.265  0.2457 -0.1864  0.0107
  627MPD2     H 9341   2.638   4.008  14.611 -1.7590 -0.4479 -0.0833
  627MPD2    H1 9342   2.518   3.979  14.209  1.2102 -1.4850  0.9385
  627MPD2    H2 9343   2.765   4.296  14.332  0.1715 -0.7050 -3.8417
  627MPD2    H3 9344   2.637   4.181  14.164  3.6709 -1.4744 -0.4559
  627MPD2     N 9345   2.501   3.856  14.462  0.2791 -0.9580 -0.3856
  627MPD2    H5 9346   2.502   3.842  14.563  1.6474 -1.7181 -0.5073
  627MPD2    N1 9347   2.766   4.228  14.596 -0.2083 -0.1830  0.3066
  627MPD2    H7 9348   2.762   4.180  14.685  0.3131  3.1345  2.1087
  628TMC3    C1 9349   2.902   4.381  14.714 -0.2189  0.3140 -0.1004
  628TMC3    C2 9350   2.979   4.301  14.789  0.4929 -0.0523  0.2257
  628TMC3    C3 9351   3.071   4.361  14.876  0.6000 -0.1129 -0.5298
  628TMC3    C4 9352   2.921   4.517  14.718 -0.4249 -0.1664  0.2172
  628TMC3    C5 9353   3.000   4.573  14.812  0.3131  0.1122  0.1559
  628TMC3    C6 9354   3.072   4.494  14.901 -0.0748  1.1502 -0.6199
  628TMC3     C 9355   2.846   4.338  14.586 -0.6920 -0.2996 -0.2756
  628TMC3     O 9356   2.852   4.415  14.492  0.8003  0.4433  0.1002
  628TMC3     H 9357   2.984   4.194  14.770 -0.5014  0.4326 -2.8357
  628TMC3    H1 9358   2.853   4.569  14.651 -2.3185  0.4572  2.6539
  628TMC3    H2 9359   3.148   4.548  14.955 -0.2335  0.7005  0.0540
  628TMC3    C7 9360   2.978   4.717  14.827 -0.5780 -0.9922  0.0588
  628TMC3    C8 9361   3.186   4.273  14.900 -0.9100  0.4470  0.1037
  628TMC3    O1 9362   2.970   0.023  14.944 -0.4832  0.3114  0.0262
  628TMC3    O2 9363   3.178   4.167  14.839 -0.0650  0.2515  0.2899
  629MPD2     C 9364   1.155   2.726  16.890 -0.2677 -0.3491  0.9398
  629MPD2    C1 9365   1.174   2.856  16.858  0.7340  0.5175 -0.5103
  629MPD2    C2 9366   1.066   2.943  16.878 -0.3025  0.4717  0.0330
  629MPD2    C3 9367   0.947   2.904  16.923 -0.4178  1.2163 -0.0975
  629MPD2    C4 9368   0.924   2.770  16.944  0.7303 -0.5295 -0.3381
  629MPD2    C5 9369   1.031   2.685  16.926 -0.5337 -0.0186 -0.3583
  629MPD2     H 9370   1.072   3.050  16.863  0.3942  0.1632 -1.8739
  629MPD2    H1 9371   0.832   2.725  16.977 -1.0491  1.2588 -2.9223
  629MPD2    H2 9372   1.236   2.654  16.886 -1.3411 -1.5143  0.4439
  629MPD2    H3 9373   1.001   2.582  16.942  0.1267 -0.0001  0.9687
  629MPD2     N 9374   0.840   2.997  16.949 -0.5593  0.0203 -0.4798
  629MPD2    H5 9375   0.861   3.096  16.943  0.5025 -0.1498  0.5093
  629MPD2    N1 9376   1.302   2.900  16.820 -0.0659  0.2895 -0.7660
  629MPD2    H7 9377   1.369   2.826  16.801  1.1425  0.8142  1.4568
  630TMC3    C1 9378   1.474   3.042  16.743  0.3415 -0.3992 -0.2439
  630TMC3    C2 9379   1.501   3.130  16.643 -0.1067  0.3167  0.2494
  630TMC3    C3 9380   1.629   3.185  16.640  0.7767  0.1236 -0.2279
  630TMC3    C4 9381   1.561   2.997  16.837  0.4921 -0.3363  0.0468
  630TMC3    C5 9382   1.683   3.058  16.836  0.2579 -0.2148  0.3479
  630TMC3    C6 9383   1.719   3.138  16.734 -0.5128  0.4003  0.4795
  630TMC3     C 9384   1.331   3.023  16.768  0.8303 -0.0883 -0.3826
  630TMC3     O 9385   1.255   3.114  16.743 -0.3640  0.0975 -0.1300
  630TMC3     H 9386   1.428   3.157  16.568 -0.0305 -0.5892 -0.1455
  630TMC3    H1 9387   1.534   2.939  16.925 -1.1614  2.0442  1.0914
  630TMC3    H2 9388   1.808   3.199  16.734  0.1790 -0.6259  0.8115
  630TMC3    C7 9389   1.727   3.100  16.966 -0.3877  0.0482  0.3087
  630TMC3    C8 9390   1.639   3.329  16.642 -0.5156  0.1861  1.2432
  630TMC3    O1 9391   1.722   3.020  17.059 -0.1686 -0.2453 -0.5186
  630TMC3    O2 9392   1.680   3.371  16.751 -0.4024  0.3816 -0.2746
  631MPD2     C 9393   0.313   3.557  15.532 -0.9409  0.4110 -0.4625
  631MPD2    C1 9394   0.176   3.574  15.551  0.8381 -0.0060  0.5358
  631MPD2    C2 9395   0.128   3.551  15.679 -0.0048 -0.2264  0.3984
  631MPD2    C3 9396   0.210   3.518  15.788  0.1137  0.6082  0.0337
  631MPD2    C4 9397   0.342   3.515  15.761  0.0035  0.3470 -0.3586
  631MPD2    C5 9398   0.395   3.523  15.639  0.0844 -0.4959 -0.2551
  631MPD2     H 9399   0.022   3.569  15.692 -0.4165 -2.1825 -0.2165
  631MPD2    H1 9400   0.415   3.498  15.839  0.7812  2.4010 -0.6467
  631MPD2    H2 9401   0.361   3.589  15.440  0.6077  0.0458  0.2065
  631MPD2    H3 9402   0.501   3.505  15.627  0.0004 -1.1524 -0.0142
  631MPD2     N 9403   0.147   3.503  15.916 -0.0897  0.2566 -0.0793
  631MPD2    H5 9404   0.052   3.539  15.910 -0.8584 -1.7990 -0.4885
  631MPD2    N1 9405   0.095   3.611  15.437 -0.4433 -0.9202 -0.0617
  631MPD2    H7 9406   0.130   3.605  15.342 -0.8960  3.8061 -0.5060
  632TMC3    C1 9407   4.637   3.695  15.336  0.4513 -0.3866  0.6449
  632TMC3    C2 9408   4.546   3.796  15.348 -0.0297 -0.2354  0.7922
  632TMC3    C3 9409   4.418   3.774  15.294 -0.4180  0.0157 -0.1263
  632TMC3    C4 9410   4.606   3.577  15.270  0.5052  0.3441  0.4088
  632TMC3    C5 9411   4.481   3.558  15.219 -0.3572 -1.0036 -0.2474
  632TMC3    C6 9412   4.393   3.662  15.226  0.1098 -0.0437 -0.0387
  632TMC3     C 9413   4.712   3.683  15.454 -0.0658 -0.4197 -0.1068
  632TMC3     O 9414   4.665   3.736  15.554  0.1544 -0.3011  0.9704
  632TMC3     H 9415   4.572   3.881  15.409 -0.6569 -0.1377  0.9278
  632TMC3    H1 9416   4.686   3.504  15.280  0.7932  1.0956  3.5797
  632TMC3    H2 9417   4.291   3.629  15.208 -0.5926  1.1801  1.8115
  632TMC3    C7 9418   4.457   3.445  15.132  0.3558 -0.2014  0.1699
  632TMC3    C8 9419   4.306   3.832  15.364  0.0543 -0.8886  0.2834
  632TMC3    O1 9420   4.358   3.456  15.057 -0.1125 -0.1420  0.3925
  632TMC3    O2 9421   4.204   3.768  15.366 -0.5083  0.0492  0.8027
  633MPD2     C 9422   3.625   0.802  17.345  0.1051 -0.4335 -0.3662
  633MPD2    C1 9423   3.715   0.761  17.243  0.3165 -0.0682  0.9786
  633MPD2    C2 9424   3.766   0.627  17.248 -0.2735 -0.1851 -0.1592
  633MPD2    C3 9425   3.727   0.545  17.361 -0.4543  0.2843 -0.2595
  633MPD2    C4 9426   3.633   0.584  17.449  0.4244  0.8296  0.1200
  633MPD2    C5 9427   3.587   0.718  17.444 -0.7614 -0.1392  0.2088
  633MPD2     H 9428   3.845   0.605  17.176  0.6507  0.8041  0.5608
  633MPD2    H1 9429   3.589   0.528  17.531 -0.2948 -0.8525 -1.4160
  633MPD2    H2 9430   3.571   0.896  17.345  0.8901  0.0286 -0.7358
  633MPD2    H3 9431   3.508   0.743  17.513 -0.3300 -1.4233  1.1698
  633MPD2     N 9432   3.792   0.430  17.402 -0.5764  0.3051  0.9465
  633MPD2    H5 9433   3.785   0.414  17.502 -0.6978  0.3624  0.9475
  633MPD2    N1 9434   3.747   0.838  17.127 -0.4363 -0.2214  0.6361
  633MPD2    H7 9435   3.824   0.808  17.068 -1.6502 -1.3261 -0.3819
  634TMC3    C1 9436   3.742   1.023  16.980  0.2291  0.0290  0.2611
  634TMC3    C2 9437   3.792   0.943  16.885  0.2153  0.0851  0.1172
  634TMC3    C3 9438   3.837   0.994  16.767  0.3321  0.2928 -0.0146
  634TMC3    C4 9439   3.754   1.158  16.968 -0.5958  0.0260 -0.8525
  634TMC3    C5 9440   3.806   1.212  16.856 -0.3446 -0.3723  0.3514
  634TMC3    C6 9441   3.854   1.132  16.752  0.0389  0.6825  0.7305
  634TMC3     C 9442   3.704   0.970  17.106 -0.6562 -0.0669 -0.1499
  634TMC3     O 9443   3.640   1.038  17.187  0.6137 -0.0425  0.3464
  634TMC3     H 9444   3.772   0.836  16.888  1.2928 -0.1102  0.3610
  634TMC3    H1 9445   3.717   1.219  17.050  0.5041  0.1326 -0.4327
  634TMC3    H2 9446   3.909   1.170  16.667  0.8186 -3.4431 -0.6221
  634TMC3    C7 9447   3.804   1.354  16.821 -0.5582 -0.1008  0.1666
  634TMC3    C8 9448   3.917   0.920  16.672 -0.1155 -0.1203  0.5905
  634TMC3    O1 9449   3.863   1.392  16.722  0.4563  0.8219 -0.3629
  634TMC3    O2 9450   3.984   0.978  16.587 -0.5418 -0.4027 -0.1945
  635TMC3    C1 9451   4.597   2.646   0.165  0.3429 -0.0917 -0.5613
  635TMC3    C2 9452   4.648   2.519   0.150 -0.1263  0.0841  0.3475
  635TMC3    C3 9453   4.578   2.427   0.069 -0.1694 -0.5457 -0.3887
  635TMC3    C4 9454   4.476   2.688   0.102 -0.1949  0.1352 -0.4409
  635TMC3    C5 9455   4.417   2.597   0.016  0.1200 -0.1286  0.3316
  635TMC3    C6 9456   4.467   2.470   0.002 -0.2377  0.5677 -0.3200
  635TMC3     C 9457   4.652   2.729   0.277 -0.1240 -0.0907  0.6299
  635TMC3     O 9458   4.674   2.842   0.250  0.3216  0.0477  0.1019
  635TMC3     H 9459   4.735   2.480   0.202  0.0572 -0.5439 -0.4335
  635TMC3    H1 9460   4.442   2.789   0.123  0.4443 -0.0995  1.7035
  635TMC3    H2 9461   4.404   2.394  17.701 -0.7055  0.6854  0.1357
  635TMC3    C7 9462   4.302   2.640  17.687 -0.3182 -0.2752 -0.3629
  635TMC3    C8 9463   4.643   2.303   0.045 -0.0656  0.3818 -0.1911
  635TMC3    O1 9464   4.247   2.740  17.725 -0.0697 -0.1595  0.6231
  635TMC3    O2 9465   4.734   2.266   0.117 -0.0886  0.8847 -0.1757
  636MPD2     C 9466   0.327   1.466  16.464 -0.4531 -0.1210  0.9380
  636MPD2    C1 9467   0.403   1.488  16.578 -0.9671  0.0516  0.0370
  636MPD2    C2 9468   0.470   1.383  16.640  0.3989  0.4451 -0.0452
  636MPD2    C3 9469   0.452   1.253  16.593  0.2937  0.1927 -0.4053
  636MPD2    C4 9470   0.380   1.224  16.479 -0.0537 -0.6465  0.7107
  636MPD2    C5 9471   0.306   1.330  16.422  0.3910 -0.0379 -0.0932
  636MPD2     H 9472   0.518   1.400  16.736  0.7438  1.8907 -0.4702
  636MPD2    H1 9473   0.369   1.126  16.435  1.2051 -0.2435 -0.4865
  636MPD2    H2 9474   0.278   1.546  16.411  1.6972  1.5944  1.5399
  636MPD2    H3 9475   0.247   1.309  16.334  2.6512 -1.2218 -1.3519
  636MPD2     N 9476   0.500   1.149  16.676  0.4280 -0.0757 -0.3174
  636MPD2    H5 9477   0.554   1.172  16.758 -0.5660  0.7990  0.0791
  636MPD2    N1 9478   0.429   1.615  16.644 -0.7174  0.7253 -0.1732
  636MPD2    H7 9479   0.486   1.609  16.728 -1.6752 -0.7822  0.3552
  637TMC3    C1 9480   0.557   0.924  16.726  0.4051  0.3024 -0.2151
  637TMC3    C2 9481   0.602   0.968  16.852  0.3228 -0.0652  0.5034
  637TMC3    C3 9482   0.719   0.919  16.895 -0.7844  0.6195  0.1623
  637TMC3    C4 9483   0.632   0.846  16.638  0.5774  0.7763  0.4676
  637TMC3    C5 9484   0.754   0.803  16.691 -0.0659 -0.0459  0.0660
  637TMC3    C6 9485   0.792   0.831  16.821 -0.5236  0.0845 -0.7422
  637TMC3     C 9486   0.477   1.011  16.652 -0.5145 -0.0508 -0.4617
  637TMC3     O 9487   0.419   0.952  16.560 -0.5094 -0.0305  0.1995
  637TMC3     H 9488   0.544   1.028  16.921  1.0933 -0.6027  1.6101
  637TMC3    H1 9489   0.604   0.818  16.538 -2.3961 -0.0636  1.5502
  637TMC3    H2 9490   0.891   0.802  16.855 -0.7360  0.6256  0.3386
  637TMC3    C7 9491   0.867   0.791  16.601  0.6105  0.2141  0.0847
  637TMC3    C8 9492   0.795   1.031  16.945 -0.6298 -0.0099 -0.4438
  637TMC3    O1 9493   0.981   0.811  16.642 -0.3573  0.1956 -0.6965
  637TMC3    O2 9494   0.767   1.143  16.899 -0.3860  0.0837  0.5698
  638MPD2     C 9495   4.619   0.002  14.322 -0.1536  0.6791  1.1383
  638MPD2    C1 9496   4.667   4.628  14.387  0.4707 -0.2496 -0.1971
  638MPD2    C2 9497   4.601   4.577  14.494 -0.7590  0.5766 -0.9305
  638MPD2    C3 9498   4.490   4.635  14.549 -0.4893  0.4742  0.0612
  638MPD2    C4 9499   4.438   0.011  14.487  0.0980  0.0303  0.3707
  638MPD2    C5 9500   4.507   0.054  14.375  0.0358  0.6644  0.1561
  638MPD2     H 9501   4.651   4.503  14.555 -2.1448 -1.3747 -2.1570
  638MPD2    H1 9502   4.349   0.066  14.514  0.2346  0.6616 -0.4582
  638MPD2    H2 9503   4.657   0.052  14.234  1.3838  0.1206  1.4843
  638MPD2    H3 9504   4.456   0.136  14.325 -0.7104  0.6603  0.9077
  638MPD2     N 9505   4.447   4.584  14.672 -0.0991  0.0709  0.2453
  638MPD2    H5 9506   4.488   4.499  14.709 -0.2902  0.1272  0.5872
  638MPD2    N1 9507   0.058   4.581  14.353  0.3577  0.2655 -0.2118
  638MPD2    H7 9508   0.114   4.629  14.284 -0.7945  1.5054 -0.3004
  639TMC3    C1 9509   4.391   4.581  14.891  0.1622  0.5620 -0.1367
  639TMC3    C2 9510   4.380   4.446  14.881 -0.5544 -0.1397 -0.9227
  639TMC3    C3 9511   4.466   4.365  14.949 -0.2588  0.3415  0.6301
  639TMC3    C4 9512   4.494   4.631  14.956  0.1452 -0.0110  0.1291
  639TMC3    C5 9513   4.589   4.552  15.020 -0.4286  0.8817 -0.1753
  639TMC3    C6 9514   4.574   4.415  15.019 -0.0063 -1.0622  0.2924
  639TMC3     C 9515   4.367   4.645  14.766 -0.4214  0.4342 -1.5963
  639TMC3     O 9516   4.338   0.029  14.764  0.0121 -0.2947 -0.3520
  639TMC3     H 9517   4.307   4.406  14.813  0.7297  1.8875 -3.4842
  639TMC3    H1 9518   4.510   0.002  14.961  2.1555 -0.1905 -3.0162
  639TMC3    H2 9519   4.631   4.356  15.090  0.9520  0.3497  0.7112
  639TMC3    C7 9520   4.709   4.606  15.090  0.5585 -0.0989 -0.5053
  639TMC3    C8 9521   4.450   4.224  14.952  0.3005  0.0658  0.4005
  639TMC3    O1 9522   4.690   4.718  15.135  0.7701 -0.5413 -0.5173
  639TMC3    O2 9523   4.537   4.157  15.006  0.0480  0.6829  0.2912
  640MPD2     C 9524   0.331   3.400   9.416  0.4878 -0.5679 -0.5988
  640MPD2    C1 9525   0.418   3.424   9.523  0.0802  0.2774  0.5476
  640MPD2    C2 9526   0.366   3.491   9.626 -0.3592 -0.2545  0.1205
  640MPD2    C3 9527   0.233   3.516   9.639  0.0247 -0.1216  0.0860
  640MPD2    C4 9528   0.148   3.482   9.536  0.2735  0.2284 -0.1059
  640MPD2    C5 9529   0.198   3.427   9.424  0.0959  0.1338 -0.8090
  640MPD2     H 9530   0.432   3.522   9.707 -1.2618 -1.5609  1.3581
  640MPD2    H1 9531   0.042   3.504   9.538  0.4671  1.2041 -0.4382
  640MPD2    H2 9532   0.367   3.366   9.320 -3.2544 -0.2100 -2.1490
  640MPD2    H3 9533   0.131   3.409   9.341 -0.3450 -0.6249 -0.2953
  640MPD2     N 9534   0.182   3.593   9.743 -0.4860  0.3088  0.4937
  640MPD2    H5 9535   0.081   3.602   9.744 -0.4284  0.9006  1.4954
  640MPD2    N1 9536   0.555   3.403   9.509  0.0909 -0.1712 -0.5866
  640MPD2    H7 9537   0.585   3.361   9.422  1.4787  0.3433 -0.3674
  641TMC3    C1 9538   0.785   3.405   9.553  0.1199  0.6612  0.6287
  641TMC3    C2 9539   0.869   3.323   9.617 -0.0477  0.4399  0.4921
  641TMC3    C3 9540   0.986   3.291   9.555  0.6882  0.0373  0.2475
  641TMC3    C4 9541   0.813   3.450   9.426 -0.7753  0.3785  0.3221
  641TMC3    C5 9542   0.930   3.402   9.368 -0.6047 -0.3208  0.4120
  641TMC3    C6 9543   1.016   3.319   9.426 -0.2711  0.2558  0.1588
  641TMC3     C 9544   0.654   3.422   9.607 -0.4632  0.2057  0.0848
  641TMC3     O 9545   0.640   3.432   9.731  0.2875  0.7533  0.2401
  641TMC3     H 9546   0.846   3.294   9.719  0.1472  0.8647  0.6579
  641TMC3    H1 9547   0.754   3.530   9.382 -1.7230  0.1411  1.1602
  641TMC3    H2 9548   1.098   3.268   9.377  1.3069  2.3985  0.5665
  641TMC3    C7 9549   0.976   3.450   9.237  0.1609  0.5318  0.1112
  641TMC3    C8 9550   1.040   3.172   9.622 -0.3842  0.1246  0.1567
  641TMC3    O1 9551   1.095   3.431   9.207  0.0966 -0.4814  0.1609
  641TMC3    O2 9552   1.078   3.081   9.551 -0.1272 -0.3228  1.1210
  642TMC3    C1 9553   1.899   0.044  12.249 -0.0078  0.5741 -0.1724
  642TMC3    C2 9554   2.032   0.063  12.284  0.4118 -0.1486  0.8788
  642TMC3    C3 9555   2.088   4.702  12.368 -0.4640 -0.1911 -0.1062
  642TMC3    C4 9556   1.833   4.664  12.277 -0.2739  0.2421 -0.2270
  642TMC3    C5 9557   1.893   4.579  12.367 -0.1802 -0.1227  0.1964
  642TMC3    C6 9558   2.022   4.589  12.402  0.2059  0.8908  0.0466
  642TMC3     C 9559   1.822   0.167  12.255  0.1905  0.5469 -0.1374
  642TMC3     O 9560   1.884   0.269  12.249  0.3050  0.4007 -0.1466
  642TMC3     H 9561   2.081   0.150  12.242 -0.2157  0.5287  1.5523
  642TMC3    H1 9562   1.729   4.649  12.251 -1.1902  2.8921  1.8853
  642TMC3    H2 9563   2.071   4.513  12.462  0.1437  0.6019 -0.2689
  642TMC3    C7 9564   1.816   4.459  12.394  0.2849 -0.3274  0.3383
  642TMC3    C8 9565   2.211   4.732  12.438  0.3816 -0.1462  0.2626
  642TMC3    O1 9566   1.765   4.403  12.296  0.3766 -0.1449  0.3721
  642TMC3    O2 9567   2.251   4.638  12.509 -0.1484 -0.1317  0.1281
  643TMC3    C1 9568   0.846   3.927   0.413 -0.5048 -0.4735  0.4215
  643TMC3    C2 9569   0.748   3.960   0.327  0.2416  0.2923 -0.1355
  643TMC3    C3 9570   0.739   3.891   0.210  0.9786 -0.3907  0.1061
  643TMC3    C4 9571   0.939   3.830   0.385  0.2244 -0.1682  0.1287
  643TMC3    C5 9572   0.923   3.762   0.261 -0.6353  0.6767  0.2166
  643TMC3    C6 9573   0.817   3.781   0.184  1.2141 -0.1887 -0.1240
  643TMC3     C 9574   0.867   4.019   0.522  0.3310 -0.6864 -0.1180
  643TMC3     O 9575   0.790   4.115   0.528  0.2708 -0.6984  0.0955
  643TMC3     H 9576   0.673   4.034   0.351 -0.4758 -1.0745  1.8912
  643TMC3    H1 9577   1.028   3.811   0.444 -0.2625 -0.8677  0.6302
  643TMC3    H2 9578   0.808   3.731   0.088  0.8535 -1.3990  0.5361
  643TMC3    C7 9579   1.040   3.780   0.181 -0.1177  0.1390  0.9022
  643TMC3    C8 9580   0.674   3.953   0.094 -0.1672  0.5121  0.5109
  643TMC3    O1 9581   1.018   3.808   0.067  0.1186  0.2178  0.1591
  643TMC3    O2 9582   0.651   3.885  17.739  0.0129  0.0606  0.2906
  644MPD2     C 9583   0.791   4.357   9.388 -0.0335  0.1545  0.1601
  644MPD2    C1 9584   0.751   4.227   9.360 -0.6309  1.2891  0.9819
  644MPD2    C2 9585   0.616   4.203   9.354 -0.6130 -0.4936 -0.6162
  644MPD2    C3 9586   0.522   4.302   9.378  0.1564  0.6983  0.0274
  644MPD2    C4 9587   0.567   4.436   9.402 -0.3516  0.3404  0.4808
  644MPD2    C5 9588   0.701   4.461   9.414 -0.1527  0.0374 -0.2541
  644MPD2     H 9589   0.572   4.110   9.319 -2.0480 -0.5261  1.2459
  644MPD2    H1 9590   0.500   4.520   9.416  1.5581  1.9925 -0.2294
  644MPD2    H2 9591   0.897   4.382   9.386 -0.1586  0.6919  0.2746
  644MPD2    H3 9592   0.737   4.562   9.428  1.1561 -0.6240  1.1252
  644MPD2     N 9593   0.386   4.265   9.370 -0.3203  0.5824 -0.0081
  644MPD2    H5 9594   0.372   4.168   9.345 -0.1696  0.0396  1.9753
  644MPD2    N1 9595   0.839   4.127   9.348  0.1854  0.1633 -0.5026
  644MPD2    H7 9596   0.938   4.148   9.361 -0.1895  0.7153  1.4462
  645TMC3    C1 9597   0.156   4.279   9.422 -0.1438  0.4804 -0.1078
  645TMC3    C2 9598   0.126   4.178   9.334  0.0684  0.6374 -0.0545
  645TMC3    C3 9599   4.733   4.126   9.336  0.0843 -0.1297  0.3149
  645TMC3    C4 9600   0.057   4.334   9.502 -0.9585 -0.1447  0.3921
  645TMC3    C5 9601   4.661   4.277   9.493  0.4325  0.2964 -0.1315
  645TMC3    C6 9602   4.629   4.176   9.413  0.2220 -0.1758  0.2370
  645TMC3     C 9603   0.283   4.347   9.422 -0.0515  0.5497 -0.3324
  645TMC3     O 9604   0.291   4.451   9.482  0.2688  0.1612 -0.1288
  645TMC3     H 9605   0.204   4.143   9.268 -1.3510 -3.8052  0.6497
  645TMC3    H1 9606   0.087   4.416   9.566  0.1342  1.3585 -2.0140
  645TMC3    H2 9607   4.538   4.118   9.423  1.4423 -2.2419 -0.5562
  645TMC3    C7 9608   4.566   4.317   9.600  0.3293 -0.5909  0.2006
  645TMC3    C8 9609   4.709   3.994   9.274  0.6064 -0.2060  0.1241
  645TMC3    O1 9610   4.623   4.368   9.697  0.5368  0.4941  0.1984
  645TMC3    O2 9611   4.592   3.969   9.259 -0.0199 -0.0078 -0.1877
  646MPD2     C 9612   0.446   3.022  14.919 -0.6471 -0.3663 -0.2454
  646MPD2    C1 9613   0.436   3.146  14.982  0.2823  0.0321  0.7444
  646MPD2    C2 9614   0.386   3.256  14.914 -0.0504 -0.3774 -0.1539
  646MPD2    C3 9615   0.311   3.232  14.794 -0.5205 -0.3603  0.3628
  646MPD2    C4 9616   0.311   3.105  14.741 -0.6135 -0.1678  0.1294
  646MPD2    C5 9617   0.391   3.007  14.798  0.0052 -0.4671  0.0732
  646MPD2     H 9618   0.391   3.354  14.960 -1.7633 -1.9737  3.4771
  646MPD2    H1 9619   0.250   3.078  14.655 -1.3342 -0.9026  0.8692
  646MPD2    H2 9620   0.499   2.938  14.962 -2.3494 -1.0921  0.4122
  646MPD2    H3 9621   0.394   2.914  14.743  2.9661  0.1005 -0.7128
  646MPD2     N 9622   0.221   3.317  14.732 -0.3291  0.4185  0.4319
  646MPD2    H5 9623   0.163   3.285  14.655 -0.0995  1.1587 -0.0395
  646MPD2    N1 9624   0.498   3.155  15.109 -0.2659  0.2944 -0.1512
  646MPD2    H7 9625   0.550   3.072  15.136 -0.3212  0.4040  0.2975
  647TMC3    C1 9626   0.576   3.247  15.308 -0.2085 -0.2474  0.0060
  647TMC3    C2 9627   0.521   3.234  15.431 -0.0585 -1.2152  0.4748
  647TMC3    C3 9628   0.597   3.171  15.532  0.0103  0.2296  0.1108
  647TMC3    C4 9629   0.701   3.195  15.283 -0.3363  0.1826  0.2657
  647TMC3    C5 9630   0.779   3.154  15.386  0.7430  0.6172 -0.7217
  647TMC3    C6 9631   0.722   3.143  15.516 -0.0963 -0.0508 -0.8781
  647TMC3     C 9632   0.475   3.254  15.198 -0.2444  0.6420 -0.4284
  647TMC3     O 9633   0.403   3.355  15.184  0.5079  0.1225  0.4363
  647TMC3     H 9634   0.414   3.254  15.441 -0.2884 -0.8088 -2.7674
  647TMC3    H1 9635   0.739   3.213  15.183  0.2225 -0.4159  0.3714
  647TMC3    H2 9636   0.788   3.098  15.590  1.4802  2.5456 -0.6798
  647TMC3    C7 9637   0.907   3.099  15.370 -0.3160 -0.1398  0.1738
  647TMC3    C8 9638   0.530   3.103  15.643 -0.1778 -0.9348 -0.0418
  647TMC3    O1 9639   0.971   3.066  15.475  1.2724  0.3634  0.2178
  647TMC3    O2 9640   0.606   3.052  15.723 -0.5249  0.1338  0.1395
  648TMC3    C1 9641   4.476   1.264  16.380  0.4809 -0.9292 -0.6776
  648TMC3    C2 9642   4.469   1.130  16.356  0.2807 -0.8296 -0.2872
  648TMC3    C3 9643   4.491   1.105  16.228  0.5243 -0.0924 -0.4333
  648TMC3    C4 9644   4.497   1.368  16.292 -0.1069  0.4103 -0.1309
  648TMC3    C5 9645   4.506   1.329  16.164 -0.8508  0.1296  0.3798
  648TMC3    C6 9646   4.504   1.198  16.130  0.1958 -0.0602 -0.2663
  648TMC3     C 9647   4.441   1.309  16.515  0.3406 -0.1872  0.4456
  648TMC3     O 9648   4.484   1.416  16.555  0.3709 -0.5573  0.5928
  648TMC3     H 9649   4.471   1.048  16.427 -2.7942 -0.2963  0.3969
  648TMC3    H1 9650   4.488   1.473  16.320 -1.1922 -0.3339  2.4031
  648TMC3    H2 9651   4.506   1.167  16.027 -1.3104 -0.3438 -0.2038
  648TMC3    C7 9652   4.459   1.421  16.066  0.1801 -0.0594 -0.2858
  648TMC3    C8 9653   4.517   0.969  16.196  0.7484 -0.4348  0.6531
  648TMC3    O1 9654   4.494   1.393  15.953 -0.4367 -0.0210 -0.2035
  648TMC3    O2 9655   4.443   0.891  16.254  0.0427 -0.3012 -0.1744
  649TMC3    C1 9656   3.495   2.182  13.356  0.4002 -0.0642  0.4673
  649TMC3    C2 9657   3.567   2.091  13.285 -0.1397 -0.3715  0.2340
  649TMC3    C3 9658   3.585   1.961  13.346 -0.3241  0.2657 -0.2496
  649TMC3    C4 9659   3.431   2.155  13.476  0.1043  0.0573 -0.1158
  649TMC3    C5 9660   3.436   2.021  13.520 -0.6365  0.6415  0.4195
  649TMC3    C6 9661   3.514   1.929  13.458 -0.6109 -0.8775 -0.8736
  649TMC3     C 9662   3.419   2.282  13.283 -0.3379  0.3384  0.1913
  649TMC3     O 9663   3.362   2.370  13.346 -0.1564 -0.8062  0.7933
  649TMC3     H 9664   3.607   2.114  13.187  0.6887 -2.5283  0.0587
  649TMC3    H1 9665   3.358   2.227  13.511 -1.4386 -1.7094  0.3239
  649TMC3    H2 9666   3.505   1.828  13.497 -0.1038 -0.6504 -0.1704
  649TMC3    C7 9667   3.340   1.982  13.625 -0.3705  0.0777 -0.2796
  649TMC3    C8 9668   3.651   1.860  13.263  0.2236 -0.1368  0.2378
  649TMC3    O1 9669   3.235   2.044  13.639 -0.4712 -0.1716 -0.5887
  649TMC3    O2 9670   3.683   1.899  13.150  0.6554  0.1738 -0.1391
  650TMC3    C1 9671   1.201   3.926  12.968  0.0476  0.8843 -0.2899
  650TMC3    C2 9672   1.180   4.057  13.006 -0.1608  0.2646  0.1366
  650TMC3    C3 9673   1.068   4.120  12.971 -0.2521 -0.3962 -0.4091
  650TMC3    C4 9674   1.106   3.857  12.893  0.0353  0.1397  0.5072
  650TMC3    C5 9675   0.992   3.923  12.863 -0.2868  0.4352  0.2422
  650TMC3    C6 9676   0.979   4.058  12.891 -0.0437 -0.3868 -0.2509
  650TMC3     C 9677   1.312   3.861  13.042 -0.3255  0.2819 -0.3355
  650TMC3     O 9678   1.354   3.922  13.139  0.2643 -0.0188  0.4950
  650TMC3     H 9679   1.248   4.113  13.069 -1.0457 -0.9289  2.1370
  650TMC3    H1 9680   1.109   3.750  12.875 -1.6491  0.3773 -1.1826
  650TMC3    H2 9681   0.888   4.113  12.872 -0.1294 -0.5258 -0.2396
  650TMC3    C7 9682   0.897   3.876  12.766 -0.3687 -0.8440  0.4657
  650TMC3    C8 9683   1.047   4.260  12.989 -0.0818  0.6643  0.5402
  650TMC3    O1 9684   0.836   3.773  12.782 -0.4374  0.4852 -0.4595
  650TMC3    O2 9685   1.148   4.333  12.988  0.5453  0.0213  0.2454
  651MPD2     C 9686   4.700   0.774  10.961  0.0014  0.4643 -0.0722
  651MPD2    C1 9687   4.633   0.887  11.003 -0.2154 -0.5262  0.0718
  651MPD2    C2 9688   4.706   1.004  11.004  1.1892 -0.0753 -1.4590
  651MPD2    C3 9689   0.111   1.006  10.999  0.4836  0.3986  0.4174
  651MPD2    C4 9690   0.173   0.888  10.972 -0.3046  0.4963  0.4360
  651MPD2    C5 9691   0.104   0.774  10.950  0.1993 -0.5496 -0.5545
  651MPD2     H 9692   4.648   1.094  11.023  1.2075 -0.1556 -1.0399
  651MPD2    H1 9693   0.279   0.887  10.953 -0.7604  1.4127 -2.1298
  651MPD2    H2 9694   4.654   0.677  10.948  0.8640  0.3275 -2.1897
  651MPD2    H3 9695   0.156   0.685  10.918  1.9501  1.2160 -2.6024
  651MPD2     N 9696   0.175   1.134  11.021 -0.0084 -0.4269 -0.3485
  651MPD2    H5 9697   0.119   1.218  11.035  0.0158  0.3324 -4.9442
  651MPD2    N1 9698   4.500   0.884  11.026  0.6304 -0.1714 -0.5717
  651MPD2    H7 9699   4.460   0.975  11.045  0.2854 -0.8436  1.8898
  652TMC3    C1 9700   0.517   1.435  11.124 -0.0409  0.2380  0.7813
  652TMC3    C2 9701   0.474   1.307  11.102  0.4932 -0.5174 -0.5561
  652TMC3    C3 9702   0.348   1.291  11.054 -0.8035 -0.6927  0.4903
  652TMC3    C4 9703   0.441   1.546  11.102  0.4590 -0.0400 -0.3300
  652TMC3    C5 9704   0.319   1.522  11.055 -0.2675 -0.3451  0.5508
  652TMC3    C6 9705   0.269   1.396  11.021 -0.2528 -0.3498 -0.2106
  652TMC3     C 9706   0.622   1.458  11.220  0.4714 -0.3346 -0.4279
  652TMC3     O 9707   0.637   1.368  11.304 -0.1089 -0.1798 -0.3114
  652TMC3     H 9708   0.535   1.219  11.115  0.6531 -0.3153  0.0770
  652TMC3    H1 9709   0.460   1.639  11.154  1.9045 -1.3779  1.5286
  652TMC3    H2 9710   0.176   1.379  10.969  0.9639  0.7028 -2.7527
  652TMC3    C7 9711   0.245   1.638  11.012  0.5961  0.6092  0.1114
  652TMC3    C8 9712   0.309   1.152  11.032  0.1285 -0.1551 -0.5467
  652TMC3    O1 9713   0.121   1.625  11.015 -0.3679 -0.1759 -0.1068
  652TMC3    O2 9714   0.393   1.059  11.032 -0.0618  0.1820  0.6599
  653MPD2     C 9715   3.376   1.464   0.108 -0.2266  0.3599 -0.1848
  653MPD2    C1 9716   3.368   1.552  17.743  0.4169  0.4974 -0.6492
  653MPD2    C2 9717   3.352   1.505  17.616  0.2558  0.1856 -0.0234
  653MPD2    C3 9718   3.345   1.370  17.587  0.2070  0.2639 -0.6150
  653MPD2    C4 9719   3.349   1.281  17.690 -0.2917  0.3300  0.1783
  653MPD2    C5 9720   3.372   1.326   0.079 -0.1124 -0.4995  0.2845
  653MPD2     H 9721   3.336   1.575  17.536 -0.1927  0.1732  0.0554
  653MPD2    H1 9722   3.329   1.175  17.674 -0.9514  0.4378  0.2977
  653MPD2    H2 9723   3.386   1.498   0.210 -2.0442 -0.3113  0.2252
  653MPD2    H3 9724   3.364   1.258   0.163  0.1186 -0.8940 -0.0113
  653MPD2     N 9725   3.319   1.335  17.452 -0.2099 -0.3214 -0.0854
  653MPD2    H5 9726   3.305   1.407  17.382  0.9394 -0.9811 -1.0077
  653MPD2    N1 9727   3.377   1.694   0.010 -0.5977  0.2875  0.1679
  653MPD2    H7 9728   3.375   1.750  17.669 -1.5208  1.1554  0.7551
  654TMC3    C1 9729   3.296   1.214  17.254 -0.2678  0.3712 -0.5971
  654TMC3    C2 9730   3.232   1.324  17.201  0.0537  0.0622  0.4930
  654TMC3    C3 9731   3.244   1.344  17.054  0.0266 -0.2699 -0.0388
  654TMC3    C4 9732   3.351   1.109  17.182 -1.0034 -0.2272 -0.7396
  654TMC3    C5 9733   3.346   1.129  17.045  0.9261 -0.0723 -0.0938
  654TMC3    C6 9734   3.299   1.243  16.983 -0.2526  0.0638 -1.0221
  654TMC3     C 9735   3.332   1.209  17.401 -0.7132 -1.0841 -1.5296
  654TMC3     O 9736   3.359   1.097  17.449 -0.4230 -0.1918  0.6039
  654TMC3     H 9737   3.167   1.388  17.260  0.2950  2.9832 -2.4430
  654TMC3    H1 9738   3.398   1.025  17.233 -0.4791 -0.0815 -0.9876
  654TMC3    H2 9739   3.288   1.248  16.876  0.7284  0.4852 -1.1083
  654TMC3    C7 9740   3.387   1.018  16.957 -0.2249  0.2752  0.8687
  654TMC3    C8 9741   3.132   1.406  16.997  0.3901  0.2542  0.0433
  654TMC3    O1 9742   3.396   1.040  16.837  0.1236  0.1111 -0.0609
  654TMC3    O2 9743   3.082   1.339  16.909  0.3316  0.2159  0.0426
  655MPD2     C 9744   0.312   1.637  15.934  0.7492  0.3559  0.0221
  655MPD2    C1 9745   0.189   1.650  15.882  0.5136 -0.0158  0.3375
  655MPD2    C2 9746   0.146   1.578  15.771 -0.2111 -0.4802 -0.3130
  655MPD2    C3 9747   0.237   1.485  15.714 -0.0192 -0.0199 -0.0420
  655MPD2    C4 9748   0.363   1.469  15.766  0.1116 -0.5810 -0.1013
  655MPD2    C5 9749   0.399   1.550  15.877  0.5666 -0.3829  0.5729
  655MPD2     H 9750   0.045   1.590  15.734 -0.6374 -1.6086  0.4945
  655MPD2    H1 9751   0.437   1.402  15.724  0.0626 -1.2570  0.8697
  655MPD2    H2 9752   0.348   1.675  16.029 -0.6852  1.1227  0.2471
  655MPD2    H3 9753   0.495   1.544  15.926  0.6631  0.1162  0.4469
  655MPD2     N 9754   0.205   1.412  15.605 -0.1361 -0.0252  0.3992
  655MPD2    H5 9755   0.277   1.354  15.563 -0.3511  0.2676 -0.3834
  655MPD2    N1 9756   0.091   1.739  15.928 -0.4491 -0.3124 -0.2185
  655MPD2    H7 9757   0.019   1.761  15.860  0.9531  0.0878 -1.5877
  656TMC3    C1 9758   4.703   1.863  16.071 -0.1281 -0.7568  0.1308
  656TMC3    C2 9759   4.644   1.853  16.190  0.3712  0.6036 -0.0111
  656TMC3    C3 9760   4.512   1.894  16.196 -0.3525  0.2573 -1.1657
  656TMC3    C4 9761   4.640   1.936  15.978  0.2498 -0.0906 -1.0883
  656TMC3    C5 9762   4.511   1.981  15.990  0.4279  0.0938  0.4257
  656TMC3    C6 9763   4.441   1.969  16.106 -0.8149 -0.9131  0.2227
  656TMC3     C 9764   0.088   1.791  16.053 -0.2031 -0.4399 -0.0309
  656TMC3     O 9765   0.152   1.751  16.148 -0.1453  0.1006  0.6628
  656TMC3     H 9766   4.676   1.785  16.268  3.1229  0.8849 -0.8923
  656TMC3    H1 9767   4.691   1.958  15.885  1.1195 -0.7513 -0.7670
  656TMC3    H2 9768   4.336   1.991  16.123 -0.4298  1.4075 -0.4794
  656TMC3    C7 9769   4.452   2.027  15.870  0.2882  0.1858  0.4380
  656TMC3    C8 9770   4.435   1.828  16.304  0.5075  0.3168  0.8148
  656TMC3    O1 9771   4.510   1.993  15.768 -0.2755 -0.3090  0.2223
  656TMC3    O2 9772   4.474   1.719  16.340 -0.3446 -0.0033 -0.5267
  657TMC3    C1 9773   3.467   0.628  15.100  0.1176 -0.3214 -0.0348
  657TMC3    C2 9774   3.488   0.590  15.230  0.4807  0.1974 -0.0306
  657TMC3    C3 9775   3.426   0.665  15.324 -1.2411 -0.9475  0.5189
  657TMC3    C4 9776   3.379   0.727  15.064  0.7564 -0.0643  0.2913
  657TMC3    C5 9777   3.318   0.800  15.169  0.0489  0.2910 -0.2879
  657TMC3    C6 9778   3.343   0.773  15.296  0.3191  0.4234 -0.3053
  657TMC3     C 9779   3.564   0.583  15.000  0.3267  0.6104 -0.7342
  657TMC3     O 9780   3.543   0.597  14.881  0.4170 -0.8306  0.1800
  657TMC3     H 9781   3.555   0.511  15.262  0.5760  0.5689  0.6848
  657TMC3    H1 9782   3.375   0.753  14.959  1.0379  1.7074  0.7060
  657TMC3    H2 9783   3.303   0.833  15.377  0.0857 -1.4759  1.0013
  657TMC3    C7 9784   3.250   0.921  15.137  0.3245  0.7946  0.1942
  657TMC3    C8 9785   3.471   0.649  15.463  0.0969  0.0726 -0.2052
  657TMC3    O1 9786   3.187   0.976  15.227 -0.9033  0.4480  0.0644
  657TMC3    O2 9787   3.554   0.563  15.482 -0.0303  0.4983 -0.8378
  658MPD2     C 9788   0.447   1.619  14.992  0.0650 -0.2335 -0.3732
  658MPD2    C1 9789   0.357   1.518  14.970  0.0854  0.0942  0.0472
  658MPD2    C2 9790   0.343   1.458  14.844  0.0287 -0.6701 -0.2842
  658MPD2    C3 9791   0.417   1.504  14.740 -0.2393  0.0720 -0.1041
  658MPD2    C4 9792   0.516   1.602  14.755 -0.1553 -0.1070  0.3046
  658MPD2    C5 9793   0.525   1.655  14.882 -0.1207 -0.5544 -1.1151
  658MPD2     H 9794   0.276   1.376  14.822 -0.7133 -0.6707  1.9644
  658MPD2    H1 9795   0.581   1.637  14.675  0.3882 -0.0944  0.7517
  658MPD2    H2 9796   0.467   1.665  15.088  1.5064 -1.0288 -0.2961
  658MPD2    H3 9797   0.587   1.741  14.905  0.2621 -1.5751  1.6545
  658MPD2     N 9798   0.364   1.458  14.616  0.1062 -0.0556 -0.7998
  658MPD2    H5 9799   0.293   1.387  14.608 -1.1168  0.9630  1.1244
  658MPD2    N1 9800   0.284   1.470  15.081  0.2295 -0.0602 -0.2672
  658MPD2    H7 9801   0.294   1.523  15.167 -0.1457 -0.1458 -0.1716
  659TMC3    C1 9802   0.110   1.370  15.195 -0.1154  1.0012  0.9313
  659TMC3    C2 9803   0.152   1.374  15.326 -0.0528 -0.3805 -0.2413
  659TMC3    C3 9804   0.058   1.345  15.422  0.7748  0.1473 -0.0922
  659TMC3    C4 9805   4.720   1.334  15.153  0.4113 -0.2157  0.3892
  659TMC3    C5 9806   4.624   1.329  15.256  0.0441  0.1556  0.4559
  659TMC3    C6 9807   4.665   1.336  15.385 -0.0041  0.6305 -0.2499
  659TMC3     C 9808   0.193   1.371  15.075 -0.2458  0.1155  0.2685
  659TMC3     O 9809   0.155   1.292  14.991  0.0551  0.6604  0.0420
  659TMC3     H 9810   0.255   1.396  15.352 -0.8560  1.1922  1.6192
  659TMC3    H1 9811   4.687   1.329  15.050 -0.0860  0.8318  0.4998
  659TMC3    H2 9812   4.588   1.311  15.457  0.5736  1.5895  0.6834
  659TMC3    C7 9813   4.481   1.318  15.211  0.0117 -0.2159  0.1586
  659TMC3    C8 9814   0.072   1.393  15.560  0.2243  0.3090 -0.0762
  659TMC3    O1 9815   4.454   1.313  15.092 -0.1891  0.5740  0.3595
  659TMC3    O2 9816   4.704   1.394  15.623  0.0116  0.1204  0.3303
  660MPD2     C 9817   3.264   0.154  12.528  0.0435 -0.7707 -0.1962
  660MPD2    C1 9818   3.131   0.193  12.528  0.3002  0.6725 -0.0166
  660MPD2    C2 9819   3.062   0.193  12.648  0.4351 -0.4358  0.2838
  660MPD2    C3 9820   3.127   0.154  12.765  0.1916  0.4666 -0.3176
  660MPD2    C4 9821   3.249   0.104  12.763 -0.1654  0.2801  0.3883
  660MPD2    C5 9822   3.317   0.108  12.645 -0.5772 -0.3340  0.1143
  660MPD2     H 9823   2.958   0.224  12.652  0.5369 -0.0501 -0.1223
  660MPD2    H1 9824   3.303   0.063  12.847  0.3130  2.4552  1.1434
  660MPD2    H2 9825   3.320   0.164  12.435 -1.1499 -0.1032 -0.8497
  660MPD2    H3 9826   3.416   0.063  12.646  0.8070  2.7033  0.0177
  660MPD2     N 9827   3.054   0.150  12.888 -0.2374  0.5115  0.4963
  660MPD2    H5 9828   3.111   0.119  12.966  1.0070  1.2553 -0.1128
  660MPD2    N1 9829   3.072   0.226  12.405 -0.1340  0.2909 -0.8682
  660MPD2    H7 9830   3.132   0.224  12.323  0.5370 -1.8965 -0.3275
  661TMC3    C1 9831   2.908   0.255  12.250 -0.3400 -0.1342  0.2399
  661TMC3    C2 9832   2.996   0.225  12.155  0.2359  0.3120  0.7044
  661TMC3    C3 9833   2.959   0.253  12.022  0.1857  0.0831  0.4814
  661TMC3    C4 9834   2.777   0.293  12.221  0.2863  0.7849  0.4926
  661TMC3    C5 9835   2.747   0.317  12.093  1.1861 -0.3671  0.1086
  661TMC3    C6 9836   2.837   0.302  11.991 -0.6281  0.0153  0.3342
  661TMC3     C 9837   2.942   0.248  12.391  0.3893 -0.4211  0.3104
  661TMC3     O 9838   2.853   0.243  12.473 -0.6003 -0.8929 -0.4691
  661TMC3     H 9839   3.095   0.186  12.176  0.6755  2.3725  2.4630
  661TMC3    H1 9840   2.703   0.308  12.299 -0.2654  0.5412  0.0180
  661TMC3    H2 9841   2.788   0.313  11.895  0.3317 -0.2655 -0.1868
  661TMC3    C7 9842   2.613   0.338  12.051 -0.2869  0.5912 -0.3461
  661TMC3    C8 9843   3.056   0.217  11.919 -0.1715 -0.6376  0.3600
  661TMC3    O1 9844   2.591   0.420  11.964  0.1350  0.3837  0.2886
  661TMC3    O2 9845   3.051   0.285  11.820  0.6646 -0.2507  0.2304
  662MPD2     C 9846   3.240   4.726  17.011  0.2126  0.2669 -0.4511
  662MPD2    C1 9847   3.142   4.633  17.031  0.2028  0.7176  0.0359
  662MPD2    C2 9848   3.037   4.668  17.109  0.0361 -0.2149  0.4272
  662MPD2    C3 9849   3.032   0.057  17.177  0.0900 -0.6280 -0.0052
  662MPD2    C4 9850   3.125   0.151  17.148 -0.3419 -0.5191 -0.0692
  662MPD2    C5 9851   3.225   0.121  17.061 -0.4652 -0.7060 -0.0262
  662MPD2     H 9852   2.972   4.584  17.130  1.1880 -1.3565 -0.5805
  662MPD2    H1 9853   3.126   0.242  17.208  0.2452 -1.1110  0.8244
  662MPD2    H2 9854   3.321   4.714  16.940  0.1967 -0.2941 -0.3718
  662MPD2    H3 9855   3.300   0.194  17.033 -2.1174 -0.1851 -3.0812
  662MPD2     N 9856   2.941   0.074  17.288  0.2784 -0.5246 -0.0643
  662MPD2    H5 9857   2.962   0.151  17.350 -0.9360  0.5302 -0.9769
  662MPD2    N1 9858   3.154   4.502  16.982 -0.3778  0.0560  0.5597
  662MPD2    H7 9859   3.083   4.433  17.006 -0.5031  0.1785  0.5389
  663TMC3    C1 9860   3.254   4.309  16.903 -0.8309  0.4463  0.1864
  663TMC3    C2 9861   3.125   4.270  16.908  0.4859 -0.2630 -0.2517
  663TMC3    C3 9862   3.096   4.138  16.912 -0.1223  0.3292  0.4414
  663TMC3    C4 9863   3.345   4.236  16.966  0.1402 -0.1999  0.0285
  663TMC3    C5 9864   3.304   4.113  17.011 -0.0700  0.3935  0.0608
  663TMC3    C6 9865   3.180   4.068  16.991 -0.5632  0.1650 -0.0319
  663TMC3     C 9866   3.271   4.450  16.913  0.3447  0.1322 -0.0227
  663TMC3     O 9867   3.373   4.501  16.873  0.4470 -0.2261  0.5091
  663TMC3     H 9868   3.052   4.323  16.848 -0.4623 -1.0496  0.2087
  663TMC3    H1 9869   3.445   4.276  16.976 -0.0764  0.0881  1.0583
  663TMC3    H2 9870   3.145   3.973  17.028  0.0549  0.0316  0.2093
  663TMC3    C7 9871   3.396   4.053  17.105  0.3621 -0.3528  0.1152
  663TMC3    C8 9872   2.963   4.130  16.963  0.0626 -0.2524 -0.0698
  663TMC3    O1 9873   3.514   4.086  17.093  0.2425  0.1322  0.1388
  663TMC3    O2 9874   2.884   4.087  16.883 -0.1906  0.1024  1.1249
  664MPD2     C 9875   1.497   2.731   0.299 -0.3821  0.2293 -0.4313
  664MPD2    C1 9876   1.429   2.846   0.275  0.2999  0.8593 -0.1958
  664MPD2    C2 9877   1.315   2.878   0.349 -0.8401 -0.1869 -0.1642
  664MPD2    C3 9878   1.260   2.783   0.440 -0.5065  0.1565  0.1033
  664MPD2    C4 9879   1.328   2.665   0.465 -0.3986  0.2879 -0.0360
  664MPD2    C5 9880   1.440   2.643   0.391 -0.3050 -0.3140  0.0969
  664MPD2     H 9881   1.261   2.969   0.325 -1.1393 -0.2890  0.1265
  664MPD2    H1 9882   1.305   2.579   0.526 -1.8970 -0.2969 -1.4210
  664MPD2    H2 9883   1.584   2.698   0.243 -0.5282  1.6646 -1.5194
  664MPD2    H3 9884   1.495   2.551   0.405 -1.4467 -1.2227 -1.4756
  664MPD2     N 9885   1.137   2.815   0.497  0.4083  0.1772 -0.1575
  664MPD2    H5 9886   1.084   2.892   0.457  0.4387  1.1931  1.8099
  664MPD2    N1 9887   1.464   2.946   0.182 -0.3660  0.4237 -0.1146
  664MPD2    H7 9888   1.420   3.037   0.187 -0.8925  0.0698  1.6255
  665TMC3    C1 9889   0.967   2.800   0.657  0.0947  0.1953 -0.3713
  665TMC3    C2 9890   0.884   2.724   0.737 -0.9765 -0.1265 -0.3510
  665TMC3    C3 9891   0.799   2.796   0.825 -0.4253  0.1887 -0.4873
  665TMC3    C4 9892   0.957   2.939   0.662 -0.2561 -0.6331 -0.6756
  665TMC3    C5 9893   0.878   3.002   0.749  0.2087  0.2658  0.4810
  665TMC3    C6 9894   0.797   2.930   0.833 -0.2320 -0.1677 -0.3427
  665TMC3     C 9895   1.073   2.733   0.587  0.0397 -0.2535 -0.2925
  665TMC3     O 9896   1.099   2.622   0.627 -0.2098 -0.6498  0.2779
  665TMC3     H 9897   0.908   2.619   0.745 -1.0547 -0.0894  0.4601
  665TMC3    H1 9898   1.014   3.014   0.609  0.4357 -0.6168  0.0994
  665TMC3    H2 9899   0.719   2.978   0.891  0.0850 -1.2441  0.9744
  665TMC3    C7 9900   0.897   3.140   0.774 -0.0762  0.4553 -0.4272
  665TMC3    C8 9901   0.759   2.735   0.949 -0.1471  0.2675 -0.6483
  665TMC3    O1 9902   0.935   3.218   0.687 -0.3741 -0.2715 -0.0158
  665TMC3    O2 9903   0.771   2.807   1.044 -0.1464 -0.3734  0.2363
  666TMC3    C1 9904   0.538   2.833   9.913 -0.4615 -0.3444 -0.9911
  666TMC3    C2 9905   0.631   2.774   9.997  0.0723  0.6676 -0.7436
  666TMC3    C3 9906   0.744   2.845  10.036  0.3290 -0.0392 -0.0357
  666TMC3    C4 9907   0.560   2.965   9.878 -0.3290 -0.1788 -0.5765
  666TMC3    C5 9908   0.674   3.033   9.915  0.8106  0.7961  0.5194
  666TMC3    C6 9909   0.770   2.972   9.987  0.1358  0.3452 -0.5769
  666TMC3     C 9910   0.414   2.829   9.985 -0.3593  0.0803 -0.0682
  666TMC3     O 9911   0.379   2.939  10.024  0.1905  0.0664 -0.1613
  666TMC3     H 9912   0.608   2.672  10.027  1.2391  0.7264  0.3448
  666TMC3    H1 9913   0.482   3.009   9.817  0.4190  0.5766 -0.9965
  666TMC3    H2 9914   0.855   3.034  10.017  0.7498 -0.9124  0.2959
  666TMC3    C7 9915   0.645   3.172   9.946  0.4220  0.1972  0.2939
  666TMC3    C8 9916   0.806   2.797  10.158 -0.3113  0.4309 -0.2084
  666TMC3    O1 9917   0.737   3.245   9.977  0.2150  0.4617 -0.3766
  666TMC3    O2 9918   0.777   2.681  10.186  0.0489 -0.5031  0.0398
  667MPD2     C 9919   2.371   2.360  14.859  0.3736  0.2837 -0.4721
  667MPD2    C1 9920   2.282   2.399  14.948  0.1772  0.2673  0.0980
  667MPD2    C2 9921   2.168   2.324  14.971 -0.5569  0.0753  0.3935
  667MPD2    C3 9922   2.129   2.221  14.885 -0.5034 -0.1551  0.5610
  667MPD2    C4 9923   2.224   2.180  14.793 -1.1508  0.2297 -0.8644
  667MPD2    C5 9924   2.334   2.255  14.774 -0.3412 -0.7891  0.5873
  667MPD2     H 9925   2.100   2.354  15.050  0.4230 -0.3153  1.3808
  667MPD2    H1 9926   2.210   2.088  14.738  0.0793 -0.1381 -0.5504
  667MPD2    H2 9927   2.466   2.409  14.838 -0.3204  1.6858 -0.3207
  667MPD2    H3 9928   2.401   2.217  14.698  0.7106  1.3255  0.4375
  667MPD2     N 9929   2.006   2.155  14.895 -0.4263  0.1825 -0.8583
  667MPD2    H5 9930   1.987   2.073  14.838 -2.3218 -0.8355  1.2610
  667MPD2    N1 9931   2.301   2.502  15.040  0.1305  0.5995  0.7265
  667MPD2    H7 9932   2.235   2.504  15.118  0.3547  0.7986  0.9114
  668TMC3    C1 9933   2.421   2.672  15.138  0.4020 -0.6470 -0.6472
  668TMC3    C2 9934   2.464   2.797  15.122  0.5060 -0.7691 -0.6205
  668TMC3    C3 9935   2.486   2.874  15.234 -0.1519 -0.3937 -0.3395
  668TMC3    C4 9936   2.401   2.618  15.263  0.6289  0.0395  0.1270
  668TMC3    C5 9937   2.453   2.692  15.369  0.3533 -0.4358 -0.7050
  668TMC3    C6 9938   2.501   2.824  15.358  0.1155  0.8044 -0.3997
  668TMC3     C 9939   2.404   2.593  15.028 -0.1648 -0.0440 -0.4920
  668TMC3     O 9940   2.456   2.626  14.925 -0.3470 -0.4098  0.4413
  668TMC3     H 9941   2.458   2.836  15.021 -1.9767 -1.3048 -0.6798
  668TMC3    H1 9942   2.376   2.513  15.275  0.5439 -0.1611 -1.8103
  668TMC3    H2 9943   2.534   2.881  15.444  0.5323 -2.3276  1.4987
  668TMC3    C7 9944   2.438   2.643  15.506  0.3014 -0.1019  0.4825
  668TMC3    C8 9945   2.501   3.020  15.230 -1.0716 -0.1553 -0.0730
  668TMC3    O1 9946   2.500   2.701  15.590 -0.1235  0.1693 -0.4574
  668TMC3    O2 9947   2.513   3.081  15.339  0.6173 -0.1868 -0.1269
  669TMC3    C1 9948   0.163   2.545  15.124 -0.8302 -0.1335  0.2402
  669TMC3    C2 9949   0.060   2.519  15.034  0.5291 -0.7632 -0.9127
  669TMC3    C3 9950   0.085   2.518  14.902  0.1190  0.8232  0.1742
  669TMC3    C4 9951   0.286   2.582  15.077 -0.1161 -0.4344  0.8476
  669TMC3    C5 9952   0.305   2.565  14.936 -0.3674  0.1749  0.1067
  669TMC3    C6 9953   0.206   2.540  14.851  0.0743  0.3835 -0.1363
  669TMC3     C 9954   0.152   2.505  15.263  0.2336 -0.3491 -0.5210
  669TMC3     O 9955   0.045   2.516  15.312  0.0172  0.7112 -0.2066
  669TMC3     H 9956   4.702   2.488  15.079 -0.0554 -1.0205 -2.3268
  669TMC3    H1 9957   0.366   2.610  15.145  0.0024  2.6079 -0.5648
  669TMC3    H2 9958   0.231   2.544  14.746  1.4727  3.9431  0.3308
  669TMC3    C7 9959   0.419   2.637  14.887  0.5840 -0.2422 -0.7030
  669TMC3    C8 9960   4.711   2.492  14.810  0.0652  0.0989  0.1583
  669TMC3    O1 9961   0.471   2.725  14.957  0.2129 -0.2341  0.4948
  669TMC3    O2 9962   0.003   2.416  14.718 -0.3452 -0.8141 -0.6296
  670MPD2     C 9963   3.286   0.365  14.160  0.2357  0.5905 -0.9548
  670MPD2    C1 9964   3.333   0.260  14.087  0.2029 -0.1135  0.3297
  670MPD2    C2 9965   3.283   0.136  14.120 -0.5226  0.6489 -0.0701
  670MPD2    C3 9966   3.198   0.099  14.221 -0.5981 -0.3804  0.5174
  670MPD2    C4 9967   3.168   0.204  14.305  0.0922  0.6628  0.3776
  670MPD2    C5 9968   3.210   0.334  14.272 -0.8366 -0.5153  0.4258
  670MPD2     H 9969   3.331   0.055  14.066 -2.1797  0.5949 -1.4433
  670MPD2    H1 9970   3.107   0.189  14.394 -0.3235  0.9809  0.1478
  670MPD2    H2 9971   3.300   0.471  14.143 -0.9488  0.6652 -1.4736
  670MPD2    H3 9972   3.177   0.410  14.342  0.5383  0.1053  0.3873
  670MPD2     N 9973   3.159   4.701  14.251 -0.2251 -0.2250  0.7829
  670MPD2    H5 9974   3.183   4.628  14.185 -1.2909  0.0553  0.0947
  670MPD2    N1 9975   3.416   0.285  13.977  0.6933 -0.2566  0.8510
  670MPD2    H7 9976   3.445   0.377  13.947 -2.0470  0.2416 -0.2403
  671TMC3    C1 9977   3.101   4.514  14.362 -0.0110 -0.0351  0.3153
  671TMC3    C2 9978   3.175   4.446  14.463 -0.4098  0.1938  0.2394
  671TMC3    C3 9979   3.196   4.311  14.446  0.3183  0.0282  1.0384
  671TMC3    C4 9980   3.045   4.456  14.254 -0.0331  1.0072  0.4779
  671TMC3    C5 9981   3.064   4.319  14.242  1.0691 -0.4489 -0.1196
  671TMC3    C6 9982   3.128   4.248  14.346 -0.3609 -0.3383 -0.1163
  671TMC3     C 9983   3.118   4.655  14.372 -0.7093 -0.2963  0.1826
  671TMC3     O 9984   3.106   4.710  14.479  0.2756  0.4644  0.1962
  671TMC3     H 9985   3.242   4.505  14.524  1.0173  0.4484 -1.5707
  671TMC3    H1 9986   3.021   4.518  14.168 -2.4989  0.0031  0.4455
  671TMC3    H2 9987   3.134   4.141  14.330 -1.3727 -0.2477 -1.1610
  671TMC3    C7 9988   3.072   4.269  14.106 -0.1414  0.4224 -0.4228
  671TMC3    C8 9989   3.331   4.270  14.446 -0.5166 -0.4698  0.0145
  671TMC3    O1 9990   3.030   4.340  14.017  0.3363 -0.1585  0.7095
  671TMC3    O2 9991   3.376   4.198  14.354  0.1453 -0.6451 -0.2615
  672MPD2     C 9992   3.068   1.174   0.578  0.2609  0.6001  0.0861
  672MPD2    C1 9993   3.133   1.063   0.636 -0.1867  0.4349 -0.0987
  672MPD2    C2 9994   3.194   1.089   0.760 -0.3736  0.1051  0.2875
  672MPD2    C3 9995   3.199   1.216   0.818  0.1668  0.8697 -0.3412
  672MPD2    C4 9996   3.142   1.322   0.751 -0.6572  0.1984 -0.7807
  672MPD2    C5 9997   3.076   1.300   0.633  0.0357  0.3487 -0.0463
  672MPD2     H 9998   3.237   1.008   0.818 -1.2258  1.2059  2.4350
  672MPD2    H1 9999   3.165   1.424   0.778 -1.5561  0.1606  0.1012
  672MPD2    H210000   3.009   1.164   0.488  0.3103  0.7242  0.0415
  672MPD2    H310001   3.019   1.383   0.592 -0.4153  0.3194  0.5218
  672MPD2     N10002   3.262   1.240   0.943 -0.1749 -0.0585  0.0421
  672MPD2    H510003   3.238   1.324   0.994  2.4311 -0.3439  1.7720
  672MPD2    N110004   3.131   0.933   0.582  0.7510 -0.0834  0.1605
  672MPD2    H710005   3.180   0.859   0.631 -4.5287 -2.5969  1.6952
  673TMC3    C110006   3.039   0.757   0.450 -0.1123 -0.0447 -0.2862
  673TMC3    C210007   3.163   0.690   0.440  0.0482 -0.0738  0.1488
  673TMC3    C310008   3.176   0.598   0.346 -1.0198  0.1334  0.1616
  673TMC3    C410009   2.937   0.736   0.365 -0.0223 -0.5994  0.2863
  673TMC3    C510010   2.963   0.653   0.259 -0.2673 -0.4066 -0.1346
  673TMC3    C610011   3.077   0.585   0.249 -0.0464 -0.2274 -0.2398
  673TMC3     C10012   3.042   0.899   0.480  0.1933 -0.1691  0.2705
  673TMC3     O10013   2.960   0.965   0.418 -0.0897  0.1674  0.0082
  673TMC3     H10014   3.249   0.712   0.503 -0.4131  0.0433  0.7317
  673TMC3    H110015   2.838   0.776   0.381 -0.2064 -0.9862  0.1027
  673TMC3    H210016   3.089   0.518   0.165  0.1080 -0.4235 -0.0590
  673TMC3    C710017   2.923   0.707   0.132 -0.7444  0.5333 -0.7597
  673TMC3    C810018   3.291   0.508   0.323 -1.2351  0.2903  0.4158
  673TMC3    O110019   2.939   0.645   0.029  0.4847 -0.2807 -0.1979
  673TMC3    O210020   3.307   0.469   0.206  0.1420 -0.3572  0.0302
  674MPD2     C10021   3.069   0.905  17.058  0.0846 -0.7483  0.4476
  674MPD2    C110022   3.067   0.820  17.169 -0.2570  0.3850  0.3223
  674MPD2    C210023   2.990   0.854  17.272 -0.1387  1.3069  0.3097
  674MPD2    C310024   2.911   0.967  17.272  0.1818  0.0408  0.2211
  674MPD2    C410025   2.921   1.053  17.167 -0.0737  0.0629  0.2786
  674MPD2    C510026   3.000   1.021  17.062 -0.0051 -0.1580 -0.7842
  674MPD2     H10027   2.974   0.786  17.355  1.0824 -0.2564 -0.7388
  674MPD2    H110028   2.863   1.143  17.156 -1.4433 -1.1526 -2.6841
  674MPD2    H210029   3.121   0.882  16.966  1.4151  2.0832  0.5129
  674MPD2    H310030   3.014   1.087  16.978 -0.4606  0.5076 -0.3346
  674MPD2     N10031   2.812   0.978  17.368  0.0779 -0.0807 -0.6628
  674MPD2    H510032   2.795   0.908  17.440  0.0914  0.9178  0.3141
  674MPD2    N110033   3.150   0.702  17.156  0.0956 -0.6135  0.3875
  674MPD2    H710034   3.189   0.697  17.062  3.4126  1.6581  1.6308
  675TMC3    C110035   3.127   0.611  17.378 -0.0211 -0.1538  0.2883
  675TMC3    C210036   3.078   0.493  17.419  0.5727  0.0499 -0.3671
  675TMC3    C310037   3.110   0.459  17.545  0.5916  0.7286 -0.3005
  675TMC3    C410038   3.211   0.678  17.466  0.6021 -0.2273  0.1147
  675TMC3    C510039   3.239   0.639  17.593 -0.0761  0.4655  0.2795
  675TMC3    C610040   3.182   0.522  17.642 -0.4903 -0.2824 -0.7139
  675TMC3     C10041   3.179   0.602  17.241 -0.3164  0.0703  0.8660
  675TMC3     O10042   3.237   0.497  17.208  0.1228  0.7736  0.2877
  675TMC3     H10043   3.024   0.432  17.348  0.1034  2.4987 -2.0997
  675TMC3    H110044   3.253   0.770  17.427 -0.3182  1.0706  2.1825
  675TMC3    H210045   3.211   0.475  17.736 -0.2307 -0.6885 -1.0001
  675TMC3    C710046   3.300   0.743  17.675  0.4161 -0.6410 -0.1926
  675TMC3    C810047   3.056   0.332  17.585  0.1984 -0.3534  0.3982
  675TMC3    O110048   3.327   0.846  17.625  0.3142  0.4540  0.2548
  675TMC3    O210049   3.040   0.249  17.498  0.3463 -0.1152  0.2203
  676MPD2     C10050   0.562   3.713  11.113 -0.4835  0.4431 -0.5038
  676MPD2    C110051   0.515   3.680  11.242 -0.2355 -0.3781 -0.2584
  676MPD2    C210052   0.435   3.569  11.261  0.1184  0.4457 -0.0898
  676MPD2    C310053   0.402   3.488  11.153 -0.3164 -0.0409 -0.1225
  676MPD2    C410054   0.432   3.525  11.030 -0.1661  0.2656 -0.0298
  676MPD2    C510055   0.511   3.639  11.009 -0.3743  0.1247  0.4925
  676MPD2     H10056   0.406   3.535  11.360 -2.9723  0.6948 -0.9062
  676MPD2    H110057   0.406   3.472  10.939  0.6412 -2.8000  1.5212
  676MPD2    H210058   0.618   3.804  11.102 -0.4513  0.4956  0.1074
  676MPD2    H310059   0.511   3.675  10.907 -0.8537  0.3136  0.5631
  676MPD2     N10060   0.336   3.360  11.167  0.4943 -0.0722  0.2182
  676MPD2    H510061   0.334   3.301  11.085 -0.2627 -1.1866  1.0468
  676MPD2    N110062   0.549   3.758  11.356 -0.8018  0.1392 -0.4751
  676MPD2    H710063   0.490   3.736  11.436  3.3040 -0.6585  2.3489
  677TMC3    C110064   0.634   3.928  11.499  0.4059  0.2557 -0.6442
  677TMC3    C210065   0.592   3.861  11.611  0.3431  0.0635  0.3033
  677TMC3    C310066   0.594   3.931  11.728 -0.3278 -0.7851 -0.1006
  677TMC3    C410067   0.688   4.052  11.506  0.3767 -0.1925  1.1548
  677TMC3    C510068   0.704   4.098  11.632 -0.0876  0.2692 -0.5835
  677TMC3    C610069   0.659   4.046  11.748 -0.5604 -0.5746  0.5868
  677TMC3     C10070   0.635   3.870  11.365 -0.0319  0.5096  0.3850
  677TMC3     O10071   0.706   3.921  11.279  0.2145  0.5166  0.4504
  677TMC3     H10072   0.550   3.762  11.614 -1.7610  0.9826  1.0894
  677TMC3    H110073   0.710   4.112  11.418 -0.0049 -2.7256 -0.6536
  677TMC3    H210074   0.673   4.095  11.844  1.5961 -0.9496  0.4542
  677TMC3    C710075   0.734   4.240  11.638  0.0965 -0.0115 -0.0524
  677TMC3    C810076   0.581   3.848  11.844 -0.0382  0.5126  0.7297
  677TMC3    O110077   0.637   4.314  11.651  0.3269  0.2156 -0.2140
  677TMC3    O210078   0.485   3.769  11.838  0.0501 -0.1128  0.2254
  678MPD2     C10079   3.343   3.736   1.223  0.1356 -0.2041 -0.4614
  678MPD2    C110080   3.292   3.788   1.109 -0.9211 -0.0681  0.3469
  678MPD2    C210081   3.155   3.775   1.080  0.2809 -0.6035 -0.0353
  678MPD2    C310082   3.071   3.701   1.161  0.0470  0.0129 -0.3206
  678MPD2    C410083   3.129   3.639   1.271 -0.3383 -0.3148  0.2655
  678MPD2    C510084   3.259   3.661   1.306  0.1691 -0.1105  0.1702
  678MPD2     H10085   3.109   3.830   0.999 -1.3108 -1.5399  0.2496
  678MPD2    H110086   3.072   3.588   1.348  0.1162 -0.0747  0.7590
  678MPD2    H210087   3.448   3.740   1.247  0.4334  3.9483 -2.5008
  678MPD2    H310088   3.298   3.620   1.398  1.5952 -1.3409 -0.9796
  678MPD2     N10089   2.936   3.698   1.134 -0.6918  0.0969  0.1874
  678MPD2    H510090   2.892   3.754   1.061  1.4567  1.6059  0.0718
  678MPD2    N110091   3.361   3.859   1.013 -0.2289  0.5642 -0.3010
  678MPD2    H710092   3.312   3.890   0.930 -2.7385 -1.5941  0.3801
  679TMC3    C110093   3.716   3.903   0.738 -0.1521  0.4680 -0.5384
  679TMC3    C210094   3.678   3.896   0.871  0.0583 -0.3618  0.1870
  679TMC3    C310095   3.553   3.941   0.899 -0.8480 -0.3274 -0.1389
  679TMC3    C410096   3.645   3.969   0.641  0.4164 -0.5830  0.0475
  679TMC3    C510097   3.523   4.019   0.678  0.1406  0.3270 -0.8035
  679TMC3    C610098   3.475   4.002   0.807  0.1247 -0.5271  0.0418
  679TMC3     C10099   3.815   3.794   0.688 -0.6009  0.1531 -1.0039
  679TMC3     O10100   3.846   3.810   0.571 -0.1699 -0.7864  0.0602
  679TMC3     H10101   3.746   3.846   0.939  0.7781  1.1726  0.5927
  679TMC3    H110102   3.680   3.969   0.539 -1.8537 -1.2265 -0.7377
  679TMC3    H210103   3.399   4.070   0.843 -0.4722 -0.4061 -1.4678
  679TMC3    C710104   3.462   4.135   0.615  0.4079  0.2895 -0.3954
  679TMC3    C810105   3.498   3.899   1.030 -0.0845  0.2351  0.2898
  679TMC3    O110106   3.357   4.179   0.661  0.4167 -0.0418  0.2668
  679TMC3    O210107   3.578   3.893   1.118  0.6665  0.7509 -0.5404
  680MPD2     C10108   2.466   2.245  13.869 -0.5470 -0.8109 -0.1769
  680MPD2    C110109   2.543   2.208  13.982 -0.5046  0.1849 -0.4666
  680MPD2    C210110   2.589   2.304  14.072  0.3540 -0.3685 -0.3312
  680MPD2    C310111   2.571   2.442  14.042  0.0615 -0.5914 -0.1456
  680MPD2    C410112   2.482   2.470  13.942  0.2880 -0.2551  0.2621
  680MPD2    C510113   2.428   2.375  13.859  0.4041 -0.2288  0.8177
  680MPD2     H10114   2.658   2.270  14.149  1.3134 -0.2072 -1.1061
  680MPD2    H110115   2.455   2.573  13.921  1.3013  0.3346  1.8998
  680MPD2    H210116   2.423   2.167  13.808 -0.1755 -1.3620  0.2718
  680MPD2    H310117   2.347   2.405  13.794  0.7469  1.8051  1.3365
  680MPD2     N10118   2.627   2.548  14.114  0.3385  0.3881  0.5953
  680MPD2    H510119   2.611   2.640  14.075  2.5288  0.8919  0.8843
  680MPD2    N110120   2.576   2.074  14.006  0.4314 -0.6773 -0.7238
  680MPD2    H710121   2.638   2.058  14.085 -1.3551 -1.9454  0.4422
  681TMC3    C110122   2.581   1.844  14.006  0.6309  1.0488  0.2514
  681TMC3    C210123   2.523   1.835  14.133 -0.4791  0.0822  0.5284
  681TMC3    C310124   2.600   1.775  14.228 -0.3072  0.1401 -0.2486
  681TMC3    C410125   2.708   1.802  13.979 -0.3092 -0.4589 -0.0741
  681TMC3    C510126   2.782   1.751  14.081 -0.1108  0.1752  0.5182
  681TMC3    C610127   2.723   1.716  14.198  0.2249 -0.3277  0.6515
  681TMC3     C10128   2.538   1.962  13.942 -0.0347  0.1266 -0.0856
  681TMC3     O10129   2.483   1.945  13.833  0.0502  0.5461 -0.4483
  681TMC3     H10130   2.430   1.877  14.169 -0.4558 -0.0972  0.8003
  681TMC3    H110131   2.751   1.821  13.881  2.0983 -2.6981  0.5653
  681TMC3    H210132   2.769   1.659  14.278 -0.7726 -1.9550  0.0694
  681TMC3    C710133   2.911   1.693  14.057  0.3351 -0.3993  0.3966
  681TMC3    C810134   2.573   1.825  14.361 -0.5324  0.6194  0.2596
  681TMC3    O110135   2.945   1.605  14.132  0.5378 -0.2765 -0.5985
  681TMC3    O210136   2.455   1.841  14.388  0.2060  0.0998 -0.3071
  682MPD2     C10137   4.457   3.627  10.962  0.1556  0.1318 -0.4322
  682MPD2    C110138   4.420   3.498  10.923  0.1363  0.0064  0.0835
  682MPD2    C210139   4.347   3.419  11.013 -0.2860  0.1849  0.5262
  682MPD2    C310140   4.305   3.478  11.129  0.4346  0.1103  0.6992
  682MPD2    C410141   4.333   3.606  11.159  0.3824  0.6496  0.1150
  682MPD2    C510142   4.402   3.683  11.071 -0.7052  0.4057 -0.3966
  682MPD2     H10143   4.344   3.312  10.997 -1.1388  0.0154  1.7989
  682MPD2    H110144   4.283   3.660  11.240 -0.4889  1.6964 -1.1167
  682MPD2    H210145   4.518   3.699  10.908  0.8518 -1.8633 -2.3658
  682MPD2    H310146   4.417   3.789  11.087  0.6049 -0.1151  1.8476
  682MPD2     N10147   4.229   3.406  11.227  0.3771  0.0819 -0.2557
  682MPD2    H510148   4.198   3.462  11.306 -1.5226 -0.6457 -0.4726
  682MPD2    N110149   4.476   3.431  10.806 -0.0149 -0.0155  0.4695
  682MPD2    H710150   4.460   3.331  10.802 -0.7952  0.1653 -0.9358
  683TMC3    C110151   4.190   3.194  11.570  0.0035  0.1375 -0.1414
  683TMC3    C210152   4.165   3.061  11.557  0.6368 -0.2307  0.6116
  683TMC3    C310153   4.126   3.009  11.439  0.1051  0.2864  0.2204
  683TMC3    C410154   4.170   3.278  11.460 -0.3679 -0.4418  0.6011
  683TMC3    C510155   4.126   3.226  11.340  0.3392 -0.3199 -0.3225
  683TMC3    C610156   4.113   3.090  11.328  0.7638 -0.4734  0.5678
  683TMC3     C10157   4.237   3.256  11.689  0.5888 -0.3376  0.8351
  683TMC3     O10158   4.217   3.377  11.701 -0.3923  0.1618  0.1449
  683TMC3     H10159   4.162   2.991  11.641  3.5152  0.9756  1.7222
  683TMC3    H110160   4.186   3.385  11.468  1.2234 -0.5585 -1.0007
  683TMC3    H210161   4.087   3.044  11.233 -0.9198  0.6323  0.4892
  683TMC3    C710162   4.174   3.280  11.212  0.4198 -0.1015  0.5916
  683TMC3    C810163   4.136   2.868  11.419  0.1991  0.5262  0.7235
  683TMC3    O110164   4.171   3.210  11.110 -0.0490  0.2500 -0.1497
  683TMC3    O210165   4.077   2.827  11.323  0.3363 -0.5197 -0.5737
  684MPD2     C10166   3.353   3.187  16.780  0.6259  0.1498 -0.4333
  684MPD2    C110167   3.244   3.210  16.704 -0.1825 -0.3441  0.0010
  684MPD2    C210168   3.176   3.327  16.720  0.4901  0.2695  0.7981
  684MPD2    C310169   3.226   3.438  16.788  0.7252 -0.1614  0.3406
  684MPD2    C410170   3.340   3.415  16.860 -0.0790 -0.6473  0.4436
  684MPD2    C510171   3.398   3.286  16.871  0.2052 -0.1489  0.4045
  684MPD2     H10172   3.085   3.339  16.662  0.6668 -0.2505  0.4155
  684MPD2    H110173   3.402   3.494  16.902  0.6741 -0.9355 -0.1330
  684MPD2    H210174   3.390   3.086  16.792  1.4418  0.1426 -3.1608
  684MPD2    H310175   3.495   3.273  16.919  0.7088 -1.2823 -0.9146
  684MPD2     N10176   3.167   3.567  16.781 -0.6683 -0.0877 -0.1065
  684MPD2    H510177   3.226   3.642  16.818 -1.0019 -1.4757  3.2212
  684MPD2    N110178   3.200   3.114  16.612 -0.0722 -0.4677 -0.0203
  684MPD2    H710179   3.127   3.150  16.551 -0.3322 -0.1895  0.4552
  685TMC3    C110180   3.235   2.947  16.452 -0.4101 -0.2031  0.3690
  685TMC3    C210181   3.116   2.995  16.399  0.5848 -0.6789 -0.3160
  685TMC3    C310182   3.110   2.993  16.261 -0.1211 -0.5668  0.5654
  685TMC3    C410183   3.335   2.887  16.387  0.0656 -0.2837  0.4189
  685TMC3    C510184   3.319   2.876  16.249 -0.5130  0.2917 -0.0783
  685TMC3    C610185   3.205   2.930  16.191  0.5595  0.0555  0.4323
  685TMC3     C10186   3.279   3.008  16.571  0.4294  0.1173  0.1070
  685TMC3     O10187   3.396   2.978  16.602 -0.0288 -0.6629  0.1932
  685TMC3     H10188   3.030   3.035  16.450  0.9702 -0.3695  0.0910
  685TMC3    H110189   3.419   2.838  16.435 -0.8557 -1.9504  0.2998
  685TMC3    H210190   3.200   2.926  16.083  0.7608  0.1855  0.4188
  685TMC3    C710191   3.439   2.885  16.169  0.3970  0.4763  0.4226
  685TMC3    C810192   2.982   3.010  16.200  0.6668 -0.4295 -0.8707
  685TMC3    O110193   3.451   2.833  16.059 -0.3573 -0.0318  0.4857
  685TMC3    O210194   2.965   2.953  16.094 -0.2366 -0.1068  0.4275
  686MPD2     C10195   4.345   3.503  15.813  0.2157  0.0209  0.3071
  686MPD2    C110196   4.383   3.441  15.930  0.3261 -1.0519 -0.7450
  686MPD2    C210197   4.437   3.517  16.031  0.4770 -0.5294 -0.2170
  686MPD2    C310198   4.460   3.650  16.015  0.5377  0.1380 -0.4762
  686MPD2    C410199   4.436   3.709  15.889  0.7357  0.2401 -0.2173
  686MPD2    C510200   4.366   3.633  15.792 -0.0655  1.1482  0.3165
  686MPD2     H10201   4.444   3.480  16.132 -0.8468  0.1819  0.1323
  686MPD2    H110202   4.453   3.813  15.863  0.5569  0.2302 -0.3702
  686MPD2    H210203   4.298   3.446  15.733  0.2687 -0.6929  0.7843
  686MPD2    H310204   4.327   3.672  15.699 -0.7575  0.2375  0.2210
  686MPD2     N10205   4.514   3.723  16.121 -0.1420 -0.7083  0.1311
  686MPD2    H510206   4.492   3.819  16.097  3.2128 -0.1697 -0.9165
  686MPD2    N110207   4.358   3.300  15.951  0.9432 -0.3006 -0.3943
  686MPD2    H710208   4.328   3.247  15.869  1.3033  0.2075 -0.8606
  687TMC3    C110209   4.643   3.568  16.241 -0.5096 -0.2676  0.3669
  687TMC3    C210210   4.727   3.552  16.130  0.2435 -0.2720  0.1058
  687TMC3    C310211   0.095   3.462  16.131  0.1492  0.1432 -0.1034
  687TMC3    C410212   4.659   3.489  16.348  0.3602 -0.0058  0.2936
  687TMC3    C510213   0.021   3.390  16.348  0.0221  0.2960  0.2806
  687TMC3    C610214   0.112   3.382  16.246 -0.1387 -0.3718  0.2819
  687TMC3     C10215   4.558   3.685  16.246 -1.1087  0.1216  0.6497
  687TMC3     O10216   4.557   3.748  16.352  0.6126  0.1899 -0.1367
  687TMC3     H10217   4.728   3.622  16.047  2.9283 -0.6791 -0.2229
  687TMC3    H110218   4.586   3.510  16.426  0.0962  0.3313 -0.0453
  687TMC3    H210219   0.196   3.317  16.264  0.6580  0.3392 -0.8262
  687TMC3    C710220   0.053   3.315  16.469 -0.7826  0.5581  0.0570
  687TMC3    C810221   0.194   3.450  16.028  0.1832  1.2810  0.0586
  687TMC3    O110222   0.174   3.300  16.479  0.0262  0.3452  0.4899
  687TMC3    O210223   0.310   3.417  16.052 -0.5858  0.6367 -0.1039
  688MPD2     C10224   3.563   2.256  17.402  0.0646  0.3801  0.4011
  688MPD2    C110225   3.619   2.146  17.454  0.7130  0.1497  0.3143
  688MPD2    C210226   3.717   2.078  17.387  0.0401 -0.4893  0.3092
  688MPD2    C310227   3.763   2.126  17.265 -0.6519 -0.1885  0.3246
  688MPD2    C410228   3.698   2.234  17.205 -0.2774 -0.2240 -0.1811
  688MPD2    C510229   3.593   2.296  17.274 -0.3854 -0.1634  0.1663
  688MPD2     H10230   3.756   1.989  17.435 -1.3636 -1.4484 -0.3369
  688MPD2    H110231   3.728   2.274  17.109 -0.5153  2.3740  0.8443
  688MPD2    H210232   3.482   2.302  17.458  0.4804  0.6360  0.7907
  688MPD2    H310233   3.541   2.384  17.236 -0.0614  0.8600  2.1003
  688MPD2     N10234   3.874   2.077  17.192 -0.6453 -0.5595 -0.1232
  688MPD2    H510235   3.898   2.118  17.102 -3.4185  0.5068 -0.3755
  688MPD2    N110236   3.585   2.096  17.578  0.7118  0.1775 -0.3794
  688MPD2    H710237   3.621   2.004  17.602 -2.9887 -1.2391 -0.2344
  689TMC3    C110238   3.486   2.096   0.042 -0.2793 -0.0614 -0.4296
  689TMC3    C210239   3.479   2.163   0.162  0.0179  0.3953  0.2855
  689TMC3    C310240   3.448   2.090   0.273 -0.1037 -0.6010  0.0317
  689TMC3    C410241   3.446   1.967   0.027 -0.2207 -0.7045  0.2879
  689TMC3    C510242   3.411   1.898   0.142  0.3014  0.1580 -0.6838
  689TMC3    C610243   3.416   1.957   0.267 -0.4822  0.6907  0.1705
  689TMC3     C10244   3.510   2.172  17.666 -0.3901  1.0409 -0.3856
  689TMC3     O10245   3.492   2.295  17.673  0.0063  0.0671  0.2015
  689TMC3     H10246   3.510   2.267   0.167  0.0750  0.3323  1.2468
  689TMC3    H110247   3.453   1.916  17.675  0.3657  0.8524 -0.4904
  689TMC3    H210248   3.390   1.901   0.355  0.7616  0.0621  0.1332
  689TMC3    C710249   3.375   1.759   0.133  0.4957  0.6146 -0.1260
  689TMC3    C810250   3.433   2.151   0.405  0.5417 -0.0330  0.0202
  689TMC3    O110251   3.349   1.708   0.243  0.6759  0.7370  0.7626
  689TMC3    O210252   3.427   2.074   0.500 -0.4822  0.3988  0.0546
  690MPD2     C10253   1.382   3.748  15.790  0.7411  0.1646  0.5118
  690MPD2    C110254   1.366   3.664  15.680 -0.5725  0.5932  0.1335
  690MPD2    C210255   1.472   3.662  15.588 -0.4668  0.0409  0.0907
  690MPD2    C310256   1.586   3.733  15.604  0.6547 -0.9298 -0.1433
  690MPD2    C410257   1.598   3.819  15.704  0.2366 -0.1698  0.6337
  690MPD2    C510258   1.502   3.823  15.801 -0.6682  0.1797  0.0994
  690MPD2     H10259   1.468   3.592  15.505  2.8774  1.1807 -1.0183
  690MPD2    H110260   1.675   3.894  15.718 -0.3554  0.5749 -0.1304
  690MPD2    H210261   1.302   3.757  15.863 -1.2878  1.3994 -1.8557
  690MPD2    H310262   1.516   3.904  15.871 -2.9413 -0.0442  0.8019
  690MPD2     N10263   1.687   3.714  15.505  0.0453 -0.0926  0.1430
  690MPD2    H510264   1.666   3.665  15.419  1.5021  0.7992 -0.7172
  690MPD2    N110265   1.245   3.598  15.646  0.2068  0.6404  0.4523
  690MPD2    H710266   1.241   3.529  15.572 -0.6238  1.5381 -0.3473
  691TMC3    C110267   1.019   3.536  15.676  0.4502 -0.1520  0.1994
  691TMC3    C210268   0.894   3.573  15.714  0.2134 -0.1319  0.1854
  691TMC3    C310269   0.805   3.471  15.741 -0.4597  0.1057  0.7885
  691TMC3    C410270   1.052   3.404  15.664  0.3275 -0.8434 -0.3827
  691TMC3    C510271   0.960   3.307  15.684 -0.3891 -0.2843  0.0187
  691TMC3    C610272   0.838   3.339  15.734 -0.4883  0.4199  0.5799
  691TMC3     C10273   1.122   3.632  15.708 -0.1530 -0.2177 -0.4065
  691TMC3     O10274   1.090   3.718  15.789  0.0938 -0.1028  0.0077
  691TMC3     H10275   0.868   3.676  15.735  0.6800 -0.2504  1.3865
  691TMC3    H110276   1.151   3.373  15.630  0.3286 -0.2773 -0.8856
  691TMC3    H210277   0.758   3.267  15.750 -1.7537  1.9715  1.2020
  691TMC3    C710278   1.021   3.186  15.748  0.0817 -0.1135 -0.0621
  691TMC3    C810279   0.710   3.496  15.855  1.1019  0.5782 -0.5320
  691TMC3    O110280   1.140   3.168  15.732  0.4596 -0.5919  0.3375
  691TMC3    O210281   0.657   3.402  15.910 -0.3532  0.4086  0.5491
  692TMC3    C110282   2.654   4.145  15.696 -0.0093  0.2332  0.4521
  692TMC3    C210283   2.765   4.213  15.728  0.8249  0.0052 -0.5570
  692TMC3    C310284   2.886   4.148  15.697 -0.5938 -0.1090  0.3099
  692TMC3    C410285   2.654   4.009  15.682 -0.1566  0.6095  0.7357
  692TMC3    C510286   2.768   3.943  15.681 -0.2781 -0.0790 -0.5340
  692TMC3    C610287   2.885   4.014  15.687  0.2985  0.0943 -0.0706
  692TMC3     C10288   2.534   4.219  15.744 -0.2379  0.3775 -0.4991
  692TMC3     O10289   2.547   4.260  15.856 -0.1827  0.2369  0.3019
  692TMC3     H10290   2.758   4.320  15.718  0.8727 -0.1400 -2.0906
  692TMC3    H110291   2.564   3.950  15.693 -1.1345  1.6443 -1.7275
  692TMC3    H210292   2.969   3.954  15.655  0.2158 -1.0114  1.8054
  692TMC3    C710293   2.767   3.813  15.743  0.1347 -0.5322  0.8226
  692TMC3    C810294   2.996   4.179  15.781 -0.1280  0.3380  0.3090
  692TMC3    O110295   2.667   3.743  15.737 -0.3647 -0.4271 -0.0206
  692TMC3    O210296   3.048   4.081  15.830 -0.0783 -0.3207 -0.4852
  693MPD2     C10297   2.357   2.837  10.806  0.1946 -0.3912 -0.3092
  693MPD2    C110298   2.263   2.730  10.827 -0.2748 -0.8846  0.3941
  693MPD2    C210299   2.322   2.603  10.842  0.1880  0.8341  0.0110
  693MPD2    C310300   2.460   2.585  10.831 -0.6383 -0.0123 -0.4684
  693MPD2    C410301   2.541   2.696  10.811 -0.8157  0.1438  0.0013
  693MPD2    C510302   2.492   2.818  10.799  0.1734  1.1112  0.0828
  693MPD2     H10303   2.257   2.520  10.867  2.2696 -0.4568  1.1923
  693MPD2    H110304   2.649   2.690  10.812 -0.8262  0.0324  0.2527
  693MPD2    H210305   2.312   2.932  10.780 -1.2916 -0.7484  0.8739
  693MPD2    H310306   2.564   2.895  10.776  0.2540  0.9269 -0.2885
  693MPD2     N10307   2.533   2.466  10.855 -0.5279 -0.1914  0.1459
  693MPD2    H510308   2.634   2.468  10.859 -0.5980  1.2602  0.9146
  693MPD2    N110309   2.128   2.772  10.847  0.3400  0.4547  1.1196
  693MPD2    H710310   2.117   2.872  10.851  1.1990  0.6951 -2.5693
  694TMC3    C110311   1.893   2.754  10.866  0.7889  0.5160  0.1763
  694TMC3    C210312   1.776   2.712  10.810 -0.2233 -0.2104 -0.1397
  694TMC3    C310313   1.663   2.712  10.889  0.3088  0.5195  0.6307
  694TMC3    C410314   1.893   2.792  10.997  0.0008 -0.3830 -0.8120
  694TMC3    C510315   1.778   2.792  11.072 -0.4334 -0.4232  0.4204
  694TMC3    C610316   1.659   2.750  11.019  0.1179  0.4159 -0.0309
  694TMC3     C10317   2.014   2.689  10.826  0.3330  0.2883  0.0692
  694TMC3     O10318   2.015   2.576  10.781  0.2158 -0.0863  0.0793
  694TMC3     H10319   1.774   2.664  10.713 -2.2308 -0.1418 -0.1444
  694TMC3    H110320   1.983   2.820  11.051  0.1338  0.1201 -1.3007
  694TMC3    H210321   1.566   2.754  11.075 -1.1664  1.9192 -2.2355
  694TMC3    C710322   1.796   2.782  11.220  0.7809 -0.2372 -0.5894
  694TMC3    C810323   1.535   2.674  10.832 -0.2081 -0.0869 -0.5158
  694TMC3    O110324   1.880   2.852  11.269 -0.3267  0.1815  0.3040
  694TMC3    O210325   1.451   2.631  10.911  0.2003 -0.1623 -0.5514
  695MPD2     C10326   4.160   4.337  13.657  0.0464  0.0032  0.2861
  695MPD2    C110327   4.059   4.355  13.751  0.0704 -0.3427 -0.5867
  695MPD2    C210328   3.928   4.372  13.708  0.0606 -0.3928  0.7462
  695MPD2    C310329   3.894   4.380  13.568 -0.4472 -0.3174 -0.2627
  695MPD2    C410330   3.997   4.366  13.482  0.3074  1.0447  0.2645
  695MPD2    C510331   4.125   4.341  13.520 -0.1500 -0.3326 -0.5362
  695MPD2     H10332   3.848   4.371  13.781  0.1129 -0.8534  0.8018
  695MPD2    H110333   3.976   4.389  13.378  0.8774 -0.9086 -0.2925
  695MPD2    H210334   4.262   4.334  13.694  0.5234  0.7501 -0.9722
  695MPD2    H310335   4.200   4.337  13.441 -1.3128 -2.4238 -1.5191
  695MPD2     N10336   3.757   4.400  13.535  0.2770 -0.8152  0.4700
  695MPD2    H510337   3.690   4.395  13.611 -1.0068  1.7203 -0.5071
  695MPD2    N110338   4.063   4.325  13.891 -0.2319 -0.0803 -0.1842
  695MPD2    H710339   3.978   4.325  13.947 -2.1321 -0.7001 -3.0529
  696TMC3    C110340   3.564   4.433  13.403  0.4090 -0.3998 -0.0829
  696TMC3    C210341   3.498   4.361  13.500  0.0326 -0.3320 -0.4351
  696TMC3    C310342   3.387   4.417  13.551  0.2439 -0.8526  0.6785
  696TMC3    C410343   3.513   4.557  13.367  0.4518  0.5320 -0.0161
  696TMC3    C510344   3.408   4.610  13.434  0.0487  0.9749  0.8162
  696TMC3    C610345   3.343   4.544  13.535  0.1499 -0.1549 -0.8260
  696TMC3     C10346   3.712   4.429  13.411 -0.5668 -0.8344  0.0648
  696TMC3     O10347   3.766   4.471  13.312 -0.3724 -0.7573 -0.4212
  696TMC3     H10348   3.538   4.263  13.523  1.1340  0.5814  1.5440
  696TMC3    H110349   3.571   4.634  13.318  0.8452  0.8318  0.9104
  696TMC3    H210350   3.258   4.582  13.589  0.3332 -0.2895 -0.4466
  696TMC3    C710351   3.363   0.007  13.401 -0.1166  0.1056  0.9600
  696TMC3    C810352   3.319   4.352  13.656 -0.1271  0.8431 -0.0695
  696TMC3    O110353   3.420   0.068  13.306 -0.3848 -0.3427  0.4214
  696TMC3    O210354   3.267   4.428  13.738  0.4582  0.7588  0.9234
  697MPD2     C10355   2.030   1.270  15.612 -0.8099  0.2835 -0.3188
  697MPD2    C110356   2.007   1.334  15.492 -0.8667  0.3915 -0.6643
  697MPD2    C210357   2.116   1.382  15.417  0.1612 -0.9856 -0.1918
  697MPD2    C310358   2.239   1.370  15.473  0.0591  0.3121 -0.4360
  697MPD2    C410359   2.263   1.317  15.600 -0.3713  0.7044 -0.1408
  697MPD2    C510360   2.151   1.267  15.667  0.0774  0.4705 -0.0763
  697MPD2     H10361   2.101   1.434  15.323 -0.0604 -2.8147 -1.1627
  697MPD2    H110362   2.355   1.299  15.654 -1.2802  1.4560  1.6642
  697MPD2    H210363   1.951   1.221  15.667 -1.9817  2.0369 -0.4254
  697MPD2    H310364   2.162   1.213  15.761  1.1868  1.6789  0.4996
  697MPD2     N10365   2.343   1.420  15.391 -0.5704  0.9263 -0.1023
  697MPD2    H510366   2.311   1.470  15.309 -1.6729 -1.8690 -1.3652
  697MPD2    N110367   1.875   1.349  15.436 -0.5169  0.0876 -0.5636
  697MPD2    H710368   1.865   1.398  15.348 -1.0522  2.7985  0.9883
  698TMC3    C110369   2.550   1.513  15.339  0.1347  0.5163  0.3989
  698TMC3    C210370   2.641   1.579  15.408  0.2894  0.2019 -0.2352
  698TMC3    C310371   2.726   1.664  15.342  0.1760  0.5706 -0.2293
  698TMC3    C410372   2.530   1.527  15.203  0.4073 -0.1090  0.1320
  698TMC3    C510373   2.617   1.610  15.141 -0.1459  0.0195 -0.9811
  698TMC3    C610374   2.717   1.682  15.205 -0.4571 -0.1256  0.6958
  698TMC3     C10375   2.479   1.426  15.423 -0.2231  0.2737  0.6110
  698TMC3     O10376   2.532   1.389  15.528 -0.1225  0.0103 -0.0645
  698TMC3     H10377   2.646   1.569  15.516 -1.4218 -0.5963 -0.2312
  698TMC3    H110378   2.468   1.463  15.141 -1.0611  2.1066 -0.7156
  698TMC3    H210379   2.773   1.752  15.144  0.8925 -0.5860  1.3944
  698TMC3    C710380   2.602   1.619  14.995  0.2411 -0.4580 -0.4429
  698TMC3    C810381   2.807   1.754  15.433  0.1253 -0.2028  0.4446
  698TMC3    O110382   2.487   1.618  14.951 -0.4807  1.1190 -0.8452
  698TMC3    O210383   2.819   1.709  15.547  0.1901 -0.5124  0.0223
  699TMC3    C110384   2.886   0.157  13.038 -0.2631  0.4278 -0.5903
  699TMC3    C210385   2.932   0.041  13.103  0.2339  0.5799 -0.2891
  699TMC3    C310386   2.845   4.707  13.188 -0.7918  0.0742  0.0268
  699TMC3    C410387   2.765   0.208  13.069  0.0680  0.1132 -0.4443
  699TMC3    C510388   2.685   0.141  13.156 -0.6692  0.0684 -0.6316
  699TMC3    C610389   2.719   0.018  13.215  0.0308 -0.6379 -0.3002
  699TMC3     C10390   2.930   0.196  12.913  0.1844 -0.8694 -0.1695
  699TMC3     O10391   2.837   0.230  12.841 -0.0516  0.2022 -0.1878
  699TMC3     H10392   3.031   4.735  13.085 -0.2443 -1.1397  1.1667
  699TMC3    H110393   2.714   0.290  13.019  2.0386  1.5902 -0.0335
  699TMC3    H210394   2.657   4.703  13.288 -0.3785 -2.8718 -2.2166
  699TMC3    C710395   2.545   0.178  13.149  0.2312 -0.0833  0.0441
  699TMC3    C810396   2.900   4.605  13.276 -0.6580  0.2799  0.0904
  699TMC3    O110397   2.514   0.288  13.110 -0.0842  0.3241 -0.6367
  699TMC3    O210398   3.023   4.603  13.282  0.2437  0.2912  0.1544
  700TMC3    C110399   1.892   2.066  17.314 -0.9151  0.6232  0.4983
  700TMC3    C210400   1.943   1.968  17.236 -0.3071  1.2071 -0.6665
  700TMC3    C310401   2.063   1.911  17.259  0.3674 -0.1617 -0.1381
  700TMC3    C410402   1.967   2.101  17.425  0.7873 -0.0745 -0.0608
  700TMC3    C510403   2.086   2.034  17.454 -0.3111 -0.2010  0.5174
  700TMC3    C610404   2.135   1.938  17.368 -1.2045  0.4899 -0.1655
  700TMC3     C10405   1.812   2.172  17.244 -1.1939 -0.3909 -0.1450
  700TMC3     O10406   1.733   2.130  17.163 -0.3289 -0.0157  0.0791
  700TMC3     H10407   1.895   1.940  17.143 -0.2601 -0.4145 -0.2057
  700TMC3    H110408   1.930   2.185  17.482  0.5440  0.0405 -0.3899
  700TMC3    H210409   2.233   1.894  17.380 -0.5764  1.8335 -0.2839
  700TMC3    C710410   2.164   2.091  17.561  0.3174  0.1332  0.0472
  700TMC3    C810411   2.108   1.809  17.173  0.5380  0.5711  0.2171
  700TMC3    O110412   2.131   2.203  17.593  0.2203  0.1901  0.5699
  700TMC3    O210413   2.227   1.781  17.176 -0.1554 -0.1795  0.1352
  701TMC3    C110414   1.285   1.312  14.777 -0.0513  0.5472  0.1088
  701TMC3    C210415   1.334   1.257  14.655  0.9736  0.4853  0.2857
  701TMC3    C310416   1.435   1.320  14.587  0.0672 -0.2190  0.2120
  701TMC3    C410417   1.317   1.440  14.822 -0.1438 -0.6691  0.4687
  701TMC3    C510418   1.424   1.497  14.750  1.1550 -0.3018  0.2804
  701TMC3    C610419   1.479   1.444  14.641 -0.6297 -0.4007  0.1054
  701TMC3     C10420   1.223   1.240  14.882  0.3021 -0.2262  0.2692
  701TMC3     O10421   1.223   1.293  14.991  0.1961 -0.3648 -0.4769
  701TMC3     H10422   1.286   1.172  14.607 -1.9775  1.0243  2.2728
  701TMC3    H110423   1.271   1.488  14.907  0.8833  0.0496  0.6176
  701TMC3    H210424   1.572   1.485  14.604  0.4045 -3.5535 -0.7578
  701TMC3    C710425   1.511   1.574  14.836  0.0730 -0.0212  0.1596
  701TMC3    C810426   1.482   1.276  14.453 -0.2812 -0.4068  1.0363
  701TMC3    O110427   1.596   1.655  14.787 -0.0100  0.1414 -0.1267
  701TMC3    O210428   1.540   1.351  14.375  0.9539  0.6543  0.0987
  702MPD2     C10429   0.437   2.829  10.860 -0.2683 -0.8278  0.5845
  702MPD2    C110430   0.524   2.905  10.942 -0.4823 -0.7946 -0.5779
  702MPD2    C210431   0.626   2.976  10.881 -0.5751  0.0249 -0.1645
  702MPD2    C310432   0.644   2.967  10.741 -0.1980  0.6685 -0.3666
  702MPD2    C410433   0.568   2.882  10.666 -0.4736  0.7170  0.2104
  702MPD2    C510434   0.463   2.816  10.722 -0.2020 -0.4478 -0.1501
  702MPD2     H10435   0.693   3.040  10.938  2.3741 -2.5477 -0.7035
  702MPD2    H110436   0.573   2.887  10.557 -0.0402 -0.9666  0.1515
  702MPD2    H210437   0.349   2.785  10.905  0.1063 -0.3092  1.8384
  702MPD2    H310438   0.380   2.781  10.662 -2.2478  1.7438  1.4033
  702MPD2     N10439   0.735   3.055  10.676  0.3190 -0.3374 -0.3905
  702MPD2    H510440   0.739   3.054  10.574 -0.4871  1.0281 -0.4373
  702MPD2    N110441   0.498   2.943  11.073 -0.0154  0.2963 -0.6395
  702MPD2    H710442   0.559   3.009  11.119 -1.9489  1.1218  0.7340
  703TMC3    C110443   0.880   3.234  10.662  0.2184  0.2271 -0.2266
  703TMC3    C210444   0.793   3.307  10.589  0.0255  0.3719  0.5969
  703TMC3    C310445   0.833   3.430  10.546 -0.5307 -0.8091  0.0755
  703TMC3    C410446   1.005   3.274  10.694  0.2920 -0.4771  0.6204
  703TMC3    C510447   1.046   3.393  10.637 -0.3993 -0.1117  0.7144
  703TMC3    C610448   0.963   3.472  10.557  0.0717  0.9152 -0.6038
  703TMC3     C10449   0.823   3.132  10.745  1.4625 -0.4967 -0.1540
  703TMC3     O10450   0.884   3.103  10.849  0.0786  0.5265 -0.3285
  703TMC3     H10451   0.694   3.268  10.569  0.4157 -0.2911 -0.0578
  703TMC3    H110452   1.067   3.204  10.749 -2.9619 -1.4397  3.0358
  703TMC3    H210453   1.006   3.565  10.522  0.6077  1.2187  0.8571
  703TMC3    C710454   1.182   3.443  10.652  0.6607  0.8534  0.5010
  703TMC3    C810455   0.730   3.506  10.469  0.7056  0.7755 -0.3129
  703TMC3    O110456   1.238   3.505  10.565 -0.0984  0.4174 -1.2692
  703TMC3    O210457   0.773   3.588  10.386  0.1851  0.7131  0.5247
  704TMC3    C110458   4.164   1.555  12.408 -0.2884 -0.2677  0.1051
  704TMC3    C210459   4.246   1.536  12.300  0.1144  0.7121  0.1151
  704TMC3    C310460   4.383   1.564  12.315 -0.0715  0.3583 -0.1830
  704TMC3    C410461   4.213   1.623  12.512  0.4694 -0.7605  1.1783
  704TMC3    C510462   4.344   1.656  12.527  0.0616  0.9242 -0.1129
  704TMC3    C610463   4.431   1.628  12.427 -0.0482  0.4844 -0.6684
  704TMC3     C10464   4.077   1.444  12.440  0.0923 -0.6888  0.3460
  704TMC3     O10465   4.069   1.427  12.565  0.2302 -0.1012 -0.2600
  704TMC3     H10466   4.216   1.489  12.207  2.1467 -0.0364 -0.1484
  704TMC3    H110467   4.135   1.667  12.574 -0.6611 -1.1168  0.0253
  704TMC3    H210468   4.537   1.624  12.446 -0.5168 -1.7720  1.5232
  704TMC3    C710469   4.401   1.614  12.658  0.2462  0.0675  0.1746
  704TMC3    C810470   4.467   1.466  12.244 -0.7700 -0.1923  0.5671
  704TMC3    O110471   4.514   1.648  12.682  0.9120 -0.0955 -0.3503
  704TMC3    O210472   4.411   1.376  12.185 -0.1230  0.6199  0.5041
  705MPD2     C10473   3.133   4.189  16.497  0.5141  0.0082  0.2125
  705MPD2    C110474   3.150   4.321  16.523 -0.1452  0.0351  0.1921
  705MPD2    C210475   3.057   4.396  16.587 -0.2925  1.0930  0.0502
  705MPD2    C310476   2.934   4.337  16.616  0.0196  0.4952  0.2620
  705MPD2    C410477   2.915   4.202  16.586  0.2059  0.6752 -0.0296
  705MPD2    C510478   3.014   4.131  16.528  0.7473  0.2903  0.0669
  705MPD2     H10479   3.083   4.499  16.609 -1.5762  1.9283 -2.3199
  705MPD2    H110480   2.827   4.150  16.621  0.7655 -1.3809 -1.6399
  705MPD2    H210481   3.215   4.135  16.451  0.0658  0.9400 -1.6814
  705MPD2    H310482   3.003   4.027  16.501 -1.2091  0.7623 -0.9791
  705MPD2     N10483   2.831   4.403  16.675  0.7879 -0.3234 -0.2684
  705MPD2    H510484   2.749   4.345  16.689  0.5706  0.1892  0.5993
  705MPD2    N110485   3.268   4.383  16.482 -0.0827  0.2389 -0.2559
  705MPD2    H710486   3.273   4.482  16.504 -1.5463  0.4258 -0.7875
  706TMC3    C110487   3.681   4.496  16.291 -0.4828  0.0945 -0.5454
  706TMC3    C210488   3.633   4.624  16.261 -0.5337  0.7517  0.1977
  706TMC3    C310489   3.502   4.650  16.297  0.1665  0.5671 -0.5831
  706TMC3    C410490   3.604   4.399  16.339  0.3340 -0.3033 -0.7005
  706TMC3    C510491   3.476   4.432  16.372  0.6299 -0.4783 -0.0443
  706TMC3    C610492   3.424   4.557  16.350 -0.2520 -0.3788  0.3553
  706TMC3     C10493   3.808   4.452  16.245 -0.4409  0.4013  0.3585
  706TMC3     O10494   3.886   4.413  16.334  0.2575 -0.1529  0.0460
  706TMC3     H10495   3.695   4.697  16.211  1.0337 -0.2294  0.7114
  706TMC3    H110496   3.645   4.302  16.367 -1.5085 -1.2608 -1.2795
  706TMC3    H210497   3.321   4.589  16.357  0.1927  0.9325  0.8416
  706TMC3    C710498   3.376   4.335  16.411  0.0234 -0.1204  0.2036
  706TMC3    C810499   3.447   0.045  16.256 -0.2906 -0.0614 -0.4631
  706TMC3    O110500   3.397   4.217  16.377  0.8111 -0.3327 -0.4901
  706TMC3    O210501   3.334   0.048  16.209 -0.3969  0.6217 -0.1614
  707TMC3    C110502   0.353   3.661   1.878  0.0743  0.2158  0.4260
  707TMC3    C210503   0.439   3.603   1.968  0.2918  0.4030 -0.2781
  707TMC3    C310504   0.384   3.573   2.090  0.9982  0.3879  0.9196
  707TMC3    C410505   0.219   3.676   1.903 -0.2409  1.0917 -0.3853
  707TMC3    C510506   0.173   3.634   2.033  0.2766 -0.5158 -0.0276
  707TMC3    C610507   0.258   3.584   2.127 -0.5508  0.3677  0.2678
  707TMC3     C10508   0.411   3.685   1.749  1.0119  0.3476 -0.6760
  707TMC3     O10509   0.530   3.678   1.733 -0.0231 -0.4273 -0.1935
  707TMC3     H10510   0.545   3.593   1.950  0.2284 -2.3281  0.9312
  707TMC3    H110511   0.150   3.707   1.825 -1.7766 -0.6629  0.2767
  707TMC3    H210512   0.228   3.550   2.226  2.1036  0.0544  0.9642
  707TMC3    C710513   0.031   3.638   2.072  0.3227  0.2566  0.0998
  707TMC3    C810514   0.466   3.481   2.168 -0.5276  0.5615  0.4891
  707TMC3    O110515   4.726   3.548   2.141 -0.0762 -0.1198 -0.1028
  707TMC3    O210516   0.476   3.491   2.288 -0.1124  0.2111  0.0861
  708MPD2     C10517   1.710   2.833  14.023  0.8603 -0.2216 -0.2032
  708MPD2    C110518   1.595   2.758  14.026 -0.0945  0.0710 -0.2658
  708MPD2    C210519   1.595   2.645  14.110  0.2605 -0.6704  0.6197
  708MPD2    C310520   1.706   2.609  14.178 -0.4630  0.4803 -0.9252
  708MPD2    C410521   1.823   2.681  14.164 -0.4322  0.2227  0.2734
  708MPD2    C510522   1.825   2.789  14.076 -0.8862 -0.7255 -0.2082
  708MPD2     H10523   1.513   2.574  14.113  2.5288 -3.2824 -0.3355
  708MPD2    H110524   1.903   2.663  14.234 -0.4750 -1.5619 -0.1420
  708MPD2    H210525   1.715   2.898  13.935 -2.1423  0.7216  0.3061
  708MPD2    H310526   1.919   2.837  14.052 -0.1236 -1.2669  1.7144
  708MPD2     N10527   1.703   2.508  14.284  0.1306  0.0074 -0.5271
  708MPD2    H510528   1.789   2.502  14.338  1.0459  3.7101 -1.5911
  708MPD2    N110529   1.472   2.792  13.947 -0.0873  0.5524  0.0321
  708MPD2    H710530   1.395   2.728  13.965 -1.7608  2.4563 -0.4268
  709TMC3    C110531   1.292   2.927  13.903  0.6270 -0.4399  0.0650
  709TMC3    C210532   1.242   2.860  13.797 -0.0132 -0.4795 -0.1548
  709TMC3    C310533   1.113   2.826  13.804 -0.5120  1.1210 -0.1814
  709TMC3    C410534   1.220   2.930  14.022 -0.3149 -0.0045 -0.3926
  709TMC3    C510535   1.090   2.880  14.031 -0.0200 -0.1161 -0.4427
  709TMC3    C610536   1.036   2.829  13.913 -0.2047  0.4513 -0.6347
  709TMC3     C10537   1.434   2.918  13.915 -0.0220  0.5333  0.6117
  709TMC3     O10538   1.493   3.024  13.919  0.0251 -0.0522  0.4784
  709TMC3     H10539   1.309   2.838  13.714 -0.3621 -2.4239  0.0847
  709TMC3    H110540   1.273   2.983  14.100  1.1842 -0.3241 -1.1915
  709TMC3    H210541   0.931   2.804  13.906 -0.8168  2.2119  2.2006
  709TMC3    C710542   1.074   2.801  14.152 -0.4248 -0.2257 -0.3301
  709TMC3    C810543   1.052   2.757  13.685  0.4261 -0.6132 -0.3645
  709TMC3    O110544   1.166   2.803  14.229  0.3042  0.1460 -0.2244
  709TMC3    O210545   0.932   2.722  13.694  0.2739 -0.0320 -0.0040
  710TMC3    C110546   2.721   4.209   0.216  0.1366 -0.0293 -0.1110
  710TMC3    C210547   2.721   4.189   0.084 -0.6094  0.0635 -0.0312
  710TMC3    C310548   2.832   4.230   0.012 -0.1662 -0.6924 -0.0185
  710TMC3    C410549   2.824   4.266   0.285 -0.1179  0.2379  0.1926
  710TMC3    C510550   2.939   4.292   0.213  0.0913  0.5655  0.7532
  710TMC3    C610551   2.938   4.287   0.074 -0.4510 -0.1806  0.7244
  710TMC3     C10552   2.600   4.168   0.283 -0.5200  0.1417 -0.2537
  710TMC3     O10553   2.533   4.081   0.234  0.4825 -0.1008 -0.1062
  710TMC3     H10554   2.635   4.141   0.040 -0.4224  2.5379 -3.0956
  710TMC3    H110555   2.827   4.268   0.393  0.1870 -0.9854  0.2088
  710TMC3    H210556   3.034   4.291   0.023 -1.0080 -1.4691 -0.4072
  710TMC3    C710557   3.057   4.325   0.291  0.0638 -0.9339 -0.2282
  710TMC3    C810558   2.835   4.242  17.610 -0.2627  0.3959 -0.6265
  710TMC3    O110559   3.046   4.296   0.406  0.0518  0.4214  0.2653
  710TMC3    O210560   2.932   4.305  17.572 -0.3013 -0.5797  0.0332
  711TMC3    C110561   2.630   4.726  14.931 -0.6153  0.4972 -0.2769
  711TMC3    C210562   2.631   0.121  14.965  0.8088 -0.5160  0.0462
  711TMC3    C310563   2.684   0.147  15.090 -0.3617 -0.6249 -0.2951
  711TMC3    C410564   2.661   4.623  15.012  0.0788 -0.3804 -0.6045
  711TMC3    C510565   2.702   4.656  15.133  0.5159  0.3458 -0.2902
  711TMC3    C610566   2.715   0.048  15.177 -0.0486  0.4531  0.1999
  711TMC3     C10567   2.577   4.685  14.804 -0.1580  1.1465  0.1130
  711TMC3     O10568   2.553   4.567  14.785 -0.0401 -0.1591 -0.2623
  711TMC3     H10569   2.600   0.207  14.906 -1.2230 -1.1577  0.1660
  711TMC3    H110570   2.666   4.523  14.971 -1.2293 -0.7522  0.1464
  711TMC3    H210571   2.762   0.070  15.272 -0.7535  3.8472 -0.2299
  711TMC3    C710572   2.802   4.567  15.203  0.2171  0.8411 -0.3073
  711TMC3    C810573   2.678   0.286  15.134  0.1386  0.2455 -0.0465
  711TMC3    O110574   2.891   4.618  15.267  0.8265 -0.1935  0.5659
  711TMC3    O210575   2.616   0.358  15.055 -0.6119  0.3059  0.0706
  712MPD2     C10576   4.035   1.072  13.433  0.5139  0.3619 -0.2484
  712MPD2    C110577   3.967   1.030  13.548 -0.0969  0.1324 -0.0201
  712MPD2    C210578   3.933   1.117  13.651 -0.4612  0.1748  0.6329
  712MPD2    C310579   3.964   1.253  13.641 -0.6069  0.6009 -0.1317
  712MPD2    C410580   4.022   1.299  13.527 -0.2749 -0.0816 -0.2205
  712MPD2    C510581   4.072   1.207  13.436 -0.0257 -0.3859 -0.6260
  712MPD2     H10582   3.886   1.089  13.744  0.6132 -1.7283  0.6012
  712MPD2    H110583   4.042   1.404  13.508  1.5574 -0.0928  1.5027
  712MPD2    H210584   4.076   1.015  13.350  0.3507 -1.1512  0.7290
  712MPD2    H310585   4.132   1.241  13.351  0.2485  1.2222  0.2017
  712MPD2     N10586   3.915   1.342  13.739  0.5139 -0.1546 -0.1890
  712MPD2    H510587   3.874   1.297  13.820 -0.0712 -0.3066 -0.5731
  712MPD2    N110588   3.932   0.893  13.555 -0.5000 -0.9621 -0.0541
  712MPD2    H710589   3.973   0.829  13.487  1.7169  0.2561  0.1463
  713TMC3    C110590   3.923   1.524  13.872  0.8719  0.1535  0.0887
  713TMC3    C210591   4.048   1.505  13.923 -0.1640  0.2832  0.6443
  713TMC3    C310592   4.105   1.611  13.995 -0.0824  0.8678  0.5268
  713TMC3    C410593   3.847   1.627  13.903  0.0970  0.7474  0.2938
  713TMC3    C510594   3.900   1.730  13.976 -0.5837  0.2899 -0.0791
  713TMC3    C610595   4.032   1.721  14.023 -0.3720  0.3118  0.1175
  713TMC3     C10596   3.928   1.479  13.734  0.2543  0.5556  0.3972
  713TMC3     O10597   3.936   1.554  13.640 -0.0523  0.1342 -0.3230
  713TMC3     H10598   4.103   1.431  13.867 -1.1085 -0.8174  1.1812
  713TMC3    H110599   3.751   1.638  13.853 -0.0437  0.1224  0.4329
  713TMC3    H210600   4.077   1.797  14.085 -1.4739  0.7971  0.3222
  713TMC3    C710601   3.856   1.862  13.943  0.3301  0.4360 -0.1812
  713TMC3    C810602   4.247   1.636  13.992 -0.1017  0.1858  0.1044
  713TMC3    O110603   3.945   1.940  13.922  0.2435  0.3969 -0.0392
  713TMC3    O210604   4.280   1.752  13.971  0.1388 -0.0336  0.0430
  714MPD2     C10605   1.066   0.677   1.095 -0.4165 -0.5189 -0.5129
  714MPD2    C110606   1.057   0.554   1.155  0.2755 -0.0906  0.7200
  714MPD2    C210607   0.934   0.494   1.164 -0.4472  0.2396  0.1425
  714MPD2    C310608   0.817   0.548   1.106  0.0376  0.0232 -0.2556
  714MPD2    C410609   0.835   0.660   1.031 -0.0130 -0.2067  0.1228
  714MPD2    C510610   0.950   0.736   1.042  0.1322  0.5101 -0.8388
  714MPD2     H10611   0.916   0.410   1.230 -1.0694  0.5364  0.3483
  714MPD2    H110612   0.753   0.702   0.974 -1.5859 -0.4622  2.1948
  714MPD2    H210613   1.158   0.734   1.090 -0.3506 -0.5073  0.8545
  714MPD2    H310614   0.950   0.832   0.991 -3.2175  1.1760  0.4598
  714MPD2     N10615   0.684   0.499   1.140 -0.3217  0.3472  0.0587
  714MPD2    H510616   0.673   0.413   1.193 -0.4795  0.1881 -0.2353
  714MPD2    N110617   1.178   0.513   1.217 -0.5321 -0.0099  0.1631
  714MPD2    H710618   1.264   0.567   1.217 -0.7485  0.3426 -0.2389
  715TMC3    C110619   1.317   0.355   1.336 -0.3678 -0.0920 -0.1204
  715TMC3    C210620   1.330   0.224   1.372  0.2904  0.0463  0.1029
  715TMC3    C310621   1.457   0.185   1.413 -0.4077  0.3854 -0.1147
  715TMC3    C410622   1.413   0.447   1.362 -0.0139  0.7462 -0.1985
  715TMC3    C510623   1.538   0.404   1.414 -0.0757 -0.0137  0.1671
  715TMC3    C610624   1.562   0.269   1.449 -0.0281 -0.4478  0.1546
  715TMC3     C10625   1.182   0.395   1.291  0.1866  0.3368  0.2632
  715TMC3     O10626   1.097   0.313   1.312  0.6795  0.3340  0.0958
  715TMC3     H10627   1.263   0.145   1.343 -0.2660  0.3976  0.4335
  715TMC3    H110628   1.395   0.554   1.360 -5.5938 -0.2190 -0.0559
  715TMC3    H210629   1.661   0.239   1.482 -0.2143 -0.3721  0.7731
  715TMC3    C710630   1.639   0.493   1.465  0.3487 -0.5988  0.0806
  715TMC3    C810631   1.476   0.041   1.428  0.2419  0.2913  0.2624
  715TMC3    O110632   1.738   0.444   1.521 -0.1431  0.0744  0.0862
  715TMC3    O210633   1.411   4.708   1.351  0.3455 -0.3014 -0.3736
  716MPD2     C10634   1.122   3.120   9.980  0.2091  0.2816 -0.0474
  716MPD2    C110635   1.097   3.082   9.847 -0.2373 -0.4048 -0.0317
  716MPD2    C210636   1.084   2.949   9.817 -0.5229 -0.3421 -0.2667
  716MPD2    C310637   1.114   2.856   9.924 -0.3017 -0.3892  0.7277
  716MPD2    C410638   1.170   2.897  10.049 -0.0209 -0.4624 -0.0759
  716MPD2    C510639   1.173   3.031  10.079  0.6169  0.8802 -0.6299
  716MPD2     H10640   1.054   2.909   9.721 -0.0277 -1.1809 -0.0734
  716MPD2    H110641   1.205   2.831  10.128 -1.0260 -0.8063  0.0772
  716MPD2    H210642   1.133   3.224  10.010 -2.6604  0.3283  0.7944
  716MPD2    H310643   1.220   3.068  10.169 -1.5433  2.7610 -0.2504
  716MPD2     N10644   1.091   2.724   9.886  0.2138 -0.1959  0.0270
  716MPD2    H510645   1.059   2.710   9.791 -0.3134 -0.9100  0.3134
  716MPD2    N110646   1.059   3.187   9.762  0.2829 -1.0332  0.3888
  716MPD2    H710647   1.051   3.282   9.797 -0.1718 -0.0799 -2.3138
  717TMC3    C110648   1.050   2.491   9.922  0.1331  0.2891  0.0352
  717TMC3    C210649   0.938   2.500   9.846  0.5608  0.2055  0.0120
  717TMC3    C310650   0.907   2.385   9.779 -0.0375  0.0249  0.3864
  717TMC3    C410651   1.126   2.379   9.943 -0.3472 -0.3139 -0.2496
  717TMC3    C510652   1.079   2.270   9.885 -0.4212 -0.7708  0.0668
  717TMC3    C610653   0.986   2.271   9.786  0.4307  0.5929 -0.5230
  717TMC3     C10654   1.104   2.613   9.976 -0.1178 -0.4205 -0.1132
  717TMC3     O10655   1.168   2.611  10.085  0.4162 -0.5809  0.0901
  717TMC3     H10656   0.864   2.578   9.857  0.1895 -0.0251 -0.7779
  717TMC3    H110657   1.203   2.376  10.020 -0.0124  2.7306 -0.4534
  717TMC3    H210658   0.966   2.176   9.737  3.8259  0.3762 -1.5026
  717TMC3    C710659   1.150   2.146   9.915 -0.2693  0.8059  0.0341
  717TMC3    C810660   0.814   2.403   9.671 -0.1770  0.3392  0.6428
  717TMC3    O110661   1.258   2.164   9.964  0.1418  0.7715 -0.6894
  717TMC3    O210662   0.761   2.516   9.653 -0.4242 -0.0925 -0.6479
  718MPD2     C10663   0.488   1.721  12.542 -0.4369 -0.0249  0.2780
  718MPD2    C110664   0.610   1.690  12.593  0.2622  0.3782 -0.5311
  718MPD2    C210665   0.622   1.683  12.737 -0.6024 -0.4727  0.3043
  718MPD2    C310666   0.510   1.711  12.818 -0.2696 -0.4029  0.2649
  718MPD2    C410667   0.389   1.741  12.763  0.3222  0.4224  0.8008
  718MPD2    C510668   0.380   1.746  12.626  0.0929  0.2013  0.1030
  718MPD2     H10669   0.721   1.657  12.772  0.2463  0.9979 -0.9824
  718MPD2    H110670   0.311   1.762  12.835 -0.1377 -0.6508  0.6039
  718MPD2    H210671   0.474   1.717  12.434  0.7637  1.1752  0.0699
  718MPD2    H310672   0.288   1.771  12.574 -0.3002  1.0746  1.2310
  718MPD2     N10673   0.525   1.692  12.963  0.5716 -0.4901 -0.0949
  718MPD2    H510674   0.448   1.715  13.025  1.2209  2.7087 -0.4435
  718MPD2    N110675   0.707   1.667  12.495 -0.1803 -0.4339 -0.4231
  718MPD2    H710676   0.680   1.667  12.397 -0.7920  0.5851 -0.2480
  719TMC3    C110677   0.921   1.597  12.415 -0.5434 -0.6881 -0.0023
  719TMC3    C210678   0.974   1.478  12.446 -0.4553 -0.0946  0.2615
  719TMC3    C310679   1.105   1.460  12.447 -0.3610 -0.0524 -0.4963
  719TMC3    C410680   1.006   1.703  12.402 -0.0977  0.1929  0.4959
  719TMC3    C510681   1.138   1.684  12.421  0.9861  0.3564  0.0502
  719TMC3    C610682   1.191   1.562  12.431  0.3246  0.6994  0.3191
  719TMC3     C10683   0.836   1.631  12.526 -0.2088 -0.3318  0.3970
  719TMC3     O10684   0.895   1.627  12.630 -0.1649 -0.1696 -0.0361
  719TMC3     H10685   0.905   1.396  12.463  0.0787 -0.2581  1.6465
  719TMC3    H110686   0.966   1.802  12.386 -1.0730 -0.6602 -2.4874
  719TMC3    H210687   1.298   1.550  12.427  0.2391 -0.5454  1.6325
  719TMC3    C710688   1.231   1.798  12.407  1.0476  0.3313  0.0846
  719TMC3    C810689   1.141   1.372  12.561  0.6150 -0.3072  0.1070
  719TMC3    O110690   1.177   1.907  12.375  0.7511 -0.2907  0.0390
  719TMC3    O210691   1.235   1.296  12.557  0.2300  0.5144 -0.4950
  720MPD2     C10692   3.921   3.638  14.130  0.6620  0.5921 -1.0618
  720MPD2    C110693   3.982   3.548  14.042  1.0806  0.0011  0.1877
  720MPD2    C210694   4.036   3.427  14.086 -0.1421 -0.1433 -0.1438
  720MPD2    C310695   4.049   3.410  14.226  0.3854  0.1522 -0.3337
  720MPD2    C410696   3.997   3.505  14.310 -0.3436  0.7186  0.1522
  720MPD2    C510697   3.926   3.609  14.262  0.6018  0.4315  0.1699
  720MPD2     H10698   4.083   3.360  14.015  2.0282 -2.0712  3.1206
  720MPD2    H110699   4.001   3.500  14.418 -2.2779  0.3909  0.2209
  720MPD2    H210700   3.877   3.732  14.099  2.7880  1.6321 -0.9054
  720MPD2    H310701   3.894   3.687  14.332  0.9181 -0.1645  0.9810
  720MPD2     N10702   4.128   3.298  14.271 -0.0368  0.0570 -0.0078
  720MPD2    H510703   4.161   3.236  14.198  0.9966 -0.4731  0.9079
  720MPD2    N110704   3.982   3.563  13.896  0.1403  0.5151 -1.0472
  720MPD2    H710705   4.008   3.477  13.850 -2.2531 -0.8527  0.1645
  721TMC3    C110706   4.255   3.155  14.424  0.2400 -0.7920  0.4049
  721TMC3    C210707   4.283   3.105  14.545 -0.5942  0.5394 -0.5807
  721TMC3    C310708   4.365   2.995  14.557 -0.3967 -0.4607 -0.8917
  721TMC3    C410709   4.298   3.095  14.305  0.3808  0.5158  0.1730
  721TMC3    C510710   4.378   2.979  14.318  0.3152  0.2152  0.0944
  721TMC3    C610711   4.406   2.925  14.445 -0.5766 -0.4775  0.0686
  721TMC3     C10712   4.164   3.271  14.406  0.1559 -0.2787 -0.2252
  721TMC3     O10713   4.116   3.318  14.508 -0.2676 -0.1143 -0.1823
  721TMC3     H10714   4.243   3.155  14.632  1.0928 -0.0017  0.5161
  721TMC3    H110715   4.291   3.137  14.205 -1.7845 -0.6078 -0.1437
  721TMC3    H210716   4.474   2.841  14.455  0.8904  0.8751  1.2661
  721TMC3    C710717   4.494   3.001  14.230  0.5923  0.0011 -0.1137
  721TMC3    C810718   4.477   3.007  14.644  0.4792  0.3955 -0.3523
  721TMC3    O110719   4.512   3.109  14.178  0.2090 -0.0460  0.7992
  721TMC3    O210720   4.581   2.959  14.597  0.1315 -0.0982  0.1705
  722MPD2     C10721   2.773   1.961  13.564 -0.1596 -0.3238  0.3415
  722MPD2    C110722   2.708   2.074  13.608 -0.3039  0.3549 -0.3583
  722MPD2    C210723   2.588   2.115  13.558 -0.1504 -0.7364 -0.2742
  722MPD2    C310724   2.527   2.043  13.458  0.2668  0.0798  0.4267
  722MPD2    C410725   2.590   1.925  13.419  0.3082  0.3695  0.6537
  722MPD2    C510726   2.714   1.886  13.468  0.0605 -0.0107 -0.3209
  722MPD2     H10727   2.528   2.196  13.600 -2.1300 -1.0517 -2.4711
  722MPD2    H110728   2.547   1.859  13.345  0.6424 -0.7426  1.4662
  722MPD2    H210729   2.874   1.941  13.597 -0.5886 -0.8659  1.3420
  722MPD2    H310730   2.773   1.803  13.430 -0.6636 -0.1533 -1.1521
  722MPD2     N10731   2.391   2.066  13.426 -0.2478  0.1242  0.0710
  722MPD2    H510732   2.348   2.141  13.481  0.8107  0.1131  0.9170
  722MPD2    N110733   2.770   2.158  13.704 -0.1606 -0.9074 -0.3549
  722MPD2    H710734   2.729   2.250  13.712  0.7270 -0.2623 -3.2557
  723TMC3    C110735   2.172   1.995  13.355 -0.3964  0.5310  0.3148
  723TMC3    C210736   2.095   1.888  13.334  0.2769 -0.6133  0.4716
  723TMC3    C310737   1.957   1.891  13.358 -0.3133  0.9173  0.4756
  723TMC3    C410738   2.112   2.117  13.379  0.0210  0.3049 -0.1145
  723TMC3    C510739   1.975   2.113  13.406  0.4667  0.1856 -0.8945
  723TMC3    C610740   1.895   2.006  13.395 -0.3519  0.1842 -0.2227
  723TMC3     C10741   2.315   1.981  13.343  0.2321 -0.4623  0.5695
  723TMC3     O10742   2.349   1.893  13.265 -0.0932  0.2765 -0.3154
  723TMC3     H10743   2.150   1.795  13.323  1.0875 -0.0048 -0.6122
  723TMC3    H110744   2.174   2.205  13.373  1.9677 -1.0613 -0.1472
  723TMC3    H210745   1.788   2.006  13.412 -0.3860 -3.0536 -0.5919
  723TMC3    C710746   1.908   2.246  13.407  0.3285 -0.6520  0.2638
  723TMC3    C810747   1.866   1.782  13.325 -0.1021 -0.0237  0.4556
  723TMC3    O110748   1.961   2.344  13.357  0.0522 -0.0427  0.0412
  723TMC3    O210749   1.757   1.778  13.378  0.0961  0.2725  0.1601
  724TMC3    C110750   1.181   1.083  10.182 -0.5273  0.3040  0.4455
  724TMC3    C210751   1.159   1.144  10.064 -0.1283 -0.6287  0.2343
  724TMC3    C310752   1.269   1.193  10.010  0.4841  0.0712  0.0302
  724TMC3    C410753   1.289   1.092  10.262  0.2108  0.1258  0.5445
  724TMC3    C510754   1.397   1.150  10.203  0.3298 -0.3323  0.8990
  724TMC3    C610755   1.386   1.203  10.083  0.3074  0.2178  0.8416
  724TMC3     C10756   1.079   0.998  10.245 -0.5612  0.5390 -0.2470
  724TMC3     O10757   1.088   0.963  10.362 -0.3329  0.0582  0.3455
  724TMC3     H10758   1.079   1.120   9.994  1.1757  0.8625 -1.7828
  724TMC3    H110759   1.296   1.041  10.357 -0.7253 -1.1251 -0.0584
  724TMC3    H210760   1.473   1.259  10.051 -1.2174  2.2722  0.2623
  724TMC3    C710761   1.530   1.091  10.226  0.0060 -0.5052 -0.4966
  724TMC3    C810762   1.253   1.292   9.902 -0.4188  0.5965  0.2840
  724TMC3    O110763   1.620   1.138  10.158 -0.0372  0.1501  0.2842
  724TMC3    O210764   1.139   1.332   9.880 -0.8267  0.0053  0.2134
  725TMC3    C110765   4.475   3.991  12.992 -1.0705 -0.2948  0.0362
  725TMC3    C210766   4.357   3.984  12.932 -0.6515  0.1766  0.5757
  725TMC3    C310767   4.339   3.873  12.849  1.2217  0.8165  0.1757
  725TMC3    C410768   4.574   3.900  12.978  0.5017  0.2734 -0.7679
  725TMC3    C510769   4.543   3.781  12.917 -0.4020  0.0315  0.7781
  725TMC3    C610770   4.426   3.766  12.847 -0.0717  0.4722 -0.7842
  725TMC3     C10771   4.513   4.101  13.062 -0.2781  0.2723  0.2300
  725TMC3     O10772   4.621   4.152  13.028  0.1790  0.3637 -0.1631
  725TMC3     H10773   4.289   4.069  12.933  0.2977  0.9362 -0.7853
  725TMC3    H110774   4.673   3.924  13.015 -0.2762  0.9331  0.8720
  725TMC3    H210775   4.400   3.670  12.803 -0.8956 -0.0728  0.8902
  725TMC3    C710776   4.635   3.668  12.931  0.5212 -0.4592  0.6795
  725TMC3    C810777   4.238   3.885  12.753  0.6504  0.3736 -0.6336
  725TMC3    O110778   4.631   3.587  12.833  0.0739  0.5496  0.2682
  725TMC3    O210779   4.155   3.796  12.766 -0.4016 -0.4292 -0.4522
  726MPD2     C10780   2.605   0.505  10.769  0.1682 -0.8386 -0.0590
  726MPD2    C110781   2.494   0.587  10.741  0.2047 -0.5435 -0.4259
  726MPD2    C210782   2.367   0.525  10.737 -0.6244 -0.8589 -0.4193
  726MPD2    C310783   2.352   0.396  10.760 -0.4480  0.5588  0.0017
  726MPD2    C410784   2.461   0.318  10.772  0.4221 -0.2169  0.0567
  726MPD2    C510785   2.587   0.375  10.788  1.0127 -0.2659 -0.9784
  726MPD2     H10786   2.281   0.590  10.729 -1.2101 -1.3456  1.9827
  726MPD2    H110787   2.454   0.210  10.781  1.9162 -0.2173  1.1978
  726MPD2    H210788   2.708   0.536  10.782 -0.3073  0.2806  1.0800
  726MPD2    H310789   2.666   0.307  10.818 -1.0774 -2.4485 -0.3834
  726MPD2     N10790   2.229   0.330  10.774  0.2186 -0.3890  0.0204
  726MPD2    H510791   2.225   0.230  10.786  0.0151 -0.4243 -0.3545
  726MPD2    N110792   2.500   0.728  10.721  0.1145 -0.7360 -0.2442
  726MPD2    H710793   2.414   0.778  10.701 -0.4304 -1.0132  1.4066
  727TMC3    C110794   2.609   0.943  10.678 -0.3165  0.4115 -0.1869
  727TMC3    C210795   2.709   1.004  10.616 -0.0639 -0.5429 -0.2018
  727TMC3    C310796   2.702   1.141  10.604 -0.1693 -0.9573 -0.4713
  727TMC3    C410797   2.489   1.003  10.712 -0.2940 -0.3965  0.5788
  727TMC3    C510798   2.486   1.136  10.684 -0.7577  0.0445 -0.4167
  727TMC3    C610799   2.596   1.212  10.654 -0.5982  1.0646  0.1281
  727TMC3     C10800   2.617   0.797  10.695  0.3933 -0.2132 -0.6575
  727TMC3     O10801   2.726   0.750  10.684  0.4382 -0.1058 -0.1468
  727TMC3     H10802   2.786   0.941  10.574  0.2778 -1.1049  1.2389
  727TMC3    H110803   2.397   0.952  10.739 -0.2696 -0.4367  0.5859
  727TMC3    H210804   2.598   1.317  10.628 -2.1390  0.3556 -2.7419
  727TMC3    C710805   2.364   1.204  10.721  0.3860  0.4338  0.0532
  727TMC3    C810806   2.819   1.202  10.551 -0.1737 -0.7571 -0.6207
  727TMC3    O110807   2.264   1.137  10.739  0.0337  0.2788 -0.6146
  727TMC3    O210808   2.881   1.130  10.476 -0.0821  0.3617 -0.4458
  728TMC3    C110809   1.900   3.719  15.404 -0.2449 -0.4494  0.2316
  728TMC3    C210810   2.030   3.729  15.419  0.1156 -0.2911  0.1760
  728TMC3    C310811   2.103   3.725  15.308  0.1066 -0.7973 -0.3712
  728TMC3    C410812   1.840   3.709  15.282  0.6332  0.7375 -0.1249
  728TMC3    C510813   1.918   3.724  15.166  0.4968  1.1447 -0.1415
  728TMC3    C610814   2.057   3.725  15.179  0.0499  0.2472 -0.2199
  728TMC3     C10815   1.820   3.776  15.513  0.1220 -0.6189  0.0949
  728TMC3     O10816   1.879   3.826  15.606  0.1166  0.0267  0.0990
  728TMC3     H10817   2.079   3.731  15.516  0.7344 -0.1325 -0.1391
  728TMC3    H110818   1.734   3.687  15.277  0.9197 -0.7223  0.1456
  728TMC3    H210819   2.120   3.712  15.092 -0.0978  0.7552 -0.4024
  728TMC3    C710820   1.844   3.729  15.036 -0.1978  0.2898 -0.3473
  728TMC3    C810821   2.249   3.712  15.328  0.0615 -0.3378  0.0936
  728TMC3    O110822   1.724   3.698  15.034  0.3350  0.2700 -0.2207
  728TMC3    O210823   2.283   3.665  15.431  0.2600 -0.1237 -0.3220
  729MPD2     C10824   4.280   0.263  16.667 -0.1341  1.1909 -0.7429
  729MPD2    C110825   4.382   0.311  16.743  0.1245 -0.2271 -0.8710
  729MPD2    C210826   4.381   0.283  16.883 -0.8078  0.3607  0.1180
  729MPD2    C310827   4.258   0.241  16.941 -0.5173 -0.5254  0.2031
  729MPD2    C410828   4.154   0.191  16.862  0.7405  0.3027  0.3390
  729MPD2    C510829   4.163   0.215  16.725 -0.1917  0.4570 -0.8084
  729MPD2     H10830   4.460   0.318  16.949  0.3149  0.2916 -1.1834
  729MPD2    H110831   4.063   0.152  16.908  0.2848  1.2380  0.2267
  729MPD2    H210832   4.287   0.282  16.561  2.3612 -1.2910 -1.0352
  729MPD2    H310833   4.077   0.191  16.663 -1.6253  0.7797  1.0606
  729MPD2     N10834   4.235   0.231  17.083  0.5839  0.3250  0.0966
  729MPD2    H510835   4.148   0.187  17.110  0.5459  0.0958 -0.3979
  729MPD2    N110836   4.479   0.380  16.685 -0.2489 -0.4759 -0.3081
  729MPD2    H710837   4.464   0.415  16.591 -1.3766 -0.7033 -0.2112
  730TMC3    C110838   4.227   0.314  17.298 -0.3011  0.4235  0.0554
  730TMC3    C210839   4.262   0.421  17.373  0.1086 -0.8493 -0.8400
  730TMC3    C310840   4.173   0.489  17.460  0.0340 -0.2459  0.1663
  730TMC3    C410841   4.095   0.277  17.304 -0.2737  0.1202 -0.4623
  730TMC3    C510842   4.005   0.342  17.385  0.4899  0.0031  0.1203
  730TMC3    C610843   4.047   0.442  17.467 -0.6499  0.0166 -0.5227
  730TMC3     C10844   4.306   0.304  17.176  0.2707 -0.0779 -0.3864
  730TMC3     O10845   4.408   0.375  17.162 -0.1042  0.1647  0.7366
  730TMC3     H10846   4.363   0.458  17.364 -0.5315  1.0276 -0.3455
  730TMC3    H110847   4.058   0.195  17.244 -2.8597 -0.2089  1.6090
  730TMC3    H210848   3.982   0.485  17.542  1.1531  0.0386  1.0221
  730TMC3    C710849   3.879   0.372  17.314 -0.8413 -0.7589 -0.4727
  730TMC3    C810850   4.193   0.627  17.443  0.1756 -0.5301 -0.0489
  730TMC3    O110851   3.871   0.355  17.195 -0.3081  0.4009  0.1101
  730TMC3    O210852   4.304   0.663  17.408  0.7578 -0.7032  0.8029
  731MPD2     C10853   3.609   3.127  12.681 -0.7203  0.2173 -0.0668
  731MPD2    C110854   3.703   3.029  12.677 -0.0355  0.1430 -0.3956
  731MPD2    C210855   3.732   2.947  12.792 -0.1084  0.6073 -0.1572
  731MPD2    C310856   3.655   2.972  12.902  0.2990 -0.8256  0.8832
  731MPD2    C410857   3.553   3.066  12.907  0.2920 -0.8206 -0.6771
  731MPD2    C510858   3.528   3.139  12.794 -0.3572 -0.3450 -0.5111
  731MPD2     H10859   3.802   2.864  12.787 -0.4382  0.2483  1.0978
  731MPD2    H110860   3.474   3.067  12.981  0.3025  1.4062 -0.7023
  731MPD2    H210861   3.580   3.185  12.594 -0.4060  0.5305  0.0372
  731MPD2    H310862   3.448   3.210  12.804 -0.8548 -0.6481 -2.2751
  731MPD2     N10863   3.658   2.872  13.010  0.8829 -0.0146 -0.5150
  731MPD2    H510864   3.715   2.788  13.006  2.5711  0.9782  2.7037
  731MPD2    N110865   3.783   3.015  12.559 -0.7063 -0.4169 -0.4371
  731MPD2    H710866   3.769   3.079  12.481 -2.0486  0.7321  0.7414
  732TMC3    C110867   3.969   2.977  12.422  0.0616  0.1461 -0.2436
  732TMC3    C210868   3.893   2.965  12.307 -0.2769  0.5327 -0.6519
  732TMC3    C310869   3.934   3.020  12.190  0.0974 -0.1651 -0.1645
  732TMC3    C410870   4.076   3.063  12.424  0.0364  0.1863  0.5775
  732TMC3    C510871   4.084   3.142  12.309  0.2912 -0.5190  0.2090
  732TMC3    C610872   4.020   3.121  12.187 -0.2554  0.3392  0.5124
  732TMC3     C10873   3.906   2.956  12.555  0.1395  0.1101  0.2822
  732TMC3     O10874   3.978   2.924  12.650 -0.3434  0.0911 -0.3080
  732TMC3     H10875   3.819   2.886  12.304 -1.5878  1.6780  1.4864
  732TMC3    H110876   4.119   3.086  12.520  0.7621 -0.9846  0.5285
  732TMC3    H210877   4.037   3.174  12.094 -2.2464 -1.6085 -0.9444
  732TMC3    C710878   4.173   3.257  12.325  0.5818 -0.0814  0.2106
  732TMC3    C810879   3.847   3.008  12.076  0.6155  0.4450  0.3694
  732TMC3    O110880   4.154   3.360  12.267 -0.3136  0.2022 -0.1327
  732TMC3    O210881   3.894   3.010  11.965 -0.1630  0.6785  0.0902
  733TMC3    C110882   0.501   1.479  13.279 -0.5310  0.1089  0.2781
  733TMC3    C210883   0.517   1.591  13.204 -0.5433 -0.0640 -0.3403
  733TMC3    C310884   0.635   1.638  13.171 -0.0653  0.7460 -0.2641
  733TMC3    C410885   0.606   1.400  13.315  0.3845  0.5755 -0.0615
  733TMC3    C510886   0.728   1.456  13.277  0.0057 -0.6253 -0.1473
  733TMC3    C610887   0.744   1.572  13.223 -0.1311  0.1446  0.3984
  733TMC3     C10888   0.370   1.429  13.268 -0.1518  0.5437  0.1268
  733TMC3     O10889   0.291   1.492  13.194 -0.0825 -0.5435  0.3431
  733TMC3     H10890   0.432   1.654  13.183 -0.0456  1.0931  1.0789
  733TMC3    H110891   0.606   1.308  13.372  2.1730  0.1844 -0.6864
  733TMC3    H210892   0.843   1.610  13.199 -0.2069 -0.4626 -0.8391
  733TMC3    C710893   0.812   1.351  13.215 -0.3680  0.6409  0.2592
  733TMC3    C810894   0.651   1.678  13.032 -0.2491 -0.2566  0.5218
  733TMC3    O110895   0.785   1.234  13.235 -0.5492 -0.0536  0.1842
  733TMC3    O210896   0.767   1.674  12.994 -0.0682 -0.6354 -0.4179
  734MPD2     C10897   2.113   4.250  12.713  0.4795 -0.3330 -0.0397
  734MPD2    C110898   2.022   4.161  12.665 -0.0297  0.1453  0.2838
  734MPD2    C210899   2.011   4.142  12.524  0.3558 -0.5957  0.2092
  734MPD2    C310900   2.095   4.221  12.440  0.2608 -0.0651  0.3366
  734MPD2    C410901   2.193   4.309  12.489 -0.2019 -0.4444 -0.6773
  734MPD2    C510902   2.190   4.320  12.626 -0.2298 -0.0296  0.5833
  734MPD2     H10903   1.947   4.068  12.477  0.1571 -0.0540 -0.3641
  734MPD2    H110904   2.267   4.367  12.434  0.5462  0.5802  1.3852
  734MPD2    H210905   2.122   4.274  12.819  1.4824 -0.0703 -0.1826
  734MPD2    H310906   2.263   4.384  12.674  1.0837  0.3106 -1.8663
  734MPD2     N10907   2.076   4.198  12.305  0.5042  0.3844 -0.1700
  734MPD2    H510908   2.002   4.137  12.272 -0.8933  1.0548  1.6995
  734MPD2    N110909   1.963   4.071  12.751 -0.7915 -0.5838  0.0950
  734MPD2    H710910   1.982   4.072  12.850 -1.6293 -1.7049  0.2663
  735TMC3    C110911   1.811   3.899  12.819 -0.5977 -0.3684  0.5072
  735TMC3    C210912   1.697   3.832  12.780 -0.4593  0.2387  0.5680
  735TMC3    C310913   1.709   3.698  12.785 -0.0022 -0.6306  0.3314
  735TMC3    C410914   1.924   3.837  12.872 -0.1247 -0.3365  0.3843
  735TMC3    C510915   1.925   3.702  12.884  0.1631 -0.3761  0.0685
  735TMC3    C610916   1.817   3.633  12.838 -0.0300 -0.0446 -0.1634
  735TMC3     C10917   1.857   3.977  12.710  0.2051  0.2674 -1.2848
  735TMC3     O10918   1.801   3.958  12.603  0.6554  0.8592  0.0310
  735TMC3     H10919   1.620   3.880  12.721 -1.5746 -2.6404 -0.3471
  735TMC3    H110920   2.009   3.892  12.912  2.2004 -2.1214 -2.1495
  735TMC3    H210921   1.818   3.524  12.833 -0.6587  0.0652 -2.5210
  735TMC3    C710922   2.055   3.640  12.842  0.5228  0.6128 -0.0006
  735TMC3    C810923   1.664   3.635  12.667  0.5814 -0.1815  0.5967
  735TMC3    O110924   2.140   3.717  12.792  0.3317 -0.3798  0.2283
  735TMC3    O210925   1.652   3.514  12.652 -0.4582  0.2335  0.4027
  736MPD2     C10926   2.126   3.282  12.827  0.0846 -0.3252  0.4745
  736MPD2    C110927   2.153   3.411  12.799 -0.0094  0.0460  0.3988
  736MPD2    C210928   2.250   3.445  12.708  0.3831  0.9205 -0.3090
  736MPD2    C310929   2.320   3.350  12.645  0.4365 -0.1078  0.2542
  736MPD2    C410930   2.288   3.213  12.668 -0.0738  0.3652  0.0495
  736MPD2    C510931   2.192   3.181  12.764  0.5553 -0.0768 -0.0344
  736MPD2     H10932   2.266   3.549  12.678 -0.1636  1.4840  1.3732
  736MPD2    H110933   2.344   3.129  12.627  0.6005  1.5044 -1.3876
  736MPD2    H210934   2.049   3.251  12.897 -0.5478  0.2369  0.0215
  736MPD2    H310935   2.175   3.075  12.779 -1.9987  0.4806  0.9518
  736MPD2     N10936   2.414   3.384  12.548  0.2576 -0.8775 -0.4421
  736MPD2    H510937   2.444   3.307  12.489 -2.6933 -1.0571 -1.7045
  736MPD2    N110938   2.066   3.504  12.862  0.4532 -0.1283  0.3443
  736MPD2    H710939   1.991   3.455  12.909  1.3980 -2.0381 -0.1549
  737TMC3    C110940   2.577   3.522  12.426  0.4137  0.7178  0.2594
  737TMC3    C210941   2.654   3.634  12.414  0.2085  0.4239  0.3789
  737TMC3    C310942   2.759   3.638  12.331 -0.2102 -0.5200 -0.2857
  737TMC3    C410943   2.600   3.411  12.343 -0.0427 -0.1978  0.3369
  737TMC3    C510944   2.701   3.418  12.249 -0.2518 -0.4255  0.2970
  737TMC3    C610945   2.777   3.535  12.240  0.1436 -0.6172  0.3635
  737TMC3     C10946   2.473   3.513  12.537  0.3521  0.4079  0.2052
  737TMC3     O10947   2.471   3.604  12.619  0.2516 -0.9011 -0.0570
  737TMC3     H10948   2.653   3.717  12.483 -2.8616 -1.0651  2.1082
  737TMC3    H110949   2.535   3.324  12.337 -0.4065 -0.0603  2.5141
  737TMC3    H210950   2.861   3.541  12.171 -0.5076 -0.7300 -0.4329
  737TMC3    C710951   2.701   3.328  12.138  0.6252  0.0315 -0.1779
  737TMC3    C810952   2.788   3.769  12.260 -0.4684  0.5041  0.3113
  737TMC3    O110953   2.623   3.235  12.156 -0.1170  0.1216  0.5405
  737TMC3    O210954   2.895   3.826  12.282  0.3899  0.1160 -0.2113
  738MPD2     C10955   2.969   1.960  15.579 -0.1864  0.5173  0.3681
  738MPD2    C110956   2.959   1.958  15.443 -0.0945 -0.7284  0.3407
  738MPD2    C210957   3.018   2.062  15.373  0.0143  0.0918  0.1157
  738MPD2    C310958   3.112   2.151  15.424 -0.4028 -0.4963 -0.1506
  738MPD2    C410959   3.127   2.151  15.566 -0.3547 -0.3586  0.9871
  738MPD2    C510960   3.053   2.063  15.635 -0.6004 -0.3510  0.0456
  738MPD2     H10961   3.000   2.050  15.267 -1.5402  1.1670  0.2572
  738MPD2    H110962   3.198   2.218  15.612  0.1585 -0.1243 -0.1528
  738MPD2    H210963   2.924   1.892  15.650 -1.4524  0.5593 -0.3976
  738MPD2    H310964   3.066   2.064  15.742  0.8682 -3.7516 -0.0932
  738MPD2     N10965   3.180   2.251  15.349  0.4336 -0.5777 -0.2983
  738MPD2    H510966   3.258   2.291  15.399  1.2474  0.6209 -2.4902
  738MPD2    N110967   2.875   1.857  15.376  0.0690  0.0638  0.1569
  738MPD2    H710968   2.867   1.875  15.276 -1.3559  0.0904  0.2733
  739TMC3    C110969   3.293   2.358  15.165 -0.6418  0.1434 -0.2277
  739TMC3    C210970   3.302   2.388  15.027 -0.4354 -0.1367 -0.3051
  739TMC3    C310971   3.387   2.486  14.984 -0.2086  0.7833 -0.2336
  739TMC3    C410972   3.360   2.436  15.258  0.4981  0.1901 -0.1257
  739TMC3    C510973   3.440   2.534  15.208  0.6805  0.4861 -0.3660
  739TMC3    C610974   3.461   2.564  15.076 -0.2657 -0.0864 -0.1646
  739TMC3     C10975   3.190   2.261  15.205 -0.7024  0.0753 -0.6936
  739TMC3     O10976   3.119   2.215  15.120  0.1861  0.3438 -0.1381
  739TMC3     H10977   3.253   2.320  14.959 -0.4876  0.8160 -1.2136
  739TMC3    H110978   3.356   2.416  15.364 -0.5557  0.8644 -0.0351
  739TMC3    H210979   3.532   2.642  15.051  1.6002 -0.9477  2.3977
  739TMC3    C710980   3.536   2.604  15.300  0.2809 -0.6506 -0.0475
  739TMC3    C810981   3.350   2.554  14.860 -0.3168  0.6526 -0.2576
  739TMC3    O110982   3.638   2.644  15.251  0.0260 -0.1556 -0.1252
  739TMC3    O210983   3.239   2.524  14.824 -0.2630  0.7869  0.1503
  740TMC3    C110984   3.425   3.894  14.620 -1.0819 -0.3746 -0.5900
  740TMC3    C210985   3.521   3.843  14.705 -0.3942 -0.1595  0.2004
  740TMC3    C310986   3.651   3.834  14.668  0.0311 -0.6135 -0.2218
  740TMC3    C410987   3.452   3.919  14.487 -0.2259  0.4798  0.1529
  740TMC3    C510988   3.588   3.909  14.456  0.5469 -0.0146  0.4202
  740TMC3    C610989   3.688   3.872  14.548 -0.2641 -0.1938  0.3738
  740TMC3     C10990   3.282   3.889  14.645 -0.0848  0.0602 -0.2945
  740TMC3     O10991   3.211   3.936  14.558 -0.0924  0.4539  0.3499
  740TMC3     H10992   3.499   3.839  14.811 -2.4586  0.3854 -0.2008
  740TMC3    H110993   3.372   3.939  14.416  1.5796  0.2396 -1.9401
  740TMC3    H210994   3.790   3.878  14.513 -0.1439 -1.1409  0.5748
  740TMC3    C710995   3.627   3.927  14.319  0.5198  0.5301  0.3405
  740TMC3    C810996   3.753   3.777  14.756 -0.2112 -0.9296  0.7760
  740TMC3    O110997   3.730   3.869  14.290  0.0445  0.4951 -0.4056
  740TMC3    O210998   3.864   3.781  14.704 -0.0667 -0.3644 -0.3734
  741TMC3    C110999   3.163   2.990  14.729 -0.1622 -0.1403  0.0154
  741TMC3    C211000   3.060   2.905  14.688 -0.2888 -0.0346  0.5431
  741TMC3    C311001   3.036   2.794  14.761  0.4573 -0.3262  0.0150
  741TMC3    C411002   3.231   2.975  14.849 -0.0639  0.1550  0.0420
  741TMC3    C511003   3.177   2.872  14.930  0.0157  0.2497  0.1320
  741TMC3    C611004   3.089   2.781  14.890  0.4779  0.3216 -0.3923
  741TMC3     C11005   3.213   3.086  14.639 -0.0907  0.6829  0.0254
  741TMC3     O11006   3.315   3.145  14.663 -0.0458 -0.0700  0.2859
  741TMC3     H11007   3.002   2.923  14.599  0.0718  1.1708  0.5560
  741TMC3    H111008   3.316   3.040  14.869  0.9020 -0.9773 -0.3637
  741TMC3    H211009   3.065   2.695  14.952 -1.1560  0.3539 -0.9610
  741TMC3    C711010   3.195   2.876  15.076  1.0082 -0.2837  0.0437
  741TMC3    C811011   2.925   2.720  14.727 -0.2260  0.2961  0.3660
  741TMC3    O111012   3.193   2.768  15.138 -0.4420  0.3381 -0.6249
  741TMC3    O211013   2.855   2.762  14.638  0.7256  0.2159  1.1643
  742TMC3    C111014   2.585   1.030  15.677 -0.0715 -0.1757 -0.5002
  742TMC3    C211015   2.548   1.054  15.546 -0.3277 -0.1022 -0.7692
  742TMC3    C311016   2.650   1.104  15.469 -0.5871  0.1881 -0.9736
  742TMC3    C411017   2.702   1.078  15.727 -0.2637  0.6536  0.4419
  742TMC3    C511018   2.791   1.139  15.638 -0.1934 -0.5657 -0.4581
  742TMC3    C611019   2.776   1.144  15.505  0.6679 -0.0550  0.5462
  742TMC3     C11020   2.471   0.994  15.766  0.3326  0.0461 -0.1636
  742TMC3     O11021   2.368   0.953  15.712  0.7667  0.1195 -0.8770
  742TMC3     H11022   2.462   1.000  15.506  0.4335 -0.3150 -2.1130
  742TMC3    H111023   2.727   1.053  15.829 -0.7740 -2.0370 -0.0697
  742TMC3    H211024   2.844   1.191  15.436 -0.5156 -1.0119 -1.2684
  742TMC3    C711025   2.930   1.157  15.687 -0.2144  0.0213 -0.1817
  742TMC3    C811026   2.629   1.126  15.328  0.1196  0.5014  0.3138
  742TMC3    O111027   3.014   1.147  15.603 -0.1085  0.4577 -0.3845
  742TMC3    O211028   2.731   1.146  15.264 -0.3789 -0.0271  0.3127
  743MPD2     C11029   0.903   2.149   1.814  0.5173 -0.1017 -0.2061
  743MPD2    C111030   0.938   2.280   1.841  0.1113  0.2644 -0.2528
  743MPD2    C211031   1.046   2.300   1.919 -0.3554  0.1283 -0.5019
  743MPD2    C311032   1.115   2.191   1.975 -0.1431 -0.0322  0.6119
  743MPD2    C411033   1.080   2.058   1.950  0.3985 -0.3222  0.3272
  743MPD2    C511034   0.974   2.046   1.872  0.3190 -0.3445  0.4212
  743MPD2     H11035   1.075   2.403   1.940 -0.0739  0.0909 -0.7008
  743MPD2    H111036   1.134   1.968   1.977  0.0129 -0.4732  0.5971
  743MPD2    H211037   0.827   2.117   1.744  1.1207 -0.3840 -0.7437
  743MPD2    H311038   0.942   1.944   1.854  0.7546 -0.2652 -0.8105
  743MPD2     N11039   1.235   2.228   2.045  0.1417 -0.1344  0.1108
  743MPD2    H511040   1.278   2.319   2.034 -2.2966  1.5478  4.4086
  743MPD2    N111041   0.857   2.385   1.780  0.1509  0.5234  0.2276
  743MPD2    H711042   0.787   2.365   1.709  1.3514  0.1885 -0.8678
  744TMC3    C111043   0.767   2.603   1.771  0.0137 -0.3946  0.3886
  744TMC3    C211044   0.721   2.713   1.854 -0.1082 -0.0921  0.6250
  744TMC3    C311045   0.638   2.801   1.788 -0.1759 -0.4252  0.6661
  744TMC3    C411046   0.741   2.589   1.638  0.7522 -0.0684  0.8454
  744TMC3    C511047   0.656   2.684   1.584  0.2526 -0.0590 -0.2792
  744TMC3    C611048   0.609   2.799   1.651  1.1652  0.2418 -0.2923
  744TMC3     C11049   0.857   2.508   1.842  0.4428 -0.0585  0.4479
  744TMC3     O11050   0.889   2.535   1.961  0.2316 -0.5822  0.2949
  744TMC3     H11051   0.720   2.706   1.963  1.3358 -2.5907  0.4654
  744TMC3    H111052   0.788   2.510   1.581 -0.8875 -0.5266  0.1086
  744TMC3    H211053   0.558   2.878   1.599  0.4848  0.0861  0.1410
  744TMC3    C711054   0.610   2.663   1.444  0.2408 -0.5864  0.2043
  744TMC3    C811055   0.590   2.916   1.867 -0.1921 -0.2240 -0.1348
  744TMC3    O111056   0.575   2.764   1.385  0.1000  0.1115 -0.2069
  744TMC3    O211057   0.534   3.003   1.799  0.3427  0.2101  0.4097
  745TMC3    C111058   3.792   0.706  13.609  0.9967 -0.5153  0.0396
  745TMC3    C211059   3.682   0.699  13.684 -0.5640  0.0847  0.3229
  745TMC3    C311060   3.559   0.709  13.624  0.5131 -0.3163 -0.1217
  745TMC3    C411061   3.781   0.712  13.473 -0.0719  0.7450  0.3924
  745TMC3    C511062   3.658   0.737  13.419  0.2707  0.2988  0.1926
  745TMC3    C611063   3.546   0.721  13.496 -0.1575  0.3158 -0.5020
  745TMC3     C11064   3.863   0.829  13.657  0.3578  0.3450  0.0192
  745TMC3     O11065   3.813   0.879  13.759 -0.2505  0.0977  0.1304
  745TMC3     H11066   3.699   0.679  13.789 -1.4849  0.4650  0.5443
  745TMC3    H111067   3.866   0.702  13.406 -1.0816  2.2443 -1.1125
  745TMC3    H211068   3.449   0.737  13.451  1.4275  0.8465 -3.7824
  745TMC3    C711069   3.640   0.798  13.288  0.3274 -0.3111  0.8924
  745TMC3    C811070   3.465   0.786  13.700 -0.7280 -0.1472 -0.2941
  745TMC3    O111071   3.524   0.807  13.248  0.5540 -0.6219 -0.6437
  745TMC3    O211072   3.346   0.778  13.666 -0.3917  0.0479 -0.1030
  746TMC3    C111073   0.277   3.169  11.298 -0.5663  0.2406  0.0553
  746TMC3    C211074   0.383   3.095  11.242 -0.3021 -0.1888 -0.3365
  746TMC3    C311075   0.382   2.960  11.274 -0.3300 -0.7087 -0.3856
  746TMC3    C411076   0.179   3.109  11.378  0.4201 -0.7187 -0.1395
  746TMC3    C511077   0.184   2.979  11.408 -0.3667  0.6448 -0.1466
  746TMC3    C611078   0.291   2.908  11.357 -0.6852 -0.2689 -0.3426
  746TMC3     C11079   0.279   3.315  11.288 -0.2075  0.4345  0.0792
  746TMC3     O11080   0.253   3.378  11.391 -0.1332  0.4564  0.5017
  746TMC3     H11081   0.468   3.144  11.197 -0.6830  2.1771  1.5006
  746TMC3    H111082   0.113   3.169  11.439 -0.7846  1.2856 -3.4029
  746TMC3    H211083   0.294   2.800  11.362  0.4064 -0.1571  1.6811
  746TMC3    C711084   0.059   2.910  11.413 -1.0105  0.3793  0.1472
  746TMC3    C811085   0.401   2.884  11.156  0.3594 -0.2463  0.2157
  746TMC3    O111086   0.050   2.799  11.467 -0.6440  0.4686  0.1136
  746TMC3    O211087   0.339   2.779  11.144  1.0920 -0.2532 -1.0131
  747TMC3    C111088   3.125   3.330  11.133 -0.0989 -0.5204 -0.6338
  747TMC3    C211089   3.029   3.356  11.218  0.7430 -0.5036 -0.3451
  747TMC3    C311090   3.059   3.377  11.354  0.0586  0.3563 -0.0557
  747TMC3    C411091   3.260   3.340  11.168  0.3267  0.8036  0.4390
  747TMC3    C511092   3.288   3.358  11.303 -0.0609  0.7749 -0.2348
  747TMC3    C611093   3.190   3.384  11.390  0.0562 -0.6538 -0.5488
  747TMC3     C11094   3.079   3.337  10.996 -0.6020  0.2271  0.1709
  747TMC3     O11095   2.990   3.419  10.975 -0.0476 -0.0701 -0.0060
  747TMC3     H11096   2.933   3.336  11.173  0.6578  0.1678 -0.4584
  747TMC3    H111097   3.339   3.337  11.094  1.4341 -2.8521  1.7781
  747TMC3    H211098   3.213   3.410  11.493 -0.9513 -2.6311  0.1925
  747TMC3    C711099   3.419   3.403  11.341  0.3919 -0.6168  0.6158
  747TMC3    C811100   2.954   3.332  11.435 -0.7591  0.2980 -0.3601
  747TMC3    O111101   3.436   3.448  11.451  0.1536  0.4608 -0.1944
  747TMC3    O211102   2.866   3.265  11.376 -0.2882 -0.3429  0.9263
  748MPD2     C11103   4.530   4.326   2.019  0.0518  0.6523 -0.2800
  748MPD2    C111104   4.595   4.215   2.065 -0.1768  0.3568  0.4815
  748MPD2    C211105   4.726   4.186   2.029  0.3456 -0.1190 -0.0809
  748MPD2    C311106   0.061   4.278   1.953 -0.2230  0.5439  0.5259
  748MPD2    C411107   4.734   4.394   1.916  0.1868  0.6900 -0.2974
  748MPD2    C511108   4.602   4.415   1.951 -0.0682  0.1090  0.9087
  748MPD2     H11109   0.048   4.103   2.068  0.5195  0.8961  1.8139
  748MPD2    H111110   0.046   4.472   1.859  1.9481  1.1077  1.7761
  748MPD2    H211111   4.430   4.356   2.047  0.4965  0.7355  1.2309
  748MPD2    H311112   4.555   4.509   1.922  1.4296  0.4979 -0.2863
  748MPD2     N11113   0.194   4.249   1.926 -1.1135 -0.4397  0.6562
  748MPD2    H511114   0.227   4.155   1.943 -1.2538 -0.6747 -0.4044
  748MPD2    N111115   4.516   4.133   2.152 -0.7628  0.1543  0.1057
  748MPD2    H711116   4.419   4.158   2.170 -0.6670 -0.3790  1.3549
  749TMC3    C111117   0.416   4.288   1.866  0.2053 -0.3519  0.2072
  749TMC3    C211118   0.448   4.183   1.952  0.3661  0.1144 -0.0464
  749TMC3    C311119   0.563   4.112   1.929 -0.0671 -0.0044  0.0272
  749TMC3    C411120   0.507   4.331   1.774 -1.0428  0.8506 -0.1842
  749TMC3    C511121   0.613   4.251   1.750  0.1759  1.0168 -0.1212
  749TMC3    C611122   0.646   4.141   1.823 -0.0715  0.0482  0.0053
  749TMC3     C11123   0.283   4.337   1.868  0.7242 -0.1237  0.3447
  749TMC3     O11124   0.274   4.452   1.829 -0.4236  0.1483  0.8895
  749TMC3     H11125   0.397   4.159   2.044  1.8662  2.2624  1.3630
  749TMC3    H111126   0.491   4.415   1.707 -1.8197  0.3119 -0.6690
  749TMC3    H211127   0.729   4.075   1.801 -0.2450  0.2617 -1.2597
  749TMC3    C711128   0.708   4.294   1.647  0.2395  0.4422 -0.5690
  749TMC3    C811129   0.586   3.992   2.007  0.4928 -0.2567  0.7187
  749TMC3    O111130   0.726   4.415   1.641  0.7537 -0.0515  0.0234
  749TMC3    O211131   0.505   3.952   2.087  0.2565  0.1265 -0.5316
  750MPD2     C11132   1.191   0.183  11.616 -0.6334  0.9174 -0.1871
  750MPD2    C111133   1.052   0.202  11.612  0.3011 -0.1921  0.3582
  750MPD2    C211134   0.986   0.110  11.531  0.7097 -0.3185  0.9904
  750MPD2    C311135   1.048   4.733  11.471 -0.4187 -0.5491  0.4156
  750MPD2    C411136   1.178   4.722  11.496  0.8892  0.3130 -0.3909
  750MPD2    C511137   1.252   0.076  11.568 -0.1602  0.2210  0.0661
  750MPD2     H11138   0.881   0.129  11.516  1.0685 -0.2519 -1.4783
  750MPD2    H111139   1.234   4.638  11.456  0.4225  0.6197 -1.6737
  750MPD2    H211140   1.261   0.242  11.674 -0.1288  0.3203 -0.1802
  750MPD2    H311141   1.359   0.063  11.574  0.3682  4.4842 -0.0532
  750MPD2     N11142   0.976   4.638  11.391 -0.3389 -0.1067 -0.8407
  750MPD2    H511143   1.024   4.556  11.355 -0.4710 -1.3690  1.8330
  750MPD2    N111144   0.988   0.308  11.688  0.4626 -0.4840 -0.3612
  750MPD2    H711145   1.050   0.377  11.728 -2.1647  0.5447  1.9074
  751TMC3    C111146   0.816   4.533  11.272  0.9000  0.6533  0.9382
  751TMC3    C211147   0.706   4.453  11.290  0.0738 -0.2500 -0.3034
  751TMC3    C311148   0.660   4.378  11.187 -0.1545  0.2029 -0.0732
  751TMC3    C411149   0.890   4.521  11.158 -0.5072 -0.0139  0.1040
  751TMC3    C511150   0.847   4.436  11.063  0.6050  0.0100  0.0810
  751TMC3    C611151   0.735   4.360  11.072 -0.2792  0.8737  0.0164
  751TMC3     C11152   0.845   4.633  11.363  0.9374  0.3084 -0.2750
  751TMC3     O11153   0.752   4.701  11.399  0.1943  0.3413  0.4934
  751TMC3     H11154   0.654   4.469  11.384 -1.4728 -1.6283 -0.9278
  751TMC3    H111155   0.975   4.585  11.139 -0.9857  1.1749  2.0183
  751TMC3    H211156   0.696   4.294  10.995 -0.1015  0.8530 -0.0549
  751TMC3    C711157   0.913   4.440  10.936 -0.4599  0.1166  0.1243
  751TMC3    C811158   0.529   4.299  11.194 -0.0901 -0.4651  0.3270
  751TMC3    O111159   1.013   4.505  10.922 -0.3067 -0.3910 -0.3088
  751TMC3    O211160   0.517   4.225  11.096  1.0295 -0.2579 -0.1791
  752TMC3    C111161   4.444   0.911  17.602 -0.0383  0.0099  0.0855
  752TMC3    C211162   4.484   0.783  17.610 -0.0878 -0.3164 -0.3943
  752TMC3    C311163   4.432   0.703  17.707 -0.2396  0.0408 -0.4376
  752TMC3    C411164   4.346   0.962  17.689 -0.3477  0.2771  0.5685
  752TMC3    C511165   4.304   0.881   0.045  0.2129  0.0858 -0.1396
  752TMC3    C611166   4.347   0.753   0.053 -0.1419 -0.1764 -0.6167
  752TMC3     C11167   4.479   0.996  17.490  0.6284  0.0142 -0.2494
  752TMC3     O11168   4.490   1.119  17.509 -0.1355  0.1338 -0.2029
  752TMC3     H11169   4.562   0.744  17.545  1.4361 -1.1408  1.9447
  752TMC3    H111170   4.305   1.057  17.657  1.6355  0.9393  0.0042
  752TMC3    H211171   4.316   0.692   0.137  0.3608  0.3947 -0.0182
  752TMC3    C711172   4.158   0.896   0.056 -0.5669  0.8598 -0.4319
  752TMC3    C811173   4.465   0.562  17.710  0.3266 -0.7244  0.0970
  752TMC3    O111174   4.100   1.003   0.042  0.0006  0.0524 -0.0370
  752TMC3    O211175   4.433   0.516   0.072 -0.1264  0.1617 -0.1619
  753TMC3    C111176   1.909   0.956  13.420 -0.6955  0.0217 -0.5585
  753TMC3    C211177   1.978   0.912  13.531 -0.0216  0.4948 -1.0176
  753TMC3    C311178   2.020   0.781  13.536  0.9913 -0.2619  0.3552
  753TMC3    C411179   1.879   0.878  13.319 -0.0364 -0.1320  0.1750
  753TMC3    C511180   1.919   0.751  13.328  0.4238 -0.3688  0.0071
  753TMC3    C611181   2.001   0.703  13.427 -0.1840 -0.1782 -0.0304
  753TMC3     C11182   1.869   1.090  13.435 -0.2627 -0.8737 -0.0440
  753TMC3     O11183   1.966   1.153  13.472  0.0354  0.1531  0.7775
  753TMC3     H11184   1.975   0.977  13.618  0.8202  0.1788 -0.7511
  753TMC3    H111185   1.806   0.914  13.247 -2.0201 -3.3609  0.5387
  753TMC3    H211186   2.037   0.601  13.421 -1.3670 -0.5524 -0.8084
  753TMC3    C711187   1.898   0.674  13.209 -0.3780 -0.1046  0.3206
  753TMC3    C811188   2.102   0.734  13.650  0.3299  0.0335 -0.2600
  753TMC3    O111189   1.882   0.731  13.102 -0.3272 -0.5088 -0.7323
  753TMC3    O211190   2.127   0.615  13.645 -0.1351 -0.1085  0.3145
  754MPD2     C11191   1.049   4.686  13.371  0.5645  0.1500  0.2316
  754MPD2    C111192   0.983   4.566  13.368  0.4588  0.3521  0.5516
  754MPD2    C211193   0.843   4.569  13.364 -0.4433 -0.7763 -0.2939
  754MPD2    C311194   0.778   4.692  13.372 -0.2331 -0.1201 -0.1237
  754MPD2    C411195   0.849   0.067  13.411 -0.1705  0.3333 -0.3237
  754MPD2    C511196   0.986   0.064  13.408  0.2568 -0.1822 -0.4367
  754MPD2     H11197   0.796   4.472  13.351  1.4707 -1.9137  1.2604
  754MPD2    H111198   0.804   0.161  13.443 -0.5733  0.3830 -1.0412
  754MPD2    H211199   1.157   4.688  13.371  0.5438  1.4421 -0.2824
  754MPD2    H311200   1.040   0.157  13.420  0.7201 -0.4287 -0.6137
  754MPD2     N11201   0.639   4.703  13.386  0.0782 -0.5978 -0.5052
  754MPD2    H511202   0.605   0.062  13.394  3.6711  0.4590  2.0035
  754MPD2    N111203   1.061   4.447  13.358  0.3645 -0.0623 -1.3382
  754MPD2    H711204   1.158   4.468  13.333  0.4653  1.7737  0.6977
  755MPD2     C11205   0.388   0.523  13.792  0.4357  0.5933  0.2283
  755MPD2    C111206   0.289   0.444  13.837  0.4186 -0.4451  0.4469
  755MPD2    C211207   0.224   0.354  13.757  0.2674 -0.2946 -0.3816
  755MPD2    C311208   0.280   0.335  13.630 -0.2559  0.9479  0.0411
  755MPD2    C411209   0.371   0.426  13.576 -0.4845 -0.3856  0.2121
  755MPD2    C511210   0.424   0.514  13.666 -0.6232  0.2874  0.5577
  755MPD2     H11211   0.147   0.290  13.798 -0.5264  1.5747  1.0451
  755MPD2    H111212   0.399   0.429  13.471 -0.3212  1.1068  0.3107
  755MPD2    H211213   0.431   0.602  13.853 -0.6693  0.3523  1.3318
  755MPD2    H311214   0.504   0.580  13.636  0.7304 -1.7084 -0.2319
  755MPD2     N11215   0.262   0.222  13.550 -0.3050  0.0776  0.2317
  755MPD2    H511216   0.326   0.219  13.471 -0.8895 -1.1890 -0.1944
  755MPD2    N111217   0.251   0.460  13.974 -0.1088  0.4415  0.6713
  755MPD2    H711218   0.170   0.407  14.005  0.8191 -0.5814  1.3344
  756MPD2     C11219   0.777   1.295   9.951 -0.1995 -0.1703  0.3819
  756MPD2    C111220   0.721   1.185  10.006 -0.3711  0.9402  0.0036
  756MPD2    C211221   0.649   1.091   9.938  0.4927 -0.0447 -0.0916
  756MPD2    C311222   0.646   1.090   9.797 -0.1471 -0.1935  0.5820
  756MPD2    C411223   0.706   1.204   9.741  0.1616  0.2980  0.1918
  756MPD2    C511224   0.779   1.296   9.810  0.5401  0.2490 -0.1687
  756MPD2     H11225   0.624   0.999   9.988  0.7478  0.8907  1.7685
  756MPD2    H111226   0.686   1.218   9.635  0.5947  0.5992  0.1531
  756MPD2    H211227   0.832   1.371  10.004 -1.4369  0.5808  0.5911
  756MPD2    H311228   0.822   1.379   9.755 -0.6266  0.8263 -0.1968
  756MPD2     N11229   0.592   0.973   9.735 -0.4720  0.3016  0.1434
  756MPD2    H511230   0.548   0.901   9.792 -1.8725 -0.5115 -1.9828
  756MPD2    N111231   0.726   1.161  10.146 -0.1741 -0.1206 -0.0680
  756MPD2    H711232   0.686   1.073  10.178 -0.5297 -0.5468 -1.6918
  757MPD2     C11233   0.206   0.054   9.794  0.9059 -0.3450  0.5351
  757MPD2    C111234   0.336   0.037   9.761 -0.3507  0.1117 -0.0840
  757MPD2    C211235   0.406   0.149   9.722 -0.0895 -0.4763 -0.1880
  757MPD2    C311236   0.357   0.277   9.738 -0.4767  0.1939  0.8972
  757MPD2    C411237   0.234   0.300   9.800 -0.2530  0.9579 -0.1860
  757MPD2    C511238   0.152   0.185   9.812  0.1592  0.6065  0.1580
  757MPD2     H11239   0.503   0.140   9.674  0.5100 -0.2844  0.9870
  757MPD2    H111240   0.202   0.401   9.821 -3.4944 -0.2605  0.7526
  757MPD2    H211241   0.157   4.697   9.821 -1.9427  0.2907 -2.3640
  757MPD2    H311242   0.056   0.199   9.860 -2.0541 -0.3560 -4.0835
  757MPD2     N11243   0.434   0.385   9.694  0.1036 -0.2948 -0.1597
  757MPD2    H511244   0.521   0.370   9.644  0.4429  3.4409 -0.7489
  757MPD2    N111245   0.393   4.640   9.758  0.4237  0.6363  0.1864
  757MPD2    H711246   0.325   4.567   9.777  0.8377  0.0418 -0.6244
  758MPD2     C11247   0.569   4.570  16.030  0.1689 -0.2559  0.0739
  758MPD2    C111248   0.600   4.461  16.114  0.5126 -0.6762  0.6137
  758MPD2    C211249   0.533   4.450  16.234 -0.0324  0.2961  0.2769
  758MPD2    C311250   0.460   4.554  16.285 -0.0494 -0.2893 -0.6700
  758MPD2    C411251   0.426   4.659  16.204 -0.2083  0.2828 -0.4056
  758MPD2    C511252   0.471   4.660  16.072 -0.2190  0.3893 -0.2730
  758MPD2     H11253   0.547   4.356  16.286 -0.9291 -0.4084 -0.7425
  758MPD2    H111254   0.369   0.009  16.236  1.0505  0.2031  2.0168
  758MPD2    H211255   0.608   4.588  15.930 -0.7235 -1.4978 -0.5027
  758MPD2    H311256   0.449   0.003  16.002 -1.8762  0.4432  0.3172
  758MPD2     N11257   0.435   4.564  16.419  0.1766 -0.7722  0.4506
  758MPD2    H511258   0.402   4.657  16.445  1.0355  0.1680 -1.7722
  758MPD2    N111259   0.691   4.364  16.066 -0.4832  0.2879  0.0253
  758MPD2    H711260   0.737   4.385  15.978 -1.4258  2.4298  0.0395
  759MPD2     C11261   3.919   2.625  10.539  0.4011  0.5896  0.1424
  759MPD2    C111262   3.974   2.513  10.477  0.2249  0.0311 -0.2139
  759MPD2    C211263   4.079   2.529  10.387  0.2207 -0.9400  0.0336
  759MPD2    C311264   4.121   2.654  10.359 -0.0222  0.0941 -0.0574
  759MPD2    C411265   4.064   2.762  10.425 -0.0812  0.1300  0.7306
  759MPD2    C511266   3.960   2.747  10.506  0.0806 -0.2017 -0.2906
  759MPD2     H11267   4.121   2.442  10.339  0.4810 -0.9087  0.2075
  759MPD2    H111268   4.103   2.862  10.410 -0.4587 -0.2133 -2.4336
  759MPD2    H211269   3.844   2.619  10.617 -0.5321  4.1416 -0.5041
  759MPD2    H311270   3.912   2.838  10.540 -0.8651 -0.8596  0.1557
  759MPD2     N11271   4.228   2.674  10.266  0.3754 -0.4627 -0.4595
  759MPD2    H511272   4.270   2.586  10.240  0.5498 -0.6079  0.3071
  759MPD2    N111273   3.923   2.383  10.489 -0.2421  0.1471 -0.2512
  759MPD2    H711274   3.978   2.310  10.446 -0.9487 -0.9885  0.7848
  760MPD2     C11275   4.458   0.167  12.499  0.5416 -0.4130  0.1610
  760MPD2    C111276   4.487   0.205  12.371 -0.1944 -0.3260 -0.2453
  760MPD2    C211277   4.431   0.129  12.276 -0.2440  0.1227 -1.4442
  760MPD2    C311278   4.348   0.028  12.304 -0.3350  0.1601 -1.0675
  760MPD2    C411279   4.301   0.003  12.428  0.0891 -0.2917 -0.2723
  760MPD2    C511280   4.360   0.074  12.526  0.2199 -0.0907 -0.2631
  760MPD2     H11281   4.460   0.144  12.172  0.8120  0.4690 -1.0942
  760MPD2    H111282   4.229   4.661  12.450 -0.8571  0.2664 -1.3243
  760MPD2    H211283   4.502   0.216  12.585  1.4046 -0.9766  0.0319
  760MPD2    H311284   4.328   0.057  12.628  0.8568 -1.1416 -0.2415
  760MPD2     N11285   4.312   4.666  12.207  0.2065 -0.6420 -0.1842
  760MPD2    H511286   4.246   4.595  12.237  0.3879 -0.9415 -0.4945
  760MPD2    N111287   4.585   0.305  12.335  0.3795 -0.3711  0.5220
  760MPD2    H711288   4.617   0.316  12.239 -0.0907 -1.2087  0.2676
  761MPD2     C11289   0.227   4.002  11.487  0.1808  0.3919 -0.6093
  761MPD2    C111290   0.250   3.999  11.352  0.1546 -0.4094  0.2380
  761MPD2    C211291   0.343   4.088  11.295 -1.1734  0.5523  0.1680
  761MPD2    C311292   0.391   4.186  11.375 -0.0591 -0.1029  0.5115
  761MPD2    C411293   0.367   4.188  11.509  0.0490  0.2027  0.1235
  761MPD2    C511294   0.279   4.099  11.561  0.7420  0.4314 -0.4021
  761MPD2     H11295   0.362   4.098  11.188  0.6524  1.1248  0.5511
  761MPD2    H111296   0.403   4.267  11.574 -1.0102 -0.2465  1.2442
  761MPD2    H211297   0.165   3.927  11.535  0.5816 -0.3792 -1.2920
  761MPD2    H311298   0.264   4.107  11.668 -3.9483  1.4204 -1.1430
  761MPD2     N11299   0.487   4.284  11.323 -0.1144  0.0121  0.2274
  761MPD2    H511300   0.515   4.362  11.382  0.0932  0.6520 -0.7210
  761MPD2    N111301   0.201   3.890  11.283  0.0344 -0.2025 -0.1605
  761MPD2    H711302   0.139   3.824  11.330  1.8640 -2.5505 -1.0596
  762MPD2     C11303   0.304   3.783  10.508 -0.0641  0.1050  0.2207
  762MPD2    C111304   0.300   3.673  10.594 -0.4129 -0.4891 -0.0762
  762MPD2    C211305   0.392   3.578  10.586 -0.4092 -0.3245 -0.1624
  762MPD2    C311306   0.504   3.596  10.510  1.0392  0.3325  0.2627
  762MPD2    C411307   0.510   3.697  10.418 -0.0916 -0.7163  0.0731
  762MPD2    C511308   0.401   3.788  10.406  0.1926 -0.1333 -0.2015
  762MPD2     H11309   0.399   3.505  10.666 -0.6925 -0.4522 -0.2541
  762MPD2    H111310   0.586   3.715  10.343 -1.7765 -3.2153 -2.2422
  762MPD2    H211311   0.226   3.858  10.516  0.0054  0.1884  0.1039
  762MPD2    H311312   0.413   3.869  10.335  0.4113 -0.4233 -0.4939
  762MPD2     N11313   0.609   3.508  10.541  0.4136 -0.5526  0.0541
  762MPD2    H511314   0.595   3.451  10.623 -2.5090  1.1699  0.7652
  762MPD2    N111315   0.195   3.674  10.694 -0.1366  1.4471  0.6381
  762MPD2    H711316   0.130   3.751  10.704 -1.6656  0.3856 -1.2171
  763MPD2     C11317   2.913   4.137  16.162 -0.4658 -0.0220  0.0300
  763MPD2    C111318   2.795   4.192  16.108 -0.2319 -0.4917  0.1702
  763MPD2    C211319   2.784   4.327  16.093  0.7507 -0.6514  0.3512
  763MPD2    C311320   2.895   4.404  16.146 -0.4314  0.1629 -0.1186
  763MPD2    C411321   3.010   4.347  16.192  0.4236  0.3975  0.1992
  763MPD2    C511322   3.014   4.216  16.217 -0.4080  0.9411 -0.1966
  763MPD2     H11323   2.700   4.372  16.041  2.2729  1.4158 -0.3131
  763MPD2    H111324   3.094   4.408  16.225  0.9353 -0.4184  0.4130
  763MPD2    H211325   2.931   4.031  16.165 -0.2645 -0.0014 -0.5243
  763MPD2    H311326   3.109   4.169  16.241 -0.7768  1.1958  1.7519
  763MPD2     N11327   2.890   4.544  16.142  0.0193 -0.5248 -0.3283
  763MPD2    H511328   2.974   4.600  16.147 -1.1879  0.9761  2.4626
  763MPD2    N111329   2.683   4.113  16.055  0.0454  0.3550  0.2288
  763MPD2    H711330   2.605   4.163  16.012  1.9330  1.6063 -1.6965
  764MPD2     C11331   0.279   1.566  17.702  0.7353 -0.4911  0.4188
  764MPD2    C111332   0.181   1.492  17.637  0.6555  0.4620  0.2607
  764MPD2    C211333   0.112   1.404  17.720 -0.1922 -0.4954  0.3697
  764MPD2    C311334   0.143   1.385   0.114  0.1509 -0.6676  0.2537
  764MPD2    C411335   0.242   1.457   0.163  0.8841 -0.0916  0.8419
  764MPD2    C511336   0.311   1.541   0.088  0.5284 -0.0907 -0.0906
  764MPD2     H11337   0.038   1.337  17.676 -0.7099  0.8686 -0.8403
  764MPD2    H111338   0.276   1.460   0.266  3.8000  0.7077 -0.1421
  764MPD2    H211339   0.338   1.638  17.647 -1.8441  2.2095  1.1851
  764MPD2    H311340   0.376   1.614   0.135 -0.7481  0.0326  1.4974
  764MPD2     N11341   0.065   1.293   0.192  0.4469  0.8184 -0.9506
  764MPD2    H511342   4.718   1.261   0.143 -0.6696 -0.8366  2.0449
  764MPD2    N111343   0.146   1.514  17.496 -0.6251  0.1775  0.4036
  764MPD2    H711344   0.077   1.450  17.459  0.4985 -1.3002  0.8683
  765MPD2     C11345   0.519   3.826  16.201  0.6023 -0.2088 -0.3695
  765MPD2    C111346   0.524   3.891  16.082 -0.3670 -0.4518 -0.2495
  765MPD2    C211347   0.570   3.820  15.970 -0.1329 -0.1272  0.2457
  765MPD2    C311348   0.618   3.695  15.978  0.8520  0.5177  0.9131
  765MPD2    C411349   0.642   3.644  16.105 -0.7517 -0.0581 -0.0319
  765MPD2    C511350   0.575   3.706  16.208 -0.9148 -0.6132  0.3865
  765MPD2     H11351   0.576   3.880  15.880 -0.9161 -0.1449  0.1777
  765MPD2    H111352   0.690   3.550  16.128 -3.2420 -1.6130 -1.2138
  765MPD2    H211353   0.468   3.877  16.283 -0.5502  0.7297 -1.6793
  765MPD2    H311354   0.592   3.664  16.307 -2.2830 -2.4294 -0.1751
  765MPD2     N11355   0.681   3.631  15.870 -0.6956  0.3115 -0.2914
  765MPD2    H511356   0.694   3.691  15.789  4.2580 -0.8956 -0.3960
  765MPD2    N111357   0.466   4.024  16.073 -0.1774 -0.3094  0.2767
  765MPD2    H711358   0.426   4.057  16.160  2.3150 -1.0310  1.7069
  766MPD2     C11359   0.062   3.946  16.181 -0.0937 -0.2283 -0.6829
  766MPD2    C111360   0.036   4.034  16.078  0.2789 -0.1587 -0.0110
  766MPD2    C211361   0.082   4.001  15.957 -0.1628  1.0291  0.0051
  766MPD2    C311362   0.161   3.889  15.936 -0.3369  1.0959 -0.3289
  766MPD2    C411363   0.192   3.809  16.039  0.5042  0.2638 -0.3337
  766MPD2    C511364   0.141   3.838  16.159 -0.0465  1.2762 -0.4824
  766MPD2     H11365   0.057   4.067  15.874  1.1418  2.6703  0.9065
  766MPD2    H111366   0.250   3.719  16.024 -1.9011 -1.3836  0.2988
  766MPD2    H211367   0.032   3.972  16.282  0.7752  0.8968 -0.7193
  766MPD2    H311368   0.173   3.781  16.245  0.8072  2.3846 -0.0647
  766MPD2     N11369   0.219   3.858  15.808  0.1872 -0.4093  0.3181
  766MPD2    H511370   0.270   3.771  15.804 -0.2521 -0.8289  4.2532
  766MPD2    N111371   0.005   4.169  16.112  0.1776  0.3428 -0.0694
  766MPD2    H711372   4.676   4.175  16.189 -1.0578 -0.1270 -1.0805
  767MPD2     C11373   4.144   4.034  14.925  0.0560  0.1828 -0.4010
  767MPD2    C111374   4.279   4.052  14.931  0.4760 -0.4898 -0.0157
  767MPD2    C211375   4.370   3.946  14.910 -0.0735  0.6407 -0.9066
  767MPD2    C311376   4.321   3.816  14.897 -0.2930 -0.2027  0.3913
  767MPD2    C411377   4.184   3.800  14.906 -0.5661  0.2876  1.2444
  767MPD2    C511378   4.100   3.905  14.909  0.3479 -0.8215  0.2007
  767MPD2     H11379   4.476   3.958  14.893  0.0671 -0.3123 -0.7286
  767MPD2    H111380   4.141   3.700  14.898  0.5262 -0.2227  1.7421
  767MPD2    H211381   4.067   4.110  14.934 -2.6027 -2.5924  0.2987
  767MPD2    H311382   3.993   3.889  14.919  0.2852  0.3253  1.2699
  767MPD2     N11383   4.402   3.705  14.858  0.1083 -0.2390 -0.1044
  767MPD2    H511384   4.355   3.618  14.836 -0.3311 -0.2305  0.7743
  767MPD2    N111385   4.319   4.186  14.933 -0.4236  0.2932 -0.8131
  767MPD2    H711386   4.251   4.259  14.920  3.2744  3.6202 -1.3609
  768MPD2     C11387   0.139   2.031  11.219  0.4493 -0.2970 -0.5371
  768MPD2    C111388   0.161   2.161  11.182  0.5050 -0.1239 -0.6422
  768MPD2    C211389   0.278   2.222  11.223 -0.0014 -0.2714 -0.3030
  768MPD2    C311390   0.359   2.165  11.323  0.0165  0.0658  0.7517
  768MPD2    C411391   0.345   2.029  11.345 -0.6012 -0.2126 -0.9157
  768MPD2    C511392   0.238   1.966  11.286 -0.3623  0.3068  0.6566
  768MPD2     H11393   0.298   2.326  11.198  2.2660 -0.8807 -0.9847
  768MPD2    H111394   0.409   1.980  11.416 -2.0352  0.5585  0.9220
  768MPD2    H211395   0.052   1.981  11.178  0.0379  0.5665 -0.7256
  768MPD2    H311396   0.228   1.858  11.294  1.0368  0.1393  0.1533
  768MPD2     N11397   0.468   2.239  11.381  0.2490 -0.3542  0.6368
  768MPD2    H511398   0.527   2.189  11.446 -1.5780 -2.4943  0.6705
  768MPD2    N111399   0.072   2.230  11.097  0.0733  0.2451 -0.1139
  768MPD2    H711400   0.111   2.315  11.058 -0.4984  0.5215 -0.0846
  769MPD2     C11401   1.365   0.958  14.075  0.3295 -0.0380 -0.5352
  769MPD2    C111402   1.366   0.880  14.191 -0.0074 -0.6540 -1.1712
  769MPD2    C211403   1.413   0.947  14.301 -0.9716  0.9956  0.1410
  769MPD2    C311404   1.433   1.089  14.298 -0.2037  0.1529 -0.5132
  769MPD2    C411405   1.413   1.165  14.186  0.4330 -0.4319 -0.6665
  769MPD2    C511406   1.375   1.097  14.074 -0.0471 -0.6625  0.7379
  769MPD2     H11407   1.432   0.891  14.392  1.6600  1.2984 -0.2468
  769MPD2    H111408   1.414   1.274  14.192  0.5041 -0.4221 -0.8790
  769MPD2    H211409   1.336   0.920  13.978  0.9216 -3.0054  0.4503
  769MPD2    H311410   1.375   1.138  13.974 -0.7439 -0.0112  1.0055
  769MPD2     N11411   1.459   1.142  14.424  0.3230 -0.4262 -0.2121
  769MPD2    H511412   1.445   1.076  14.500 -2.8754 -0.8354 -1.1716
  769MPD2    N111413   1.322   0.746  14.184  0.3684  0.1996  0.5361
  769MPD2    H711414   1.267   0.723  14.101  2.9286 -1.5260 -0.6866
  770MPD2     C11415   1.345   4.434  14.584  1.0835  0.1655  0.4317
  770MPD2    C111416   1.215   4.484  14.611 -0.3408  1.0151  0.4587
  770MPD2    C211417   1.189   4.621  14.566  0.0853 -0.6713  0.3939
  770MPD2    C311418   1.284   4.693  14.498  0.3416 -0.1127 -0.0704
  770MPD2    C411419   1.409   4.638  14.477 -0.3451 -0.5513  0.3531
  770MPD2    C511420   1.439   4.517  14.532 -0.2914  0.1000 -0.2744
  770MPD2     H11421   1.094   4.668  14.591 -0.0541 -0.6334 -0.2129
  770MPD2    H111422   1.493   4.677  14.419 -0.5342 -0.8175 -0.0938
  770MPD2    H211423   1.371   4.330  14.600  0.6977  0.1960  1.2538
  770MPD2    H311424   1.538   4.473  14.529  0.0742  0.7861  2.0531
  770MPD2     N11425   1.248   0.088  14.454 -0.4785 -0.4400  0.2229
  770MPD2    H511426   1.155   0.126  14.467 -0.5017 -0.0818 -1.0293
  770MPD2    N111427   1.119   4.404  14.675  0.2717  0.3374 -0.4671
  770MPD2    H711428   1.157   4.321  14.719 -1.0358 -2.4872 -4.6495
  771MPD2     C11429   2.458   3.187  13.556 -0.4020 -0.0205  0.3762
  771MPD2    C111430   2.372   3.294  13.548  0.6463  0.2664  0.4793
  771MPD2    C211431   2.238   3.277  13.567 -0.9696  0.2441  0.5898
  771MPD2    C311432   2.182   3.157  13.597  0.2528  0.2436 -0.3877
  771MPD2    C411433   2.270   3.050  13.600  0.0497 -0.5868 -0.4449
  771MPD2    C511434   2.405   3.065  13.585 -0.1157 -0.1535  0.8134
  771MPD2     H11435   2.191   3.374  13.571  0.5255  0.8899  2.9198
  771MPD2    H111436   2.232   2.949  13.606  0.7179 -0.8069  0.0663
  771MPD2    H211437   2.564   3.199  13.535 -0.4910  0.5952  0.2833
  771MPD2    H311438   2.464   2.976  13.602 -0.7538 -1.3808 -3.5641
  771MPD2     N11439   2.050   3.147  13.633  0.3418 -0.2075 -0.3879
  771MPD2    H511440   1.985   3.223  13.613  1.5063 -0.2237 -4.2032
  771MPD2    N111441   2.409   3.421  13.506  0.4791 -0.9160 -0.2417
  771MPD2    H711442   2.336   3.491  13.499 -1.5732 -2.9900  0.4700
  772MPD2     C11443   1.982   3.819  13.323  0.1539 -0.0550 -1.2323
  772MPD2    C111444   2.060   3.780  13.434  0.5248 -0.3354 -0.7813
  772MPD2    C211445   1.988   3.733  13.543  0.0499  0.9451 -0.2541
  772MPD2    C311446   1.853   3.734  13.548 -0.1293  0.9410  0.3367
  772MPD2    C411447   1.785   3.776  13.436 -0.4135 -0.2163 -0.2564
  772MPD2    C511448   1.848   3.832  13.329  1.0534 -0.9366 -0.5215
  772MPD2     H11449   2.053   3.694  13.620 -0.3316  0.4384 -0.1869
  772MPD2    H111450   1.677   3.770  13.423 -0.3494 -2.5268  0.1260
  772MPD2    H211451   2.027   3.860  13.234 -0.0962  2.5755 -0.1504
  772MPD2    H311452   1.803   3.881  13.243 -1.1774 -1.7363  0.1774
  772MPD2     N11453   1.785   3.670  13.651 -0.2212  0.0229 -1.2499
  772MPD2    H511454   1.686   3.687  13.663  0.0098  1.4319 -1.3344
  772MPD2    N111455   2.205   3.781  13.442 -0.4036  0.5066  0.1979
  772MPD2    H711456   2.248   3.740  13.524  1.0582  2.6328  0.5077
  773MPD2     C11457   0.971   0.119   0.524 -0.1169  0.0493 -0.3179
  773MPD2    C111458   1.014   0.039   0.417  0.2189 -0.3515  0.2161
  773MPD2    C211459   1.127   4.702   0.432 -0.4160 -0.6479 -0.3737
  773MPD2    C311460   1.188   4.691   0.557  0.1570 -0.4034 -0.2774
  773MPD2    C411461   1.141   0.031   0.660 -0.1916  0.7209  0.8560
  773MPD2    C511462   1.036   0.118   0.646  0.4295  0.3629  0.4521
  773MPD2     H11463   1.155   4.632   0.354 -0.4502 -0.0049 -0.9647
  773MPD2    H111464   1.180   0.020   0.760  1.0335 -0.8375  0.2032
  773MPD2    H211465   0.896   0.193   0.503  1.1441  1.8889  1.6694
  773MPD2    H311466   1.002   0.172   0.734  1.7412  2.8675 -0.5653
  773MPD2     N11467   1.295   4.594   0.569 -0.1916  0.2237 -0.3765
  773MPD2    H511468   1.317   4.538   0.487 -0.4529 -1.3659  0.6363
  773MPD2    N111469   0.969   0.047   0.281 -0.4165 -0.5005 -0.2410
  773MPD2    H711470   1.032   0.000   0.217 -0.2117  1.9340 -1.7954
  774MPD2     C11471   0.327   3.645  13.554  0.5216  0.4295 -0.6326
  774MPD2    C111472   0.392   3.679  13.671 -0.0992 -0.9382  0.0442
  774MPD2    C211473   0.460   3.796  13.676  0.0676 -0.5836  1.0121
  774MPD2    C311474   0.477   3.866  13.554  0.9036  0.2257  0.1309
  774MPD2    C411475   0.417   3.833  13.435 -0.3423 -0.3314  0.3044
  774MPD2    C511476   0.333   3.724  13.444  1.0562  0.0218  0.0389
  774MPD2     H11477   0.515   3.830  13.763  1.2518  2.2871 -0.8406
  774MPD2    H111478   0.430   3.890  13.343 -1.6154 -0.8644 -0.2026
  774MPD2    H211479   0.263   3.559  13.541 -0.1137  0.2484  3.6419
  774MPD2    H311480   0.298   3.678  13.352 -1.0431  0.7184  0.4979
  774MPD2     N11481   0.576   3.968  13.550  0.0219  0.2116 -0.1245
  774MPD2    H511482   0.609   3.995  13.642  0.4953  0.1705 -0.2776
  774MPD2    N111483   0.394   3.605  13.793 -0.2155 -0.3931  0.1753
  774MPD2    H711484   0.434   3.649  13.875 -0.9797  0.7827 -0.0821
  775MPD2     C11485   1.181   0.672  15.630  0.3946 -0.3430 -0.6756
  775MPD2    C111486   1.213   0.789  15.698 -0.4003  0.1334 -0.7048
  775MPD2    C211487   1.260   0.896  15.626 -0.0614  0.4156  0.1384
  775MPD2    C311488   1.275   0.887  15.489  0.1537 -0.0535  0.1704
  775MPD2    C411489   1.251   0.769  15.426  0.6234  0.7450  0.1499
  775MPD2    C511490   1.192   0.661  15.491 -0.1495 -0.0296 -0.4484
  775MPD2     H11491   1.303   0.983  15.674  1.6691  0.0102 -0.6801
  775MPD2    H111492   1.259   0.767  15.318 -0.6977 -0.3097  0.0728
  775MPD2    H211493   1.140   0.586  15.682  2.6070 -0.9069  0.1103
  775MPD2    H311494   1.172   0.574  15.429  2.0374  0.4891 -1.8897
  775MPD2     N11495   1.347   0.991  15.415 -0.3263 -0.1392  0.3100
  775MPD2    H511496   1.394   0.961  15.330  2.3599  0.3409  1.6139
  775MPD2    N111497   1.208   0.782  15.844 -0.0443 -0.3122 -0.5177
  775MPD2    H711498   1.201   0.690  15.886  1.5547 -1.2631 -2.3554
  776MPD2     C11499   1.280   0.839  11.794 -0.0225  0.3602  0.1405
  776MPD2    C111500   1.149   0.883  11.762  0.0538 -0.4260  0.0027
  776MPD2    C211501   1.125   1.013  11.748  0.3333 -0.0628 -0.6477
  776MPD2    C311502   1.231   1.106  11.764  0.2769 -0.5502  0.5469
  776MPD2    C411503   1.360   1.057  11.802  0.3960 -0.1552  0.0153
  776MPD2    C511504   1.382   0.923  11.799 -0.1695 -0.2371 -0.0786
  776MPD2     H11505   1.026   1.039  11.710 -0.2309  0.0734  0.9082
  776MPD2    H111506   1.448   1.119  11.817  0.1401  0.1698  0.1679
  776MPD2    H211507   1.297   0.732  11.805  1.7431  0.6733  0.5196
  776MPD2    H311508   1.481   0.885  11.820 -1.2332 -3.5203 -1.1275
  776MPD2     N11509   1.200   1.251  11.750  0.3379  0.1156 -0.3322
  776MPD2    H511510   1.281   1.309  11.768 -0.4606  1.3705 -0.7952
  776MPD2    N111511   1.047   0.785  11.782 -0.5645  0.3312 -0.6853
  776MPD2    H711512   1.092   0.694  11.791 -0.6563  0.4747  1.2580
  777MPD2     C11513   0.950   3.500   1.126 -0.2771 -0.5370 -0.3433
  777MPD2    C111514   0.979   3.379   1.185 -0.7582 -0.2981  0.3183
  777MPD2    C211515   0.969   3.261   1.111  0.2236  0.0177  0.1159
  777MPD2    C311516   0.921   3.270   0.980  0.0351 -0.5158 -0.4767
  777MPD2    C411517   0.896   3.387   0.929  0.1528 -0.1437 -0.0757
  777MPD2    C511518   0.914   3.505   0.999  0.3017  0.3010  0.1122
  777MPD2     H11519   1.005   3.167   1.153  0.9940  0.7658  1.1154
  777MPD2    H111520   0.850   3.407   0.833 -1.1454  1.3917  0.8669
  777MPD2    H211521   0.959   3.599   1.170  1.8083 -1.1162  0.5101
  777MPD2    H311522   0.912   3.600   0.945  1.1215 -0.6697 -1.6302
  777MPD2     N11523   0.891   3.151   0.912 -0.7288  0.6075  0.1966
  777MPD2    H511524   0.882   3.062   0.960 -2.8846  0.5384 -0.3089
  777MPD2    N111525   1.031   3.388   1.320 -0.0802 -0.4886  0.0200
  777MPD2    H711526   1.031   3.474   1.374  2.9424 -0.4322 -0.0434
  778MPD2     C11527   2.460   3.298  15.163  0.3204  0.7060 -0.4795
  778MPD2    C111528   2.512   3.202  15.071  0.1976 -0.7254 -0.2795
  778MPD2    C211529   2.588   3.237  14.953  0.4712  0.4116 -0.6851
  778MPD2    C311530   2.608   3.371  14.931  0.1070 -0.0206  0.0002
  778MPD2    C411531   2.544   3.462  15.011  0.2803  0.0725  0.1483
  778MPD2    C511532   2.467   3.433  15.123  0.6629 -0.1640 -0.2209
  778MPD2     H11533   2.618   3.162  14.880  0.6332  0.3725 -0.5771
  778MPD2    H111534   2.557   3.569  14.997 -3.7042  0.6022  0.6164
  778MPD2    H211535   2.412   3.270  15.256  3.0776 -1.3471  0.3237
  778MPD2    H311536   2.432   3.519  15.178  1.6250 -0.6662  1.1757
  778MPD2     N11537   2.691   3.408  14.823  0.0526  0.4552 -0.3424
  778MPD2    H511538   2.750   3.334  14.786 -0.2665  0.1636 -0.2686
  778MPD2    N111539   2.499   3.067  15.102 -0.1517  0.6760 -0.3028
  778MPD2    H711540   2.517   2.995  15.032 -1.5972 -0.8349  0.8709
  779MPD2     C11541   1.942   1.832  14.373  0.4516  0.5963 -0.0581
  779MPD2    C111542   2.081   1.847  14.361 -0.8455 -0.1193  0.4848
  779MPD2    C211543   2.128   1.980  14.366 -0.0146 -0.3971  0.0250
  779MPD2    C311544   2.053   2.092  14.390  0.2269 -0.0781 -0.3910
  779MPD2    C411545   1.918   2.069  14.408  0.1881  0.0757 -0.2198
  779MPD2    C511546   1.865   1.943  14.408 -0.0250  0.2072 -0.0647
  779MPD2     H11547   2.237   1.982  14.365 -0.0268  0.1871  0.8830
  779MPD2    H111548   1.851   2.153  14.421 -0.6862 -0.4638 -1.2602
  779MPD2    H211549   1.896   1.734  14.372 -0.0089  0.8101  0.2677
  779MPD2    H311550   1.759   1.923  14.418  0.1786  0.0466  1.9115
  779MPD2     N11551   2.120   2.214  14.389 -0.1035  0.0459  0.4499
  779MPD2    H511552   2.220   2.202  14.373 -0.3577 -0.3308 -0.8221
  779MPD2    N111553   2.167   1.748  14.321 -0.4408 -0.2035  0.3291
  779MPD2    H711554   2.268   1.756  14.322 -0.5076  0.6931  0.0226
  780MPD2     C11555   2.297   1.895   1.160 -0.1123  0.5870  0.4905
  780MPD2    C111556   2.201   1.990   1.143  0.6433 -0.1958 -0.2294
  780MPD2    C211557   2.144   2.002   1.020  0.5125  0.3020 -0.0492
  780MPD2    C311558   2.203   1.943   0.909 -1.0063  0.0208 -0.9581
  780MPD2    C411559   2.293   1.841   0.924 -0.7340 -0.5914  0.1177
  780MPD2    C511560   2.336   1.817   1.052  0.1199  0.4423 -0.5305
  780MPD2     H11561   2.059   2.066   1.002 -0.0731 -0.3619  0.3793
  780MPD2    H111562   2.346   1.801   0.838  2.1598  0.8805  1.2144
  780MPD2    H211563   2.354   1.876   1.250  0.5715  0.1409 -0.0376
  780MPD2    H311564   2.412   1.741   1.064 -1.9321 -1.8075 -1.9096
  780MPD2     N11565   2.154   1.985   0.788  0.0077  0.5825 -0.3666
  780MPD2    H511566   2.070   2.044   0.790  0.1195  0.6894  1.3948
  780MPD2    N111567   2.148   2.051   1.262  0.0698 -0.6422  0.6048
  780MPD2    H711568   2.177   2.015   1.352  1.4485  0.0238  0.4336
  781MPD2     C11569   3.444   3.996  12.138  0.1914 -0.0035  0.1188
  781MPD2    C111570   3.538   3.927  12.209 -0.3794 -0.6986  0.7151
  781MPD2    C211571   3.663   3.901  12.150 -0.1112  0.4693 -0.1155
  781MPD2    C311572   3.692   3.951  12.021  0.1558 -0.4833  0.0805
  781MPD2    C411573   3.596   4.025  11.956  0.3963  0.4341 -0.0464
  781MPD2    C511574   3.467   4.040  12.008 -0.3045 -0.0976  0.0484
  781MPD2     H11575   3.732   3.843  12.211  1.1570  2.0028 -0.1024
  781MPD2    H111576   3.604   4.069  11.857 -0.1350 -0.5772 -0.5461
  781MPD2    H211577   3.348   4.022  12.183  0.3331 -0.3445  0.6268
  781MPD2    H311578   3.392   4.083  11.943  0.3427 -0.3767 -0.8759
  781MPD2     N11579   3.807   3.908  11.959 -0.0943 -0.3533  0.3906
  781MPD2    H511580   3.870   3.849  12.013 -0.3310 -1.2305 -0.2833
  781MPD2    N111581   3.522   3.867  12.336 -0.2211  0.2124  0.0208
  781MPD2    H711582   3.602   3.834  12.389 -1.1488 -1.6984  0.2436
  782MPD2     C11583   1.312   0.304  10.335 -0.0830  0.4909  0.9783
  782MPD2    C111584   1.422   0.219  10.311 -0.8055 -0.1775 -0.2649
  782MPD2    C211585   1.536   0.227  10.393  0.1542  0.3667 -0.4508
  782MPD2    C311586   1.532   0.306  10.505  0.8240 -0.5867  0.4661
  782MPD2    C411587   1.430   0.398  10.521  0.5345  0.6718 -0.3542
  782MPD2    C511588   1.329   0.400  10.430 -0.0311 -0.2732 -0.1392
  782MPD2     H11589   1.617   0.156  10.381 -1.3342 -1.0629 -2.0679
  782MPD2    H111590   1.439   0.473  10.599  1.5828 -0.6676  0.8155
  782MPD2    H211591   1.231   0.310  10.263  3.1796  1.6775 -2.5879
  782MPD2    H311592   1.249   0.472  10.437 -1.1419 -1.4514 -0.7628
  782MPD2     N11593   1.645   0.299  10.590  0.4773  0.0579 -0.3207
  782MPD2    H511594   1.732   0.260  10.556  0.3760  1.2859 -1.9440
  782MPD2    N111595   1.412   0.124  10.214 -0.4163 -0.0040 -0.1318
  782MPD2    H711596   1.322   0.105  10.172 -0.7217  2.6778 -0.6262
  783MPD2     C11597   0.739   4.455  10.615  0.0702  0.0308  0.1275
  783MPD2    C111598   0.844   4.437  10.697 -0.0475 -0.6572  1.1597
  783MPD2    C211599   0.969   4.427  10.641 -0.0321  0.3970  0.2423
  783MPD2    C311600   0.999   4.454  10.508  0.1161  0.4004 -0.3302
  783MPD2    C411601   0.888   4.462  10.420  0.0212 -0.2358 -0.3117
  783MPD2    C511602   0.766   4.464  10.477  0.9190 -0.5704 -0.2455
  783MPD2     H11603   1.054   4.405  10.704  0.4950 -1.8994 -1.2844
  783MPD2    H111604   0.891   4.495  10.317 -0.1231 -1.8366 -0.8224
  783MPD2    H211605   0.638   4.463  10.654 -0.2315  1.1202 -0.8933
  783MPD2    H311606   0.684   4.488  10.410 -0.7104  2.3609  2.8063
  783MPD2     N11607   1.137   4.458  10.458 -0.0354  0.4123  0.6912
  783MPD2    H511608   1.207   4.440  10.529  0.9801  0.2822 -0.3394
  783MPD2    N111609   0.817   4.427  10.838 -0.4764 -0.2361  0.4972
  783MPD2    H711610   0.718   4.418  10.859 -0.7525 -0.8607 -1.0764
  784MPD2     C11611   3.743   0.307   0.465 -0.2436  0.4432  0.3370
  784MPD2    C111612   3.678   0.336   0.580  0.1342  0.3863 -0.7195
  784MPD2    C211613   3.552   0.398   0.571  0.6788  0.5998  0.5036
  784MPD2    C311614   3.488   0.409   0.445  0.0941  0.2295 -0.7052
  784MPD2    C411615   3.551   0.364   0.331  0.5816  0.1504  0.3207
  784MPD2    C511616   3.684   0.326   0.346 -0.4066 -0.2844  0.1517
  784MPD2     H11617   3.503   0.438   0.659  0.6890  0.0941  0.7401
  784MPD2    H111618   3.519   0.382   0.229  0.6031  0.7574  0.4170
  784MPD2    H211619   3.844   0.267   0.464 -0.2662  0.4369 -1.6382
  784MPD2    H311620   3.750   0.298   0.265 -1.9215 -1.9626 -0.4930
  784MPD2     N11621   3.362   0.477   0.438 -0.0024  0.2131  0.3896
  784MPD2    H511622   3.320   0.503   0.527 -0.0499  0.6350  0.2443
  784MPD2    N111623   3.733   0.323   0.709  0.0771  0.1813  0.1796
  784MPD2    H711624   3.683   0.372   0.783 -1.3844  1.1485 -1.4551
  785MPD2     C11625   4.065   3.239  10.637 -0.4237 -0.1348 -0.1010
  785MPD2    C111626   3.983   3.341  10.676 -0.3804  0.0305  0.4875
  785MPD2    C211627   3.852   3.354  10.627 -0.6074 -0.7724  0.1727
  785MPD2    C311628   3.805   3.258  10.548 -0.1445 -0.2263 -0.4482
  785MPD2    C411629   3.889   3.152  10.517 -0.2084  0.1182  0.3641
  785MPD2    C511630   4.021   3.152  10.553 -0.6286 -0.2037  0.3764
  785MPD2     H11631   3.785   3.436  10.649  1.7181  1.5203 -1.3766
  785MPD2    H111632   3.860   3.068  10.455  1.2354  0.3151 -0.5725
  785MPD2    H211633   4.169   3.225  10.662 -0.2764  3.2423  1.1237
  785MPD2    H311634   4.081   3.072  10.512  0.5076 -0.0821  1.8252
  785MPD2     N11635   3.670   3.272  10.503  0.4437  0.0799  0.4130
  785MPD2    H511636   3.619   3.351  10.541 -0.7287 -0.1235 -0.7297
  785MPD2    N111637   4.038   3.435  10.757  0.0857 -0.1406  0.6529
  785MPD2    H711638   4.133   3.418  10.788 -0.2004 -1.0624  1.0219
  786MPD2     C11639   2.370   1.206  14.891  0.6270 -0.0457  0.1627
  786MPD2    C111640   2.505   1.182  14.906  0.6478  0.1757  0.3400
  786MPD2    C211641   2.547   1.167  15.041 -0.1560 -0.1176 -0.3616
  786MPD2    C311642   2.456   1.156  15.148  0.3117  0.0810  0.5130
  786MPD2    C411643   2.327   1.165  15.127 -0.3914 -0.2989 -0.1526
  786MPD2    C511644   2.287   1.186  15.000  0.7044 -0.1110  0.3401
  786MPD2     H11645   2.652   1.166  15.068 -0.0451 -1.3038 -0.8480
  786MPD2    H111646   2.265   1.162  15.216  1.7085 -1.0392  1.2757
  786MPD2    H211647   2.322   1.229  14.796 -1.7277 -2.0877  0.8587
  786MPD2    H311648   2.181   1.206  14.986  1.0919  0.9582 -1.1111
  786MPD2     N11649   2.501   1.143  15.280 -0.2813 -0.2752  0.5006
  786MPD2    H511650   2.429   1.133  15.350 -0.5567 -0.0228  0.2513
  786MPD2    N111651   2.603   1.180  14.803  0.4550  0.6246  0.6749
  786MPD2    H711652   2.701   1.177  14.831  0.2092  1.3800  1.6428
  787MPD2     C11653   2.965   0.758  15.013 -0.1118 -0.3625  0.4159
  787MPD2    C111654   2.996   0.746  14.881  0.4556 -0.3526 -0.4948
  787MPD2    C211655   3.087   0.655  14.848 -0.3105  0.5250 -0.2231
  787MPD2    C311656   3.131   0.554  14.932  0.1240  0.6469  0.4438
  787MPD2    C411657   3.089   0.560  15.061  0.0114  0.3739 -0.8189
  787MPD2    C511658   3.006   0.659  15.099 -0.5868  0.4374 -0.0219
  787MPD2     H11659   3.127   0.667  14.748 -0.8487 -0.2131 -0.5273
  787MPD2    H111660   3.124   0.489  15.135 -0.3834  2.6389  1.5427
  787MPD2    H211661   2.888   0.822  15.054  0.3145  0.4696 -0.0995
  787MPD2    H311662   2.977   0.656  15.204 -0.2809  0.1058  0.0570
  787MPD2     N11663   3.219   0.462  14.871 -0.7767  0.2317 -0.0482
  787MPD2    H511664   3.243   0.475  14.773 -0.4931 -1.4179 -0.2008
  787MPD2    N111665   2.954   0.852  14.801 -0.4274 -0.0047  0.8930
  787MPD2    H711666   2.893   0.919  14.847 -0.9161 -0.6174  1.1407
  788MPD2     C11667   4.453   0.144   1.310 -0.6704  0.0243  0.1641
  788MPD2    C111668   4.536   0.101   1.208  0.4098  0.1521  0.2437
  788MPD2    C211669   4.574   0.188   1.108  0.0967 -0.4821  0.0916
  788MPD2    C311670   4.527   0.319   1.104 -0.1327  0.1253  0.6494
  788MPD2    C411671   4.454   0.360   1.205 -0.6101  0.1222  0.0546
  788MPD2    C511672   4.409   0.275   1.303 -0.1768  0.7727  0.0630
  788MPD2     H11673   4.645   0.149   1.035  2.2994  2.6165  0.5808
  788MPD2    H111674   4.424   0.463   1.192  3.0519  1.0860 -0.7446
  788MPD2    H211675   4.412   0.073   1.381 -1.5278 -0.2198 -0.5798
  788MPD2    H311676   4.343   0.306   1.383  1.0113  0.4431  1.1677
  788MPD2     N11677   4.560   0.412   1.002 -0.1090  0.1547  0.3672
  788MPD2    H511678   4.502   0.494   0.990  0.8505  0.8597  0.4746
  788MPD2    N111679   4.555   4.698   1.195  0.1043  0.1675 -0.1718
  788MPD2    H711680   4.627   4.674   1.129 -0.3384 -1.4491 -0.0580
  789MPD2     C11681   0.462   4.103  17.198  0.6295  0.6338 -0.4076
  789MPD2    C111682   0.344   4.089  17.262  0.1100  0.4597  0.2293
  789MPD2    C211683   0.248   4.184  17.233 -0.6458  0.7120  0.2601
  789MPD2    C311684   0.269   4.278  17.132  0.0622  0.3302  0.2890
  789MPD2    C411685   0.389   4.288  17.066  0.0749 -0.3317  0.3860
  789MPD2    C511686   0.486   4.201  17.103 -0.5668 -0.5151 -0.4288
  789MPD2     H11687   0.147   4.182  17.273 -0.6834 -0.6114  0.0945
  789MPD2    H111688   0.420   4.357  16.988  1.7051 -1.3825  0.1225
  789MPD2    H211689   0.545   4.035  17.214  0.6518  0.8389  0.3416
  789MPD2    H311690   0.585   4.210  17.059  0.0097 -0.8920  0.8062
  789MPD2     N11691   0.165   4.365  17.106  0.4904 -0.2442 -0.7736
  789MPD2    H511692   0.090   4.365  17.174  0.8057  0.3182 -0.4275
  789MPD2    N111693   0.313   3.976  17.341  0.2905  0.0827 -0.1726
  789MPD2    H711694   0.220   3.975  17.381  0.1715  0.5035 -0.4298
  790MPD2     C11695   1.824   0.573  13.766  0.5988  0.4856  0.4258
  790MPD2    C111696   1.802   0.443  13.728 -0.1497  0.0297  0.4646
  790MPD2    C211697   1.721   0.409  13.616 -0.1382 -0.0638 -0.1703
  790MPD2    C311698   1.657   0.514  13.553  0.4127  0.0934 -0.6645
  790MPD2    C411699   1.666   0.644  13.599  0.3067  0.0654  0.4232
  790MPD2    C511700   1.755   0.670  13.702 -0.2581  0.3894  0.1775
  790MPD2     H11701   1.709   0.307  13.583  2.4110 -0.3848 -0.1013
  790MPD2    H111702   1.616   0.723  13.543 -0.6828 -0.7262  0.1874
  790MPD2    H211703   1.895   0.602  13.843 -0.4073 -0.1629  1.5890
  790MPD2    H311704   1.786   0.768  13.737  1.8032  0.6166 -2.3434
  790MPD2     N11705   1.577   0.486  13.441  0.5749  0.1819 -0.1397
  790MPD2    H511706   1.562   0.387  13.429  0.2040  0.1804  0.3179
  790MPD2    N111707   1.874   0.355  13.807 -0.6369  0.9617 -0.1530
  790MPD2    H711708   1.930   0.407  13.873 -0.0856 -1.3453  1.1874
  791MPD2     C11709   0.929   0.493  13.408  0.0805 -0.4591 -0.0505
  791MPD2    C111710   0.975   0.408  13.307  0.0074  0.6126  0.9046
  791MPD2    C211711   0.880   0.342  13.232  0.1875  0.7886  0.1487
  791MPD2    C311712   0.742   0.350  13.268  0.1959 -0.1613 -0.3282
  791MPD2    C411713   0.701   0.424  13.380  0.1892  0.0901 -0.5683
  791MPD2    C511714   0.790   0.492  13.449  0.6537 -0.2796 -0.7767
  791MPD2     H11715   0.914   0.279  13.150 -0.4576  1.7112 -0.8284
  791MPD2    H111716   0.595   0.441  13.396  0.3274  1.6347 -1.3344
  791MPD2    H211717   0.996   0.544  13.476 -1.9691 -0.1288  1.7063
  791MPD2    H311718   0.748   0.556  13.526 -1.4059 -3.1537  0.4716
  791MPD2     N11719   0.653   0.274  13.188  0.0672 -0.3842 -0.0354
  791MPD2    H511720   0.681   0.251  13.093  2.6421  1.0047  0.3717
  791MPD2    N111721   1.114   0.413  13.276 -0.0427 -0.2411 -0.0734
  791MPD2    H711722   1.165   0.485  13.326 -1.1697  1.5888 -1.5772
  792MPD2     C11723   1.260   0.511  11.366 -0.2338 -0.3377 -0.9701
  792MPD2    C111724   1.183   0.621  11.390  0.4551  0.2520 -0.4065
  792MPD2    C211725   1.042   0.599  11.377 -0.4115  0.5780  0.6224
  792MPD2    C311726   0.991   0.477  11.337 -0.3491  0.0156 -0.2143
  792MPD2    C411727   1.078   0.371  11.318  0.6814  0.2541 -0.1063
  792MPD2    C511728   1.208   0.392  11.341  0.5021  0.1677 -0.2078
  792MPD2     H11729   0.967   0.677  11.389 -0.9179  0.4246 -1.3866
  792MPD2    H111730   1.045   0.275  11.279  1.1222  0.2002 -0.3511
  792MPD2    H211731   1.367   0.514  11.380 -0.1471 -1.6660 -1.3440
  792MPD2    H311732   1.272   0.306  11.326  0.1488 -0.2489  0.6430
  792MPD2     N11733   0.855   0.447  11.323  0.0501  0.1580 -0.5364
  792MPD2    H511734   0.838   0.347  11.326  1.3330  0.0124  2.6170
  792MPD2    N111735   1.249   0.739  11.428  0.1294  0.1310 -0.2582
  792MPD2    H711736   1.350   0.743  11.439  0.3580 -0.9733 -1.9654
  793MPD2     C11737   0.406   0.730  10.609 -0.3003  0.2411  0.5631
  793MPD2    C111738   0.494   0.799  10.697 -0.2599  0.2058 -0.2675
  793MPD2    C211739   0.497   0.753  10.826 -0.3125 -0.0720 -0.1809
  793MPD2    C311740   0.422   0.646  10.876  0.0352 -0.5938 -0.2929
  793MPD2    C411741   0.346   0.577  10.785  1.5167 -0.1758 -0.4686
  793MPD2    C511742   0.336   0.626  10.659 -0.3164 -0.5525  0.2627
  793MPD2     H11743   0.566   0.812  10.885  0.4041  0.6294 -1.7307
  793MPD2    H111744   0.289   0.485  10.798 -1.4921  1.9065  1.1312
  793MPD2    H211745   0.372   0.771  10.515  0.6520  1.8460  0.9190
  793MPD2    H311746   0.265   0.574  10.595 -0.4799 -1.1964  0.9551
  793MPD2     N11747   0.431   0.610  11.013 -0.3542 -0.8570 -0.2335
  793MPD2    H511748   0.501   0.657  11.070  0.4306  0.7620 -2.5348
  793MPD2    N111749   0.575   0.909  10.664 -0.1255  0.5520 -0.8349
  793MPD2    H711750   0.627   0.953  10.740 -2.8983 -0.8669  1.8449
  794MPD2     C11751   0.528   0.614  17.528 -0.3951 -0.3441  0.3426
  794MPD2    C111752   0.555   0.500  17.454 -0.2879 -0.3106  0.5707
  794MPD2    C211753   0.527   0.495  17.313  0.5998 -0.3128  0.2415
  794MPD2    C311754   0.474   0.612  17.263 -0.1006  0.1594  0.5038
  794MPD2    C411755   0.446   0.729  17.339 -1.1812  0.1212  0.3538
  794MPD2    C511756   0.473   0.726  17.471 -0.0440  0.4492 -0.6632
  794MPD2     H11757   0.560   0.404  17.264  0.7658 -0.0881 -0.0611
  794MPD2    H111758   0.399   0.814  17.291 -0.8856  0.1954  0.1966
  794MPD2    H211759   0.578   0.622  17.624 -0.1461 -1.6320  0.3257
  794MPD2    H311760   0.457   0.817  17.528 -1.6958 -1.4841  1.9628
  794MPD2     N11761   0.435   0.626  17.125 -0.4650  0.6983 -0.5617
  794MPD2    H511762   0.395   0.714  17.097 -1.8457  0.9174  2.0998
  794MPD2    N111763   0.633   0.399  17.510  0.2626 -0.4924 -0.4224
  794MPD2    H711764   0.664   0.323  17.450 -0.0343 -0.5513 -0.4979
  795MPD2     C11765   3.531   2.242  13.829 -0.1959  0.2179  0.2599
  795MPD2    C111766   3.464   2.156  13.914  1.0752  0.1283  0.4102
  795MPD2    C211767   3.527   2.038  13.956  0.5154 -0.2005 -0.5282
  795MPD2    C311768   3.653   2.012  13.914  0.0860 -0.2532 -0.6605
  795MPD2    C411769   3.713   2.095  13.828 -0.0731  0.1621  0.1336
  795MPD2    C511770   3.656   2.205  13.790 -0.7530 -0.2145  0.0657
  795MPD2     H11771   3.482   1.959  14.016 -3.0582  0.8629 -1.8249
  795MPD2    H111772   3.810   2.066  13.789  1.4421  0.0459  4.0110
  795MPD2    H211773   3.494   2.336  13.792 -1.2145  1.0761  3.4491
  795MPD2    H311774   3.716   2.265  13.723 -3.0688 -1.1108 -2.8158
  795MPD2     N11775   3.719   1.887  13.960  0.3368  0.8022  0.5429
  795MPD2    H511776   3.663   1.820  14.012 -0.5438  0.5441 -0.7307
  795MPD2    N111777   3.331   2.183  13.943  0.0721 -1.0899  0.2894
  795MPD2    H711778   3.279   2.116  13.999 -1.7442 -0.3269 -0.4848
  796MPD2     C11779   2.937   3.521  16.114  0.5976 -0.3317  0.3035
  796MPD2    C111780   2.985   3.647  16.134  0.5464  0.4551  0.5487
  796MPD2    C211781   2.969   3.737  16.033  0.7326  0.2778 -0.4141
  796MPD2    C311782   2.891   3.709  15.928 -0.1451 -0.2089  0.0423
  796MPD2    C411783   2.841   3.582  15.915  0.0727 -0.1923 -0.5170
  796MPD2    C511784   2.867   3.481  16.003 -0.1899  1.1414 -0.2034
  796MPD2     H11785   3.008   3.838  16.043  0.4192  0.2506  1.1318
  796MPD2    H111786   2.775   3.564  15.831  1.3414  2.3644 -2.0464
  796MPD2    H211787   2.951   3.444  16.190 -2.8170 -2.0203 -0.8004
  796MPD2    H311788   2.829   3.380  15.999  0.8843  0.6659  1.8691
  796MPD2     N11789   2.874   3.807  15.829 -0.1975 -0.4569 -0.4175
  796MPD2    H511790   2.933   3.889  15.829 -1.2126  0.2786 -0.6691
  796MPD2    N111791   3.052   3.670  16.255  0.1536 -0.9704  0.2052
  796MPD2    H711792   3.036   3.591  16.316  1.7855  0.4141  2.4132
  797MPD2     C11793   4.195   3.854   0.057 -0.1512  0.5039  0.6596
  797MPD2    C111794   4.243   3.965  17.736 -0.8841 -0.1549  0.2939
  797MPD2    C211795   4.164   4.018  17.630 -0.3243  0.2979  0.6340
  797MPD2    C311796   4.047   3.960  17.590 -0.1824 -0.1312  0.5497
  797MPD2    C411797   4.002   3.844  17.652 -0.3252  0.0964  0.6876
  797MPD2    C511798   4.086   3.788   0.008  0.7239  0.3778  0.0365
  797MPD2     H11799   4.196   4.113  17.588 -0.1003 -0.4666 -0.9175
  797MPD2    H111800   3.906   3.799  17.631  1.0545 -2.0368 -0.9949
  797MPD2    H211801   4.251   3.813   0.140  0.5784  0.2953  0.0720
  797MPD2    H311802   4.063   3.702   0.071 -3.3274  0.7343 -0.9349
  797MPD2     N11803   3.975   4.046  17.506 -0.3457  0.0237  0.6921
  797MPD2    H511804   4.021   4.135  17.488  0.0907 -0.3319  0.0686
  797MPD2    N111805   4.353   4.036   0.034  0.0581  0.1839 -0.3001
  797MPD2    H711806   4.382   4.112  17.716 -1.8906  2.1472  1.1970
  798MPD2     C11807   4.176   4.682  17.525 -0.4399 -0.5573 -0.3341
  798MPD2    C111808   4.197   4.552  17.489 -0.3413  0.0284 -0.4830
  798MPD2    C211809   4.289   4.481  17.569  0.5066 -0.2134 -0.3640
  798MPD2    C311810   4.366   4.546  17.666  0.4924  0.3119 -0.2470
  798MPD2    C411811   4.333   4.677  17.705  0.7759  0.1683  0.2770
  798MPD2    C511812   4.237   4.732  17.635 -0.2174  0.7578 -0.0815
  798MPD2     H11813   4.308   4.379  17.538 -0.0396  0.1060 -1.7631
  798MPD2    H111814   4.385   0.003   0.033 -0.0017  0.8792  0.2225
  798MPD2    H211815   4.094   0.004  17.485  0.4062 -0.2547 -1.6184
  798MPD2    H311816   4.207   0.094  17.669 -3.4649 -0.6220  1.0764
  798MPD2     N11817   4.458   4.462  17.736  0.3441 -1.0248  0.1379
  798MPD2    H511818   4.471   4.367  17.702 -3.3264 -1.0609 -1.2626
  798MPD2    N111819   4.112   4.494  17.396  0.2369  0.5825 -0.3482
  798MPD2    H711820   4.039   4.549  17.354  0.2881  1.6328  0.9313
  799MPD2     C11821   2.893   0.260  14.810  0.3392  0.1025 -0.2353
  799MPD2    C111822   2.929   0.184  14.700  0.1491 -0.0234 -1.0011
  799MPD2    C211823   2.908   0.236  14.575  0.6365  0.6554  0.0641
  799MPD2    C311824   2.854   0.358  14.551  0.1438 -0.1234 -0.5617
  799MPD2    C411825   2.834   0.439  14.666 -0.0194  0.1248  0.6642
  799MPD2    C511826   2.845   0.389  14.790  0.5997  0.1320  0.9247
  799MPD2     H11827   2.941   0.177  14.490  1.8805 -0.4833  1.3235
  799MPD2    H111828   2.808   0.544  14.658  1.4450  0.2230 -3.0177
  799MPD2    H211829   2.912   0.228  14.912 -1.6342  2.1855  0.8079
  799MPD2    H311830   2.829   0.452  14.876  1.3008 -1.0497  1.9223
  799MPD2     N11831   2.857   0.431  14.426  0.5637 -0.8047 -0.8391
  799MPD2    H511832   2.815   0.523  14.419 -0.3893 -1.1809 -0.0436
  799MPD2    N111833   2.962   0.051  14.705 -0.0750 -0.3314 -0.2235
  799MPD2    H711834   2.987   0.001  14.620  0.6813 -1.0447  0.4193
  800MPD2     C11835   3.354   1.162  14.004  0.4275 -0.0065  0.0263
  800MPD2    C111836   3.483   1.178  13.971 -0.2598  0.5834 -0.1259
  800MPD2    C211837   3.541   1.093  13.889 -0.4289  0.2597 -0.1986
  800MPD2    C311838   3.463   0.981  13.846 -0.5842 -0.2468  0.4652
  800MPD2    C411839   3.327   0.970  13.880  0.6750 -1.1684 -0.5406
  800MPD2    C511840   3.270   1.069  13.948 -0.5413 -0.5161 -0.2991
  800MPD2     H11841   3.647   1.091  13.871 -0.0211  1.2053  1.9882
  800MPD2    H111842   3.268   0.881  13.861  1.2567 -1.3991 -1.2856
  800MPD2    H211843   3.316   1.231  14.078 -0.9031 -0.0396 -0.6447
  800MPD2    H311844   3.165   1.073  13.975 -0.8414 -1.8018 -1.3142
  800MPD2     N11845   3.529   0.881  13.768 -0.0423 -0.1283 -0.2403
  800MPD2    H511846   3.630   0.874  13.764  0.0797  0.9421  0.6861
  800MPD2    N111847   3.550   1.280  14.045  0.4629  0.1350 -0.4532
  800MPD2    H711848   3.505   1.335  14.116 -1.7488 -0.0293 -1.7335
  801MPD2     C11849   3.517   1.974  14.328  0.0260  0.5713 -1.0641
  801MPD2    C111850   3.549   1.872  14.420 -0.2195 -0.7112  0.7290
  801MPD2    C211851   3.521   1.890  14.546 -0.0571 -0.2415  0.5424
  801MPD2    C311852   3.435   1.993  14.582 -0.0721  0.5515  0.4116
  801MPD2    C411853   3.393   2.083  14.498 -0.5478  0.1239 -0.4288
  801MPD2    C511854   3.442   2.086  14.370 -0.9324  0.7195 -0.0410
  801MPD2     H11855   3.551   1.808  14.609  1.3585  0.5271  0.8659
  801MPD2    H111856   3.331   2.168  14.524 -0.0953  0.3823 -0.1857
  801MPD2    H211857   3.546   1.960  14.224  0.1633 -0.4721 -0.8902
  801MPD2    H311858   3.405   2.152  14.293 -1.6998  2.2862  1.6772
  801MPD2     N11859   3.383   2.012  14.711 -1.2137  0.2701 -0.1314
  801MPD2    H511860   3.313   2.082  14.729  1.8681  3.0843  0.8446
  801MPD2    N111861   3.628   1.749  14.389  0.4323  0.2143  0.7117
  801MPD2    H711862   3.659   1.684  14.460  1.3417 -1.0665 -0.8707
  802MPD2     C11863   2.823   2.895   0.915 -0.5166 -0.3797 -0.6626
  802MPD2    C111864   2.735   2.914   0.813 -0.2092 -0.9012  0.2422
  802MPD2    C211865   2.793   2.904   0.689  0.7016 -0.6386  0.6609
  802MPD2    C311866   2.929   2.894   0.674  0.0132  1.1909 -0.1794
  802MPD2    C411867   3.013   2.921   0.785 -0.3242  0.4608  0.2129
  802MPD2    C511868   2.955   2.910   0.907  0.5999 -0.2163 -0.2564
  802MPD2     H11869   2.726   2.909   0.603  0.3727 -0.5333  0.9242
  802MPD2    H111870   3.121   2.919   0.776 -0.3667 -0.1886 -0.1823
  802MPD2    H211871   2.785   2.909   1.016  2.2606  0.1626  0.3253
  802MPD2    H311872   3.017   2.909   0.995  2.3897  2.1363 -1.4904
  802MPD2     N11873   2.973   2.871   0.542 -0.0897 -0.0698 -0.2579
  802MPD2    H511874   2.907   2.837   0.473  0.1235 -1.8516  0.4149
  802MPD2    N111875   2.596   2.936   0.818 -0.1201  0.7306 -0.1105
  802MPD2    H711876   2.549   2.956   0.730 -0.2878  1.1274  0.0676
  803MPD2     C11877   4.437   0.484  11.887  0.6603 -0.3689  0.8100
  803MPD2    C111878   4.452   0.617  11.925 -0.0018 -0.1252 -0.4582
  803MPD2    C211879   4.399   0.649  12.052 -0.0857  1.0968  0.1425
  803MPD2    C311880   4.363   0.548  12.138  0.6073 -0.1892 -1.1209
  803MPD2    C411881   4.352   0.413  12.101  0.0531 -0.3304  0.3275
  803MPD2    C511882   4.395   0.384  11.972  0.0604  0.2412  0.0802
  803MPD2     H11883   4.400   0.755  12.077  0.4235  1.5340 -1.7369
  803MPD2    H111884   4.311   0.339  12.170  0.6414 -1.3538 -0.4098
  803MPD2    H211885   4.486   0.450  11.796  0.2451  0.7608  0.1708
  803MPD2    H311886   4.387   0.281  11.941  2.5322  0.3281 -0.8455
  803MPD2     N11887   4.315   0.577  12.266 -0.3518 -0.1860 -0.5127
  803MPD2    H511888   4.291   0.498  12.325 -1.1681  1.0836  0.8502
  803MPD2    N111889   4.511   0.718  11.847  0.1280 -0.1650  0.2010
  803MPD2    H711890   4.526   0.810  11.887  1.4729  0.2044 -1.1505
  804MPD2     C11891   3.684   2.366  16.748 -0.3887  0.7072 -1.0638
  804MPD2    C111892   3.623   2.366  16.872 -0.2207 -0.5626  0.2569
  804MPD2    C211893   3.650   2.470  16.955  0.1258 -0.4517  0.1805
  804MPD2    C311894   3.762   2.546  16.938 -0.0163  0.6552 -0.9662
  804MPD2    C411895   3.829   2.547  16.815  0.0181  0.7198 -0.3958
  804MPD2    C511896   3.789   2.452  16.726  0.3094  0.0065  0.0826
  804MPD2     H11897   3.599   2.488  17.049 -0.7379  1.9449 -0.7498
  804MPD2    H111898   3.920   2.601  16.791 -0.7338  1.3989 -1.7171
  804MPD2    H211899   3.669   2.286  16.676  3.1238 -1.0175  0.1302
  804MPD2    H311900   3.852   2.441  16.638  0.2127  0.8733 -0.0929
  804MPD2     N11901   3.798   2.633  17.045 -0.4390 -0.4892 -0.2328
  804MPD2    H511902   3.737   2.638  17.127 -1.0882  1.8643 -0.8602
  804MPD2    N111903   3.526   2.266  16.907 -0.2126 -0.1391  0.0940
  804MPD2    H711904   3.480   2.282  16.996 -1.0676 -0.0008 -0.3792
  805MPD2     C11905   2.685   0.553  15.274 -0.0395 -0.2910 -0.1533
  805MPD2    C111906   2.728   0.433  15.332  0.0217 -0.1026 -0.1212
  805MPD2    C211907   2.769   0.439  15.468 -0.6190  0.0272 -0.3854
  805MPD2    C311908   2.786   0.565  15.530 -0.4212 -0.3697 -0.2352
  805MPD2    C411909   2.750   0.686  15.462 -0.8288  0.1873  1.0536
  805MPD2    C511910   2.694   0.674  15.336  0.6654 -0.0650 -0.5471
  805MPD2     H11911   2.821   0.352  15.507 -0.2255  0.9337  1.1123
  805MPD2    H111912   2.760   0.789  15.495 -0.3185  0.8882 -1.3000
  805MPD2    H211913   2.651   0.557  15.171  0.7752  0.2690 -0.3956
  805MPD2    H311914   2.666   0.769  15.292 -0.1749 -0.4737 -0.8772
  805MPD2     N11915   2.841   0.573  15.658 -0.2203 -0.1289 -0.1569
  805MPD2    H511916   2.878   0.485  15.693  0.4291 -0.3206 -1.3257
  805MPD2    N111917   2.730   0.309  15.258 -0.0702  0.0588 -0.1010
  805MPD2    H711918   2.768   0.230  15.309 -2.4704 -0.7943  0.3800
  806MPD2     C11919   2.865   0.028   0.207  0.2390 -0.2669  0.4451
  806MPD2    C111920   2.866   0.161   0.256 -0.0208 -0.0332 -0.2632
  806MPD2    C211921   2.919   0.257   0.172 -0.8231  0.3466  1.1459
  806MPD2    C311922   2.975   0.225   0.050 -0.9715 -0.0695 -0.3036
  806MPD2    C411923   2.978   0.095   0.013 -0.3557 -0.1730 -0.5317
  806MPD2    C511924   2.926   4.736   0.091 -0.1868 -0.3031 -0.2304
  806MPD2     H11925   2.921   0.359   0.210  0.5552  1.2070 -1.1806
  806MPD2    H111926   3.021   0.066  17.661 -3.0301 -0.2612 -1.7130
  806MPD2    H211927   2.823   4.682   0.265  0.7031 -0.5018  0.4406
  806MPD2    H311928   2.932   4.631   0.067  0.7697 -0.2430 -0.2624
  806MPD2     N11929   3.013   0.334  17.715 -0.5053  0.2147 -0.5597
  806MPD2    H511930   2.987   0.428  17.743 -2.0101 -0.1728 -0.6536
  806MPD2    N111931   2.823   0.183   0.388  0.4175 -0.6730 -0.3547
  806MPD2    H711932   2.790   0.103   0.441 -1.0553 -0.7781 -1.4242
  807MPD2     C11933   2.755   4.407   0.698  0.2594  0.7713 -0.3455
  807MPD2    C111934   2.771   4.493   0.811 -0.3878  0.4462  0.7873
  807MPD2    C211935   2.813   4.422   0.930 -0.5330  0.2731 -0.0844
  807MPD2    C311936   2.846   4.290   0.941  1.1218  0.3447 -0.1354
  807MPD2    C411937   2.836   4.218   0.828 -0.8422  0.8130 -0.2909
  807MPD2    C511938   2.785   4.276   0.714 -0.0946  0.5947 -0.3474
  807MPD2     H11939   2.815   4.482   1.021 -3.2418 -0.3528  0.3856
  807MPD2    H111940   2.854   4.112   0.835 -0.3400  0.9006 -0.2513
  807MPD2    H211941   2.715   4.445   0.605  1.4892  1.4180 -0.6177
  807MPD2    H311942   2.766   4.206   0.633  1.0318 -0.7139  0.5314
  807MPD2     N11943   2.876   4.235   1.066  0.0996 -0.7005 -0.2351
  807MPD2    H511944   2.848   4.288   1.147  1.5273 -2.0089  1.1164
  807MPD2    N111945   2.745   4.633   0.811  0.1747 -0.5516 -0.4098
  807MPD2    H711946   2.743   4.667   0.907  0.2462 -0.6527 -0.3725
  808MPD2     C11947   2.508   1.539   9.722  0.2879 -0.1184 -0.9074
  808MPD2    C111948   2.485   1.661   9.654  0.0582  0.5028  0.2130
  808MPD2    C211949   2.588   1.752   9.650 -0.3137 -0.1105  0.1352
  808MPD2    C311950   2.714   1.717   9.702  0.8090  0.2870  0.1167
  808MPD2    C411951   2.734   1.593   9.761  0.9866  0.3667 -0.4840
  808MPD2    C511952   2.629   1.513   9.776 -0.2267  0.9339  0.0253
  808MPD2     H11953   2.569   1.840   9.590  1.8043  0.1004 -0.2492
  808MPD2    H111954   2.823   1.565   9.816  0.9510 -0.2459 -0.7384
  808MPD2    H211955   2.429   1.471   9.749  1.1003  0.6667  3.3757
  808MPD2    H311956   2.635   1.422   9.835  1.3312  1.3549  0.5226
  808MPD2     N11957   2.828   1.799   9.712  0.2306 -0.7034 -0.2111
  808MPD2    H511958   2.907   1.755   9.758  0.8220 -0.7261 -1.2339
  808MPD2    N111959   2.361   1.691   9.596 -0.0312 -0.0196 -0.3923
  808MPD2    H711960   2.354   1.778   9.544  2.8910  0.1767 -0.4361
  809MPD2     C11961   3.409   2.697   9.412 -0.1569  1.0854 -0.6575
  809MPD2    C111962   3.497   2.610   9.482 -0.5663  1.6161  0.3135
  809MPD2    C211963   3.440   2.501   9.545 -0.4854 -0.4930 -0.0174
  809MPD2    C311964   3.310   2.465   9.530 -0.2038 -0.6744  1.0264
  809MPD2    C411965   3.233   2.540   9.446  0.2139 -0.2464  0.1693
  809MPD2    C511966   3.280   2.660   9.394  0.0853  0.5826  0.2598
  809MPD2     H11967   3.513   2.437   9.593 -0.5889 -2.3524 -2.3508
  809MPD2    H111968   3.131   2.506   9.432  0.5291 -1.0527 -0.1616
  809MPD2    H211969   3.446   2.781   9.355  0.9084 -0.3548 -2.1086
  809MPD2    H311970   3.210   2.718   9.334  0.9014  0.5183 -0.7626
  809MPD2     N11971   3.263   2.337   9.585 -0.0368 -0.9958 -0.3665
  809MPD2    H511972   3.338   2.290   9.634  1.1381 -0.3516 -1.5447
  809MPD2    N111973   3.633   2.638   9.498  0.4784  0.2829  0.2449
  809MPD2    H711974   3.681   2.571   9.557 -1.4397 -0.9170  0.4625
  810MPD2     C11975   3.328   0.417  10.206  0.1481  0.3585  0.0961
  810MPD2    C111976   3.263   0.516  10.285 -0.0981  0.7296 -0.6155
  810MPD2    C211977   3.324   0.636  10.311 -0.0414 -1.3195  0.1696
  810MPD2    C311978   3.439   0.667  10.251 -0.5191 -0.0298 -0.9859
  810MPD2    C411979   3.507   0.575  10.177  0.6434  0.3090  0.3196
  810MPD2    C511980   3.451   0.446  10.154 -0.5635 -0.2840  0.2239
  810MPD2     H11981   3.279   0.701  10.386  1.0448  1.2542 -1.4359
  810MPD2    H111982   3.609   0.597  10.150  0.7046 -0.2033  0.1244
  810MPD2    H211983   3.281   0.320  10.197  0.2416  0.0117  3.3218
  810MPD2    H311984   3.497   0.372  10.090  0.5469  0.7064 -0.1229
  810MPD2     N11985   3.492   0.792  10.269  0.2188 -0.1836  0.2110
  810MPD2    H511986   3.585   0.806  10.231 -0.5571  0.7396 -1.3634
  810MPD2    N111987   3.127   0.490  10.322 -0.4916  0.2416  0.1878
  810MPD2    H711988   3.087   0.400  10.296 -0.4845 -0.2479  1.8653
  811MPD2     C11989   2.240   0.713  10.489  0.3723 -0.7060 -0.5361
  811MPD2    C111990   2.355   0.771  10.439 -0.5787 -0.4963 -0.0193
  811MPD2    C211991   2.356   0.906  10.408 -0.9255 -1.0835  0.1906
  811MPD2    C311992   2.241   0.986  10.431 -0.4162  0.5810  1.0228
  811MPD2    C411993   2.126   0.928  10.482 -0.3955 -0.3102  0.0754
  811MPD2    C511994   2.130   0.790  10.516  0.2515 -0.5063 -0.1292
  811MPD2     H11995   2.450   0.949  10.374 -0.5452 -0.1735  2.3848
  811MPD2    H111996   2.033   0.981  10.504 -1.1282 -1.4899 -0.1794
  811MPD2    H211997   2.234   0.605  10.500  1.3140 -0.8905 -1.7276
  811MPD2    H311998   2.052   0.730  10.561  0.2383  2.5618  3.9617
  811MPD2     N11999   2.244   1.129  10.406  0.1650  0.7581  0.2289
  811MPD2    H512000   2.332   1.171  10.376  0.3035  0.4619  0.2223
  811MPD2    N112001   2.468   0.682  10.423  0.1889 -0.0251 -0.0119
  811MPD2    H712002   2.462   0.589  10.464 -0.4072 -0.0665 -0.1909
  812MPD2     C12003   2.203   0.892  11.932  0.2306 -0.2317 -0.2410
  812MPD2    C112004   2.160   0.967  12.043 -0.2314 -0.6903  0.8292
  812MPD2    C212005   2.155   0.905  12.171  0.3410 -0.4481 -0.0047
  812MPD2    C312006   2.168   0.769  12.185 -0.2897  0.8914 -0.2156
  812MPD2    C412007   2.211   0.697  12.076  1.4275  0.2047 -0.1299
  812MPD2    C512008   2.223   0.759  11.958  0.8300 -0.0764 -0.8584
  812MPD2     H12009   2.132   0.975  12.250 -0.9857  1.8776 -2.4341
  812MPD2    H112010   2.235   0.591  12.072 -2.0082 -0.5144 -1.2479
  812MPD2    H212011   2.211   0.921  11.828  1.5093 -1.6045 -0.5293
  812MPD2    H312012   2.242   0.711  11.862  0.8158  0.2782 -1.0408
  812MPD2     N12013   2.148   0.714  12.314 -0.5775  0.1236  0.3490
  812MPD2    H512014   2.117   0.777  12.388 -0.4043 -1.0880  1.4594
  812MPD2    N112015   2.143   1.103  12.016  0.2860  0.2883  0.0564
  812MPD2    H712016   2.158   1.132  11.920 -0.3020  2.4535  0.6057
  813MPD2     C12017   0.841   2.890  12.860  0.6916  0.0695  0.1401
  813MPD2    C112018   0.947   2.911  12.942  0.3798  0.1508  0.4129
  813MPD2    C212019   0.934   2.907  13.077 -0.3663 -0.5341  0.2818
  813MPD2    C312020   0.813   2.858  13.127  0.1403 -0.2325 -0.9766
  813MPD2    C412021   0.707   2.830  13.044  0.2935  0.4787 -0.8427
  813MPD2    C512022   0.718   2.851  12.912  0.1915 -0.1063  0.4413
  813MPD2     H12023   1.011   2.947  13.142 -1.0377 -0.0658  0.7954
  813MPD2    H112024   0.610   2.803  13.083  0.4749  1.0689  0.0333
  813MPD2    H212025   0.861   2.885  12.754 -1.6744  2.0309 -0.3944
  813MPD2    H312026   0.631   2.828  12.852  0.1519  1.4632 -0.1168
  813MPD2     N12027   0.799   2.864  13.268  0.3968 -0.3537 -0.3667
  813MPD2    H512028   0.868   2.916  13.322  0.1921  1.2117 -1.6194
  813MPD2    N112029   1.074   2.938  12.891  0.1568 -0.0584  0.1534
  813MPD2    H712030   1.139   2.957  12.967 -0.2154 -0.1131  0.4842
  814MPD2     C12031   1.542   4.168  12.725 -0.2209 -0.0832 -0.0529
  814MPD2    C112032   1.547   4.160  12.590  1.2424  0.5232 -0.2065
  814MPD2    C212033   1.635   4.239  12.519 -0.0630  0.4751  0.0286
  814MPD2    C312034   1.708   4.335  12.596  0.1750 -0.0444 -0.7671
  814MPD2    C412035   1.705   4.337  12.737  1.1489 -0.2088 -0.8649
  814MPD2    C512036   1.624   4.248  12.806  0.0725  0.5611 -0.8365
  814MPD2     H12037   1.629   4.239  12.411  0.2052 -1.4705  0.0036
  814MPD2    H112038   1.758   4.411  12.797 -0.5634 -0.9018  1.4888
  814MPD2    H212039   1.476   4.101  12.779  0.5932 -0.2003  0.7977
  814MPD2    H312040   1.616   4.252  12.914 -1.0145  1.3578 -0.9523
  814MPD2     N12041   1.796   4.428  12.532 -0.4622 -0.0954  0.3053
  814MPD2    H512042   1.847   4.485  12.598  0.0354  0.7422 -0.7993
  814MPD2    N112043   1.474   4.069  12.517 -0.2142  0.3092  0.6266
  814MPD2    H712044   1.491   4.066  12.417  1.7708 -0.3685  0.9865
  815MPD2     C12045   2.138   2.639  11.755  0.2132  0.1730  0.0675
  815MPD2    C112046   2.115   2.511  11.802 -0.3800  0.0809  0.1253
  815MPD2    C212047   2.027   2.487  11.906 -0.0757  0.2457 -0.0172
  815MPD2    C312048   1.955   2.596  11.954 -0.2030 -0.5128 -0.6542
  815MPD2    C412049   1.972   2.729  11.914 -0.6143  0.1659  0.0118
  815MPD2    C512050   2.062   2.741  11.814  0.2467  0.3747  0.2025
  815MPD2     H12051   2.020   2.387  11.947  2.8629 -0.7036 -1.7926
  815MPD2    H112052   1.920   2.815  11.955  1.5806  1.0942  0.8652
  815MPD2    H212053   2.210   2.657  11.676 -2.2713 -1.1213 -2.4802
  815MPD2    H312054   2.069   2.840  11.771 -1.5668  0.2738 -0.3304
  815MPD2     N12055   1.846   2.558  12.037  0.0742  0.4999  0.2107
  815MPD2    H512056   1.843   2.461  12.068  1.4912  0.4112  0.0709
  815MPD2    N112057   2.190   2.406  11.740 -0.2127  0.3239  0.1353
  815MPD2    H712058   2.244   2.443  11.662 -0.1419 -0.0173  0.0234
  816MPD2     C12059   1.896   1.558  17.030 -0.7574  0.2912 -0.0460
  816MPD2    C112060   2.003   1.639  17.035  0.6562 -0.4874 -0.1054
  816MPD2    C212061   2.120   1.614  16.962  0.4585 -0.1760 -0.0826
  816MPD2    C312062   2.120   1.507  16.875 -0.0403 -1.1549  0.4679
  816MPD2    C412063   2.004   1.428  16.860 -0.7228  0.0768 -0.9704
  816MPD2    C512064   1.896   1.448  16.938 -0.0556 -0.4283 -0.3500
  816MPD2     H12065   2.215   1.664  16.967 -0.3407  1.4165 -0.9397
  816MPD2    H112066   2.005   1.343  16.792 -0.3888 -1.1927  0.6270
  816MPD2    H212067   1.810   1.568  17.094 -0.4159 -2.4082  0.8544
  816MPD2    H312068   1.805   1.391  16.927  0.4128 -1.4710  1.1783
  816MPD2     N12069   2.240   1.485  16.797  0.3408  0.2303  0.6616
  816MPD2    H512070   2.327   1.532  16.818 -0.1219  1.3606  0.0334
  816MPD2    N112071   1.998   1.738  17.125 -0.3193 -0.5838 -0.1701
  816MPD2    H712072   1.908   1.763  17.166 -0.5566 -0.7802 -0.5701
  817MPD2     C12073   1.311   3.455   9.945  0.4430 -0.4596 -0.0361
  817MPD2    C112074   1.347   3.385   9.834  0.4391  0.1599 -0.0287
  817MPD2    C212075   1.292   3.430   9.717  0.0576  0.0292 -0.1584
  817MPD2    C312076   1.207   3.542   9.708  0.8316 -0.3759  0.7565
  817MPD2    C412077   1.172   3.609   9.823  0.4078 -0.9293 -0.7318
  817MPD2    C512078   1.231   3.569   9.939 -0.3674  0.9856  0.2292
  817MPD2     H12079   1.331   3.381   9.629  0.4695  1.7491 -0.9349
  817MPD2    H112080   1.121   3.705   9.822  0.4531 -0.9097 -1.1828
  817MPD2    H212081   1.347   3.421  10.042 -1.1657 -2.5972 -0.1918
  817MPD2    H312082   1.191   3.611  10.031 -0.2679 -1.8434  1.5430
  817MPD2     N12083   1.161   3.581   9.584  0.1258  0.2497  0.6802
  817MPD2    H512084   1.218   3.554   9.504  0.7098  3.8929 -0.1554
  817MPD2    N112085   1.416   3.263   9.830  0.1756  0.0144 -0.2415
  817MPD2    H712086   1.426   3.219   9.739  1.9487 -1.4562  0.6556
  818MPD2     C12087   0.351   3.528  10.164 -0.9704  0.8079 -0.3674
  818MPD2    C112088   0.289   3.403  10.172 -0.2275  0.1832  0.1526
  818MPD2    C212089   0.338   3.291  10.110  0.7933  0.1890 -0.9045
  818MPD2    C312090   0.461   3.298  10.032 -0.0300 -0.0462 -0.2715
  818MPD2    C412091   0.526   3.418  10.023 -0.3310 -0.1781 -0.1276
  818MPD2    C512092   0.463   3.529  10.082  0.1505  0.5154 -0.2815
  818MPD2     H12093   0.278   3.200  10.109 -0.7014  1.1632  0.0406
  818MPD2    H112094   0.617   3.438   9.967 -1.7700 -0.1315 -2.4189
  818MPD2    H212095   0.314   3.618  10.211  0.1629  2.1963 -2.1405
  818MPD2    H312096   0.511   3.626  10.066  0.2575  0.1900 -1.9058
  818MPD2     N12097   0.513   3.180   9.976 -0.3048  0.2419 -0.2365
  818MPD2    H512098   0.456   3.097   9.989 -1.5869  1.6997  3.5728
  818MPD2    N112099   0.178   3.374  10.256  0.1580 -0.3007 -0.4055
  818MPD2    H712100   0.156   3.275  10.256  0.5213 -0.3789  1.0415
  819MPD2     C12101   3.491   0.130  15.902  0.1878 -0.1260  0.9227
  819MPD2    C112102   3.561   0.013  15.864  0.8418 -0.4196  0.5439
  819MPD2    C212103   3.690   0.010  15.906 -0.3953  0.2884 -0.1273
  819MPD2    C312104   3.752   0.108  15.977 -0.0188 -0.3016  0.3387
  819MPD2    C412105   3.689   0.218  16.018 -0.1632 -0.0229  0.2640
  819MPD2    C512106   3.561   0.230  15.968  0.0740  0.4219  0.6426
  819MPD2     H12107   3.762   4.673  15.872  0.5235  0.6111  1.1075
  819MPD2    H112108   3.736   0.302  16.068  0.3163  0.7218 -1.4149
  819MPD2    H212109   3.392   0.158  15.867  0.6164  0.4421  0.1747
  819MPD2    H312110   3.508   0.321  15.991 -0.3738  0.5211 -0.7409
  819MPD2     N12111   3.887   0.086  16.002  0.6484  1.5460 -0.5888
  819MPD2    H512112   3.933   0.009  15.956 -0.5870  0.2290  0.3654
  819MPD2    N112113   3.496   4.642  15.803  0.2720  1.0533  0.4982
  819MPD2    H712114   3.407   4.657  15.756 -0.7345  0.6571  2.2454
  820MPD2     C12115   2.886   4.218  15.126 -0.3419 -0.6008 -0.2320
  820MPD2    C112116   2.888   4.338  15.193 -0.6364  0.9997  0.5110
  820MPD2    C212117   2.984   4.352  15.294 -0.2599  0.4543  0.3065
  820MPD2    C312118   3.086   4.260  15.302 -0.4274 -0.2768 -0.7262
  820MPD2    C412119   3.082   4.146  15.225  0.2193 -0.5625  0.2811
  820MPD2    C512120   2.986   4.123  15.139 -0.7933  0.4097 -0.5072
  820MPD2     H12121   2.985   4.435  15.362  0.4403  0.4480  0.3041
  820MPD2    H112122   3.165   4.076  15.219 -0.8442 -1.7467 -0.7489
  820MPD2    H212123   2.804   4.188  15.061  0.8731 -1.4090 -1.3772
  820MPD2    H312124   2.985   4.030  15.083 -0.1949  0.1418 -0.0656
  820MPD2     N12125   3.186   4.266  15.401 -0.3954 -0.1488 -0.3169
  820MPD2    H512126   3.246   4.185  15.405  1.3193  1.1425 -0.1286
  820MPD2    N112127   2.794   4.439  15.162 -0.3982  0.6057 -0.2123
  820MPD2    H712128   2.720   4.414  15.098  0.2697  0.9648 -1.1348
  821MPD2     C12129   3.679   0.970  13.027 -0.1429 -0.9429 -0.1741
  821MPD2    C112130   3.782   0.928  13.117 -0.2938  0.1503  0.3177
  821MPD2    C212131   3.908   0.966  13.091 -0.2812 -0.5286  0.0882
  821MPD2    C312132   3.939   1.050  12.991 -0.1905  0.0953 -0.3851
  821MPD2    C412133   3.845   1.085  12.897 -0.2097  0.0910  0.3332
  821MPD2    C512134   3.710   1.044  12.915  0.5839  0.8434  0.4706
  821MPD2     H12135   3.984   0.942  13.164 -1.7620 -3.4971  0.6493
  821MPD2    H112136   3.871   1.146  12.812  2.0196 -0.0449  0.9197
  821MPD2    H212137   3.573   0.952  13.043  0.2597 -1.5703  1.6752
  821MPD2    H312138   3.638   1.079  12.842  2.0261 -1.8750 -2.2533
  821MPD2     N12139   4.064   1.124  12.979 -0.2827  0.2787 -0.0372
  821MPD2    H512140   4.068   1.203  12.915 -3.7692 -0.7451 -1.5290
  821MPD2    N112141   3.755   0.853  13.236  0.1798 -0.3236  0.2148
  821MPD2    H712142   3.835   0.825  13.291 -0.3607  1.4621  1.9222
  822MPD2     C12143   4.315   1.642  15.930  0.2688  0.2219 -0.0476
  822MPD2    C112144   4.285   1.605  16.059 -0.3043 -0.4544  0.1778
  822MPD2    C212145   4.175   1.654  16.118 -0.1474 -0.6938  0.2213
  822MPD2    C312146   4.104   1.758  16.068 -0.1763  1.0400 -0.4355
  822MPD2    C412147   4.132   1.803  15.944 -0.1961  0.0266  0.0066
  822MPD2    C512148   4.236   1.743  15.876 -0.1944  0.5847 -0.6349
  822MPD2     H12149   4.129   1.604  16.202 -0.4105 -0.1963  0.3759
  822MPD2    H112150   4.081   1.881  15.889  0.4077  0.9088  0.7022
  822MPD2    H212151   4.393   1.595  15.872 -0.9875  1.1464 -2.4664
  822MPD2    H312152   4.249   1.777  15.774 -0.6997  2.0494 -0.2077
  822MPD2     N12153   4.003   1.808  16.148  0.0425  0.5182  0.2017
  822MPD2    H512154   3.978   1.762  16.235  1.6688  0.3622  0.5722
  822MPD2    N112155   4.360   1.501  16.121  0.4295 -0.2708 -0.0008
  822MPD2    H712156   4.335   1.485  16.218  3.0691  0.8512  0.8922
  823MPD2     C12157   3.699   1.843  16.898  0.6379  0.3321 -0.0203
  823MPD2    C112158   3.708   1.771  16.779  0.8833  0.8513  0.1601
  823MPD2    C212159   3.723   1.636  16.785  0.9364 -0.5152  0.0877
  823MPD2    C312160   3.724   1.569  16.906 -0.0631 -0.5151 -0.1120
  823MPD2    C412161   3.698   1.641  17.023  0.9795  0.0983 -0.0432
  823MPD2    C512162   3.684   1.774  17.013 -0.3565  0.4693  0.1873
  823MPD2     H12163   3.743   1.573  16.698 -2.0756 -2.1451  0.6053
  823MPD2    H112164   3.690   1.592  17.119 -2.0552  0.4881 -0.0838
  823MPD2    H212165   3.691   1.951  16.900 -0.8193  0.1703  3.1526
  823MPD2    H312166   3.660   1.838  17.098  0.8621  0.6524  0.3980
  823MPD2     N12167   3.752   1.433  16.925  0.9440  0.3155  0.5577
  823MPD2    H512168   3.745   1.385  17.013  1.3079  0.9175  0.9201
  823MPD2    N112169   3.698   1.841  16.658  0.1994 -0.4656  0.0750
  823MPD2    H712170   3.676   1.939  16.672 -1.1602 -0.6523 -0.8237
  824MPD2     C12171   4.595   0.699  16.129 -0.3858 -0.1032  0.1644
  824MPD2    C112172   4.674   0.812  16.105 -0.3454  0.1360 -0.5681
  824MPD2    C212173   0.064   0.794  16.049  0.0665  0.4829  0.6032
  824MPD2    C312174   0.124   0.665  16.029  0.6874  0.0758 -0.2363
  824MPD2    C412175   0.042   0.558  16.049 -0.1752  0.0547 -0.3909
  824MPD2    C512176   4.650   0.577  16.099 -0.0259 -0.2375  0.1481
  824MPD2     H12177   0.120   0.885  16.034  2.4554 -1.3352 -1.4059
  824MPD2    H112178   0.073   0.457  16.029 -0.8478  0.2577 -2.4826
  824MPD2    H212179   4.496   0.693  16.172 -0.6347  1.5201 -0.1701
  824MPD2    H312180   4.585   0.490  16.103 -0.8599  0.3945  0.2660
  824MPD2     N12181   0.252   0.658  15.969  0.0483 -0.3262 -0.1253
  824MPD2    H512182   0.290   0.749  15.946 -0.2818  0.3162  1.8677
  824MPD2    N112183   4.635   0.941  16.137  0.1613 -0.0682  1.2577
  824MPD2    H712184   4.700   1.016  16.120 -0.7032  0.5561  0.6942
  825MPD2     C12185   0.648   0.913  15.252 -0.6528 -0.2812 -0.5392
  825MPD2    C112186   0.615   0.932  15.381  1.6547 -0.6977 -0.4124
  825MPD2    C212187   0.630   1.060  15.439  0.6659 -0.1599 -0.1738
  825MPD2    C312188   0.661   1.163  15.351  0.1948  0.4383  0.1857
  825MPD2    C412189   0.684   1.144  15.214 -0.5453  0.2113 -0.2152
  825MPD2    C512190   0.674   1.017  15.167 -0.4968  0.7845  0.1372
  825MPD2     H12191   0.635   1.069  15.547  1.1829 -3.3378  0.0553
  825MPD2    H112192   0.708   1.224  15.145  0.7697  0.1248  0.1480
  825MPD2    H212193   0.645   0.813  15.212 -0.4991  0.1284 -1.5848
  825MPD2    H312194   0.687   0.995  15.062 -1.0519  1.9389 -0.1706
  825MPD2     N12195   0.674   1.298  15.390  0.0136 -0.0955 -0.4247
  825MPD2    H512196   0.699   1.368  15.320 -1.4096 -0.8872 -1.7188
  825MPD2    N112197   0.578   0.822  15.454  0.6748  1.0755  0.6981
  825MPD2    H712198   0.588   0.729  15.414  3.6552  1.4587  0.5297
  826MPD2     C12199   0.654   0.949  14.179 -0.0708 -0.1213  0.0014
  826MPD2    C112200   0.620   0.884  14.057  0.3677  0.4759 -0.2276
  826MPD2    C212201   0.487   0.883  14.029  0.2403 -0.6435  0.2553
  826MPD2    C312202   0.397   0.923  14.121 -0.0603 -0.4733 -0.4944
  826MPD2    C412203   0.432   0.981  14.242 -0.1743  0.6195 -0.4490
  826MPD2    C512204   0.563   0.991  14.272  0.2451  0.2664 -0.2760
  826MPD2     H12205   0.459   0.827  13.940 -0.5377 -1.2353  0.8695
  826MPD2    H112206   0.355   1.009  14.313 -0.9955  1.1279 -1.5541
  826MPD2    H212207   0.757   0.976  14.195  0.1086 -0.2529 -0.9178
  826MPD2    H312208   0.595   1.037  14.364 -0.5324  1.4591 -0.6047
  826MPD2     N12209   0.255   0.917  14.103  0.1815  0.1249 -1.0073
  826MPD2    H512210   0.196   0.945  14.180  0.3345 -1.8436 -0.1785
  826MPD2    N112211   0.724   0.824  13.987  0.5492 -0.1020  0.2920
  826MPD2    H712212   0.819   0.827  14.022  2.0064 -0.0301 -3.6620
  827MPD2     C12213   0.560   2.379  10.320  1.1595  0.6704  0.0861
  827MPD2    C112214   0.584   2.254  10.363 -0.7610  0.0038 -0.9228
  827MPD2    C212215   0.511   2.147  10.312  0.3709 -0.1975 -0.0502
  827MPD2    C312216   0.415   2.166  10.218 -0.3140 -0.9621 -0.3375
  827MPD2    C412217   0.387   2.299  10.186  0.6715 -0.0905 -0.2021
  827MPD2    C512218   0.457   2.402  10.236 -0.0243  0.0198 -0.0708
  827MPD2     H12219   0.534   2.043  10.333 -0.9816 -1.2526 -3.7998
  827MPD2    H112220   0.298   2.325  10.131  0.2256  1.1387  1.1211
  827MPD2    H212221   0.614   2.466  10.356  0.2678  0.9484  0.7581
  827MPD2    H312222   0.417   2.502  10.219  0.4397  0.0206 -1.1672
  827MPD2     N12223   0.343   2.053  10.169 -0.0049  0.0833  0.1504
  827MPD2    H512224   0.366   1.961  10.206 -1.5759 -0.2676  0.2540
  827MPD2    N112225   0.703   2.234  10.443 -0.5859  0.1473 -0.2229
  827MPD2    H712226   0.773   2.305  10.462  0.1641 -1.1862  1.9615
  828MPD2     C12227   4.121   1.930  12.237 -0.0367 -0.2088  0.3068
  828MPD2    C112228   4.090   1.802  12.177 -0.2493  0.1697  0.0774
  828MPD2    C212229   4.183   1.748  12.083 -0.5168 -0.1051  0.9998
  828MPD2    C312230   4.298   1.813  12.043  0.1313 -0.2442  0.6415
  828MPD2    C412231   4.322   1.937  12.103  0.2908  0.0151  0.2797
  828MPD2    C512232   4.240   1.990  12.195  0.2782  0.1440 -0.6872
  828MPD2     H12233   4.162   1.645  12.055 -0.0201  0.6058 -1.9214
  828MPD2    H112234   4.404   2.004  12.080 -0.7393  0.5049 -1.9892
  828MPD2    H212235   4.071   1.978  12.320 -0.4713 -0.9555  0.4878
  828MPD2    H312236   4.268   2.089  12.228  2.3065 -1.1903  1.5925
  828MPD2     N12237   4.398   1.755  11.956  0.0071 -1.0138  0.0043
  828MPD2    H512238   4.481   1.809  11.934 -1.5600  1.5970  0.3989
  828MPD2    N112239   3.981   1.716  12.213 -0.3980  0.0333 -0.4867
  828MPD2    H712240   3.968   1.630  12.161  1.4562  1.1971 -2.8297
  829MPD2     C12241   3.426   0.990  11.864  0.6882  0.0569 -0.0127
  829MPD2    C112242   3.437   1.125  11.820  0.3742 -0.6305  0.0356
  829MPD2    C212243   3.485   1.217  11.916 -0.1056  0.4636 -0.3543
  829MPD2    C312244   3.537   1.173  12.038 -0.3028 -0.4041 -0.5123
  829MPD2    C412245   3.531   1.043  12.071 -0.5807 -0.6624  0.1302
  829MPD2    C512246   3.475   0.950  11.987  0.3505  0.6046  0.1536
  829MPD2     H12247   3.484   1.321  11.886  1.3515  0.7478  0.5801
  829MPD2    H112248   3.574   1.005  12.164 -0.7610 -2.6261 -0.5806
  829MPD2    H212249   3.379   0.910  11.808 -0.8860 -0.1216  1.5586
  829MPD2    H312250   3.475   0.846  12.018  1.5011  1.4014  2.8030
  829MPD2     N12251   3.594   1.253  12.142  0.3762  0.2134 -0.5183
  829MPD2    H512252   3.612   1.218  12.235 -1.2679 -2.7070 -1.3162
  829MPD2    N112253   3.380   1.164  11.695 -0.6632  0.4715 -0.5677
  829MPD2    H712254   3.360   1.093  11.626  2.0429 -1.5753  0.7430
  830MPD2     C12255   4.627   4.628  15.688 -0.2770  0.3076  0.2202
  830MPD2    C112256   4.531   4.719  15.703 -0.0902  0.3155 -0.3330
  830MPD2    C212257   4.527   0.080  15.603 -0.3531  0.0597 -0.2283
  830MPD2    C312258   4.612   0.082  15.496 -0.1820  0.2401 -0.1706
  830MPD2    C412259   4.707   4.723  15.478 -0.4002 -0.2028  0.0407
  830MPD2    C512260   4.719   4.632  15.587  0.2864 -0.0739 -0.5300
  830MPD2     H12261   4.459   0.164  15.596  1.5884  1.5862 -0.8176
  830MPD2    H112262   0.041   4.715  15.396 -0.3212 -1.4878  0.2254
  830MPD2    H212263   4.633   4.552  15.765  1.3469 -0.7398 -0.9500
  830MPD2    H312264   0.063   4.559  15.583  1.6826  1.4434  0.1171
  830MPD2     N12265   4.588   0.169  15.390 -0.4806  0.3525  0.2284
  830MPD2    H512266   4.665   0.194  15.329 -1.8976  2.4653 -0.6827
  830MPD2    N112267   4.447   4.725  15.818 -0.2786 -0.0822  0.0554
  830MPD2    H712268   4.466   4.670  15.901 -0.0350 -0.2277 -0.0952
  831MPD2     C12269   4.159   1.947  16.510 -0.1478 -0.3730  0.2840
  831MPD2    C112270   4.239   1.859  16.448 -0.2009 -0.2106 -0.0146
  831MPD2    C212271   4.209   1.722  16.459  0.5107 -0.7822  0.4150
  831MPD2    C312272   4.106   1.676  16.540 -0.2667 -0.1412 -0.6705
  831MPD2    C412273   4.045   1.767  16.622 -0.3307 -0.2474 -0.4463
  831MPD2    C512274   4.070   1.900  16.604 -0.6478  0.1055 -0.2842
  831MPD2     H12275   4.257   1.654  16.389 -0.7820 -1.0569 -0.2011
  831MPD2    H112276   3.968   1.733  16.689 -1.2325  1.4817 -0.6120
  831MPD2    H212277   4.169   2.055  16.504 -0.7483 -0.2730  1.0980
  831MPD2    H312278   4.005   1.969  16.656 -0.5747  0.9797 -1.3485
  831MPD2     N12279   4.045   1.555  16.522  1.0901  0.0715 -0.1113
  831MPD2    H512280   3.968   1.535  16.586  0.2536  1.6740 -0.6370
  831MPD2    N112281   4.341   1.905  16.360 -0.0638  0.0033  0.0998
  831MPD2    H712282   4.345   2.005  16.341 -1.4792  0.4598  2.1826
  832MPD2     C12283   2.697   2.961  17.679  0.1796  0.3309  0.0416
  832MPD2    C112284   2.682   3.086  17.616  0.0382  0.4523 -0.7724
  832MPD2    C212285   2.574   3.100  17.530 -0.4512 -0.4213  0.2272
  832MPD2    C312286   2.479   3.004  17.509  0.0961  0.0323  0.5435
  832MPD2    C412287   2.502   2.881  17.571 -0.3354 -0.2345 -0.7181
  832MPD2    C512288   2.612   2.858  17.641 -0.5232  0.0862 -0.5833
  832MPD2     H12289   2.561   3.193  17.477  0.0424 -1.0221 -0.9591
  832MPD2    H112290   2.426   2.804  17.558 -0.7822  0.4118 -1.9369
  832MPD2    H212291   2.775   2.933   0.004  1.8873  2.3860 -1.0673
  832MPD2    H312292   2.626   2.759  17.682 -2.7612  0.1048  0.2314
  832MPD2     N12293   2.367   3.010  17.418 -0.9696  0.1899  0.1473
  832MPD2    H512294   2.328   2.917  17.407 -0.1907 -0.1284  0.0773
  832MPD2    N112295   2.764   3.190  17.655  0.5301  0.0131  0.0314
  832MPD2    H712296   2.842   3.164  17.715 -0.1995  1.4452  1.5934
  833MPD2     C12297   0.115   3.984  12.785 -0.5132  0.7360  0.8157
  833MPD2    C112298   0.118   4.074  12.680  0.2230 -0.2242 -0.3436
  833MPD2    C212299   0.156   4.033  12.547  0.3259 -0.1021  0.3336
  833MPD2    C312300   0.162   3.893  12.530 -0.0524 -0.3510  0.3977
  833MPD2    C412301   0.147   3.810  12.640 -0.2491 -0.2435 -0.2851
  833MPD2    C512302   0.136   3.856  12.770  1.2185 -0.5205 -0.4273
  833MPD2     H12303   0.154   4.105  12.467 -0.7446  0.2698  0.6907
  833MPD2    H112304   0.154   3.706  12.608 -0.1302 -0.1403 -0.5913
  833MPD2    H212305   0.110   4.021  12.887 -0.0875 -1.0735  1.5062
  833MPD2    H312306   0.155   3.797  12.859  0.9242 -1.0230 -0.6976
  833MPD2     N12307   0.165   3.837  12.398 -0.1655  0.4216 -0.0278
  833MPD2    H512308   0.135   3.740  12.394 -0.0122  0.3180  1.3345
  833MPD2    N112309   0.074   4.204  12.715  0.2493 -0.1777  0.1975
  833MPD2    H712310   0.048   4.217  12.812  1.3947  1.2412  0.3159
  834MPD2     C12311   4.405   3.121  11.995  0.5161  0.2082  0.1865
  834MPD2    C112312   4.376   3.216  11.898  0.5032  0.2985 -0.4139
  834MPD2    C212313   4.418   3.351  11.918  0.5362  0.3165 -0.3008
  834MPD2    C312314   4.486   3.387  12.031 -0.9563 -0.8201 -0.5659
  834MPD2    C412315   4.509   3.292  12.128  0.1108 -0.7791  0.2087
  834MPD2    C512316   4.471   3.165  12.107 -0.0193 -0.0649  0.1126
  834MPD2     H12317   4.391   3.425  11.843 -1.6262 -0.9355 -0.7705
  834MPD2    H112318   4.549   3.306  12.228 -2.0813  1.0543  0.8122
  834MPD2    H212319   4.384   3.015  11.988  1.6816 -0.0259  0.2416
  834MPD2    H312320   4.501   3.098  12.187  0.5629 -1.3293 -1.1537
  834MPD2     N12321   4.536   3.516  12.045 -0.0980  0.4161  0.0937
  834MPD2    H512322   4.514   3.585  11.974  1.5141  1.2678  0.4269
  834MPD2    N112323   4.298   3.175  11.780  0.4290  0.4065  1.1584
  834MPD2    H712324   4.297   3.075  11.760  2.3356  0.8992 -1.4082
  835MPD2     C12325   0.167   1.611  11.415 -0.2367  0.2038  0.5947
  835MPD2    C112326   0.098   1.710  11.482  0.0492  0.1852 -0.5354
  835MPD2    C212327   0.167   1.778  11.582  0.4550  0.8092  0.2061
  835MPD2    C312328   0.304   1.747  11.610 -0.2264 -0.0452  0.2093
  835MPD2    C412329   0.364   1.667  11.527  0.1008  0.2713 -0.0700
  835MPD2    C512330   0.302   1.597  11.433 -0.5322  0.0824 -0.1092
  835MPD2     H12331   0.115   1.861  11.628  0.4933  1.3514 -0.7280
  835MPD2    H112332   0.471   1.652  11.533  0.2880  1.6231 -0.0900
  835MPD2    H212333   0.124   1.559  11.331 -0.5462  2.9247 -0.9236
  835MPD2    H312334   0.359   1.534  11.366  1.0958  1.5124 -0.0672
  835MPD2     N12335   0.359   1.805  11.724 -0.1123 -0.5071  0.5203
  835MPD2    H512336   0.454   1.773  11.737 -0.3175 -0.2434  2.6170
  835MPD2    N112337   4.701   1.754  11.459  0.2708  0.4517 -0.4119
  835MPD2    H712338   4.669   1.836  11.509  1.4672  0.8484 -0.2848
  836MPD2     C12339   4.718   1.894  12.290 -0.1174 -0.0790  0.7083
  836MPD2    C112340   0.098   1.942  12.336 -0.1257  0.5279  0.2074
  836MPD2    C212341   0.104   2.002  12.459 -0.1433 -0.4518  0.4761
  836MPD2    C312342   4.724   2.021  12.529 -0.7087 -0.6660  1.4200
  836MPD2    C412343   4.604   1.975  12.480  1.2838  0.4294  0.6332
  836MPD2    C512344   4.603   1.907  12.364 -0.0338  0.5441  0.2679
  836MPD2     H12345   0.199   2.024  12.507 -0.4497 -0.2570  0.9903
  836MPD2    H112346   4.510   1.982  12.533  0.2097  0.6767 -1.3036
  836MPD2    H212347   4.718   1.845  12.193  1.4266 -0.9628  1.1383
  836MPD2    H312348   4.503   1.875  12.337  0.5762  0.2888 -1.6819
  836MPD2     N12349   4.724   2.099  12.648 -0.0689 -0.2071  0.2715
  836MPD2    H512350   4.638   2.095  12.701  0.5792  1.7082  1.4817
  836MPD2    N112351   0.202   1.918  12.253 -0.0613  0.0462 -0.1525
  836MPD2    H712352   0.186   1.864  12.168 -1.2620 -2.3414  1.5846
  837MPD2     C12353   2.687   1.760  10.481 -0.1507 -0.5749  0.1752
  837MPD2    C112354   2.580   1.785  10.398 -1.0524  0.6330 -0.5935
  837MPD2    C212355   2.561   1.915  10.359 -0.3126  0.5846  0.4282
  837MPD2    C312356   2.632   2.022  10.404  0.2085 -0.3425 -0.3120
  837MPD2    C412357   2.734   1.999  10.486  0.5002  0.3643  1.1812
  837MPD2    C512358   2.766   1.870  10.525  0.8210  0.1561  0.5623
  837MPD2     H12359   2.472   1.940  10.303 -0.5233  0.3952  0.6751
  837MPD2    H112360   2.781   2.087  10.528  0.6152  0.7598  0.2164
  837MPD2    H212361   2.704   1.657  10.513 -0.4369 -0.4378  0.7683
  837MPD2    H312362   2.838   1.845  10.602 -1.3145 -4.6816  0.9516
  837MPD2     N12363   2.577   2.149  10.374 -0.2073  0.1521 -1.3454
  837MPD2    H512364   2.494   2.153  10.316 -0.7672 -0.5106 -0.5866
  837MPD2    N112365   2.478   1.694  10.354  0.1544  0.6263  0.2890
  837MPD2    H712366   2.400   1.733  10.301 -1.8760 -1.4856  1.7360
  838MPD2     C12367   1.283   0.200  12.080 -0.2302 -0.6935  0.1838
  838MPD2    C112368   1.309   0.073  12.129 -0.0730  0.4512 -0.1287
  838MPD2    C212369   1.231   0.017  12.232  0.1255  0.0181 -0.5071
  838MPD2    C312370   1.126   0.089  12.286  0.2476  0.0500 -0.1576
  838MPD2    C412371   1.101   0.217  12.237  0.4089 -0.3072  0.0936
  838MPD2    C512372   1.174   0.262  12.134 -0.5590 -0.6815  0.9330
  838MPD2     H12373   1.251   4.653  12.266  0.1124 -0.0622 -0.7327
  838MPD2    H112374   1.032   0.289  12.281 -1.0502 -0.9951 -1.0715
  838MPD2    H212375   1.345   0.253  12.009 -0.6105  0.1814  0.5137
  838MPD2    H312376   1.155   0.365  12.107 -0.5013 -0.9983 -0.3162
  838MPD2     N12377   1.037   0.026  12.375 -0.4037 -0.8253  0.1165
  838MPD2    H512378   1.060   4.667  12.398 -1.3152 -0.5228  2.2678
  838MPD2    N112379   1.408   4.730  12.070  0.3708 -0.8151 -0.3297
  838MPD2    H712380   1.429   4.643  12.117  1.4559 -0.1710  0.3949
  839MPD2     C12381   0.850   4.497  11.734 -0.1599 -0.4253 -0.3410
  839MPD2    C112382   0.924   4.384  11.692 -0.6598 -0.2580  0.8548
  839MPD2    C212383   1.061   4.387  11.693  0.2532 -0.3501 -0.3825
  839MPD2    C312384   1.127   4.497  11.743  0.5134  0.2597 -0.2755
  839MPD2    C412385   1.053   4.610  11.785  0.0678 -0.4824  0.5812
  839MPD2    C512386   0.912   4.606  11.789 -0.4341  0.5060 -0.1502
  839MPD2     H12387   1.128   4.304  11.675  0.3416 -0.2999 -0.2889
  839MPD2    H112388   1.091   4.708  11.813 -1.2704  0.1036  0.3500
  839MPD2    H212389   0.743   4.499  11.722 -0.2182 -0.0483  0.2690
  839MPD2    H312390   0.850   4.683  11.832  0.0592  0.6537  0.2887
  839MPD2     N12391   1.265   4.512  11.762  0.1765  0.3112 -0.4226
  839MPD2    H512392   1.295   4.599  11.804 -1.7127  0.6810  0.1600
  839MPD2    N112393   0.868   4.264  11.643 -0.6067 -0.1420  0.3379
  839MPD2    H712394   0.934   4.201  11.597  0.4752  0.4717  1.0401
  840MPD2     C12395   1.229   2.607  10.425  0.0132 -0.2380  0.2615
  840MPD2    C112396   1.225   2.553  10.552  0.9343  0.2921  0.5282
  840MPD2    C212397   1.326   2.578  10.639 -0.0173  0.3773  0.3635
  840MPD2    C312398   1.431   2.669  10.606 -0.0684  0.1769  0.2388
  840MPD2    C412399   1.433   2.707  10.477 -0.3841  0.2823 -0.0698
  840MPD2    C512400   1.330   2.690  10.390 -0.2406 -0.3267 -0.3225
  840MPD2     H12401   1.336   2.529  10.734  0.3111  2.7662  1.5539
  840MPD2    H112402   1.507   2.775  10.438  0.3928  0.2216  1.3181
  840MPD2    H212403   1.148   2.594  10.353  2.3573 -1.8445 -2.0933
  840MPD2    H312404   1.334   2.739  10.293  2.0745  0.5554  0.2250
  840MPD2     N12405   1.530   2.707  10.698  0.1738 -0.3120 -0.2920
  840MPD2    H512406   1.613   2.760  10.673 -0.5452  0.9436 -0.0346
  840MPD2    N112407   1.116   2.464  10.579 -0.7809  0.6626  0.3879
  840MPD2    H712408   1.050   2.442  10.504 -1.0405 -1.5042  1.2466
  841MPD2     C12409   1.366   1.933  14.218  0.1777 -0.2167 -0.1391
  841MPD2    C112410   1.340   1.825  14.302  0.7988  0.1767  0.3713
  841MPD2    C212411   1.399   1.820  14.426 -0.0120 -0.9672  0.0218
  841MPD2    C312412   1.475   1.927  14.474  0.0406  0.6996 -0.2097
  841MPD2    C412413   1.479   2.038  14.396  0.0616  0.2092  0.7064
  841MPD2    C512414   1.427   2.043  14.269 -0.0581  0.4532 -0.6336
  841MPD2     H12415   1.378   1.733  14.487  0.1133 -0.4813  0.7566
  841MPD2    H112416   1.544   2.121  14.420  0.6394 -0.0604  0.0726
  841MPD2    H212417   1.354   1.919  14.111 -1.2073  0.2989 -0.0529
  841MPD2    H312418   1.437   2.129  14.204 -4.9405 -0.4477 -2.5696
  841MPD2     N12419   1.536   1.917  14.599  0.2195  0.0683 -0.1367
  841MPD2    H512420   1.528   1.834  14.658 -0.6576  0.6400  0.5502
  841MPD2    N112421   1.262   1.716  14.239  0.7345  0.6563  0.5849
  841MPD2    H712422   1.218   1.747  14.153  2.2065 -1.6557 -1.0121
  842MPD2     C12423   1.845   3.435  17.071  0.2160 -0.1685  0.0004
  842MPD2    C112424   1.824   3.298  17.091  0.7006  0.2931  0.6512
  842MPD2    C212425   1.831   3.246  17.218  0.3686  0.1998 -0.3447
  842MPD2    C312426   1.856   3.328  17.328  0.5005  0.0252  0.0749
  842MPD2    C412427   1.890   3.459  17.304 -0.0969  0.3858 -0.1210
  842MPD2    C512428   1.879   3.510  17.178  0.6616 -0.0844  0.2263
  842MPD2     H12429   1.802   3.142  17.227 -0.6082  0.4512 -0.5269
  842MPD2    H112430   1.903   3.525  17.390 -2.6795  0.8742 -0.0965
  842MPD2    H212431   1.856   3.472  16.970 -1.1111  2.4300  0.8311
  842MPD2    H312432   1.902   3.613  17.155 -1.6150  0.7860  1.8432
  842MPD2     N12433   1.813   3.290  17.452 -0.0475  0.3252  0.6827
  842MPD2    H512434   1.803   3.367  17.518  2.8054  0.5001  0.9047
  842MPD2    N112435   1.772   3.228  16.975 -0.6019  0.5328 -0.0882
  842MPD2    H712436   1.762   3.287  16.893  1.6075  0.6388 -0.2643
  843MPD2     C12437   3.718   3.947   0.131  0.4101  0.4359 -0.8989
  843MPD2    C112438   3.720   4.061   0.058 -0.4625 -0.0308  0.2346
  843MPD2    C212439   3.818   4.152   0.079  0.6223 -0.0443  0.5604
  843MPD2    C312440   3.923   4.130   0.168  0.3854  0.1152 -0.6153
  843MPD2    C412441   3.918   4.013   0.241  0.8868 -0.3856 -0.7804
  843MPD2    C512442   3.819   3.921   0.220  0.0827 -0.0923 -0.4015
  843MPD2     H12443   3.806   4.247   0.028 -0.3285 -1.1279 -1.2191
  843MPD2    H112444   3.983   3.992   0.325  0.6756  0.5756 -0.3756
  843MPD2    H212445   3.633   3.880   0.119  0.0504  0.5146  1.3152
  843MPD2    H312446   3.829   3.833   0.282 -0.9749 -1.5679 -2.3375
  843MPD2     N12447   4.022   4.222   0.201  0.5650 -0.6281  0.4252
  843MPD2    H512448   4.082   4.203   0.281 -0.7945 -1.1052  1.3233
  843MPD2    N112449   3.598   4.084  17.733 -0.2202  0.6377  0.0867
  843MPD2    H712450   3.527   4.012  17.744 -3.2284  3.4821 -0.4530
  844MPD2     C12451   2.466   2.514  16.841 -0.0514  0.1717  0.4158
  844MPD2    C112452   2.408   2.626  16.787 -0.6484  0.7013  0.0813
  844MPD2    C212453   2.444   2.746  16.847  0.2825  0.7810  0.1946
  844MPD2    C312454   2.531   2.753  16.955 -0.3403  0.5031  0.1767
  844MPD2    C412455   2.593   2.637  17.001 -0.0066 -0.1595  0.4323
  844MPD2    C512456   2.558   2.518  16.944  0.3199  0.5507  0.4341
  844MPD2     H12457   2.398   2.839  16.815 -0.7007  1.2236  2.9029
  844MPD2    H112458   2.654   2.623  17.089 -0.3920 -3.1601  0.2354
  844MPD2    H212459   2.457   2.417  16.793 -0.4693 -0.8622  2.5764
  844MPD2    H312460   2.595   2.424  16.984  2.2518  0.7757 -0.8338
  844MPD2     N12461   2.561   2.872  17.025  0.1129 -0.8325  0.4979
  844MPD2    H512462   2.617   2.865  17.109 -0.2674  0.9721  0.8994
  844MPD2    N112463   2.323   2.614  16.674 -0.4025  0.3368  0.2027
  844MPD2    H712464   2.301   2.697  16.619 -1.9171  1.0471  1.8451
  845MPD2     C12465   2.276   3.769  17.444 -0.7999 -0.7547 -0.1684
  845MPD2    C112466   2.355   3.690  17.531  0.1014 -0.4860  0.2730
  845MPD2    C212467   2.453   3.599  17.481 -0.3023 -0.3084  0.3070
  845MPD2    C312468   2.470   3.596  17.347  0.5048 -0.0965  0.0320
  845MPD2    C412469   2.405   3.681  17.266  0.1109 -0.5307  0.3216
  845MPD2    C512470   2.302   3.762  17.308  0.1085 -0.8935 -0.2523
  845MPD2     H12471   2.517   3.542  17.547  0.2941 -1.0789 -0.9443
  845MPD2    H112472   2.422   3.681  17.159  0.9152 -1.5004  0.4447
  845MPD2    H212473   2.202   3.838  17.482 -0.7760  0.0038 -1.4995
  845MPD2    H312474   2.241   3.812  17.233  0.4059  0.0972  0.1703
  845MPD2     N12475   2.554   3.489  17.292  0.2839  0.5884 -0.3029
  845MPD2    H512476   2.603   3.426  17.355  0.7366 -0.1771 -1.4393
  845MPD2    N112477   2.331   3.707  17.669 -0.0678  0.2485  0.3197
  845MPD2    H712478   2.272   3.783  17.703 -1.8476 -0.3837 -1.3548
  846MPD2     C12479   3.630   4.185  13.871 -0.1000  0.1273  0.1357
  846MPD2    C112480   3.693   4.072  13.906  0.5550  0.1462 -0.1018
  846MPD2    C212481   3.680   4.010  14.032 -0.1181 -0.0161 -0.3794
  846MPD2    C312482   3.598   4.074  14.125 -0.0574 -0.0485  0.4650
  846MPD2    C412483   3.530   4.184  14.089 -0.3525  0.0110 -0.0588
  846MPD2    C512484   3.543   4.238  13.964  0.2691  0.1923  0.4575
  846MPD2     H12485   3.725   3.914  14.057  1.3528  0.9540  0.7293
  846MPD2    H112486   3.460   4.237  14.153 -0.1873  1.5847 -1.1720
  846MPD2    H212487   3.640   4.238  13.777 -0.3286 -1.3111 -0.7017
  846MPD2    H312488   3.489   4.327  13.935 -2.6279 -2.6007 -2.8571
  846MPD2     N12489   3.563   4.028  14.253 -0.4596 -0.1898  0.2799
  846MPD2    H512490   3.502   4.094  14.299  0.4782  0.5669  0.4184
  846MPD2    N112491   3.784   4.012  13.814  0.7677  0.1459  0.2040
  846MPD2    H712492   3.831   3.926  13.841 -0.4008 -1.2306 -2.1279
  847MPD2     C12493   4.479   1.023  14.706 -0.0307  0.1684 -0.3939
  847MPD2    C112494   4.509   0.907  14.767  0.8365  0.7766  0.3394
  847MPD2    C212495   4.622   0.903  14.848 -0.2239 -0.6559 -0.0929
  847MPD2    C312496   4.698   1.018  14.876 -0.1994  0.2816 -0.1631
  847MPD2    C412497   4.654   1.136  14.812  1.0086 -0.0743  0.1448
  847MPD2    C512498   4.549   1.138  14.726  0.1124 -0.0153 -0.4628
  847MPD2     H12499   4.645   0.807  14.893 -0.9689 -1.7440 -2.0547
  847MPD2    H112500   4.683   1.235  14.843  1.4672 -0.1897  0.0792
  847MPD2    H212501   4.389   1.041  14.649  0.1268  0.8694 -0.4204
  847MPD2    H312502   4.513   1.229  14.680  0.3808  0.6589  0.6815
  847MPD2     N12503   0.088   1.013  14.943  0.2354 -0.0640  0.3507
  847MPD2    H512504   0.136   1.101  14.954 -0.2925  0.1052  1.3449
  847MPD2    N112505   4.426   0.795  14.745 -0.5147 -0.2974  0.0896
  847MPD2    H712506   4.443   0.718  14.809  0.0670 -0.3611 -0.1431
  848MPD2     C12507   2.044   3.337  16.696 -0.2942  0.1430  0.0276
  848MPD2    C112508   2.087   3.381  16.816  0.0783  0.6969 -0.0942
  848MPD2    C212509   2.095   3.511  16.848 -0.0282  0.3022 -0.6810
  848MPD2    C312510   2.046   3.609  16.752 -0.5002 -0.2166  0.1569
  848MPD2    C412511   2.003   3.561  16.636  0.1245 -0.0134  0.4062
  848MPD2    C512512   2.005   3.426  16.602  0.6551 -0.6799 -0.0046
  848MPD2     H12513   2.137   3.537  16.944 -0.3190 -0.4512 -0.3450
  848MPD2    H112514   1.961   3.627  16.561 -1.2126  0.8619  1.8940
  848MPD2    H212515   2.044   3.230  16.680 -2.4398  0.0427  0.6413
  848MPD2    H312516   1.966   3.403  16.504 -0.2737 -0.7876  0.3853
  848MPD2     N12517   2.012   3.741  16.789  0.1205 -0.2801  0.7792
  848MPD2    H512518   1.957   3.791  16.719  1.6827  1.3584  0.7222
  848MPD2    N112519   2.125   3.286  16.911 -0.5300  0.5116 -0.8876
  848MPD2    H712520   2.137   3.337  16.998 -0.8227  0.2279 -0.6830
  849MPD2     C12521   0.886   2.483  14.171  0.6309 -0.2679  0.1737
  849MPD2    C112522   0.980   2.576  14.202 -0.1951  0.4266  0.2197
  849MPD2    C212523   1.064   2.550  14.302 -0.0863 -0.5989 -0.2772
  849MPD2    C312524   1.071   2.427  14.363 -0.3284 -0.4614 -0.6643
  849MPD2    C412525   0.973   2.336  14.336 -0.4808  1.0502  0.1832
  849MPD2    C512526   0.880   2.368  14.240 -0.2825 -0.0462  0.4158
  849MPD2     H12527   1.126   2.627  14.346 -2.1394 -1.5594  4.3673
  849MPD2    H112528   0.969   2.241  14.388 -1.3728  1.4148  0.7736
  849MPD2    H212529   0.810   2.502  14.097  0.1989 -0.0801  0.6619
  849MPD2    H312530   0.811   2.288  14.217  0.9174 -1.0304  0.2502
  849MPD2     N12531   1.172   2.398  14.453  0.8660  0.2869 -0.6874
  849MPD2    H512532   1.185   2.300  14.477 -0.5221  0.4552  0.8029
  849MPD2    N112533   0.974   2.707  14.140 -0.5412  0.1491 -0.2253
  849MPD2    H712534   0.906   2.726  14.067  0.1138  0.5849 -0.7265
  850MPD2     C12535   3.972   1.364  15.299 -0.3014  0.5536 -0.1190
  850MPD2    C112536   4.028   1.324  15.419 -0.1640 -0.2034 -0.0913
  850MPD2    C212537   4.168   1.323  15.419  0.2767  0.1141 -0.2579
  850MPD2    C312538   4.252   1.349  15.315  0.4089  0.8246 -0.1008
  850MPD2    C412539   4.197   1.377  15.196 -0.5517  0.2177  0.8314
  850MPD2    C512540   4.062   1.393  15.193 -0.1717  0.5927 -0.1550
  850MPD2     H12541   4.212   1.290  15.512 -0.0543 -1.2254 -0.5788
  850MPD2    H112542   4.256   1.405  15.109 -0.2835 -2.1106  0.2599
  850MPD2    H212543   3.867   1.364  15.273 -0.6547 -0.2313  1.2798
  850MPD2    H312544   4.013   1.413  15.098 -0.0172 -1.3428 -0.6399
  850MPD2     N12545   4.392   1.332  15.323  0.2974 -0.0174  0.7607
  850MPD2    H512546   4.429   1.302  15.412  3.2263 -1.6791 -1.0380
  850MPD2    N112547   3.969   1.285  15.536  0.2943 -0.6409  0.0415
  850MPD2    H712548   4.022   1.252  15.616  0.3113 -0.7305 -0.0074
  851MPD2     C12549   4.361   0.979  15.877 -0.5169  0.4101  0.3557
  851MPD2    C112550   4.251   0.922  15.828  0.0621 -0.5491 -0.0209
  851MPD2    C212551   4.254   0.818  15.734 -0.4616 -0.4497  0.1338
  851MPD2    C312552   4.372   0.791  15.677 -0.0269  0.7117  0.2402
  851MPD2    C412553   4.491   0.842  15.735  0.1639 -0.1789 -0.1940
  851MPD2    C512554   4.484   0.932  15.836 -0.2523 -0.0942 -0.1483
  851MPD2     H12555   4.165   0.780  15.686 -1.2207  0.8550  0.5003
  851MPD2    H112556   4.591   0.817  15.700  1.9042  5.7738  0.5775
  851MPD2    H212557   4.363   1.050  15.958 -0.5601 -1.8235  2.3119
  851MPD2    H312558   4.570   0.982  15.879 -1.1080 -0.4999  2.0443
  851MPD2     N12559   4.381   0.713  15.557  0.4924 -0.3141  0.1110
  851MPD2    H512560   4.291   0.692  15.515 -0.2039  2.6407  0.1793
  851MPD2    N112561   4.128   0.977  15.870 -0.3831  0.6387 -0.5676
  851MPD2    H712562   4.133   1.062  15.925 -1.1877 -0.6001  1.4131
  852MPD2     C12563   3.597   3.577   9.810  0.5268  0.0412  0.2926
  852MPD2    C112564   3.638   3.615   9.937 -0.5600 -0.0128  0.2296
  852MPD2    C212565   3.742   3.708   9.956  0.2952  0.1566  0.1493
  852MPD2    C312566   3.804   3.759   9.845 -0.3550  0.5928 -0.0961
  852MPD2    C412567   3.776   3.714   9.720  0.0517 -0.1046  1.0396
  852MPD2    C512568   3.675   3.620   9.704 -0.1285 -0.4380 -0.2388
  852MPD2     H12569   3.757   3.741  10.058  0.3194  0.5479  0.0169
  852MPD2    H112570   3.829   3.733   9.627 -0.8027  0.3280  0.6481
  852MPD2    H212571   3.516   3.506   9.797  0.6565  0.0608 -0.6241
  852MPD2    H312572   3.649   3.593   9.603 -0.6655  0.7703 -0.4248
  852MPD2     N12573   3.918   3.837   9.861  0.2249 -0.0560 -0.6354
  852MPD2    H512574   3.939   3.858   9.958 -3.3743 -2.1991  0.6240
  852MPD2    N112575   3.572   3.562  10.051 -0.3890  0.6304 -0.2635
  852MPD2    H712576   3.607   3.585  10.143 -0.3783 -0.1252 -0.0818
  853MPD2     C12577   0.636   3.264  12.624  0.2996  0.3411  0.1588
  853MPD2    C112578   0.568   3.380  12.601  0.9184  0.1968  0.1869
  853MPD2    C212579   0.503   3.395  12.484 -0.2004 -0.6412  0.2788
  853MPD2    C312580   0.528   3.296  12.378  0.0201  0.9882  0.3989
  853MPD2    C412581   0.599   3.180  12.405 -0.5207  0.8617 -0.5845
  853MPD2    C512582   0.651   3.165  12.531  0.2656  0.0302  0.0324
  853MPD2     H12583   0.431   3.475  12.475 -0.2083 -0.9821 -2.6003
  853MPD2    H112584   0.619   3.113  12.322 -0.3057 -1.5590  1.4523
  853MPD2    H212585   0.684   3.245  12.719 -0.1090 -1.1313  0.0766
  853MPD2    H312586   0.708   3.078  12.563  1.3402  1.0005  0.7432
  853MPD2     N12587   0.470   3.307  12.247 -0.0755  0.1980 -0.0360
  853MPD2    H512588   0.506   3.240  12.180 -0.0763 -0.4813  0.6381
  853MPD2    N112589   0.574   3.479  12.704  1.3232 -0.3700 -0.6880
  853MPD2    H712590   0.636   3.459  12.782  0.0851  0.2511  0.4595
  854MPD2     C12591   2.334   3.446  13.064 -0.6201  0.9324  0.0866
  854MPD2    C112592   2.443   3.523  13.041 -0.3135  0.0777 -0.0268
  854MPD2    C212593   2.566   3.492  13.080 -0.5390  0.1650 -0.3168
  854MPD2    C312594   2.587   3.382  13.164  0.7297  0.2523  0.3297
  854MPD2    C412595   2.472   3.310  13.203  0.7444  0.1200  0.4718
  854MPD2    C512596   2.350   3.339  13.158 -0.5014 -0.1751  0.1436
  854MPD2     H12597   2.651   3.552  13.053  1.1402 -0.6533  3.0643
  854MPD2    H112598   2.483   3.215  13.254  0.3085 -0.3699 -0.3461
  854MPD2    H212599   2.232   3.475  13.043 -1.2655 -1.8049 -0.5160
  854MPD2    H312600   2.269   3.291  13.211  0.7817 -1.3274  1.0462
  854MPD2     N12601   2.711   3.348  13.237 -0.5818  0.5642  0.7099
  854MPD2    H512602   2.699   3.281  13.313 -2.0348 -2.8793 -2.5618
  854MPD2    N112603   2.419   3.640  12.969 -0.0428 -0.0293  0.0611
  854MPD2    H712604   2.328   3.665  12.930  0.3452  3.1819  1.2406
  855MPD2     C12605   2.578   3.205  14.025  0.0933 -0.6785 -0.0443
  855MPD2    C112606   2.697   3.143  14.013  0.2502  0.0437  0.1047
  855MPD2    C212607   2.775   3.164  13.901 -0.0358  0.0353 -0.4847
  855MPD2    C312608   2.738   3.246  13.794  0.2849  0.1131 -0.0385
  855MPD2    C412609   2.620   3.321  13.818 -0.6543 -0.3113  0.5184
  855MPD2    C512610   2.541   3.299  13.927 -0.0750  0.3239 -0.2342
  855MPD2     H12611   2.860   3.099  13.885 -1.6149 -2.2617  0.2547
  855MPD2    H112612   2.563   3.382  13.748  0.8057  0.5987  0.1129
  855MPD2    H212613   2.528   3.192  14.120 -0.5524  0.1187 -0.2750
  855MPD2    H312614   2.446   3.346  13.950  0.3506  1.1923 -0.2448
  855MPD2     N12615   2.810   3.270  13.676 -0.3832  0.4054  0.0320
  855MPD2    H512616   2.761   3.323  13.605 -0.5323  0.1192 -0.0802
  855MPD2    N112617   2.736   3.042  14.108  0.5902  0.6052  0.0278
  855MPD2    H712618   2.667   3.015  14.177 -0.0215  1.3980 -0.2789
  856MPD2     C12619   0.671   3.289  14.509 -0.2666  0.0020  0.0685
  856MPD2    C112620   0.687   3.425  14.467  1.0372  1.1095 -0.1437
  856MPD2    C212621   0.571   3.493  14.425 -0.4952  0.7643  0.2263
  856MPD2    C312622   0.451   3.424  14.421 -0.8209 -0.2610 -0.0023
  856MPD2    C412623   0.439   3.288  14.449  0.1877 -0.2415  0.9096
  856MPD2    C512624   0.556   3.219  14.496 -0.4824  0.6862 -0.1530
  856MPD2     H12625   0.580   3.592  14.382 -0.4484 -0.1423 -1.8901
  856MPD2    H112626   0.338   3.248  14.442  0.8777 -1.7531 -0.3526
  856MPD2    H212627   0.756   3.230  14.541 -0.8619 -0.0996  1.4439
  856MPD2    H312628   0.565   3.112  14.515 -0.2748  0.6534 -0.4325
  856MPD2     N12629   0.331   3.485  14.392  0.3243 -0.1366  0.3668
  856MPD2    H512630   0.250   3.429  14.368  2.1635 -1.2783 -3.0380
  856MPD2    N112631   0.809   3.498  14.452  0.6705  0.6879 -0.5872
  856MPD2    H712632   0.799   3.594  14.423  1.1515  0.8879 -0.1024
  857MPD2     C12633   1.774   1.324  13.099 -0.1936 -0.1165 -1.1064
  857MPD2    C112634   1.902   1.362  13.069 -0.0256 -0.7899  0.1721
  857MPD2    C212635   1.944   1.488  13.108 -0.1079 -0.5723 -0.4490
  857MPD2    C312636   1.868   1.574  13.186 -0.2373  0.3317 -0.4441
  857MPD2    C412637   1.740   1.527  13.212  0.0692 -0.0854 -0.1694
  857MPD2    C512638   1.690   1.412  13.163  0.3037  0.3647 -0.0428
  857MPD2     H12639   2.047   1.513  13.089  0.3988 -2.0355  0.3670
  857MPD2    H112640   1.671   1.590  13.268  1.7410  0.5658  1.1523
  857MPD2    H212641   1.720   1.235  13.070  0.1336 -1.1322  1.3883
  857MPD2    H312642   1.589   1.378  13.184  1.1257 -1.5271  0.8877
  857MPD2     N12643   1.932   1.692  13.237 -0.6257  0.2311  0.1031
  857MPD2    H512644   2.023   1.715  13.199 -0.4666 -0.1316  0.2676
  857MPD2    N112645   1.976   1.282  12.984  0.1464 -0.7194  0.2574
  857MPD2    H712646   1.927   1.199  12.951 -0.3450 -0.9910  1.6943
  858MPD2     C12647   3.270   0.253  16.575  0.2399  0.3862  0.1232
  858MPD2    C112648   3.133   0.233  16.546 -0.6297 -0.0100 -0.1014
  858MPD2    C212649   3.041   0.261  16.645  0.4104 -0.8214 -0.3160
  858MPD2    C312650   3.061   0.315  16.768 -0.1697  0.3729  0.4348
  858MPD2    C412651   3.194   0.338  16.792  0.2428  0.1569 -0.3313
  858MPD2    C512652   3.294   0.300  16.702 -0.0453 -0.3774 -0.8975
  858MPD2     H12653   2.939   0.227  16.627  0.7918 -1.0417 -2.0589
  858MPD2    H112654   3.232   0.372  16.888  2.9307 -2.1461 -0.5841
  858MPD2    H212655   3.344   0.212  16.506  0.7107  1.8512 -0.2296
  858MPD2    H312656   3.394   0.316  16.741  0.2430 -0.0339 -1.7732
  858MPD2     N12657   2.955   0.341  16.851 -0.5717  0.1796  0.5289
  858MPD2    H512658   2.862   0.305  16.830 -1.4985  0.8932  3.3628
  858MPD2    N112659   3.097   0.178  16.425 -0.8167  0.3660 -0.2743
  858MPD2    H712660   3.161   0.123  16.369 -1.1392 -0.5083  0.2152
  859MPD2     C12661   1.434   2.704  16.027  0.2270 -0.1894  0.1542
  859MPD2    C112662   1.445   2.644  15.901 -0.2509 -0.4898  0.1134
  859MPD2    C212663   1.375   2.530  15.878 -0.2416  0.7107 -0.1526
  859MPD2    C312664   1.291   2.468  15.973  0.6428  0.7321  0.4132
  859MPD2    C412665   1.284   2.532  16.091  0.2458  0.2037  0.0801
  859MPD2    C512666   1.350   2.648  16.116  0.1348  0.8710  0.4271
  859MPD2     H12667   1.382   2.492  15.777  3.2255  2.2577 -0.5011
  859MPD2    H112668   1.232   2.487  16.175  1.6138 -0.4084  0.6003
  859MPD2    H212669   1.481   2.800  16.044  0.4674  0.0164 -1.6051
  859MPD2    H312670   1.322   2.702  16.205 -2.8977 -0.2877  0.1812
  859MPD2     N12671   1.203   2.360  15.944 -0.3391 -0.5708 -0.3175
  859MPD2    H512672   1.139   2.330  16.017  0.9596 -2.1141  0.1915
  859MPD2    N112673   1.534   2.711  15.807 -0.2103 -0.5116 -0.2389
  859MPD2    H712674   1.575   2.799  15.837 -0.7706  0.5295 -2.5365
  860MPD2     C12675   3.602   2.980  11.910  0.0575  0.2406 -0.2976
  860MPD2    C112676   3.604   2.988  12.045 -0.3019  0.0993 -0.6942
  860MPD2    C212677   3.482   2.990  12.107 -0.3093 -0.7934 -0.0148
  860MPD2    C312678   3.363   2.986  12.036  0.6832  0.2372  0.2215
  860MPD2    C412679   3.360   2.968  11.902 -0.1297  0.6537  0.5593
  860MPD2    C512680   3.483   2.960  11.844 -0.1789 -0.9556 -0.1306
  860MPD2     H12681   3.473   2.998  12.215 -0.2717 -2.5240  0.1099
  860MPD2    H112682   3.268   2.953  11.847  1.4417  0.3920 -2.0037
  860MPD2    H212683   3.697   2.965  11.860 -0.2339 -0.8294 -0.5186
  860MPD2    H312684   3.486   2.936  11.738 -1.4764  1.1498 -0.6338
  860MPD2     N12685   3.253   2.995  12.117  0.3673  0.2044  0.1617
  860MPD2    H512686   3.267   3.017  12.215 -1.1038 -2.3611  0.9478
  860MPD2    N112687   3.718   2.996  12.123  0.2732  0.2028  0.3595
  860MPD2    H712688   3.700   3.014  12.221 -0.8207  0.4984  0.1104
  861MPD2     C12689   2.573   1.089  11.264  0.1066  0.5555 -0.5492
  861MPD2    C112690   2.452   1.063  11.329 -0.2244 -0.4443 -0.3263
  861MPD2    C212691   2.329   1.093  11.266 -0.8773  0.9824  0.4286
  861MPD2    C312692   2.328   1.156  11.139 -0.1882  0.4866 -0.3659
  861MPD2    C412693   2.451   1.191  11.091  0.0049 -0.2656 -0.2900
  861MPD2    C512694   2.572   1.158  11.150 -0.2127 -0.0805  0.3055
  861MPD2     H12695   2.247   1.088  11.337 -0.2946 -0.1427  1.0291
  861MPD2    H112696   2.452   1.252  11.001 -1.1681 -0.9690 -0.7821
  861MPD2    H212697   2.667   1.082  11.317 -1.2114 -0.4348  1.6397
  861MPD2    H312698   2.667   1.193  11.113 -0.4123  0.1570  0.0141
  861MPD2     N12699   2.212   1.195  11.066 -0.3317 -0.2545 -0.7728
  861MPD2    H512700   2.222   1.257  10.987  0.6548 -1.1717 -1.3570
  861MPD2    N112701   2.447   1.029  11.464 -0.3321 -0.8004 -0.0706
  861MPD2    H712702   2.359   1.031  11.515  0.7662 -1.3834  1.8338
  862MPD2     C12703   1.368   1.044  11.058 -0.6252 -0.4839  0.6907
  862MPD2    C112704   1.494   0.988  11.064 -0.6107 -0.4912 -0.0416
  862MPD2    C212705   1.507   0.851  11.088 -0.4401  0.1000 -0.1273
  862MPD2    C312706   1.395   0.765  11.081  0.6001 -0.0860  0.5331
  862MPD2    C412707   1.267   0.819  11.065 -0.0987  0.3164 -0.0301
  862MPD2    C512708   1.252   0.963  11.050 -0.3727  0.1056  0.5972
  862MPD2     H12709   1.604   0.804  11.099 -1.1771 -1.5681 -0.7645
  862MPD2    H112710   1.189   0.745  11.051  0.9259 -0.4940 -1.3972
  862MPD2    H212711   1.350   1.147  11.031 -0.0340 -0.5252  0.1308
  862MPD2    H312712   1.158   1.005  11.016 -1.4110 -1.0166  2.0566
  862MPD2     N12713   1.402   0.626  11.088 -0.1653  0.5647  0.0014
  862MPD2    H512714   1.312   0.585  11.111 -1.2514  2.5696 -0.6868
  862MPD2    N112715   1.611   1.065  11.056  0.3838  0.7773  0.2193
  862MPD2    H712716   1.695   1.010  11.043 -1.2242 -2.0717  1.7616
  863MPD2     C12717   0.836   4.107  16.880 -0.5612  0.1102  0.3998
  863MPD2    C112718   0.831   4.234  16.928  0.1101  0.4875  0.5230
  863MPD2    C212719   0.930   4.269  17.018 -0.0774 -0.2353  0.0165
  863MPD2    C312720   1.000   4.170  17.086  0.3553  0.0584  0.2597
  863MPD2    C412721   0.981   4.039  17.053  0.2198 -0.6132  0.2852
  863MPD2    C512722   0.905   4.007  16.937  0.4559  0.3120  0.4839
  863MPD2     H12723   0.942   4.368  17.060  2.6469 -0.7529  0.4676
  863MPD2    H112724   1.039   3.960  17.098  2.2105 -0.3349 -1.7451
  863MPD2    H212725   0.766   4.082  16.801  0.6894  1.1948 -1.0564
  863MPD2    H312726   0.905   3.913  16.884  1.2210  0.9457 -0.6463
  863MPD2     N12727   1.103   4.201  17.168 -0.4216  0.1527  0.3660
  863MPD2    H512728   1.145   4.117  17.206 -0.3592 -0.3927 -0.9038
  863MPD2    N112729   0.744   4.329  16.879  0.1248 -0.0478  0.4192
  863MPD2    H712730   0.678   4.292  16.812  0.1812 -0.3138  0.5104
  864MPD2     C12731   1.613   0.703  17.397 -0.3029  0.2541  0.0141
  864MPD2    C112732   1.600   0.611  17.291 -0.8718 -0.5344 -0.2274
  864MPD2    C212733   1.700   0.606  17.196 -0.1994  1.0750  0.3462
  864MPD2    C312734   1.804   0.700  17.195  0.0876 -0.6165  0.9765
  864MPD2    C412735   1.819   0.784  17.302 -0.2936  0.0898 -0.8155
  864MPD2    C512736   1.724   0.781  17.401 -0.2363 -0.1973 -0.4322
  864MPD2     H12737   1.690   0.545  17.106 -1.0448 -2.3633  2.7826
  864MPD2    H112738   1.909   0.844  17.312 -1.1283  1.2524 -0.1288
  864MPD2    H212739   1.542   0.714  17.478  0.2350  1.2694  0.3424
  864MPD2    H312740   1.724   0.845  17.489  0.3810  0.7683 -1.1369
  864MPD2     N12741   1.904   0.717  17.094  0.5642 -0.2443  0.5066
  864MPD2    H512742   1.955   0.804  17.094  0.0002  0.0802 -3.4286
  864MPD2    N112743   1.479   0.538  17.279  0.4354 -0.0946 -0.7777
  864MPD2    H712744   1.419   0.550  17.359  0.2349  0.7075 -1.0420
  865MPD2     C12745   1.724   1.173  16.256 -0.1897  0.4016  0.2665
  865MPD2    C112746   1.656   1.080  16.333  0.3593  0.2433 -0.0867
  865MPD2    C212747   1.733   1.024  16.434  0.8614 -0.1074  0.1622
  865MPD2    C312748   1.860   1.079  16.456 -0.1271  0.0275 -0.0450
  865MPD2    C412749   1.916   1.185  16.384 -0.4710 -0.4796 -0.7023
  865MPD2    C512750   1.854   1.227  16.277 -0.3432  0.5918 -0.7392
  865MPD2     H12751   1.704   0.926  16.472  0.6683  0.2381  0.9122
  865MPD2    H112752   2.013   1.226  16.408 -1.4191 -0.1540  2.6519
  865MPD2    H212753   1.679   1.202  16.162  1.7104 -3.6821 -1.8730
  865MPD2    H312754   1.901   1.300  16.212 -0.9890  0.3951 -1.4354
  865MPD2     N12755   1.944   1.023  16.562  0.7721  0.2242  0.5618
  865MPD2    H512756   2.038   1.060  16.578  0.2876  0.9672  1.7132
  865MPD2    N112757   1.534   1.043  16.285  0.0350  0.0391  0.1996
  865MPD2    H712758   1.502   1.087  16.200  3.1266 -0.6993 -1.3275
  866MPD2     C12759   3.108   1.091  11.233 -0.1254  0.4132 -0.0583
  866MPD2    C112760   3.093   1.206  11.163  0.2590 -0.7545 -0.5467
  866MPD2    C212761   2.983   1.285  11.187 -0.4996 -0.2356  0.4394
  866MPD2    C312762   2.902   1.251  11.295  0.3572  0.1811  0.0602
  866MPD2    C412763   2.923   1.142  11.372  0.9018  0.9097 -0.5266
  866MPD2    C512764   3.021   1.064  11.336  0.0974  0.6109 -0.1690
  866MPD2     H12765   2.957   1.367  11.120  0.2635 -0.2671  0.1013
  866MPD2    H112766   2.865   1.114  11.460  3.5641 -1.9992  0.2783
  866MPD2    H212767   3.192   1.028  11.207 -0.4007  1.4181 -3.4640
  866MPD2    H312768   3.047   0.978  11.397  1.6937  1.1899 -0.0539
  866MPD2     N12769   2.787   1.326  11.332 -0.0642 -0.4720 -0.1950
  866MPD2    H512770   2.745   1.302  11.421  1.0665 -1.1288  0.1644
  866MPD2    N112771   3.194   1.237  11.072 -0.2812 -0.5777 -0.1954
  866MPD2    H712772   3.269   1.170  11.055  0.5553 -0.2155  1.9990
  867MPD2     C12773   0.062   1.082  16.575 -0.2789 -0.2191  0.1639
  867MPD2    C112774   0.099   1.040  16.702  0.0742  1.0030 -0.0687
  867MPD2    C212775   0.102   1.129  16.807  0.1050 -0.4211  0.8066
  867MPD2    C312776   0.062   1.260  16.788 -0.5641 -0.4879 -0.1082
  867MPD2    C412777   0.028   1.301  16.659  0.2189  0.3649  0.2737
  867MPD2    C512778   0.031   1.208  16.553  0.2529  0.1292  1.0239
  867MPD2     H12779   0.147   1.097  16.900 -0.0706 -2.8055  0.0620
  867MPD2    H112780   4.725   1.399  16.638 -1.6700 -0.1645  1.2971
  867MPD2    H212781   0.053   1.022  16.485 -1.1662 -0.8148  0.6543
  867MPD2    H312782   4.725   1.230  16.456  1.8785  2.6718  0.9103
  867MPD2     N12783   0.067   1.356  16.885 -0.1230  0.1623 -0.1520
  867MPD2    H512784   0.064   1.449  16.845  1.5551  0.2635 -0.0651
  867MPD2    N112785   0.154   0.909  16.708  0.0644 -0.0643 -0.2969
  867MPD2    H712786   0.187   0.876  16.618 -2.3865 -0.3360 -1.0796
  868MPD2     C12787   2.264   0.214  13.232  0.1043  0.6138  0.4750
  868MPD2    C112788   2.333   0.091  13.234 -0.6556 -0.1209 -0.3315
  868MPD2    C212789   2.270   4.714  13.286  0.7000  0.0382 -0.4910
  868MPD2    C312790   2.133   4.713  13.312 -0.6300 -0.4656  0.6442
  868MPD2    C412791   2.064   0.095  13.312  1.0175  1.0428 -0.3375
  868MPD2    C512792   2.133   0.207  13.259  0.0805  0.7928 -0.3594
  868MPD2     H12793   2.327   4.623  13.293  1.9319  0.8518 -0.0086
  868MPD2    H112794   1.961   0.113  13.340  1.3106  0.7609  0.9125
  868MPD2    H212795   2.288   0.308  13.185 -0.8800  1.2810  1.2911
  868MPD2    H312796   2.084   0.304  13.262 -1.5827 -0.0130 -1.5736
  868MPD2     N12797   2.075   4.588  13.343 -0.6373  0.2909  0.0950
  868MPD2    H512798   2.134   4.507  13.326  0.5377  1.4109 -1.1739
  868MPD2    N112799   2.464   0.080  13.190  0.5656 -0.2709 -0.3497
  868MPD2    H712800   2.512   4.727  13.198  0.5015 -0.2621  0.1795
  869MPD2     C12801   2.644   3.242   1.095  0.5804  0.6579  0.1223
  869MPD2    C112802   2.594   3.349   1.026 -0.1212 -0.3527 -0.3211
  869MPD2    C212803   2.672   3.408   0.924 -0.2137  0.3583  0.1716
  869MPD2    C312804   2.803   3.362   0.900 -0.8712 -0.2077  0.0879
  869MPD2    C412805   2.850   3.267   0.984  0.8949 -0.1410 -0.3609
  869MPD2    C512806   2.773   3.206   1.082  0.6844 -0.1870  0.5604
  869MPD2     H12807   2.641   3.495   0.868  0.0997  0.3547 -0.0110
  869MPD2    H112808   2.945   3.218   0.967  1.3074  0.6515 -0.3626
  869MPD2    H212809   2.588   3.193   1.174  0.7240  1.1880  0.5553
  869MPD2    H312810   2.809   3.124   1.143 -1.1415  0.3450  2.3479
  869MPD2     N12811   2.889   3.412   0.800 -0.0521 -0.6826 -0.1969
  869MPD2    H512812   2.985   3.379   0.794  1.1399  2.8080 -0.2939
  869MPD2    N112813   2.463   3.400   1.049  0.3109 -0.0413 -0.0023
  869MPD2    H712814   2.396   3.358   1.113  1.8604 -1.0095  0.9785
  870MPD2     C12815   2.800   2.241   1.593  0.6961  0.0780  0.2354
  870MPD2    C112816   2.856   2.178   1.490 -0.3433  0.3491  0.1819
  870MPD2    C212817   2.788   2.187   1.364 -1.3266 -0.9179  0.9351
  870MPD2    C312818   2.661   2.227   1.358  0.0572 -0.2439 -0.1450
  870MPD2    C412819   2.597   2.281   1.471  0.0293  0.0783 -0.2971
  870MPD2    C512820   2.668   2.289   1.580  0.5612 -0.3660 -0.3927
  870MPD2     H12821   2.828   2.142   1.274  0.5672  0.3852  1.1385
  870MPD2    H112822   2.495   2.315   1.464 -0.6550 -2.1753 -1.1602
  870MPD2    H212823   2.844   2.251   1.692  0.6418 -1.0735  0.3726
  870MPD2    H312824   2.615   2.335   1.663  1.9480  1.3569 -0.4503
  870MPD2     N12825   2.599   2.207   1.232 -0.4782  0.4953 -0.3268
  870MPD2    H512826   2.658   2.154   1.169 -0.5576 -0.7205  0.6288
  870MPD2    N112827   2.979   2.124   1.511  0.4493 -0.1831  0.2468
  870MPD2    H712828   3.035   2.153   1.591 -1.8126  3.4744  0.4981
  871MPD2     C12829   3.914   0.570  16.574 -0.4384  0.3825  0.6064
  871MPD2    C112830   3.958   0.692  16.613  0.6380 -0.3417 -0.7403
  871MPD2    C212831   4.092   0.723  16.588 -0.5143  0.0921  0.1282
  871MPD2    C312832   4.171   0.632  16.512  0.4170  0.3820  0.3134
  871MPD2    C412833   4.125   0.502  16.486  0.1812  0.1398 -0.2934
  871MPD2    C512834   3.994   0.475  16.519 -0.3583 -0.3120 -0.3930
  871MPD2     H12835   4.146   0.813  16.617 -0.2524  0.9264 -2.9393
  871MPD2    H112836   4.186   0.427  16.437  2.2698  1.0191  0.9373
  871MPD2    H212837   3.817   0.533  16.606  0.1543 -0.4340  1.4580
  871MPD2    H312838   3.939   0.384  16.497 -0.5017 -0.6399  1.3371
  871MPD2     N12839   4.307   0.666  16.480  0.0528 -0.2440  0.2132
  871MPD2    H512840   4.332   0.760  16.510  2.0675 -0.6468 -0.2285
  871MPD2    N112841   3.878   0.790  16.674  0.4117 -0.0234  0.3774
  871MPD2    H712842   3.793   0.753  16.715  0.1257  0.4648  0.2134
  872MPD2     C12843   0.250   2.869  14.158 -0.3495 -0.7127  0.7784
  872MPD2    C112844   0.186   2.990  14.133  0.3333  0.0955  0.0250
  872MPD2    C212845   0.047   3.001  14.160 -0.2658  0.1388  0.0879
  872MPD2    C312846   4.715   2.888  14.198 -0.1928  0.0108 -0.8717
  872MPD2    C412847   0.043   2.773  14.222  0.3797  0.5919 -0.6801
  872MPD2    C512848   0.171   2.763  14.200  0.2644  0.2127  0.2709
  872MPD2     H12849   4.728   3.093  14.150 -1.8719 -0.8933 -0.4325
  872MPD2    H112850   4.725   2.682  14.246  3.0485 -0.7911  0.1933
  872MPD2    H212851   0.356   2.848  14.169 -0.6252 -0.9806  2.8161
  872MPD2    H312852   0.211   2.665  14.224 -2.2467 -1.5808 -2.8031
  872MPD2     N12853   4.575   2.889  14.232  0.1308 -0.6904  0.2331
  872MPD2    H512854   4.537   2.804  14.273 -1.0200 -0.5348 -0.5033
  872MPD2    N112855   0.262   3.106  14.102  0.6948 -0.1060  0.3514
  872MPD2    H712856   0.213   3.191  14.079  1.3179  0.1963  0.1381
  873MPD2     C12857   2.079   3.785   1.459  0.1836  0.3102  0.0021
  873MPD2    C112858   2.165   3.681   1.444 -0.4356  0.3821  0.0060
  873MPD2    C212859   2.131   3.552   1.467 -0.8438 -0.0740 -0.4647
  873MPD2    C312860   2.006   3.526   1.518  0.4254  0.0488  0.3634
  873MPD2    C412861   1.922   3.634   1.541 -0.1556  0.0698 -0.6057
  873MPD2    C512862   1.957   3.762   1.508 -0.2032 -0.1365  0.1531
  873MPD2     H12863   2.197   3.467   1.456  0.7913  1.1247 -0.0972
  873MPD2    H112864   1.820   3.624   1.577 -0.2274  0.2585 -0.7603
  873MPD2    H212865   2.109   3.888   1.445 -1.8125  0.2239 -5.1452
  873MPD2    H312866   1.877   3.835   1.518  0.5152  0.7561 -0.6930
  873MPD2     N12867   1.958   3.395   1.538 -0.0300  0.2448 -0.7188
  873MPD2    H512868   1.858   3.387   1.556  0.3607 -0.8438  0.9694
  873MPD2    N112869   2.287   3.710   1.390 -0.1200  0.1223  0.5361
  873MPD2    H712870   2.300   3.808   1.364  1.8146  0.0385  1.2489
  874MPD2     C12871   1.516   3.590  16.428 -0.2876 -0.0674 -0.5544
  874MPD2    C112872   1.565   3.538  16.542 -0.3584  0.0040  0.4446
  874MPD2    C212873   1.607   3.626  16.645 -0.1198  0.1191  0.4096
  874MPD2    C312874   1.589   3.760  16.642 -0.2001  0.0540 -0.8644
  874MPD2    C412875   1.542   3.809  16.523 -0.0277 -0.2987  0.4556
  874MPD2    C512876   1.506   3.724  16.416  0.1685  0.1593 -0.0705
  874MPD2     H12877   1.643   3.583  16.738  2.0929 -2.0930 -1.4735
  874MPD2    H112878   1.538   3.917  16.516 -2.1326 -0.3690  0.5220
  874MPD2    H212879   1.485   3.536  16.339  0.0074 -1.4047  0.1439
  874MPD2    H312880   1.473   3.768  16.322  1.6406 -0.6022 -0.9596
  874MPD2     N12881   1.627   3.847  16.745  0.1259 -0.1576  0.0629
  874MPD2    H512882   1.637   3.945  16.722 -2.0652 -0.1823 -1.0288
  874MPD2    N112883   1.570   3.394  16.551  0.1481  0.3953 -0.4247
  874MPD2    H712884   1.543   3.340  16.469  2.8258  0.1749 -1.1507
  875MPD2     C12885   2.772   1.464  14.538 -0.1686  0.2379 -0.2177
  875MPD2    C112886   2.648   1.480  14.590  0.4276  0.0222  0.0687
  875MPD2    C212887   2.629   1.531  14.710  0.6631 -0.9222 -0.4239
  875MPD2    C312888   2.737   1.563  14.791 -0.0197 -0.4147 -0.9319
  875MPD2    C412889   2.869   1.541  14.747  0.1252 -0.0043  0.3974
  875MPD2    C512890   2.884   1.511  14.609 -0.1579 -0.3655  0.3980
  875MPD2     H12891   2.529   1.540  14.753  0.2604 -1.4841 -1.2548
  875MPD2    H112892   2.951   1.559  14.815  0.0376 -0.0153  0.5059
  875MPD2    H212893   2.791   1.419  14.441 -0.6225  0.6845 -0.5151
  875MPD2    H312894   2.982   1.480  14.575 -0.5075 -1.0907  0.0469
  875MPD2     N12895   2.724   1.592  14.929 -0.0762 -0.7512  0.0485
  875MPD2    H512896   2.807   1.581  14.987  0.1487 -1.2515 -0.3655
  875MPD2    N112897   2.529   1.454  14.516 -0.3026 -0.6472  0.1173
  875MPD2    H712898   2.443   1.493  14.552  1.4275  3.3194 -0.0616
  876MPD2     C12899   1.371   3.142  16.290  0.3108  0.1583  0.2880
  876MPD2    C112900   1.505   3.149  16.265  0.1615 -0.1607 -0.6580
  876MPD2    C212901   1.589   3.050  16.314  0.6987  0.1479  0.7685
  876MPD2    C312902   1.536   2.932  16.367  0.3063 -0.6230 -0.6335
  876MPD2    C412903   1.404   2.920  16.383  0.2617 -0.0902 -0.8371
  876MPD2    C512904   1.325   3.025  16.350 -0.0542  0.2384  0.0055
  876MPD2     H12905   1.697   3.051  16.303  0.7789 -0.5560  1.5260
  876MPD2    H112906   1.348   2.836  16.426  1.6617 -0.5625  0.0654
  876MPD2    H212907   1.299   3.217  16.258  0.4195  0.1011 -0.0960
  876MPD2    H312908   1.222   3.018  16.381  0.5411  1.0061  2.1881
  876MPD2     N12909   1.615   2.812  16.360 -0.1780 -0.4828 -0.3278
  876MPD2    H512910   1.708   2.821  16.320 -0.4779  0.7852 -0.7458
  876MPD2    N112911   1.545   3.265  16.204 -0.2976 -0.2169 -0.6966
  876MPD2    H712912   1.475   3.319  16.154 -2.0708 -3.3820 -1.6331
  877MPD2     C12913   1.512   3.312  15.444  0.4272  0.1500  0.5146
  877MPD2    C112914   1.633   3.366  15.476 -0.1159 -0.1407 -0.0403
  877MPD2    C212915   1.719   3.387  15.370 -0.3957 -0.0189 -0.8316
  877MPD2    C312916   1.688   3.353  15.242 -0.2389  0.2755  0.4777
  877MPD2    C412917   1.562   3.313  15.210  0.3783 -0.6276 -0.1182
  877MPD2    C512918   1.482   3.284  15.314 -0.0591 -0.2747 -0.1144
  877MPD2     H12919   1.823   3.412  15.390 -0.6587 -0.3869  0.9611
  877MPD2    H112920   1.528   3.293  15.109  1.7792 -2.9519 -0.1390
  877MPD2    H212921   1.440   3.280  15.518  0.0802  0.5056  0.3293
  877MPD2    H312922   1.381   3.249  15.300 -0.2800 -0.7974  2.7605
  877MPD2     N12923   1.768   3.374  15.131  0.1414 -0.3308  0.2810
  877MPD2    H512924   1.732   3.344  15.040 -2.0621  1.6514  0.5053
  877MPD2    N112925   1.680   3.397  15.608 -0.2879 -0.0310 -0.1993
  877MPD2    H712926   1.775   3.431  15.609 -0.1855 -0.4081  2.3543
  878MPD2     C12927   1.052   2.601  13.207  0.7916  0.2306 -0.3550
  878MPD2    C112928   1.152   2.694  13.224  0.0243  0.3520 -0.1127
  878MPD2    C212929   1.192   2.719  13.354  0.1857  0.9301  0.3643
  878MPD2    C312930   1.101   2.692  13.458 -0.2911  0.3069  0.1261
  878MPD2    C412931   1.003   2.601  13.438  0.4006 -0.7781  0.0001
  878MPD2    C512932   0.981   2.546  13.312  0.7017  0.4745  0.3934
  878MPD2     H12933   1.269   2.793  13.371  1.5142 -0.5496  0.8462
  878MPD2    H112934   0.927   2.594  13.515  1.1838 -2.7318  0.5919
  878MPD2    H212935   1.017   2.585  13.106 -0.6247  0.1288  0.1562
  878MPD2    H312936   0.897   2.480  13.295  2.4685 -2.2487  2.2298
  878MPD2     N12937   1.127   2.759  13.577 -0.6648 -0.6822  0.2949
  878MPD2    H512938   1.210   2.816  13.582  1.0462 -3.0775 -0.6198
  878MPD2    N112939   1.219   2.751  13.111  0.1151 -0.1054 -0.3682
  878MPD2    H712940   1.197   2.711  13.020  1.5486  0.6021 -1.0247
  879MPD2     C12941   1.410   4.233  16.912 -0.5387 -0.0243 -0.4562
  879MPD2    C112942   1.441   4.146  17.008  0.0078 -0.1063  0.0679
  879MPD2    C212943   1.397   4.015  16.998  0.3902  0.1895  0.0509
  879MPD2    C312944   1.317   3.976  16.887 -0.8604  0.2236  0.2111
  879MPD2    C412945   1.282   4.068  16.797 -0.0189 -0.8408  0.1964
  879MPD2    C512946   1.332   4.197  16.806 -0.0020  0.2963  0.1855
  879MPD2     H12947   1.431   3.942  17.070 -1.0621 -1.1400 -0.6127
  879MPD2    H112948   1.224   4.047  16.708 -0.9364  2.5497  0.0141
  879MPD2    H212949   1.449   4.334  16.908 -0.4097 -0.0562  0.0821
  879MPD2    H312950   1.310   4.264  16.723 -0.8857 -0.4589 -0.1904
  879MPD2     N12951   1.273   3.844  16.866  0.0221  0.0611 -0.5254
  879MPD2    H512952   1.232   3.828  16.775 -1.1071  1.9631 -0.3428
  879MPD2    N112953   1.534   4.196  17.102  0.7068 -0.1539 -0.0014
  879MPD2    H712954   1.561   4.294  17.095  0.1357 -0.0351 -0.5514
  880MPD2     C12955   3.043   1.132  17.623 -0.3776  0.1407  0.0844
  880MPD2    C112956   3.010   1.173   0.007 -0.0028 -0.1351 -0.0094
  880MPD2    C212957   2.984   1.071   0.102  0.0233  0.0550 -0.8090
  880MPD2    C312958   2.964   0.942   0.056  0.4053  0.0004 -0.1343
  880MPD2    C412959   3.013   0.907  17.667 -0.0867  0.0972  0.1562
  880MPD2    C512960   3.048   1.003  17.579 -0.0244 -0.2970  0.3330
  880MPD2     H12961   2.971   1.088   0.208  0.4525 -0.9816 -0.5974
  880MPD2    H112962   3.013   0.807  17.625  1.0689 -0.5417  1.7240
  880MPD2    H212963   3.070   1.212  17.554 -0.8614  0.5732  0.3950
  880MPD2    H312964   3.077   0.984  17.476 -0.1022 -0.8997  0.4212
  880MPD2     N12965   2.923   0.845   0.150  0.2719 -0.1326  0.0749
  880MPD2    H512966   2.919   0.897   0.237 -0.2084  2.3866 -1.4471
  880MPD2    N112967   3.023   1.311   0.036  0.1698 -0.9742 -0.6599
  880MPD2    H712968   3.023   1.380  17.705 -0.3050  1.2949  1.4083
  881MPD2     C12969   3.191   2.253  17.464  0.4532  0.2315 -0.1461
  881MPD2    C112970   3.212   2.127  17.419 -0.2330  0.1547 -0.3886
  881MPD2    C212971   3.166   2.027  17.502 -0.0962  0.5558 -0.3122
  881MPD2    C312972   3.101   2.046  17.620 -0.1957  0.1059 -0.2414
  881MPD2    C412973   3.087   2.172  17.669  0.6128  0.4548 -0.2051
  881MPD2    C512974   3.140   2.276  17.591  0.3184 -0.0890 -0.2326
  881MPD2     H12975   3.173   1.923  17.473 -2.6942  0.2812  0.0807
  881MPD2    H112976   3.044   2.196   0.021  0.9297 -0.8322  0.2526
  881MPD2    H212977   3.223   2.342  17.411  1.9677  1.0284  2.0803
  881MPD2    H312978   3.140   2.379  17.623  0.0438  0.3247 -1.5311
  881MPD2     N12979   3.050   1.943  17.704  0.2124  0.5088  0.7823
  881MPD2    H512980   3.002   1.973   0.044 -0.1004 -1.2646  1.2382
  881MPD2    N112981   3.261   2.101  17.285 -0.5737  0.2670 -0.2272
  881MPD2    H712982   3.292   2.182  17.231  0.5000  2.4749  3.7148
  882MPD2     C12983   1.585   3.158  14.434 -1.1200  0.3765 -0.0400
  882MPD2    C112984   1.574   3.223  14.555 -0.4181  0.3581  0.0078
  882MPD2    C212985   1.453   3.244  14.606  0.1217  0.3680  0.4998
  882MPD2    C312986   1.343   3.201  14.543 -0.1960  0.5058  0.4728
  882MPD2    C412987   1.347   3.126  14.423 -0.2838  0.3099  0.8571
  882MPD2    C512988   1.470   3.110  14.368 -0.2956  0.0209  0.1406
  882MPD2     H12989   1.438   3.299  14.698 -2.1901 -1.6565  1.3688
  882MPD2    H112990   1.256   3.096  14.375  1.1141 -2.2058 -0.1882
  882MPD2    H212991   1.683   3.141  14.391 -1.9088 -0.6284 -1.3977
  882MPD2    H312992   1.493   3.052  14.280  1.0890  1.6736 -0.6058
  882MPD2     N12993   1.212   3.232  14.590 -0.6713  0.2910  0.2035
  882MPD2    H512994   1.129   3.184  14.554  0.2242 -1.5031  0.5292
  882MPD2    N112995   1.694   3.250  14.625 -0.3031  0.2973  0.6412
  882MPD2    H712996   1.786   3.232  14.586 -0.8382  1.1699 -1.0217
  883MPD2     C12997   3.509   3.681  16.397  0.1799 -0.6710 -0.1156
  883MPD2    C112998   3.625   3.742  16.347 -0.1158 -0.6179 -0.2065
  883MPD2    C212999   3.726   3.767  16.426 -0.3722 -0.9504 -0.1620
  883MPD2    C313000   3.731   3.730  16.558 -0.2581  0.5348 -0.4146
  883MPD2    C413001   3.619   3.663  16.609 -0.6786 -0.0963  0.3252
  883MPD2    C513002   3.511   3.636  16.529 -0.3796  0.5864  0.3223
  883MPD2     H13003   3.806   3.821  16.377 -0.4893  0.1426  0.8482
  883MPD2    H113004   3.615   3.622  16.709 -1.1792  1.1383  0.8172
  883MPD2    H213005   3.417   3.656  16.345  1.8798 -1.0160 -2.9133
  883MPD2    H313006   3.427   3.581  16.570 -0.1793  0.4998  0.6153
  883MPD2     N13007   3.845   3.769  16.626 -0.0921  0.3394 -0.6686
  883MPD2    H513008   3.926   3.807  16.577  1.9027 -0.4905  1.9640
  883MPD2    N113009   3.626   3.802  16.218 -0.1838 -0.4009 -0.3626
  883MPD2    H713010   3.701   3.867  16.198  0.0538 -0.6885 -0.4072
  884MPD2     C13011   0.467   4.581  15.230  0.2356 -0.2357 -0.1079
  884MPD2    C113012   0.460   4.524  15.103  0.8889  0.5734  0.3774
  884MPD2    C213013   0.333   4.510  15.044  0.8253 -0.2350  0.1337
  884MPD2    C313014   0.219   4.563  15.099 -0.3545 -0.1879  0.9622
  884MPD2    C413015   0.243   4.646  15.208  0.1512  0.2038 -0.5015
  884MPD2    C513016   0.357   4.652  15.279 -0.1428 -0.4153 -0.2968
  884MPD2     H13017   0.318   4.451  14.955  2.6056  0.2369 -0.4741
  884MPD2    H113018   0.161   4.712  15.235  0.4015 -0.4442  1.8201
  884MPD2    H213019   0.556   4.580  15.292  0.4113  1.6542 -0.3437
  884MPD2    H313020   0.356   4.688  15.381 -0.3931  0.2332 -0.5340
  884MPD2     N13021   0.089   4.543  15.048  0.2818 -0.4949 -0.4963
  884MPD2    H513022   0.082   4.473  14.975 -3.1860  0.8911 -1.5148
  884MPD2    N113023   0.572   4.466  15.035 -0.8513 -0.2155  0.1435
  884MPD2    H713024   0.554   4.410  14.952 -1.3763 -0.2775  0.2995
  885MPD2     C13025   3.409   0.091   0.196 -0.1260  0.6348 -0.5046
  885MPD2    C113026   3.536   0.047   0.167 -0.1951  0.7309 -0.3923
  885MPD2    C213027   3.597   0.072   0.048  0.2900 -0.0990 -0.1809
  885MPD2    C313028   3.524   0.133  17.687  0.2261  0.7453 -0.4424
  885MPD2    C413029   3.404   0.187  17.721  0.0456 -0.0720  0.1141
  885MPD2    C513030   3.347   0.162   0.098 -0.8272  0.0606 -0.4160
  885MPD2     H13031   3.695   0.032   0.027 -0.4275 -1.9571  0.0395
  885MPD2    H113032   3.336   0.235  17.652  0.0180 -0.8189 -0.3784
  885MPD2    H213033   3.360   0.056   0.287 -1.1332  1.0038 -0.9027
  885MPD2    H313034   3.246   0.201   0.109 -0.7677  0.1330 -0.1145
  885MPD2     N13035   3.578   0.151  17.558 -0.1144  0.6395  0.1978
  885MPD2    H513036   3.667   0.111  17.532 -0.4149  0.1590 -0.1154
  885MPD2    N113037   3.588   4.707   0.276  0.4224 -0.6272  0.3473
  885MPD2    H713038   3.528   4.711   0.358 -0.0368 -0.9447  0.0228
  886MPD2     C13039   0.181   2.756  15.794  0.2994 -0.3319 -0.4618
  886MPD2    C113040   0.302   2.805  15.852  0.2953 -0.4098  0.8766
  886MPD2    C213041   0.367   2.906  15.794 -0.6432  0.1890 -0.5828
  886MPD2    C313042   0.325   2.964  15.678 -0.5326 -0.3085  0.0795
  886MPD2    C413043   0.203   2.929  15.627 -0.3704 -0.0401  0.2268
  886MPD2    C513044   0.130   2.829  15.688  0.2658 -0.1541  0.2733
  886MPD2     H13045   0.453   2.944  15.848  0.6888 -0.8577 -1.9989
  886MPD2    H113046   0.154   2.971  15.540 -0.0855 -1.2718 -0.5172
  886MPD2    H213047   0.127   2.677  15.846  0.8487  0.0685  0.7201
  886MPD2    H313048   0.035   2.799  15.646  1.3144 -0.1395 -2.0906
  886MPD2     N13049   0.399   3.069  15.612  0.2909 -0.9101  0.6559
  886MPD2    H513050   0.361   3.116  15.531  0.6887 -0.1043  0.9372
  886MPD2    N113051   0.368   2.738  15.963  0.4565 -0.2715  0.0158
  886MPD2    H713052   0.461   2.771  15.983  1.0688 -0.7206 -2.0998
  887MPD2     C13053   1.008   2.803  16.101 -0.0808 -0.8796  0.3919
  887MPD2    C113054   0.888   2.815  16.032 -0.0203  0.5948  0.4023
  887MPD2    C213055   0.855   2.924  15.949 -0.1896  0.5135  0.9422
  887MPD2    C313056   0.956   3.009  15.904  0.3387 -0.2537  0.4315
  887MPD2    C413057   1.078   2.993  15.968  0.0696 -0.2769 -0.3438
  887MPD2    C513058   1.108   2.892  16.056  0.3183 -0.6766  0.4150
  887MPD2     H13059   0.752   2.934  15.915 -0.0497  1.4689  0.7831
  887MPD2    H113060   1.161   3.054  15.932  0.6925 -0.5769  0.5682
  887MPD2    H213061   1.036   2.736  16.181 -0.1788  0.0710  1.2231
  887MPD2    H313062   1.209   2.891  16.095  1.1138  0.8677 -1.5923
  887MPD2     N13063   0.931   3.111  15.818  0.4778  0.3529 -0.0907
  887MPD2    H513064   0.833   3.127  15.796  0.3889  1.1630  0.9144
  887MPD2    N113065   0.786   2.723  16.053  0.0135  0.1927 -0.9126
  887MPD2    H713066   0.706   2.740  15.994 -0.5299  0.8911  0.0178
  888MPD2     C13067   2.762   2.547  15.205  0.3264 -0.3772 -0.1666
  888MPD2    C113068   2.774   2.604  15.334  0.1768 -0.1764  0.0218
  888MPD2    C213069   2.815   2.737  15.338  0.1244 -0.2390 -0.3683
  888MPD2    C313070   2.836   2.812  15.225  0.2847 -0.0993 -0.7310
  888MPD2    C413071   2.834   2.753  15.103 -0.6876  0.2806  0.8315
  888MPD2    C513072   2.794   2.620  15.098  0.2188 -0.1098  0.0609
  888MPD2     H13073   2.843   2.770  15.437  0.3320  1.1040 -0.8723
  888MPD2    H113074   2.854   2.797  15.006 -0.7978 -0.0343  0.6657
  888MPD2    H213075   2.761   2.439  15.190  1.6647 -0.4598  0.2896
  888MPD2    H313076   2.802   2.562  15.006  1.1278 -1.0920  0.7498
  888MPD2     N13077   2.870   2.949  15.247 -0.3171 -0.6051 -0.2443
  888MPD2    H513078   2.871   2.979  15.343 -1.5526  0.0323 -0.4286
  888MPD2    N113079   2.768   2.525  15.455 -0.0919  0.2563  0.6834
  888MPD2    H713080   2.790   2.573  15.542  0.0655  0.3715  0.5808
  889MPD2     C13081   1.558   2.302  13.464 -0.1991 -0.0614  0.0386
  889MPD2    C113082   1.687   2.338  13.442 -0.4104  0.2506  0.1000
  889MPD2    C213083   1.725   2.469  13.476  0.1343 -0.0907  0.3210
  889MPD2    C313084   1.629   2.560  13.513 -0.0732  0.2412 -0.6073
  889MPD2    C413085   1.494   2.523  13.507  0.8016  0.2605 -0.6513
  889MPD2    C513086   1.465   2.395  13.491 -0.4018  0.7034  0.5697
  889MPD2     H13087   1.827   2.503  13.486 -0.5021  1.4704  1.5929
  889MPD2    H113088   1.411   2.590  13.518 -1.0604 -2.1829  0.2133
  889MPD2    H213089   1.530   2.204  13.427  0.2401 -0.8661  1.8371
  889MPD2    H313090   1.363   2.358  13.488 -0.2783  0.3417  0.7597
  889MPD2     N13091   1.674   2.695  13.538  0.5563 -0.7350 -0.5467
  889MPD2    H513092   1.773   2.719  13.545  0.2968  0.4260 -0.8627
  889MPD2    N113093   1.778   2.232  13.443 -0.5978  0.0987  0.2220
  889MPD2    H713094   1.735   2.146  13.476 -0.6684 -1.2151 -3.3803
  890MPD2     C13095   1.868   3.741  14.514  0.2075  0.0741  0.5768
  890MPD2    C113096   1.968   3.826  14.558  0.6385 -0.3411  0.0169
  890MPD2    C213097   1.999   3.826  14.697  0.3679  0.0134  0.3060
  890MPD2    C313098   1.907   3.767  14.789 -0.3258  0.1437 -0.0963
  890MPD2    C413099   1.798   3.697  14.742  0.0812  0.1315  0.4290
  890MPD2    C513100   1.783   3.676  14.604  0.2722  0.0852  0.8708
  890MPD2     H13101   2.085   3.874  14.742  0.6142 -2.0736  2.0489
  890MPD2    H113102   1.724   3.650  14.806 -0.0458  1.5761  1.3374
  890MPD2    H213103   1.853   3.711  14.411 -0.2557  0.3838  0.5546
  890MPD2    H313104   1.702   3.619  14.559  1.0521  0.1820 -0.6578
  890MPD2     N13105   1.918   3.781  14.934  0.4761 -0.0824 -0.7964
  890MPD2    H513106   2.002   3.828  14.967  2.4369 -3.1447 -1.4267
  890MPD2    N113107   2.034   3.900  14.458  0.1266  0.0334 -0.1478
  890MPD2    H713108   1.987   3.878  14.371 -1.8672 -1.2869  1.2438
  891MPD2     C13109   4.625   2.964  16.559  0.6887  0.5744  0.5084
  891MPD2    C113110   4.549   2.935  16.670  0.1346 -0.2703  0.3904
  891MPD2    C213111   4.611   2.872  16.776 -0.0464  0.5667  0.1443
  891MPD2    C313112   0.012   2.851  16.774  0.2609 -0.4854 -1.4374
  891MPD2    C413113   0.088   2.887  16.660  0.2608 -0.1029 -0.1978
  891MPD2    C513114   0.021   2.926  16.550 -0.2817  0.4098  0.2540
  891MPD2     H13115   4.555   2.853  16.867 -0.1039 -0.1002 -0.0299
  891MPD2    H113116   0.195   2.881  16.647  0.0803 -2.7278 -0.4488
  891MPD2    H213117   4.588   3.038  16.488  1.0477  1.8234  1.6187
  891MPD2    H313118   0.078   2.938  16.458  0.3185 -1.1873  0.4161
  891MPD2     N13119   0.075   2.813  16.895 -0.0294 -0.3176 -0.0831
  891MPD2    H513120   0.013   2.808  16.976  0.9463  2.1405  0.8218
  891MPD2    N113121   4.419   2.989  16.670 -0.5323  0.3290  0.9394
  891MPD2    H713122   4.367   3.024  16.590 -0.4094 -0.2254  0.6065
  892MPD2     C13123   0.907   3.761  15.428 -0.3607 -0.4840  0.0759
  892MPD2    C113124   0.793   3.726  15.362 -0.2092 -0.4632 -0.0511
  892MPD2    C213125   0.802   3.634  15.252 -0.9006 -0.2048  0.0317
  892MPD2    C313126   0.924   3.601  15.201 -0.3069 -0.7822 -0.4772
  892MPD2    C413127   1.038   3.651  15.259  0.0202  0.1106 -0.1394
  892MPD2    C513128   1.033   3.731  15.376 -0.1670 -0.0452  0.0846
  892MPD2     H13129   0.714   3.592  15.205 -1.3177 -0.3353  0.9185
  892MPD2    H113130   1.130   3.616  15.213  1.0033  1.0279  1.1027
  892MPD2    H213131   0.909   3.811  15.524  1.6766 -0.5984  0.0899
  892MPD2    H313132   1.125   3.745  15.431  0.9532 -0.1666 -1.7308
  892MPD2     N13133   0.938   3.523  15.084 -0.7367 -0.0749 -0.1670
  892MPD2    H513134   1.034   3.507  15.055 -1.3008 -2.5473 -0.7375
  892MPD2    N113135   0.663   3.762  15.405 -0.4698 -0.0157  0.1408
  892MPD2    H713136   0.583   3.733  15.350  0.2615  0.4520 -1.1812
  893MPD2     C13137   2.059   2.153   1.823 -0.0019  0.1945 -0.1343
  893MPD2    C113138   2.005   2.265   1.763 -0.3785  0.2907 -0.0982
  893MPD2    C213139   1.870   2.268   1.740 -0.1574  0.7694  0.1772
  893MPD2    C313140   1.793   2.159   1.769 -0.3965 -0.1455 -0.5998
  893MPD2    C413141   1.846   2.045   1.819 -0.5654 -0.9574 -0.0286
  893MPD2    C513142   1.977   2.046   1.855 -0.5369  0.0184 -0.2801
  893MPD2     H13143   1.827   2.352   1.687  0.1944  0.4371 -0.6397
  893MPD2    H113144   1.779   1.965   1.851 -3.0285  0.6558 -1.1549
  893MPD2    H213145   2.165   2.152   1.846 -0.2602 -0.9674  1.0153
  893MPD2    H313146   2.024   1.953   1.886 -1.5023 -0.9867 -1.8342
  893MPD2     N13147   1.655   2.168   1.761 -0.0523  0.1614  0.8567
  893MPD2    H513148   1.603   2.095   1.810  0.2198  0.3731  1.4623
  893MPD2    N113149   2.092   2.372   1.721 -0.0310 -0.0770  0.2374
  893MPD2    H713150   2.191   2.371   1.744 -0.0308 -1.2420  0.1774
  894MPD2     C13151   0.182   4.468   1.427 -0.7930  0.1810  0.1781
  894MPD2    C113152   0.079   4.561   1.448  0.2007  0.3818  1.1974
  894MPD2    C213153   0.091   4.691   1.407  0.7869 -0.7837  0.3068
  894MPD2    C313154   0.204   4.734   1.334 -0.0363 -0.2058 -0.1050
  894MPD2    C413155   0.305   4.642   1.316  0.3658 -0.5635 -0.4082
  894MPD2    C513156   0.297   4.514   1.371  0.5317 -0.0308 -0.2597
  894MPD2     H13157   0.013   0.029   1.415  1.8894  0.4992 -0.9637
  894MPD2    H113158   0.397   4.663   1.262 -1.1458 -1.1199 -3.2210
  894MPD2    H213159   0.171   4.369   1.471 -0.0173 -0.2729 -0.6673
  894MPD2    H313160   0.384   4.448   1.366 -0.4877 -1.4548  0.9847
  894MPD2     N13161   0.226   0.127   1.301  0.2229  0.4847  0.1112
  894MPD2    H513162   0.151   0.193   1.317  0.8296  1.7317 -2.2215
  894MPD2    N113163   4.699   4.531   1.520 -0.4384 -0.7437 -0.1537
  894MPD2    H713164   4.633   4.605   1.540  1.5353  0.8779  0.4081
  895MPD2     C13165   0.054   2.634  13.876 -0.1808  1.0247 -0.6220
  895MPD2    C113166   4.686   2.558  13.835  0.2443 -0.4893 -0.7916
  895MPD2    C213167   4.717   2.431  13.778  0.6520 -0.3142  0.0923
  895MPD2    C313168   0.109   2.402  13.754  0.3628 -0.6533 -0.2027
  895MPD2    C413169   0.212   2.482  13.797  0.3540  0.0915 -0.5739
  895MPD2    C513170   0.183   2.601  13.852 -1.3825 -0.0683 -0.3566
  895MPD2     H13171   4.627   2.380  13.745  1.1082 -1.2823  0.3255
  895MPD2    H113172   0.316   2.456  13.780  0.3345 -0.3005 -0.1208
  895MPD2    H213173   0.030   2.731  13.919 -1.3427  0.2379  0.5050
  895MPD2    H313174   0.264   2.662  13.889  1.0620 -2.3345 -2.0068
  895MPD2     N13175   0.125   2.270  13.706 -0.0952 -0.0688 -0.0432
  895MPD2    H513176   0.039   2.227  13.674 -0.7495  1.4422 -0.2927
  895MPD2    N113177   4.543   2.582  13.842  0.7461 -0.3668 -0.1999
  895MPD2    H713178   4.482   2.511  13.804  0.6359  0.5694 -1.7553
  896MPD2     C13179   2.349   1.178   1.351  0.5945 -0.4702  0.9440
  896MPD2    C113180   2.355   1.085   1.249 -0.3664  0.2247 -0.5757
  896MPD2    C213181   2.236   1.038   1.191  0.6006 -0.4373  0.1495
  896MPD2    C313182   2.114   1.078   1.242  0.0357  0.6572  0.2007
  896MPD2    C413183   2.115   1.175   1.344  0.6794  0.6460  0.2647
  896MPD2    C513184   2.231   1.225   1.400  0.3207 -0.2539 -0.1081
  896MPD2     H13185   2.229   0.965   1.111  0.8908  1.8205 -1.9247
  896MPD2    H113186   2.020   1.220   1.371 -0.7576 -1.1345 -1.8312
  896MPD2    H213187   2.440   1.228   1.382  0.1202  1.4178 -0.7665
  896MPD2    H313188   2.233   1.313   1.463  1.3709 -0.6686  0.4435
  896MPD2     N13189   2.008   1.011   1.202 -0.5337 -0.5082  0.8250
  896MPD2    H513190   2.031   0.939   1.133 -1.6270  0.1000 -0.1851
  896MPD2    N113191   2.480   1.069   1.191  0.1820 -0.1421  0.3246
  896MPD2    H713192   2.559   1.109   1.240  2.6280 -0.8883 -2.9430
  897MPD2     C13193   3.212   2.194  10.438 -0.1223  0.5739 -0.5062
  897MPD2    C113194   3.173   2.312  10.495  0.5190 -0.1211  0.6881
  897MPD2    C213195   3.081   2.308  10.593  0.4425  0.2812  0.0974
  897MPD2    C313196   3.030   2.188  10.646 -0.0967  0.5393 -0.7523
  897MPD2    C413197   3.066   2.067  10.586  0.5043  0.0289 -0.0211
  897MPD2    C513198   3.157   2.073  10.480  0.5810  0.3020  0.5592
  897MPD2     H13199   3.045   2.395  10.647 -1.2255  0.1843 -0.8416
  897MPD2    H113200   3.022   1.971  10.610  0.3170  0.7255  2.4035
  897MPD2    H213201   3.276   2.189  10.351 -0.7919  0.0063 -0.9672
  897MPD2    H313202   3.175   1.984  10.420  1.8205  2.3358 -2.1149
  897MPD2     N13203   2.935   2.192  10.759  0.4169  0.0411 -0.7602
  897MPD2    H513204   2.895   2.281  10.788 -1.7505 -0.7235 -1.3718
  897MPD2    N113205   3.228   2.430  10.435 -0.0064  0.1598 -0.1893
  897MPD2    H713206   3.289   2.421  10.354 -0.2963 -0.5268 -0.3308
  898MPD2     C13207   0.123   3.411   0.102  0.0640  0.4035 -0.3160
  898MPD2    C113208   0.245   3.384   0.164  0.5808 -0.1194 -0.0157
  898MPD2    C213209   0.301   3.484   0.244 -0.6304 -0.2032 -0.2208
  898MPD2    C313210   0.245   3.605   0.257 -0.0568  0.5642 -0.2759
  898MPD2    C413211   0.131   3.633   0.188 -0.3748 -0.0243 -0.1568
  898MPD2    C513212   0.071   3.537   0.114 -0.0647  0.3479  0.4136
  898MPD2     H13213   0.389   3.456   0.301 -0.7526 -1.8346 -0.8429
  898MPD2    H113214   0.084   3.731   0.184  2.2296  1.0808 -3.4424
  898MPD2    H213215   0.072   3.340   0.038 -0.3199  2.0085 -1.7892
  898MPD2    H313216   4.720   3.569   0.058  0.6493  0.1066 -0.8136
  898MPD2     N13217   0.321   3.698   0.331 -0.1076  0.2432  0.7789
  898MPD2    H513218   0.408   3.668   0.372 -0.2124  0.4045  1.1171
  898MPD2    N113219   0.311   3.261   0.150 -0.3317  0.0097 -0.5655
  898MPD2    H713220   0.374   3.245   0.229 -1.0346 -0.2330 -0.0539
  899MPD2     C13221   1.474   4.069   0.183 -0.0245  0.2179  1.0024
  899MPD2    C113222   1.358   4.069   0.098  0.2260  0.2179  0.4008
  899MPD2    C213223   1.251   3.981   0.124 -0.2196 -0.6732 -0.7551
  899MPD2    C313224   1.258   3.883   0.224  0.8050 -0.2186 -0.1613
  899MPD2    C413225   1.376   3.881   0.295 -0.2143  0.3293  0.6398
  899MPD2    C513226   1.481   3.962   0.271 -0.1655 -1.0573  0.1691
  899MPD2     H13227   1.165   3.983   0.059 -1.9079 -0.7780  1.4766
  899MPD2    H113228   1.379   3.805   0.373 -0.1039 -0.9960 -0.6480
  899MPD2    H213229   1.557   4.131   0.152 -0.1675 -0.5455 -0.9631
  899MPD2    H313230   1.571   3.924   0.318 -0.3093 -0.6524  0.7577
  899MPD2     N13231   1.156   3.792   0.253  0.1792 -0.2349  0.3178
  899MPD2    H513232   1.174   3.731   0.333  1.7965  0.1512  0.2370
  899MPD2    N113233   1.355   4.156  17.731 -0.4097  0.3639  0.7478
  899MPD2    H713234   1.425   4.230  17.737 -2.1190  1.9565  1.1461
  900MPD2     C13235   1.016   0.868  12.501  0.0862 -0.5848 -0.2116
  900MPD2    C113236   0.976   0.814  12.624 -0.2547 -0.9038  0.0810
  900MPD2    C213237   0.910   0.894  12.714 -0.3638  0.0517  0.4587
  900MPD2    C313238   0.885   1.029  12.686 -0.4057  0.5295 -0.0428
  900MPD2    C413239   0.934   1.082  12.567  0.0768  0.1968  0.0210
  900MPD2    C513240   0.992   1.001  12.474 -0.4203 -0.8224 -0.1674
  900MPD2     H13241   0.864   0.855  12.804 -0.3762 -1.0339 -0.0215
  900MPD2    H113242   0.912   1.182  12.532 -1.7410  0.3284  1.5338
  900MPD2    H213243   1.074   0.816  12.425  2.2643 -0.3082  1.2731
  900MPD2    H313244   1.020   1.033  12.374 -1.6016  1.3658  0.1987
  900MPD2     N13245   0.795   1.088  12.771  0.6248  0.5847 -0.4678
  900MPD2    H513246   0.774   1.041  12.859  0.9400  1.5365  0.1065
  900MPD2    N113247   0.991   0.670  12.644 -0.6960 -0.3833  0.2917
  900MPD2    H713248   1.023   0.627  12.558 -2.1663  0.6618 -0.7916
  901MPD2     C13249   0.712   4.435  13.026 -0.0983  0.2421  0.3215
  901MPD2    C113250   0.855   4.422  13.015 -0.4102 -0.2182 -0.1942
  901MPD2    C213251   0.930   4.539  12.993  1.3029 -0.3017  0.5720
  901MPD2    C313252   0.863   4.662  12.978 -0.5976  0.8764  0.3711
  901MPD2    C413253   0.727   4.674  13.002 -0.3619 -0.1093 -0.6793
  901MPD2    C513254   0.655   4.563  13.026 -0.0843 -0.3742 -0.2233
  901MPD2     H13255   1.038   4.533  12.985  1.3653 -1.2505  2.0138
  901MPD2    H113256   0.668   0.023  12.970  0.7606  1.2934  0.9808
  901MPD2    H213257   0.653   4.345  13.031 -0.8598  0.7237 -0.1486
  901MPD2    H313258   0.553   4.573  13.061 -0.0010  0.0797 -0.1111
  901MPD2     N13259   0.937   0.034  12.923 -0.5295  0.2760 -0.6542
  901MPD2    H513260   1.034   0.012  12.905  0.0391  0.8089  1.7449
  901MPD2    N113261   0.914   4.293  13.009  0.3462  0.4571  0.0570
  901MPD2    H713262   0.857   4.211  13.032  2.8180 -1.3870 -0.3780
  902MPD2     C13263   0.095   3.545  13.218 -0.5137  0.5879  0.5596
  902MPD2    C113264   0.059   3.569  13.091 -0.4192 -0.3573 -0.1818
  902MPD2    C213265   0.133   3.506  12.993  0.4248 -0.2934 -0.0952
  902MPD2    C313266   0.225   3.409  13.031 -0.1880 -0.4574  0.0421
  902MPD2    C413267   0.260   3.393  13.166  0.7689 -0.2686 -0.1449
  902MPD2    C513268   0.190   3.460  13.260 -0.2275 -0.3566  0.0212
  902MPD2     H13269   0.108   3.525  12.889 -0.2062 -0.2855  0.0610
  902MPD2    H113270   0.347   3.336  13.199  0.8509 -0.0838 -0.0433
  902MPD2    H213271   0.031   3.597  13.288 -1.8996  2.4033 -2.0448
  902MPD2    H313272   0.221   3.453  13.364 -0.6540 -1.4677  0.0734
  902MPD2     N13273   0.278   3.335  12.926 -0.1242  0.8789 -0.2971
  902MPD2    H513274   0.231   3.344  12.837  0.0747 -1.4701 -0.6481
  902MPD2    N113275   4.694   3.664  13.059 -0.1755  0.6872 -0.1324
  902MPD2    H713276   4.654   3.724  13.131 -0.8869 -0.4402  0.4171
  903MPD2     C13277   4.594   3.457  12.543  0.2488 -0.2737 -0.0802
  903MPD2    C113278   4.603   3.326  12.549  0.0137 -0.6830  0.1920
  903MPD2    C213279   4.486   3.251  12.505 -0.1358 -0.2598 -0.1670
  903MPD2    C313280   4.375   3.301  12.451  0.3959  0.5011  0.5606
  903MPD2    C413281   4.389   3.439  12.433 -0.1306  0.0461  1.1227
  903MPD2    C513282   4.493   3.516  12.476 -0.6696 -0.0013 -0.1181
  903MPD2     H13283   4.483   3.143  12.514  1.2684 -0.2918 -0.1045
  903MPD2    H113284   4.317   3.493  12.373  1.5041  0.4044 -0.5330
  903MPD2    H213285   4.663   3.526  12.590  0.1486  0.0403 -0.3914
  903MPD2    H313286   4.498   3.623  12.457 -0.0953  0.2133  1.2393
  903MPD2     N13287   4.275   3.218  12.402 -0.2242 -0.1426  0.4370
  903MPD2    H513288   4.288   3.122  12.429 -0.7408  0.6065  3.2989
  903MPD2    N113289   4.708   3.267  12.619 -0.6438  0.6469  0.1254
  903MPD2    H713290   0.049   3.323  12.654 -0.5220  1.2769 -1.1716
  904MPD2     C13291   4.534   1.721  14.260  0.1410 -0.1994 -0.5529
  904MPD2    C113292   4.559   1.851  14.255 -0.7626 -0.5981 -0.4157
  904MPD2    C213293   4.685   1.894  14.254 -0.0549 -0.2593  0.4407
  904MPD2    C313294   0.054   1.807  14.253  0.3888  0.3228  0.1843
  904MPD2    C413295   0.034   1.671  14.258  0.0412 -0.1599  0.0773
  904MPD2    C513296   4.638   1.629  14.261  0.3229  0.1581 -0.9059
  904MPD2     H13297   4.706   2.000  14.256  2.9207 -0.8608  0.9605
  904MPD2    H113298   0.110   1.593  14.254 -0.8238 -1.1615  3.2527
  904MPD2    H213299   4.433   1.681  14.266  0.1840 -0.6761 -2.9118
  904MPD2    H313300   4.626   1.521  14.264  3.2970 -0.2297 -2.8152
  904MPD2     N13301   0.181   1.861  14.240 -0.1587  0.1188 -0.2251
  904MPD2    H513302   0.183   1.961  14.227  1.1799 -0.0471 -1.2035
  904MPD2    N113303   4.451   1.946  14.256  1.0168 -0.2805 -0.2125
  904MPD2    H713304   4.474   2.043  14.239  1.0758 -0.4463 -1.1101
  905MPD2     C13305   4.169   1.889  13.697  0.3384  0.4824  0.2281
  905MPD2    C113306   4.236   1.996  13.738 -0.5383  0.4496 -0.1361
  905MPD2    C213307   4.346   2.045  13.662  0.0023 -0.6157  0.3882
  905MPD2    C313308   4.390   1.969  13.554  0.6214 -0.4190  0.1065
  905MPD2    C413309   4.318   1.862  13.506  0.2576  0.2811 -0.6111
  905MPD2    C513310   4.202   1.832  13.578 -0.3498 -0.0025 -0.8683
  905MPD2     H13311   4.397   2.129  13.707 -0.2497 -0.5510  0.5487
  905MPD2    H113312   4.348   1.794  13.427 -3.3986 -1.0531 -0.8727
  905MPD2    H213313   4.087   1.856  13.759 -1.0050  2.4082 -0.5320
  905MPD2    H313314   4.142   1.750  13.540 -2.4080  0.4711  1.3391
  905MPD2     N13315   4.515   1.977  13.498  0.2299  0.4525 -0.0998
  905MPD2    H513316   4.537   1.898  13.438  0.6942  1.2164 -0.9397
  905MPD2    N113317   4.190   2.047  13.859 -0.7109 -0.4278 -0.3040
  905MPD2    H713318   4.113   1.994  13.898 -0.4720  0.9051  1.9740
  906MPD2     C13319   1.759   2.738  11.510  0.0796  0.2725 -0.3972
  906MPD2    C113320   1.696   2.663  11.415 -0.3188  0.1881  0.4219
  906MPD2    C213321   1.613   2.563  11.448  0.5073  0.3134  0.4063
  906MPD2    C313322   1.596   2.527  11.575 -0.4234 -0.4010  0.3607
  906MPD2    C413323   1.672   2.600  11.676  0.0213  1.1330 -0.5392
  906MPD2    C513324   1.744   2.708  11.642 -0.0289 -0.1554 -0.6618
  906MPD2     H13325   1.566   2.509  11.366 -0.1604 -0.5884  1.3883
  906MPD2    H113326   1.682   2.572  11.781  3.8466  0.5130 -1.0637
  906MPD2    H213327   1.826   2.819  11.486 -0.8992  1.3645  0.5518
  906MPD2    H313328   1.798   2.761  11.720 -2.9794  2.2779 -0.2810
  906MPD2     N13329   1.510   2.415  11.589 -0.6530  0.2114  0.5716
  906MPD2    H513330   1.451   2.388  11.511 -0.5790 -0.3802  0.7203
  906MPD2    N113331   1.711   2.689  11.272  0.1044  0.0184  0.3950
  906MPD2    H713332   1.655   2.632  11.210 -0.4053  0.9207  0.0186
  907MPD2     C13333   0.799   1.866  16.016 -0.1964 -0.4543 -0.6215
  907MPD2    C113334   0.781   1.730  15.996  0.2524 -0.5063 -0.6107
  907MPD2    C213335   0.834   1.640  16.086  0.1575 -0.6375  0.9413
  907MPD2    C313336   0.913   1.688  16.193 -0.2262 -0.8108  0.0428
  907MPD2    C413337   0.924   1.827  16.209 -0.2374  0.4476 -0.1356
  907MPD2    C513338   0.854   1.913  16.126  0.0668 -0.0392 -0.0713
  907MPD2     H13339   0.824   1.534  16.066  0.2770  0.1329 -3.1761
  907MPD2    H113340   0.971   1.872  16.296 -0.1124  0.9089 -0.4402
  907MPD2    H213341   0.774   1.944  15.945  0.0349  0.7604  0.6412
  907MPD2    H313342   0.872   2.018  16.146  1.9669 -0.2933 -0.4940
  907MPD2     N13343   0.974   1.596  16.282  0.9208 -0.2964  0.1436
  907MPD2    H513344   0.963   1.499  16.256 -1.3581  0.4685 -1.7219
  907MPD2    N113345   0.722   1.677  15.875 -0.3883 -0.1467 -0.0453
  907MPD2    H713346   0.698   1.579  15.873  1.9184 -0.6718 -1.5815
  908MPD2     C13347   2.906   2.510   9.659  0.3679  0.2696  0.5534
  908MPD2    C113348   2.900   2.420   9.772  0.8148 -0.3185 -0.4458
  908MPD2    C213349   2.982   2.447   9.883  0.0017  0.4131  0.5194
  908MPD2    C313350   3.072   2.557   9.887 -0.0862  0.1964  0.2360
  908MPD2    C413351   3.091   2.628   9.765  0.0909  0.6189  0.2735
  908MPD2    C513352   3.007   2.602   9.660 -0.2076 -0.2139  0.0352
  908MPD2     H13353   2.974   2.398   9.980  2.2430 -2.3493 -0.6895
  908MPD2    H113354   3.181   2.688   9.754 -1.2012  2.6292  0.7972
  908MPD2    H213355   2.852   2.500   9.566  3.0884 -1.8903 -0.7996
  908MPD2    H313356   3.027   2.648   9.564  0.3465  0.3528  0.4225
  908MPD2     N13357   3.145   2.584  10.011 -0.1850 -0.2279 -0.0966
  908MPD2    H513358   3.122   2.525  10.090 -1.8428 -1.0208 -1.1669
  908MPD2    N113359   2.806   2.313   9.771  0.3040  0.0926  0.0142
  908MPD2    H713360   2.755   2.303   9.683 -1.3417  2.4192  0.6866
  909MPD2     C13361   3.701   0.210  12.436 -0.1226  0.2499 -0.1283
  909MPD2    C113362   3.630   0.299  12.353 -0.1842 -0.6850  0.7742
  909MPD2    C213363   3.541   0.384  12.405 -0.0849  0.0682 -0.3093
  909MPD2    C313364   3.519   0.406  12.542  0.0178 -0.2238 -0.0083
  909MPD2    C413365   3.598   0.334  12.628 -0.3822  0.4370  0.2532
  909MPD2    C513366   3.684   0.236  12.571  0.0305 -0.2824  0.0385
  909MPD2     H13367   3.476   0.425  12.329 -1.1668 -0.3978  0.3694
  909MPD2    H113368   3.594   0.340  12.736 -1.3771  2.4220  0.1051
  909MPD2    H213369   3.763   0.127  12.403  0.0067  0.3650 -0.1800
  909MPD2    H313370   3.738   0.165  12.633 -1.3927 -0.3841  1.1681
  909MPD2     N13371   3.404   0.474  12.576  0.2882  0.0547 -0.0765
  909MPD2    H513372   3.361   0.522  12.498  0.0925  0.1308  0.0779
  909MPD2    N113373   3.631   0.280  12.205 -0.1644  0.2815  0.2985
  909MPD2    H713374   3.576   0.345  12.150 -2.5491 -1.7589  0.2437
  910MPD2     C13375   0.284   2.428  16.607  0.0788  0.0465  0.1493
  910MPD2    C113376   0.289   2.313  16.524 -0.0474 -0.0992 -0.1811
  910MPD2    C213377   0.210   2.309  16.414  0.1670 -0.7468  0.0485
  910MPD2    C313378   0.126   2.408  16.385  0.4893  0.5602 -0.1243
  910MPD2    C413379   0.116   2.521  16.468  0.2633  0.7972  0.5138
  910MPD2    C513380   0.197   2.531  16.573  0.5802 -0.6558  0.2918
  910MPD2     H13381   0.211   2.223  16.348  0.9315  0.8164 -1.9650
  910MPD2    H113382   0.045   2.600  16.448 -0.9598  0.3518  3.0827
  910MPD2    H213383   0.343   2.436  16.697  0.7870 -0.3846 -0.2835
  910MPD2    H313384   0.197   2.620  16.636  1.4739 -0.0649 -0.5386
  910MPD2     N13385   0.049   2.392  16.268  0.1766 -0.7309  0.3087
  910MPD2    H513386   0.067   2.317  16.203 -0.6320 -2.0424  1.5987
  910MPD2    N113387   0.363   2.196  16.553  0.1403 -0.0480 -0.1404
  910MPD2    H713388   0.350   2.107  16.506  1.4728  0.3747 -1.3098
  911MPD2     C13389   2.771   2.852  16.496  0.2724 -0.1463 -0.0481
  911MPD2    C113390   2.828   2.900  16.617 -0.2135 -0.4419 -0.0857
  911MPD2    C213391   2.768   3.018  16.674  0.1243  0.2059  0.0482
  911MPD2    C313392   2.662   3.077  16.612 -0.1035 -0.5470 -0.1109
  911MPD2    C413393   2.608   3.030  16.495 -0.4247  0.2190 -0.6238
  911MPD2    C513394   2.663   2.916  16.443  0.0805  0.4363 -0.5708
  911MPD2     H13395   2.802   3.067  16.765  0.0119  0.0332  0.1855
  911MPD2    H113396   2.520   3.081  16.457 -0.5686  1.8109  1.7912
  911MPD2    H213397   2.812   2.765  16.445 -1.5514 -2.2553  2.1210
  911MPD2    H313398   2.617   2.868  16.357  0.0255 -0.6524  0.0703
  911MPD2     N13399   2.605   3.197  16.662 -1.0110 -0.3461 -0.2847
  911MPD2    H513400   2.511   3.211  16.628 -1.1573 -0.7931 -0.0620
  911MPD2    N113401   2.947   2.845  16.667  1.0372 -0.2858 -0.6690
  911MPD2    H713402   2.979   2.760  16.622  0.0898 -1.9609  1.8069
  912MPD2     C13403   2.167   3.275  16.189 -0.0322 -0.1345  0.4916
  912MPD2    C113404   2.212   3.242  16.309  0.1972  0.6993  0.3840
  912MPD2    C213405   2.214   3.107  16.340 -0.4285 -0.0275  0.1883
  912MPD2    C313406   2.174   3.015  16.250  0.0165 -0.1180  0.5250
  912MPD2    C413407   2.137   3.051  16.125  0.0439  0.2888 -0.1608
  912MPD2    C513408   2.126   3.183  16.095 -0.5965  0.2748 -0.1441
  912MPD2     H13409   2.224   3.076  16.443 -0.0787  0.5025  0.3142
  912MPD2    H113410   2.109   2.981  16.047  1.4011 -0.2714 -0.1586
  912MPD2    H213411   2.164   3.380  16.163 -0.0430 -0.6042 -1.3965
  912MPD2    H313412   2.097   3.224  15.998 -0.8349  0.4949  0.0196
  912MPD2     N13413   2.176   2.884  16.305  0.2973 -0.1286 -0.1217
  912MPD2    H513414   2.212   2.872  16.399  0.2396  0.3876 -0.0350
  912MPD2    N113415   2.260   3.343  16.395  0.4280  0.1547 -0.0646
  912MPD2    H713416   2.242   3.440  16.371 -0.1447  0.0922  0.1166
  913MPD2     C13417   2.180   3.441  11.043  0.4069 -0.3107 -0.2772
  913MPD2    C113418   2.292   3.500  10.988 -0.5060  0.2252  0.0048
  913MPD2    C213419   2.288   3.549  10.861 -1.1238  0.3107  0.3022
  913MPD2    C313420   2.168   3.551  10.794 -0.1771 -0.0789  0.5152
  913MPD2    C413421   2.055   3.495  10.852  0.3550  0.6554 -0.0735
  913MPD2    C513422   2.058   3.443  10.981 -0.3048  0.3202 -0.1669
  913MPD2     H13423   2.377   3.600  10.826 -0.0598  0.2703  2.9355
  913MPD2    H113424   1.958   3.488  10.803  0.5322 -1.4353 -0.1212
  913MPD2    H213425   2.185   3.387  11.136 -0.0212  0.1103 -0.0108
  913MPD2    H313426   1.966   3.398  11.018  0.8301 -0.5935  1.5286
  913MPD2     N13427   2.156   3.604  10.659  0.0050  0.0737  0.0919
  913MPD2    H513428   2.062   3.610  10.620  0.7228 -2.2638 -2.0110
  913MPD2    N113429   2.405   3.507  11.074  0.6921  0.0619  0.4302
  913MPD2    H713430   2.386   3.472  11.167 -1.0668  2.2728  0.8779
  914MPD2     C13431   0.565   4.064  12.426  0.8672 -0.1963  0.2043
  914MPD2    C113432   0.663   4.157  12.442 -0.2106  0.0945 -0.0311
  914MPD2    C213433   0.767   4.119  12.521  0.0787 -1.0183  0.7662
  914MPD2    C313434   0.767   3.999  12.588 -0.4548 -0.1654  0.5831
  914MPD2    C413435   0.682   3.896  12.554  0.3765 -0.0557  0.4468
  914MPD2    C513436   0.579   3.936  12.471 -0.2846  0.9027 -0.1979
  914MPD2     H13437   0.840   4.190  12.556  0.9126 -0.3197 -2.4494
  914MPD2    H113438   0.689   3.792  12.584 -0.0560 -0.4317 -0.7747
  914MPD2    H213439   0.476   4.076  12.365 -0.1710 -1.6561  1.4160
  914MPD2    H313440   0.494   3.871  12.453  1.5620 -1.3839 -0.7390
  914MPD2     N13441   0.881   3.979  12.679  0.2385  0.5342  0.7118
  914MPD2    H513442   0.938   4.063  12.689 -1.0371  1.5113 -0.2560
  914MPD2    N113443   0.657   4.286  12.390  0.3678 -0.2217 -0.6109
  914MPD2    H713444   0.574   4.335  12.361 -1.6173 -0.9940  3.7781
  915MPD2     C13445   4.179   4.503  15.899  0.9631  0.0961 -0.9086
  915MPD2    C113446   4.057   4.493  15.828  0.1531  0.4698  0.3436
  915MPD2    C213447   3.944   4.469  15.906 -0.1000  0.0930 -0.3590
  915MPD2    C313448   3.948   4.462  16.040  0.1846 -0.0661  0.1557
  915MPD2    C413449   4.065   4.482  16.108 -0.7296  0.0011  0.0931
  915MPD2    C513450   4.180   4.492  16.036  1.4017 -0.1297  0.0035
  915MPD2     H13451   3.850   4.459  15.854  0.2877  0.9727 -1.2299
  915MPD2    H113452   4.067   4.483  16.216  3.7751  0.0528 -0.0055
  915MPD2    H213453   4.271   4.529  15.848  2.0079 -3.0772 -0.6087
  915MPD2    H313454   4.278   4.489  16.082  0.3397  0.1372  2.2977
  915MPD2     N13455   3.822   4.472  16.108  0.0098  0.7941  0.5562
  915MPD2    H513456   3.738   4.473  16.051  0.1556  0.6028  0.3427
  915MPD2    N113457   4.059   4.508  15.691 -0.1998 -0.2156 -1.2828
  915MPD2    H713458   4.141   4.540  15.640 -0.3029  0.5327 -0.9881
  916MPD2     C13459   1.971   2.684  15.787  0.0372 -0.3587 -0.0588
  916MPD2    C113460   1.920   2.567  15.829  0.1009  1.1932 -0.5647
  916MPD2    C213461   1.908   2.465  15.741  0.2626 -0.2850 -0.0931
  916MPD2    C313462   1.972   2.471  15.612 -0.2244  0.5149 -0.2637
  916MPD2    C413463   2.034   2.585  15.575  1.1990 -0.2270  0.5641
  916MPD2    C513464   2.030   2.690  15.666 -0.7121 -0.0473  0.8468
  916MPD2     H13465   1.868   2.370  15.773  0.2109  0.5356  2.3009
  916MPD2    H113466   2.102   2.600  15.492  0.3708 -1.2518 -0.2854
  916MPD2    H213467   1.983   2.762  15.862  2.2726 -0.2849 -0.4985
  916MPD2    H313468   2.083   2.779  15.635  2.1736 -1.7843  0.7731
  916MPD2     N13469   1.961   2.361  15.525  0.2008 -0.3872 -0.6180
  916MPD2    H513470   1.907   2.284  15.564  1.3077 -1.1659 -0.6281
  916MPD2    N113471   1.873   2.568  15.960 -0.2733  0.0524  0.2151
  916MPD2    H713472   1.904   2.651  16.009 -0.9465  0.3151  0.2071
  917MPD2     C13473   1.925   4.499  11.279  0.3420  0.2473 -0.0105
  917MPD2    C113474   2.040   4.500  11.349 -0.1785 -0.1578 -0.3640
  917MPD2    C213475   2.157   4.534  11.283  0.8569 -0.2239 -0.8057
  917MPD2    C313476   2.159   4.589  11.161  0.2631  0.3472 -0.2552
  917MPD2    C413477   2.037   4.592  11.099 -0.6002 -0.3754  0.0106
  917MPD2    C513478   1.921   4.540  11.147  0.0859  0.2332  0.5086
  917MPD2     H13479   2.251   4.526  11.335 -0.6122  0.3406  1.9247
  917MPD2    H113480   2.042   4.643  11.003 -2.5031 -0.2046  0.0011
  917MPD2    H213481   1.832   4.471  11.327  0.3872  1.2355  0.6470
  917MPD2    H313482   1.825   4.533  11.097  0.1506 -1.3728  0.6084
  917MPD2     N13483   2.266   4.650  11.095 -0.0227 -0.2654 -0.0218
  917MPD2    H513484   2.242   4.701  11.011 -0.3557 -2.1858 -1.0848
  917MPD2    N113485   2.029   4.457  11.481  0.2899 -0.0263  1.2345
  917MPD2    H713486   1.937   4.433  11.515 -0.3385  0.9515  0.1918
  918MPD2     C13487   2.328   0.342  12.024 -0.1004 -0.2262  0.5322
  918MPD2    C113488   2.398   0.227  12.054  0.3959 -0.1566  0.2078
  918MPD2    C213489   2.333   0.107  12.063 -0.0459  0.3282  0.2653
  918MPD2    C313490   2.195   0.095  12.017  0.0565  0.4419  0.0576
  918MPD2    C413491   2.131   0.207  11.988 -0.2026 -0.1856 -0.4616
  918MPD2    C513492   2.194   0.327  11.997  0.1430  0.1272  0.0172
  918MPD2     H13493   2.383   0.015  12.091 -0.9254  0.1851  1.3691
  918MPD2    H113494   2.026   0.211  11.964  0.4165  2.0507 -2.7560
  918MPD2    H213495   2.363   0.442  12.045 -0.3207 -0.1237  0.4127
  918MPD2    H313496   2.140   0.421  11.985  0.6630  0.3705 -0.4010
  918MPD2     N13497   2.147   4.702  11.993 -0.1975 -0.9915  0.2117
  918MPD2    H513498   2.210   4.625  12.010  1.1138  0.0906  0.2809
  918MPD2    N113499   2.531   0.238  12.091  0.6559 -1.3139  0.5645
  918MPD2    H713500   2.576   0.159  12.137 -0.1817 -1.8671  0.4471
  919MPD2     C13501   2.786   3.978  12.045 -0.2581 -0.0700 -0.1030
  919MPD2    C113502   2.706   3.866  12.048 -0.1932 -0.1139 -0.0683
  919MPD2    C213503   2.624   3.834  11.945 -0.5336 -0.0032  0.2255
  919MPD2    C313504   2.626   3.913  11.833 -0.2633 -0.4020  0.1886
  919MPD2    C413505   2.715   4.016  11.822 -0.3832 -0.1433  0.2720
  919MPD2    C513506   2.799   4.052  11.927  1.1300 -0.2381 -0.3005
  919MPD2     H13507   2.557   3.749  11.955  2.0216 -2.1055 -0.3126
  919MPD2    H113508   2.716   4.067  11.726 -0.3786  1.3530  1.0602
  919MPD2    H213509   2.844   4.013  12.129 -0.0750  1.7306 -0.9938
  919MPD2    H313510   2.855   4.144  11.931  0.5384  0.1668 -1.3066
  919MPD2     N13511   2.523   3.892  11.745 -0.3846 -0.1173  0.1355
  919MPD2    H513512   2.540   3.941  11.658 -1.3345 -0.0498 -0.0200
  919MPD2    N113513   2.690   3.793  12.167  0.7265  0.2226 -0.5322
  919MPD2    H713514   2.620   3.720  12.175  0.9394  0.1934  1.1366
  920MPD2     C13515   2.297   3.974  10.785  0.5303 -0.2349  0.1697
  920MPD2    C113516   2.175   3.944  10.841 -0.1243 -0.4306 -0.2093
  920MPD2    C213517   2.170   3.923  10.981  0.0959  0.1883  0.6023
  920MPD2    C313518   2.286   3.931  11.059 -0.1119 -0.4813  0.3235
  920MPD2    C413519   2.401   3.976  11.000  0.6849  1.6256  0.1092
  920MPD2    C513520   2.410   3.978  10.865 -0.0065 -0.0673  0.9100
  920MPD2     H13521   2.074   3.901  11.025 -0.9657 -0.0399 -1.8365
  920MPD2    H113522   2.500   3.994  11.041  0.7521 -0.5362  0.8840
  920MPD2    H213523   2.310   3.990  10.678  0.9170  1.4988  0.4713
  920MPD2    H313524   2.505   4.009  10.824 -1.7797  1.7617 -1.7714
  920MPD2     N13525   2.277   3.899  11.193  0.7037 -0.4102  0.1304
  920MPD2    H513526   2.185   3.878  11.230  0.0359  0.0940 -1.2182
  920MPD2    N113527   2.057   3.933  10.764  0.5040  0.0274  0.9381
  920MPD2    H713528   1.973   3.912  10.816 -0.4777  1.0352 -0.2273
  921MPD2     C13529   3.723   3.192  17.211  0.1165  0.3247  0.5832
  921MPD2    C113530   3.727   3.128  17.088 -0.0978 -0.0557 -0.3037
  921MPD2    C213531   3.610   3.054  17.048 -0.4939  0.2087  0.3151
  921MPD2    C313532   3.504   3.035  17.132 -0.1046  0.7095 -0.2040
  921MPD2    C413533   3.493   3.108  17.248 -0.3474  0.3078 -0.1111
  921MPD2    C513534   3.605   3.186  17.283 -0.6741  0.3859 -0.0040
  921MPD2     H13535   3.609   3.011  16.948  2.2188  1.5101 -0.2613
  921MPD2    H113536   3.411   3.096  17.317 -1.6910  0.4619 -1.6743
  921MPD2    H213537   3.813   3.237  17.251 -1.8869  2.5848  2.5026
  921MPD2    H313538   3.591   3.237  17.378  1.9308 -0.5543  0.9012
  921MPD2     N13539   3.393   2.952  17.094  0.1364  0.1810  0.3319
  921MPD2    H513540   3.312   2.945  17.154 -1.3460 -0.3717 -1.7221
  921MPD2    N113541   3.847   3.125  17.015  0.4735 -0.4632 -0.3590
  921MPD2    H713542   3.930   3.166  17.056  0.1236  1.4143 -1.5496
  922MPD2     C13543   4.032   1.119  17.352 -0.1424 -0.0252  1.2768
  922MPD2    C113544   3.940   1.061  17.438  0.2717  0.7075  0.8498
  922MPD2    C213545   3.960   0.926  17.471  0.7480 -0.1448 -1.1811
  922MPD2    C313546   4.072   0.852  17.431 -0.4524  0.4933  0.3408
  922MPD2    C413547   4.154   0.912  17.341  0.7879 -0.1136 -0.6654
  922MPD2    C513548   4.127   1.039  17.298 -0.2760 -0.2413  0.5120
  922MPD2     H13549   3.883   0.896  17.540  0.7469  1.1487 -0.6133
  922MPD2    H113550   4.237   0.863  17.291  0.3929  0.0171 -1.4516
  922MPD2    H213551   4.038   1.220  17.314 -0.3939  0.3025  2.1152
  922MPD2    H313552   4.189   1.092  17.226 -2.1298  0.8453 -0.2870
  922MPD2     N13553   4.081   0.711  17.463  0.2832  0.4202  0.1659
  922MPD2    H513554   4.002   0.664  17.505  2.8425 -1.7999  2.4977
  922MPD2    N113555   3.845   1.139  17.511  0.5494 -0.3748 -0.3448
  922MPD2    H713556   3.791   1.086  17.577  0.5250 -1.2964 -1.1052
  923MPD2     C13557   0.561   2.228   9.257  0.1932  0.1756 -0.1669
  923MPD2    C113558   0.548   2.345   9.320 -0.4892 -0.1124 -0.1394
  923MPD2    C213559   0.618   2.375   9.440 -0.5760  0.6588 -0.0557
  923MPD2    C313560   0.705   2.276   9.488  0.4263 -0.0140  0.0256
  923MPD2    C413561   0.717   2.162   9.415  0.6331  0.2869  0.0569
  923MPD2    C513562   0.642   2.138   9.304 -0.0646  0.0152 -0.1922
  923MPD2     H13563   0.587   2.462   9.497  4.5424  0.3226  3.1902
  923MPD2    H113564   0.792   2.085   9.430 -1.2407 -1.4578  0.4193
  923MPD2    H213565   0.519   2.216   9.158  0.8835 -0.9457 -0.3235
  923MPD2    H313566   0.666   2.054   9.239 -1.3355 -0.4210 -0.0921
  923MPD2     N13567   0.788   2.282   9.600 -0.5242  0.9519 -0.0970
  923MPD2    H513568   0.843   2.199   9.617  0.0584  1.4499  0.4501
  923MPD2    N113569   0.456   2.435   9.272 -0.7875  0.2552 -0.0987
  923MPD2    H713570   0.417   2.411   9.181 -3.0359 -0.9949  1.1857
  924MPD2     C13571   0.837   0.867  16.235 -0.5570 -0.4077 -0.6568
  924MPD2    C113572   0.891   0.875  16.359  1.0912  0.5884 -0.1830
  924MPD2    C213573   0.986   0.975  16.379  0.5701 -0.6979 -0.2548
  924MPD2    C313574   1.027   1.067  16.273  1.0174 -0.1700 -0.0029
  924MPD2    C413575   0.962   1.055  16.157  0.9508 -0.4121 -0.2924
  924MPD2    C513576   0.864   0.958  16.139  0.1758 -0.0789 -0.3108
  924MPD2     H13577   1.022   0.979  16.481  0.8569  1.2854 -0.4389
  924MPD2    H113578   0.978   1.126  16.075  1.6567 -0.7343 -0.4366
  924MPD2    H213579   0.757   0.795  16.222  1.5887 -3.0783  0.6223
  924MPD2    H313580   0.797   0.963  16.055 -0.7235 -0.3493  0.3882
  924MPD2     N13581   1.124   1.178  16.274  0.2666 -0.3565  0.4691
  924MPD2    H513582   1.119   1.247  16.201  0.9729  0.0547  0.8093
  924MPD2    N113583   0.834   0.797  16.463  0.3990 -0.4131 -0.0080
  924MPD2    H713584   0.749   0.743  16.451 -0.3237  0.1453  2.4774
  925MPD2     C13585   4.665   3.065  14.862 -0.7471 -0.1326 -0.3174
  925MPD2    C113586   4.541   3.122  14.858 -0.0686 -0.2604 -1.1436
  925MPD2    C213587   4.507   3.220  14.944 -0.1232 -0.3253  0.1709
  925MPD2    C313588   4.594   3.260  15.041  0.5026 -0.1961 -0.4334
  925MPD2    C413589   4.721   3.208  15.041 -0.2285 -0.6899  0.0704
  925MPD2    C513590   0.016   3.112  14.951  0.0662 -0.1568  0.1876
  925MPD2     H13591   4.409   3.265  14.935  0.6070  1.2603  0.3394
  925MPD2    H113592   0.062   3.242  15.108 -1.0293  2.4253 -0.5611
  925MPD2    H213593   4.693   2.988  14.791  1.1777 -0.2146  0.5194
  925MPD2    H313594   0.120   3.081  14.953 -0.0016 -0.4788 -1.2559
  925MPD2     N13595   4.561   3.354  15.137 -0.0720 -0.7613 -0.0288
  925MPD2    H513596   4.623   3.367  15.216  0.5133 -0.1741 -0.5864
  925MPD2    N113597   4.450   3.090  14.751 -0.0387 -0.2676  0.0996
  925MPD2    H713598   4.355   3.125  14.762 -0.0572 -0.7538  1.4275
  926MPD2     C13599   3.195   1.643  13.993 -0.4831 -0.7250 -0.1681
  926MPD2    C113600   3.120   1.738  13.931  0.5256  0.3818 -0.3196
  926MPD2    C213601   3.180   1.813  13.832  0.6589 -0.3293  0.2317
  926MPD2    C313602   3.316   1.811  13.797 -0.5291  0.3845 -0.1440
  926MPD2    C413603   3.388   1.717  13.875 -0.6415 -0.1855 -0.2027
  926MPD2    C513604   3.329   1.633  13.966  0.1307  0.1992 -0.3527
  926MPD2     H13605   3.116   1.876  13.771  1.7075  1.9016  1.4317
  926MPD2    H113606   3.496   1.720  13.882 -0.5176 -0.3486 -2.1451
  926MPD2    H213607   3.151   1.572  14.062 -0.1655  0.6039  1.4181
  926MPD2    H313608   3.391   1.563  14.022  0.2943  0.6650  0.0504
  926MPD2     N13609   3.389   1.877  13.694  0.8824  0.0362 -0.4943
  926MPD2    H513610   3.488   1.854  13.685  1.6846  3.4504 -0.0989
  926MPD2    N113611   2.986   1.764  13.965 -0.4786  0.1784  0.3045
  926MPD2    H713612   2.948   1.852  13.931 -0.4540  0.0486 -0.0545
  927MPD2     C13613   2.605   4.109  17.345 -0.0101  0.4993 -0.0928
  927MPD2    C113614   2.726   4.163  17.397 -0.5326  0.2037 -0.7257
  927MPD2    C213615   2.834   4.179  17.317 -0.0029  0.2176  0.1598
  927MPD2    C313616   2.825   4.148  17.181  0.2032 -0.8748 -0.5721
  927MPD2    C413617   2.709   4.105  17.131 -0.6036 -1.1499  0.1608
  927MPD2    C513618   2.600   4.074  17.216  0.5100 -0.2912  0.0784
  927MPD2     H13619   2.927   4.218  17.356 -0.0679  0.0002  0.5272
  927MPD2    H113620   2.697   4.084  17.025 -1.5875  2.0187 -0.3445
  927MPD2    H213621   2.512   4.098  17.400 -0.3897  2.7010 -0.3165
  927MPD2    H313622   2.512   4.026  17.175 -1.1001 -0.2289  3.4711
  927MPD2     N13623   2.946   4.161  17.101 -0.0733  0.1530 -0.6003
  927MPD2    H513624   3.024   4.203  17.151 -0.4223  0.0611  0.0317
  927MPD2    N113625   2.732   4.183  17.538 -0.4325  0.3738 -0.0673
  927MPD2    H713626   2.654   4.143  17.588 -0.4624 -0.9946 -1.2061
  928MPD2     C13627   0.580   2.353   1.239 -1.0985  0.0908 -1.0860
  928MPD2    C113628   0.611   2.482   1.273 -1.3288  0.2102  0.6752
  928MPD2    C213629   0.640   2.564   1.163 -0.0630 -0.4124  0.0437
  928MPD2    C313630   0.652   2.523   1.030  0.3202 -0.7619  0.7556
  928MPD2    C413631   0.611   2.392   1.004 -0.5118 -0.2596 -0.3562
  928MPD2    C513632   0.571   2.310   1.106 -0.3599  0.3330  0.0921
  928MPD2     H13633   0.637   2.671   1.181 -1.0536 -0.4884  0.3166
  928MPD2    H113634   0.621   2.358   0.901 -0.2019  1.4242 -0.8933
  928MPD2    H213635   0.552   2.272   1.306 -0.1172 -0.6792 -1.6008
  928MPD2    H313636   0.548   2.206   1.084  1.1950  0.3331 -1.4832
  928MPD2     N13637   0.708   2.606   0.931  0.3211 -0.5571  0.2485
  928MPD2    H513638   0.716   2.586   0.832  1.5364 -0.2131  0.2761
  928MPD2    N113639   0.608   2.532   1.405 -0.3275  0.8450 -0.3260
  928MPD2    H713640   0.611   2.456   1.472 -0.2065 -0.1252 -1.4300
  929MPD2     C13641   1.042   2.867  10.617  0.6318  0.6052  0.1014
  929MPD2    C113642   0.945   2.781  10.575 -0.4135  0.1802 -0.8829
  929MPD2    C213643   0.909   2.777  10.442 -0.5220 -0.1303  0.3934
  929MPD2    C313644   0.949   2.882  10.353  0.5348 -0.0957 -0.0156
  929MPD2    C413645   1.047   2.969  10.401  0.0546  0.5249  0.2076
  929MPD2    C513646   1.099   2.954  10.523 -0.5721  0.5475  0.3536
  929MPD2     H13647   0.819   2.722  10.420 -1.4089  1.2696  0.5282
  929MPD2    H113648   1.088   3.038  10.328  1.1246  0.3327  0.6409
  929MPD2    H213649   1.073   2.849  10.720 -0.4925  0.9037  0.4940
  929MPD2    H313650   1.179   3.018  10.559 -0.3525  1.5887 -2.0194
  929MPD2     N13651   0.890   2.887  10.226  0.0745  0.3901  0.3064
  929MPD2    H513652   0.906   2.972  10.172  2.3962 -0.8840 -1.0241
  929MPD2    N113653   0.878   2.699  10.678  0.1481 -0.4225  0.6772
  929MPD2    H713654   0.900   2.715  10.776  1.2511  1.6854  0.0886
  930MPD2     C13655   3.276   3.973  13.987  0.7258 -0.3206  0.3527
  930MPD2    C113656   3.213   4.098  13.983 -0.8839  0.0699 -0.1919
  930MPD2    C213657   3.227   4.168  13.868 -0.2814 -0.4024 -0.3448
  930MPD2    C313658   3.306   4.129  13.757 -0.0797 -0.0102  0.3579
  930MPD2    C413659   3.367   4.006  13.769 -0.2752 -0.6704 -0.6381
  930MPD2    C513660   3.357   3.931  13.883 -0.7530  0.1315 -0.4798
  930MPD2     H13661   3.183   4.267  13.865 -2.8632 -1.4768  1.5913
  930MPD2    H113662   3.442   3.972  13.698 -0.2657  2.5974 -2.1641
  930MPD2    H213663   3.272   3.916  14.079  0.5688 -0.2637  0.3813
  930MPD2    H313664   3.404   3.833  13.890  0.2572  0.7197  0.8336
  930MPD2     N13665   3.339   4.213  13.652 -0.0734  0.5047 -0.0142
  930MPD2    H513666   3.399   4.172  13.582  1.0235  2.2392 -0.0990
  930MPD2    N113667   3.145   4.149  14.097 -0.1827  0.3179  0.0737
  930MPD2    H713668   3.159   4.102  14.187 -1.4187  2.2788  1.2846
  931MPD2     C13669   3.392   4.378   0.160 -0.2918 -0.2457 -0.5833
  931MPD2    C113670   3.298   4.360   0.258  0.1482 -0.1967 -0.0749
  931MPD2    C213671   3.344   4.312   0.382  0.1572 -0.4656 -0.1556
  931MPD2    C313672   3.476   4.250   0.395 -0.1628  0.4508 -0.0682
  931MPD2    C413673   3.567   4.276   0.292  0.0605 -0.2578 -0.1542
  931MPD2    C513674   3.523   4.346   0.180 -0.5248  0.1660 -0.0826
  931MPD2     H13675   3.267   4.284   0.452  0.3899 -0.8254 -0.0438
  931MPD2    H113676   3.673   4.256   0.304  0.3516  1.1027 -0.4370
  931MPD2    H213677   3.367   4.416   0.062 -0.1479  1.3781  0.0096
  931MPD2    H313678   3.602   4.366   0.109 -2.1557  0.5659 -1.7687
  931MPD2     N13679   3.528   4.171   0.501  0.5091  0.1314  0.0902
  931MPD2    H513680   3.624   4.139   0.499  0.1607 -0.9116 -0.2200
  931MPD2    N113681   3.164   4.380   0.216 -0.5021 -0.6939  0.3655
  931MPD2    H713682   3.160   4.424   0.125  3.3018 -0.0393  0.4954
  932MPD2     C13683   4.193   2.576  11.418 -0.0360  0.0802  0.1843
  932MPD2    C113684   4.265   2.668  11.489 -0.2568 -0.9413 -1.1669
  932MPD2    C213685   4.371   2.623  11.564 -0.1960  0.4603  0.1677
  932MPD2    C313686   4.414   2.491  11.560 -0.1463 -0.8241 -1.3226
  932MPD2    C413687   4.349   2.400  11.482  0.4657  0.2031  0.1506
  932MPD2    C513688   4.241   2.445  11.417  0.3073  0.2543  0.6856
  932MPD2     H13689   4.440   2.692  11.612  0.2198 -0.0948  0.3798
  932MPD2    H113690   4.380   2.296  11.480 -1.3516 -0.3680  1.0746
  932MPD2    H213691   4.113   2.603  11.349  0.3116  0.9399  0.1112
  932MPD2    H313692   4.185   2.372  11.360  1.7797  1.3104 -2.1087
  932MPD2     N13693   4.530   2.450  11.634  0.0341 -0.2956 -0.2175
  932MPD2    H513694   4.569   2.359  11.612  0.7844 -0.0654  0.1435
  932MPD2    N113695   4.235   2.805  11.493 -0.0303 -0.3672 -0.1800
  932MPD2    H713696   4.301   2.865  11.542 -1.5507  0.5695  0.7369
  933MPD2     C13697   0.736   3.042   2.187 -0.3340  0.1601  0.1223
  933MPD2    C113698   0.655   3.034   2.080  0.1864 -0.9416 -0.2025
  933MPD2    C213699   0.574   3.145   2.056 -0.1405 -0.1066  0.0579
  933MPD2    C313700   0.580   3.262   2.130 -0.0453  0.1672 -0.4771
  933MPD2    C413701   0.664   3.275   2.237 -0.3521  0.1462  0.7213
  933MPD2    C513702   0.742   3.164   2.255 -0.2733 -0.1951 -0.6558
  933MPD2     H13703   0.495   3.138   1.982  0.6794 -1.8729 -0.6463
  933MPD2    H113704   0.689   3.365   2.291  1.1830 -1.4018  2.6397
  933MPD2    H213705   0.801   2.960   2.214  1.3417  2.2052  2.1891
  933MPD2    H313706   0.823   3.162   2.327 -0.2949  0.1328 -0.6250
  933MPD2     N13707   0.494   3.372   2.092  0.1949 -0.2950  0.1604
  933MPD2    H513708   0.446   3.361   2.004  0.1958  3.2729 -0.2729
  933MPD2    N113709   0.652   2.924   1.995  0.3458  0.2585  0.2290
  933MPD2    H713710   0.726   2.856   2.012  1.9352  1.6510 -1.1654
  934MPD2     C13711   1.846   0.936   1.599  0.3581 -0.3397 -0.2376
  934MPD2    C113712   1.908   0.815   1.564 -0.1170 -0.4218  0.0590
  934MPD2    C213713   1.823   0.711   1.518 -0.4713 -0.2014  0.1165
  934MPD2    C313714   1.683   0.724   1.519 -0.2164 -0.2329  0.1945
  934MPD2    C413715   1.631   0.841   1.567  0.7174 -0.2859  0.1031
  934MPD2    C513716   1.709   0.945   1.603 -0.1616  0.2741  0.1547
  934MPD2     H13717   1.863   0.631   1.456  0.0012 -0.6826  1.0480
  934MPD2    H113718   1.523   0.850   1.570  0.5438 -2.7709  0.6505
  934MPD2    H213719   1.895   1.028   1.628 -1.7124  0.0126  2.1932
  934MPD2    H313720   1.665   1.042   1.624  0.6931  0.4270  1.2090
  934MPD2     N13721   1.599   0.627   1.465 -0.4448 -0.3681 -0.2444
  934MPD2    H513722   1.504   0.650   1.438 -0.3431  0.3358 -0.0085
  934MPD2    N113723   2.049   0.797   1.565  0.6781 -0.4808 -0.3172
  934MPD2    H713724   2.076   0.720   1.504  0.6609 -0.6450 -0.1168
  935MPD2     C13725   1.752   4.379   1.601  0.9257  1.0762 -0.2354
  935MPD2    C113726   1.663   4.388   1.500 -0.3378 -0.2353 -0.4506
  935MPD2    C213727   1.615   4.517   1.465  0.4970 -0.8266  0.1180
  935MPD2    C313728   1.635   4.625   1.551  0.1146 -0.2157  0.0370
  935MPD2    C413729   1.729   4.610   1.659 -0.7862  0.5662  0.0936
  935MPD2    C513730   1.792   4.493   1.673 -0.0469  0.0142 -0.3080
  935MPD2     H13731   1.558   4.521   1.373  0.1982  0.4165  0.3572
  935MPD2    H113732   1.765   4.693   1.719 -0.7227  1.8061 -1.6501
  935MPD2    H213733   1.802   4.287   1.631  1.6144  0.9387 -1.7770
  935MPD2    H313734   1.874   4.476   1.742  1.0404 -1.2147 -1.9409
  935MPD2     N13735   1.575   0.012   1.524  0.4897 -0.0543 -0.4494
  935MPD2    H513736   1.605   0.087   1.585 -2.1063 -0.1296  0.9132
  935MPD2    N113737   1.634   4.273   1.422 -0.2955  0.7007  0.3898
  935MPD2    H713738   1.692   4.190   1.426 -0.8212  0.2595 -0.9316
  936MPD2     C13739   1.005   1.195  13.032  0.1275  0.2693 -0.1026
  936MPD2    C113740   0.956   1.322  13.011 -0.2516  0.6136 -0.4727
  936MPD2    C213741   0.986   1.384  12.890  0.2713 -0.6456 -1.0103
  936MPD2    C313742   1.049   1.327  12.789 -1.0755 -0.2393  0.6319
  936MPD2    C413743   1.103   1.198  12.806  0.3226 -0.3689  0.7943
  936MPD2    C513744   1.085   1.142  12.934  0.0729 -0.8627  0.2349
  936MPD2     H13745   0.935   1.479  12.877  2.1744  0.7591  1.7063
  936MPD2    H113746   1.160   1.145  12.730  0.2241 -2.1025  1.9162
  936MPD2    H213747   0.973   1.144  13.123 -1.7884  1.7550  0.0515
  936MPD2    H313748   1.138   1.050  12.952  1.4999  0.0268  0.6112
  936MPD2     N13749   1.063   1.407  12.670 -0.8146  0.5226 -0.0062
  936MPD2    H513750   1.011   1.493  12.657 -0.9823  0.1152 -2.1206
  936MPD2    N113751   0.881   1.394  13.105  0.2624 -0.6399  0.2135
  936MPD2    H713752   0.856   1.490  13.083  1.2836 -0.7323 -1.2963
  937MPD2     C13753   2.735   3.172  11.872  0.0083  0.1323  0.0884
  937MPD2    C113754   2.805   3.289  11.904 -0.4648 -0.0797 -0.3442
  937MPD2    C213755   2.875   3.353  11.798 -0.2486 -0.2423  0.0182
  937MPD2    C313756   2.874   3.299  11.670 -0.2802  1.4860 -0.8519
  937MPD2    C413757   2.802   3.185  11.645 -0.0615  0.0779 -0.6941
  937MPD2    C513758   2.736   3.124  11.749  0.3171 -0.0397 -0.1977
  937MPD2     H13759   2.911   3.454  11.818 -1.2414  0.2902 -0.8621
  937MPD2    H113760   2.805   3.128  11.553 -0.0231 -2.5968  0.9623
  937MPD2    H213761   2.680   3.122  11.951 -2.0701  0.4638 -1.1539
  937MPD2    H313762   2.680   3.033  11.730 -0.7042  0.2810  1.2955
  937MPD2     N13763   2.955   3.369  11.572 -0.0220  0.3572  0.4381
  937MPD2    H513764   3.015   3.444  11.605  0.6570 -0.4212  0.9768
  937MPD2    N113765   2.787   3.362  12.032 -0.2548 -0.8820 -0.1578
  937MPD2    H713766   2.840   3.448  12.035 -4.1131  1.5203 -0.1737
  938MPD2     C13767   1.104   4.218   1.341  0.8934  0.6591  0.4103
  938MPD2    C113768   1.015   4.326   1.344  0.4256  0.1299 -0.6084
  938MPD2    C213769   0.912   4.317   1.432  0.0835  0.2788  0.1552
  938MPD2    C313770   0.881   4.201   1.499  0.1013 -0.2011  0.6362
  938MPD2    C413771   0.958   4.095   1.477 -0.0944  0.1320 -0.3039
  938MPD2    C513772   1.072   4.102   1.404 -0.5698 -0.1391 -0.7321
  938MPD2     H13773   0.850   4.403   1.452 -0.8327 -0.2227 -0.5199
  938MPD2    H113774   0.949   4.002   1.531  3.3085 -0.8396 -1.4064
  938MPD2    H213775   1.194   4.227   1.281  1.8126  3.5591  2.2350
  938MPD2    H313776   1.151   4.028   1.413  1.3990  1.9184 -1.1519
  938MPD2     N13777   0.778   4.191   1.598  0.7913  0.4323  0.2628
  938MPD2    H513778   0.758   4.096   1.629 -1.6636  0.4526 -1.2553
  938MPD2    N113779   1.018   4.438   1.263  0.3025 -0.2513 -0.0683
  938MPD2    H713780   0.950   4.509   1.285 -1.0780 -1.9751  1.1898
  939MPD2     C13781   2.321   1.255   0.415  0.1413 -0.5431 -0.2083
  939MPD2    C113782   2.285   1.175   0.522 -0.1652  0.0944  0.6145
  939MPD2    C213783   2.245   1.042   0.492  0.4950 -0.9120  0.1435
  939MPD2    C313784   2.251   0.998   0.364  0.3910 -0.0274  0.3797
  939MPD2    C413785   2.306   1.068   0.258 -0.3123 -1.1087  0.0762
  939MPD2    C513786   2.340   1.196   0.290  0.1541  0.4526 -0.0549
  939MPD2     H13787   2.211   0.975   0.569 -1.0989 -1.5548 -1.1050
  939MPD2    H113788   2.304   1.039   0.153  1.2601 -0.1635 -0.2249
  939MPD2    H213789   2.354   1.356   0.435 -0.1737 -0.6812  1.0228
  939MPD2    H313790   2.365   1.265   0.210  0.3127 -0.7507 -1.0293
  939MPD2     N13791   2.211   0.863   0.352 -0.8077  0.2524 -0.1113
  939MPD2    H513792   2.171   0.823   0.436 -0.1184 -2.1278 -0.9215
  939MPD2    N113793   2.287   1.222   0.650 -0.5817 -0.2372 -0.1442
  939MPD2    H713794   2.326   1.315   0.655  0.5163 -0.5215 -3.9697
  940MPD2     C13795   1.744   2.010  13.064  0.1914  0.3013 -0.2789
  940MPD2    C113796   1.657   1.912  13.045  0.1027 -0.3779  0.8352
  940MPD2    C213797   1.691   1.805  12.971  0.5320  0.2257  0.4774
  940MPD2    C313798   1.822   1.792  12.916  0.0788 -0.4861  0.2798
  940MPD2    C413799   1.919   1.881  12.954 -0.3528 -0.3058 -0.8233
  940MPD2    C513800   1.873   1.987  13.028  0.7166 -0.0718  0.3468
  940MPD2     H13801   1.615   1.733  12.945  0.1532 -0.0795  2.4614
  940MPD2    H113802   2.026   1.879  12.933 -0.0701  0.8719  0.4890
  940MPD2    H213803   1.724   2.101  13.120 -0.1393  0.2941 -0.3892
  940MPD2    H313804   1.948   2.052  13.073 -0.0891  1.1026 -0.0197
  940MPD2     N13805   1.859   1.685  12.833 -0.1007  0.7542  0.3160
  940MPD2    H513806   1.957   1.691  12.810 -0.4483  2.0292 -0.8727
  940MPD2    N113807   1.527   1.920  13.091 -0.3522 -0.0089  0.2777
  940MPD2    H713808   1.467   1.839  13.077 -0.9120  0.5750 -0.6732
  941MPD2     C13809   4.533   0.995  10.177  0.6431 -0.0553  0.1068
  941MPD2    C113810   4.613   0.927  10.264 -1.3682  0.5815  0.6631
  941MPD2    C213811   4.570   0.803  10.302 -0.8746 -0.1511 -0.0928
  941MPD2    C313812   4.453   0.745  10.261 -0.4506 -0.4221 -0.3277
  941MPD2    C413813   4.373   0.810  10.173  0.2694 -0.4441  0.0887
  941MPD2    C513814   4.415   0.935  10.130  0.4434  0.0109  0.1868
  941MPD2     H13815   4.622   0.765  10.390 -0.2231 -0.7838 -0.7549
  941MPD2    H113816   4.280   0.770  10.135 -0.7947  2.1984 -0.0681
  941MPD2    H213817   4.559   1.092  10.137  2.4903 -1.5139 -2.3085
  941MPD2    H313818   4.356   0.992  10.059  0.4927  1.3191  1.1835
  941MPD2     N13819   4.402   0.626  10.313 -0.4203 -0.6593  0.3542
  941MPD2    H513820   4.308   0.596  10.291 -0.2361 -0.8207 -0.2020
  941MPD2    N113821   4.732   0.976  10.315  0.3300 -0.1114 -0.4048
  941MPD2    H713822   0.039   0.916  10.384  1.5652  0.1206 -0.9733
  942MPD2     C13823   3.912   2.745   9.056  0.8678 -0.3145  0.0670
  942MPD2    C113824   3.884   2.620   9.095  0.4411  0.3459 -0.0795
  942MPD2    C213825   3.997   2.545   9.139  0.0615  0.1730  0.0838
  942MPD2    C313826   4.129   2.593   9.126  0.0150 -0.3920 -0.6459
  942MPD2    C413827   4.153   2.723   9.082 -0.3981  0.5725  0.8111
  942MPD2    C513828   4.040   2.797   9.061 -0.2538 -0.2621 -0.4650
  942MPD2     H13829   3.980   2.444   9.173  1.5751 -0.1179 -0.0149
  942MPD2    H113830   4.248   2.775   9.078 -0.4081  0.5071 -0.3990
  942MPD2    H213831   3.830   2.803   9.015 -1.0318 -2.1674  1.2325
  942MPD2    H313832   4.060   2.897   9.024 -0.1830 -0.1222 -0.0470
  942MPD2     N13833   4.241   2.510   9.155 -0.0312  0.1615  0.3344
  942MPD2    H513834   4.329   2.561   9.157 -0.0931  0.3249 -0.8815
  942MPD2    N113835   3.754   2.559   9.101  0.4029 -0.9086  0.1276
  942MPD2    H713836   3.751   2.473   9.155  3.0972 -1.2977 -0.3524
  943MPD2     C13837   2.960   0.348  10.018 -0.8107  0.4051 -0.7712
  943MPD2    C113838   2.850   0.298  10.084  0.6517  0.1968  0.0430
  943MPD2    C213839   2.730   0.362  10.069  0.3074  0.1289  0.0216
  943MPD2    C313840   2.719   0.485  10.002 -0.4325 -0.0130  0.5100
  943MPD2    C413841   2.833   0.529   9.936  0.5647 -0.3519 -0.1734
  943MPD2    C513842   2.951   0.465   9.945 -0.6307 -0.6235 -0.8189
  943MPD2     H13843   2.642   0.319  10.116 -0.5625 -0.2095 -1.9255
  943MPD2    H113844   2.831   0.624   9.884  0.8844  0.6802  1.6839
  943MPD2    H213845   3.052   0.296  10.040 -0.8086 -0.0107 -1.7881
  943MPD2    H313846   3.040   0.509   9.903  0.1523  1.0520  2.6009
  943MPD2     N13847   2.612   0.571   9.991 -0.2319 -0.4862  0.6042
  943MPD2    H513848   2.624   0.657   9.938 -2.1187 -1.4178 -1.3397
  943MPD2    N113849   2.863   0.172  10.146  0.0782  0.2573  0.5021
  943MPD2    H713850   2.954   0.134  10.173 -0.0959  0.0205  0.7520
  944MPD2     C13851   3.164   4.500  10.841 -0.2560 -0.0400  0.8886
  944MPD2    C113852   3.126   4.516  10.969 -0.2733  0.0874  0.3583
  944MPD2    C213853   3.168   4.627  11.040  0.0125  0.0434 -0.4518
  944MPD2    C313854   3.259   4.714  10.981  0.0122  0.1144 -0.4181
  944MPD2    C413855   3.285   4.706  10.847  0.1617 -0.0815  0.0870
  944MPD2    C513856   3.242   4.597  10.778  0.1739 -0.3714  0.6679
  944MPD2     H13857   3.140   4.650  11.142  0.5376 -3.3311  0.4481
  944MPD2    H113858   3.359   0.036  10.804  0.6843 -0.6497  0.1067
  944MPD2    H213859   3.135   4.410  10.789 -2.1133  0.8290  0.4355
  944MPD2    H313860   3.272   4.587  10.675  0.0022  0.6294  0.5230
  944MPD2     N13861   3.329   0.061  11.073 -0.0529  0.1292  0.1875
  944MPD2    H513862   3.322   0.044  11.173  0.9317  2.4105  0.6335
  944MPD2    N113863   3.040   4.421  11.027 -0.2902  0.1706  0.4834
  944MPD2    H713864   3.040   4.334  10.974 -3.6580  1.2844 -1.3814
    1TMC1    C113865   1.925   0.293  14.447 -0.7958  0.3273 -0.0429
    1TMC1    C213866   2.021   0.373  14.502 -0.5308  0.2609 -0.3768
    1TMC1    C313867   2.112   0.304  14.580 -0.1110 -0.7027  0.3810
    1TMC1    C413868   1.910   0.159  14.481  0.7124 -0.1743 -0.1448
    1TMC1    C513869   2.016   0.095  14.536  0.3068 -0.2471  0.4658
    1TMC1    C613870   2.113   0.167  14.593  0.8437  0.4332 -1.1345
    1TMC1     C13871   1.834   0.343  14.346 -0.0923  0.6899 -0.2359
    1TMC1     O13872   1.785   0.265  14.267  0.2074  0.1431  0.0548
    1TMC1     H13873   2.034   0.476  14.473 -0.4345  0.3555  0.0046
    1TMC1    H113874   1.823   0.104  14.446  1.4854 -1.1369 -0.5449
    1TMC1    H213875   2.196   0.112  14.637  1.5024  1.8315 -0.5920
    1TMC1    C713876   1.992   4.699  14.594  0.2230 -0.1848 -0.6974
    1TMC1    C813877   2.245   0.365  14.603  0.0673 -0.2300  0.1719
    1TMC1    O113878   2.076   4.609  14.603 -0.2316 -0.5723 -0.0777
    1TMC1    O213879   2.261   0.480  14.557 -0.3539 -0.5840  0.2295
    1TMC1    O313880   1.882   4.716  14.670  0.0862 -1.0871  0.6601
    1TMC1    H313881   1.829   0.061  14.658  0.0690 -1.2572 -0.4222
    1TMC1    O513882   2.321   0.306  14.699  0.1792 -0.5467 -0.6430
    1TMC1    H513883   2.291   0.220  14.735 -1.2452  0.5373  0.7969
    2MPD2     C13884   1.660   0.716  14.047 -0.1804  0.3001 -0.0863
    2MPD2    C113885   1.726   0.774  14.150  0.0800  0.6501 -0.2234
    2MPD2    C213886   1.778   0.692  14.252  0.3119 -0.0829 -0.1668
    2MPD2    C313887   1.770   0.558  14.239 -0.3088  0.0818  0.3793
    2MPD2    C413888   1.700   0.502  14.133 -0.2775 -0.2157 -0.0091
    2MPD2    C513889   1.640   0.582  14.044  0.0665 -0.0769 -0.2218
    2MPD2     H13890   1.820   0.722  14.347 -1.1107  0.8910  0.1548
    2MPD2    H113891   1.682   0.395  14.129 -0.7368 -0.1123 -0.6264
    2MPD2    H213892   1.616   0.777  13.969 -2.7303 -0.3339  0.8736
    2MPD2    H313893   1.569   0.540  13.973 -0.7492 -0.7052  0.9737
    2MPD2     N13894   1.833   0.481  14.345 -0.0434 -0.6545 -0.1996
    2MPD2    H513895   1.873   0.527  14.426 -1.0101 -0.8967  0.4142
    2MPD2    N113896   1.736   0.912  14.136 -0.3580 -0.0205 -0.2740
    2MPD2    H713897   1.711   0.950  14.045 -2.2233 -1.2210 -0.2542
    3TMC2    C113898   1.819   1.129  14.186  0.2840  0.8643 -0.2804
    3TMC2    C213899   1.899   1.203  14.274  0.2514 -0.0631 -0.3875
    3TMC2    C313900   1.892   1.344  14.272 -0.4165  0.1876  0.3945
    3TMC2    C413901   1.733   1.198  14.103 -0.2612 -0.4213  0.4183
    3TMC2    C513902   1.726   1.335  14.112  0.2477  0.0854 -0.0278
    3TMC2    C613903   1.804   1.409  14.194  0.2429  0.4447  0.7193
    3TMC2     C13904   1.800   0.989  14.228 -0.5518 -0.4527  0.3560
    3TMC2     O13905   1.847   0.952  14.334  0.2825  0.2136  0.0702
    3TMC2     H13906   1.954   1.154  14.354 -1.0527  1.7189  1.5874
    3TMC2    H113907   1.661   1.134  14.053  0.1818 -0.5109 -0.1026
    3TMC2    H213908   1.805   1.516  14.176  0.1905  0.1886 -0.8580
    3TMC2    C713909   1.626   1.390  14.018  0.2679 -1.2589 -0.4285
    3TMC2    C813910   1.915   1.398  14.404  0.1219  0.7140  0.0483
    3TMC2    O113911   1.586   1.316  13.937 -0.3136 -0.0982  0.1060
    3TMC2    O213912   1.991   1.349  14.487 -0.5087 -0.6420 -0.0177
    3TMC2    O513913   1.807   1.476  14.424 -0.2177 -0.4968 -0.2611
    3TMC2    H513914   1.751   1.499  14.347 -0.3048  0.3804  0.0643
    4TMC2    C113915   1.429   2.371  13.826  0.2832 -0.0905 -0.1503
    4TMC2    C213916   1.544   2.441  13.812  0.0817  0.4045 -0.3059
    4TMC2    C313917   1.663   2.384  13.840 -0.1614 -0.0314 -0.8526
    4TMC2    C413918   1.426   2.241  13.871  0.2936  0.1611  0.0732
    4TMC2    C513919   1.551   2.191  13.911  0.3420  0.5648 -1.1407
    4TMC2    C613920   1.666   2.259  13.901 -0.0469  0.5814  0.4855
    4TMC2     C13921   1.311   2.445  13.797  0.5298  0.1288 -0.0417
    4TMC2     O13922   1.282   2.543  13.861 -0.5567  0.0426 -0.0336
    4TMC2     H13923   1.536   2.537  13.764 -0.2144  1.3213  1.5550
    4TMC2    H113924   1.339   2.186  13.904  2.0417 -1.9193  1.2392
    4TMC2    H213925   1.762   2.217  13.928  0.0523  2.1097  2.4666
    4TMC2    C713926   1.567   2.043  13.922 -0.2299 -0.4630 -0.5285
    4TMC2    C813927   1.790   2.454  13.831  0.2450  0.8006 -0.3598
    4TMC2    O113928   1.677   2.010  13.975  0.6890  0.5374 -0.3610
    4TMC2    O213929   1.793   2.575  13.835 -0.3201 -0.2716 -0.1362
    4TMC2    O513930   1.895   2.372  13.813 -0.3324  0.1130 -0.4324
    4TMC2    H513931   1.873   2.280  13.790  1.6441 -0.8184  1.3479
    5MPD2     C13932   0.824   2.366  13.694  0.4278  0.3189  0.3170
    5MPD2    C113933   0.901   2.282  13.617  0.3827  0.0356 -0.2492
    5MPD2    C213934   1.038   2.276  13.641  0.2750 -0.0445  0.5319
    5MPD2    C313935   1.092   2.356  13.733 -0.5719 -0.0738 -0.2321
    5MPD2    C413936   1.011   2.439  13.811 -0.3738 -0.6860 -0.3786
    5MPD2    C513937   0.876   2.446  13.789 -0.7721 -0.0741  0.4523
    5MPD2     H13938   1.093   2.208  13.578  2.3728  1.4633  0.7508
    5MPD2    H113939   1.059   2.516  13.871  2.1543 -1.1509 -1.8097
    5MPD2    H213940   0.719   2.382  13.673  1.0858  0.6284 -2.6526
    5MPD2    H313941   0.824   2.511  13.859  1.6213  2.6592 -0.3065
    5MPD2     N13942   1.232   2.351  13.739 -0.2829 -0.3495 -0.9604
    5MPD2    H513943   1.281   2.271  13.700 -0.1882  0.3151 -2.2262
    5MPD2    N113944   0.834   2.221  13.507  0.2236  0.2932  0.2484
    5MPD2    H713945   0.737   2.243  13.487  0.2151  0.4218  0.4292
    6MPD1     C13946   4.380   3.346  13.559 -0.0331 -0.3917  0.0929
    6MPD1    C113947   4.372   3.255  13.454 -0.3547  0.6961  0.0540
    6MPD1    C213948   4.488   3.195  13.404  0.5305  0.4748 -0.0464
    6MPD1    C313949   4.605   3.206  13.476  0.7616 -0.1027 -0.7337
    6MPD1    C413950   4.603   3.269  13.602 -0.3190 -0.6471 -0.0879
    6MPD1    C513951   4.494   3.352  13.639  0.9914 -0.1327  0.3694
    6MPD1     H13952   4.487   3.150  13.306 -3.0212  2.0489 -0.7185
    6MPD1    H113953   4.695   3.267  13.660 -0.9729  0.4367  0.9768
    6MPD1    H213954   4.288   3.392  13.594  0.2975  0.4782 -0.1833
    6MPD1    H313955   4.497   3.403  13.734 -0.3043 -0.4715  0.5911
    6MPD1     N13956   4.730   3.158  13.425 -0.4811 -0.6720 -0.4681
    6MPD1    H513957   0.074   3.186  13.480  0.4121 -2.3984 -0.9169
    6MPD1    N113958   4.255   3.238  13.382 -0.6502  0.0275 -0.2868
    6MPD1    H613959   4.263   3.143  13.345 -1.7739 -0.6230  1.1501
    6MPD1    H713960   4.265   3.306  13.307 -2.2122  1.3901  0.7645
    7MPD2     C13961   0.178   2.558  13.333 -0.4314  0.1816  0.2819
    7MPD2    C113962   0.293   2.540  13.411  0.2327 -0.4428  0.2579
    7MPD2    C213963   0.352   2.417  13.415  0.2465 -0.2673 -0.3516
    7MPD2    C313964   0.314   2.314  13.324 -0.6978  0.2173  0.3814
    7MPD2    C413965   0.209   2.343  13.233  0.7009 -0.2938  0.0145
    7MPD2    C513966   0.144   2.462  13.244 -0.0313 -0.8146 -0.3536
    7MPD2     H13967   0.423   2.384  13.490  0.4323 -2.5244 -1.5346
    7MPD2    H113968   0.182   2.270  13.158  0.8762  2.5434 -2.8268
    7MPD2    H213969   0.114   2.645  13.340 -0.3521  0.2391  0.2976
    7MPD2    H313970   0.047   2.473  13.197  0.0984 -0.1238 -0.4698
    7MPD2     N13971   0.376   2.189  13.313 -0.4660 -0.2862 -0.1218
    7MPD2    H513972   0.337   2.131  13.239  2.3296 -0.1440 -1.6728
    7MPD2    N113973   0.334   2.632  13.512  0.5063 -0.2199  0.1494
    7MPD2    H713974   0.390   2.597  13.589 -0.3993  0.0318  0.9227
    8TMC3    C113975   0.573   2.058  13.309  0.1951  0.1246  0.1793
    8TMC3    C213976   0.689   2.048  13.379  0.8051  0.0309 -0.0300
    8TMC3    C313977   0.800   2.098  13.318  0.3402 -0.2512  0.1427
    8TMC3    C413978   0.573   2.088  13.175 -0.4873  0.5269 -1.0497
    8TMC3    C513979   0.686   2.145  13.115 -0.0323  0.3838 -0.2909
    8TMC3    C613980   0.800   2.144  13.190 -0.0457  0.1432  0.3637
    8TMC3     C13981   0.490   2.149  13.379 -0.3038 -0.2761 -0.6444
    8TMC3     O13982   0.551   2.201  13.469 -0.2118  0.0889 -0.4636
    8TMC3     H13983   0.685   2.029  13.486  1.5438 -2.1602 -0.3913
    8TMC3    H113984   0.480   2.096  13.121 -1.2804  0.6234  0.3121
    8TMC3    H213985   0.883   2.203  13.152  0.9344 -0.9911  0.7378
    8TMC3    C713986   0.656   2.278  13.060 -0.1686  0.5792 -0.3849
    8TMC3    C813987   0.898   2.150  13.408 -0.0527 -0.5583  0.3372
    8TMC3    O113988   0.703   2.370  13.124 -0.3058  0.4632 -0.2642
    8TMC3    O213989   1.015   2.135  13.385 -0.2350  0.3344 -0.4592
    9TMC3    C113990   0.146   3.015  13.294  0.4054  0.1573 -0.6446
    9TMC3    C213991   0.182   2.972  13.170 -0.2948 -0.4533 -0.5786
    9TMC3    C313992   0.274   2.865  13.166  0.5397  0.7743 -0.1868
    9TMC3    C413993   0.202   2.958  13.411  0.4010 -0.0441  0.1427
    9TMC3    C513994   0.279   2.845  13.400  0.2210  0.0417 -0.4988
    9TMC3    C613995   0.326   2.804  13.283  0.6922  1.6252 -0.4719
    9TMC3     C13996   0.018   3.093  13.306 -1.0488  0.0138  0.1347
    9TMC3     O13997   4.679   3.081  13.211  0.3937 -0.3104  0.5720
    9TMC3     H13998   0.148   3.026  13.082  0.9266 -1.5104 -1.7121
    9TMC3    H113999   0.166   2.993  13.507  0.3051  0.4540 -0.0730
    9TMC3    H214000   0.390   2.716  13.280 -1.2513  0.1993 -0.3597
    9TMC3    C714001   0.303   2.769  13.526  0.0850 -0.1851 -0.3553
    9TMC3    C814002   0.294   2.808  13.033 -0.3632  0.6819 -0.5905
    9TMC3    O114003   0.302   2.839  13.627 -0.0899 -0.8080 -0.4562
    9TMC3    O214004   0.218   2.842  12.943  0.3669 -0.0434  0.2551
   10MPD2     C14005   0.429   2.379  12.797  0.1553  0.0557 -0.0209
   10MPD2    C114006   0.492   2.388  12.917 -0.5632  0.3407  0.5099
   10MPD2    C214007   0.482   2.504  12.994 -0.1237 -0.9658 -0.3547
   10MPD2    C314008   0.394   2.605  12.949 -0.0376  0.0291  0.9152
   10MPD2    C414009   0.329   2.594  12.827  0.5568  0.0567  0.5626
   10MPD2    C514010   0.352   2.480  12.754 -1.1728  0.2427  1.1236
   10MPD2     H14011   0.524   2.514  13.093 -1.3912 -2.2555  0.3244
   10MPD2    H114012   0.268   2.677  12.791 -0.9062 -0.9307  0.7392
   10MPD2    H214013   0.445   2.299  12.726 -0.5951 -0.0894 -0.0260
   10MPD2    H314014   0.301   2.464  12.660  2.3582 -0.8323 -0.5858
   10MPD2     N14015   0.386   2.708  13.036 -0.1106 -0.0241 -0.0749
   10MPD2    H514016   0.432   2.702  13.126  1.5624  0.7000 -0.8820
   10MPD2    N114017   0.567   2.277  12.958 -0.4194 -0.9998 -0.4841
   10MPD2    H714018   0.558   2.186  12.912  1.2368 -1.8343  0.8457
   11MPD2     C14019   1.452   1.551  13.841 -0.0531  0.3871  0.7078
   11MPD2    C114020   1.540   1.606  13.932  0.1015 -0.1785 -0.2991
   11MPD2    C214021   1.550   1.745  13.932 -0.4406  0.3487 -0.0705
   11MPD2    C314022   1.463   1.828  13.865  0.9648  0.2060  0.1588
   11MPD2    C414023   1.360   1.770  13.794  0.1334  0.2627  0.5654
   11MPD2    C514024   1.360   1.632  13.779  0.7901 -1.0104  0.2879
   11MPD2     H14025   1.623   1.791  13.998 -0.0880  0.7235 -0.7142
   11MPD2    H114026   1.279   1.822  13.743  1.1366  0.3102 -0.9955
   11MPD2    H214027   1.438   1.444  13.832  0.6883  0.2430  1.2171
   11MPD2    H314028   1.279   1.594  13.717  0.8943 -1.2622  0.3059
   11MPD2     N14029   1.469   1.970  13.864  0.0035  0.4509  0.2578
   11MPD2    H514030   1.391   2.019  13.823  0.6248  1.4195  0.2381
   11MPD2    N114031   1.618   1.528  14.019 -0.7416 -0.0884 -0.1540
   11MPD2    H714032   1.648   1.591  14.093 -0.7201 -0.8143  0.4559
    1MPD1     C14033   3.521   3.226  15.778  0.1162  0.0359  0.4113
    1MPD1    C114034   3.478   3.240  15.913  0.2551  0.1342 -0.0717
    1MPD1    C214035   3.568   3.303  15.995  0.2898  0.3646 -0.0747
    1MPD1    C314036   3.692   3.354  15.955  0.4901  0.1849 -0.0143
    1MPD1    C414037   3.732   3.331  15.828 -0.0186 -0.1750 -0.6928
    1MPD1    C514038   3.651   3.261  15.744 -0.3363  0.6917  0.4015
    1MPD1     H14039   3.536   3.313  16.098 -0.8294 -0.1098 -0.3703
    1MPD1    H114040   3.828   3.363  15.790  0.6374 -0.9693  0.3010
    1MPD1    H214041   3.461   3.177  15.701  2.0565  1.6515 -2.1186
    1MPD1    H314042   3.683   3.248  15.641 -2.6608 -0.6251 -0.1592
    1MPD1     N14043   3.783   3.442  16.027 -0.1477 -0.4303 -0.1844
    1MPD1    H514044   3.869   3.471  15.981 -0.8811 -1.3944 -2.2042
    1MPD1    N114045   3.347   3.211  15.959 -0.0572  0.4436 -0.0107
    1MPD1    H614046   3.345   3.201  16.060  0.5576 -2.2516 -0.2572
    1MPD1    H714047   3.315   3.126  15.914 -0.7521 -0.1895  1.7191
    2MPD1     C14048   4.305   3.544  16.980 -0.0901 -0.1770  0.0706
    2MPD1    C114049   4.367   3.634  16.894 -1.3939 -0.3522 -0.2639
    2MPD1    C214050   4.323   3.650  16.766  0.0547  0.0293 -0.1073
    2MPD1    C314051   4.220   3.573  16.713  0.5021  0.0304 -0.1416
    2MPD1    C414052   4.157   3.484  16.795  0.2939  0.2010 -0.2757
    2MPD1    C514053   4.199   3.477  16.929 -0.8530  0.0305  1.1853
    2MPD1     H14054   4.358   3.733  16.706  1.3006  0.3904  1.1085
    2MPD1    H114055   4.081   3.419  16.753  0.3034  0.6225 -0.9362
    2MPD1    H214056   4.350   3.518  17.075  2.8099  2.0541 -0.6931
    2MPD1    H314057   4.150   3.402  16.991  0.3719 -0.4332  1.5929
    2MPD1     N14058   4.175   3.594  16.576 -0.1047  0.3209  0.0400
    2MPD1    H514059   4.218   3.666  16.519 -0.8927  0.8498  0.1001
    2MPD1    N114060   4.466   3.720  16.950 -0.4781 -1.0512  0.4726
    2MPD1    H614061   4.525   3.773  16.886  0.0128  0.5972  2.3039
    2MPD1    H714062   4.530   3.677  17.017  1.1162 -1.6208 -1.3868
    3TMC3    C114063   4.041   3.556  16.384  0.9861  0.5166 -0.6408
    3TMC3    C214064   4.127   3.627  16.301  0.8036  0.1173  0.4457
    3TMC3    C314065   4.084   3.674  16.184  0.0121 -0.7939  0.5744
    3TMC3    C414066   3.920   3.513  16.341  0.3619  0.1523 -0.1268
    3TMC3    C514067   3.884   3.551  16.208  0.4771 -0.3976 -0.5383
    3TMC3    C614068   3.957   3.638  16.138  0.0751  0.1040 -0.2777
    3TMC3     C14069   4.061   3.531  16.526 -0.3070  0.2747 -0.2131
    3TMC3     O14070   3.980   3.450  16.572 -0.1914 -0.0628  0.1101
    3TMC3     H14071   4.230   3.650  16.325  1.4750 -2.4770  0.0753
    3TMC3    H114072   3.858   3.445  16.399 -0.0783  0.7962  0.1586
    3TMC3    H214073   3.923   3.675  16.042  0.6907 -1.3582 -1.0592
    3TMC3    C714074   3.771   3.475  16.157 -0.2927 -0.2811 -0.4978
    3TMC3    C814075   4.153   3.771  16.100 -0.2105  0.3169  0.0909
    3TMC3    O114076   3.691   3.434  16.238 -0.0119  0.1756 -0.2893
    3TMC3    O214077   4.121   3.783  15.978  0.2757 -0.2907 -0.3370
    4MPD1     C14078   4.436   4.193  16.051 -0.7570  0.2889  0.2405
    4MPD1    C114079   4.409   4.185  16.193  0.2001 -0.1188  0.5659
    4MPD1    C214080   4.339   4.066  16.228 -0.2978 -0.1184 -0.2173
    4MPD1    C314081   4.292   3.970  16.133  0.3271 -0.6381  0.1885
    4MPD1    C414082   4.315   3.995  16.005  0.7340  0.1871  0.0830
    4MPD1    C514083   4.388   4.101  15.960  1.1150  0.2391  0.1629
    4MPD1     H14084   4.318   4.040  16.331  1.9146  1.3646  0.6075
    4MPD1    H114085   4.269   3.937  15.926  2.3508 -1.9041  0.6820
    4MPD1    H214086   4.503   4.271  16.017 -0.4703 -0.2211 -0.3638
    4MPD1    H314087   4.417   4.101  15.856 -2.0512 -0.7564 -0.6960
    4MPD1     N14088   4.224   3.857  16.177  0.1081  0.0629  0.5852
    4MPD1    H514089   4.216   3.846  16.278 -2.2148  1.1393  0.5179
    4MPD1    N114090   4.487   4.253  16.292  0.3026  0.1866 -0.4594
    4MPD1    H614091   4.440   4.262  16.381 -2.3666 -2.4029 -1.6032
    4MPD1    H714092   4.514   4.347  16.265  1.6123  0.3148  1.3364
    1TCq1    O114093   0.947   2.618  12.091 -0.1510  0.0488  0.7292
    1TCq1    C114094   0.973   2.723  12.002 -0.6451 -0.3130  0.7787
    1TCq1    O214095   1.032   2.827  12.025 -0.0269 -0.0541 -0.1551
    1TCq1    C214096   0.854   2.726  11.922 -1.0679 -0.1645  0.2759
    1TCq1    C314097   0.801   2.603  11.885  0.1318  0.5704  0.7208
    1TCq1    C414098   0.671   2.610  11.844  0.5813 -0.8149  1.0013
    1TCq1    C514099   0.593   2.719  11.887 -0.3091  0.0171  0.3852
    1TCq1    C614100   0.648   2.832  11.934  0.7215 -0.1806 -0.5021
    1TCq1    C714101   0.783   2.837  11.957  0.6608  0.0142 -0.2505
    1TCq1    C814102   0.568   2.925  12.010 -0.1998 -0.6075 -0.1648
    1TCq1    O414103   0.627   3.005  12.080  0.2418 -0.5310 -0.5139
    1TCq1    C914104   0.598   2.482  11.816  0.9251 -0.2083 -0.2192
    1TCq1    O514105   0.472   2.492  11.809  0.0484 -0.0654 -0.2009
    1TCq1    O614106   0.666   2.380  11.849 -0.1956 -0.3467  0.2925
    1TCq1    H114107   0.879   2.556  12.057 -0.7565  0.3306  1.4285
    1TCq1    H214108   0.866   2.521  11.860 -0.3525  1.0192 -2.0165
    1TCq1    H314109   0.486   2.705  11.878 -0.5689  0.3727  2.7700
    1TCq1    H414110   0.812   2.932  12.000 -1.9729  0.5559  0.3320
    2MPD1     C14111   0.118   3.118  12.123 -0.0198  0.1718  0.6172
    2MPD1    C114112   0.097   3.052  12.010 -0.6326 -0.5357  0.4341
    2MPD1    C214113   0.205   2.988  11.949 -0.6897 -0.1935  0.5115
    2MPD1    C314114   0.326   2.987  12.016 -0.2676  0.2064  0.0978
    2MPD1    C414115   0.333   3.025  12.146 -0.4284  0.2179 -0.3065
    2MPD1    C514116   0.230   3.100  12.197  0.0571  0.3078 -0.0458
    2MPD1     H14117   0.191   2.939  11.853  0.9300 -0.6806  0.5357
    2MPD1    H114118   0.423   3.017  12.206 -0.1222 -0.0740 -0.8001
    2MPD1    H214119   0.045   3.182  12.170 -1.1307  0.4792 -1.5354
    2MPD1    H314120   0.251   3.151  12.291  0.3422  0.6822 -0.3106
    2MPD1     N14121   0.433   2.920  11.964 -0.1416 -0.2118  0.0524
    2MPD1    H514122   0.422   2.866  11.879 -0.1021  0.2910 -0.2732
    2MPD1    N114123   4.723   3.079  11.936  0.2351  0.2423 -0.8243
    2MPD1    H614124   4.703   2.999  11.876  1.1676 -0.3169 -0.4002
    2MPD1    H714125   4.643   3.103  11.994 -2.2344 -0.0463 -4.1471
    1TMC1    C114126   3.993   4.103  10.442 -0.7487 -0.4679 -0.7590
    1TMC1    C214127   3.887   4.135  10.362 -0.3859 -0.1775 -0.2604
    1TMC1    C314128   3.797   4.036  10.334  0.0718 -0.0279 -0.2502
    1TMC1    C414129   4.025   3.976  10.481 -0.1121  0.4766  0.7064
    1TMC1    C514130   3.938   3.877  10.451 -0.2050 -0.3912  0.3840
    1TMC1    C614131   3.822   3.901  10.373 -0.4995  0.1684 -0.3116
    1TMC1     C14132   4.081   4.209  10.479 -0.3599 -0.1024  0.2171
    1TMC1     O14133   4.126   4.211  10.593 -0.1055 -0.6908 -0.1434
    1TMC1     H14134   3.865   4.237  10.332 -1.2642  0.0819  1.2638
    1TMC1    H114135   4.111   3.962  10.546  0.6546  0.2085 -0.3672
    1TMC1    H214136   3.754   3.823  10.339  0.0709 -0.4147 -0.1006
    1TMC1    C714137   3.983   3.741  10.476  0.8388 -0.7966 -0.1437
    1TMC1    C814138   3.672   4.070  10.270  0.1611 -0.7274  0.4140
    1TMC1    O114139   3.904   3.657  10.514  0.7267 -0.3560 -0.2092
    1TMC1    O214140   3.602   3.983  10.212 -0.1239 -0.3303 -0.3238
    1TMC1    O314141   4.077   3.722  10.382 -0.5154 -0.0273 -0.1245
    1TMC1    H314142   4.109   3.808  10.349  1.5512  0.2687  2.6019
    1TMC1    O514143   3.633   4.190  10.315 -1.0466 -0.4289  0.1706
    1TMC1    H514144   3.696   4.235  10.375 -0.8722  0.1549 -0.4467
    2MPD1     C14145   4.401   4.588  10.361  0.3424 -0.2201 -0.5433
    2MPD1    C114146   4.309   4.576  10.259 -0.0761  0.1607  0.2443
    2MPD1    C214147   4.218   4.465  10.261 -0.2348  0.2365 -0.2960
    2MPD1    C314148   4.201   4.395  10.380 -0.2692  0.2616 -0.3021
    2MPD1    C414149   4.289   4.419  10.483  0.5012  0.0745  0.4502
    2MPD1    C514150   4.389   4.511  10.472  0.0706  0.1692  0.1519
    2MPD1     H14151   4.159   4.445  10.173  0.0927 -0.4827 -0.3512
    2MPD1    H114152   4.279   4.365  10.576 -1.4839 -3.4550 -1.8243
    2MPD1    H214153   4.462   4.678  10.361  0.4222 -0.2960  4.0888
    2MPD1    H314154   4.444   4.547  10.558  0.9010 -0.2177 -0.2224
    2MPD1     N14155   4.097   4.300  10.384  0.1034  0.1668  0.6950
    2MPD1    H514156   4.042   4.296  10.299 -0.8342 -1.9367  1.3914
    2MPD1    N114157   4.331   4.641  10.133  0.2847  0.3056  0.5932
    2MPD1    H614158   4.361   0.001  10.149  0.0914  0.2587  1.2412
    2MPD1    H714159   4.244   4.650  10.080  1.8015  0.1037 -1.9662
    1MPD1     C14160   2.302   2.198  13.068 -0.6321 -0.3446  0.1260
    1MPD1    C114161   2.251   2.312  13.125 -0.4484  0.1537  0.5056
    1MPD1    C214162   2.136   2.361  13.073 -0.4719 -0.2802 -0.8427
    1MPD1    C314163   2.067   2.292  12.973  0.3013 -0.2729  0.3419
    1MPD1    C414164   2.126   2.186  12.909  0.4324 -1.0800  0.5858
    1MPD1    C514165   2.239   2.136  12.958  0.3176 -0.2045 -0.3316
    1MPD1     H14166   2.091   2.454  13.107  0.9030  1.1202 -2.8230
    1MPD1    H114167   2.071   2.127  12.836  1.6835 -3.1728  1.3105
    1MPD1    H214168   2.400   2.163  13.097 -0.4366  0.6878  0.7163
    1MPD1    H314169   2.281   2.047  12.913  3.1221  0.7901  0.2683
    1MPD1     N14170   1.936   2.339  12.927  0.5263  0.1642 -0.2048
    1MPD1    H514171   1.908   2.407  12.996  1.3090  0.1067  0.1642
    1MPD1    N114172   2.331   2.381  13.216  0.3335 -0.1426 -0.0074
    1MPD1    H614173   2.283   2.429  13.292  2.6830 -0.0800  1.4378
    1MPD1    H714174   2.403   2.333  13.270 -1.5025 -1.4857  1.2203
    2MPD1     C14175   1.948   3.856  11.500  0.2766  0.2539 -0.9241
    2MPD1    C114176   1.943   3.830  11.371  0.0883 -0.3207  0.9133
    2MPD1    C214177   1.894   3.713  11.319  1.0622 -0.4320  0.6662
    2MPD1    C314178   1.849   3.607  11.401 -0.2277  0.0454 -0.1995
    2MPD1    C414179   1.863   3.622  11.537 -0.2350  0.2485  0.1113
    2MPD1    C514180   1.904   3.749  11.581  0.8583 -0.1410 -0.2780
    2MPD1     H14181   1.914   3.705  11.212  1.3714  0.0431  0.6895
    2MPD1    H114182   1.844   3.544  11.610 -1.4433  0.1781 -0.2686
    2MPD1    H214183   1.996   3.944  11.541  1.5700 -1.2449  0.7796
    2MPD1    H314184   1.906   3.765  11.688  0.6799 -1.1622 -0.1265
    2MPD1     N14185   1.794   3.483  11.357 -0.0971 -0.0749  0.3370
    2MPD1    H514186   1.765   3.413  11.425  2.7411 -0.6371  0.9797
    2MPD1    N114187   2.001   3.914  11.276  0.0744  0.0814 -0.2359
    2MPD1    H614188   1.958   3.908  11.184 -0.8773 -1.2985  0.2932
    2MPD1    H714189   1.989   4.010  11.308  1.7143  0.1045  0.2929
    3MPD1     C14190   1.497   3.198  10.446  0.0711  0.5691  0.1466
    3MPD1    C114191   1.550   3.316  10.495  0.4263  0.2175 -0.2108
    3MPD1    C214192   1.568   3.321  10.631 -0.8922  0.2400  0.2930
    3MPD1    C314193   1.524   3.221  10.713  0.3800 -0.1111 -0.5200
    3MPD1    C414194   1.470   3.106  10.659 -0.8913 -0.2500 -0.8191
    3MPD1    C514195   1.465   3.093  10.521 -0.9190  0.6834  0.4304
    3MPD1     H14196   1.615   3.408  10.674 -1.9788  0.4730  1.0036
    3MPD1    H114197   1.430   3.023  10.715 -0.9628 -0.4131 -1.1099
    3MPD1    H214198   1.485   3.197  10.339  0.5331 -1.2182  0.1212
    3MPD1    H314199   1.408   3.006  10.490 -0.1126  0.1438  0.4636
    3MPD1     N14200   1.525   3.238  10.852  0.2642  0.0464 -0.3336
    3MPD1    H514201   1.555   3.331  10.882 -0.1780  0.0157  0.2015
    3MPD1    N114202   1.597   3.415  10.410  0.0256  0.0207  0.2850
    3MPD1    H614203   1.531   3.428  10.333 -0.9609  3.2925  1.6487
    3MPD1    H714204   1.591   3.507  10.454 -0.9849 -0.0034  0.2084
    4MPD2     C14205   1.207   2.299  12.505 -1.1378 -0.1691 -1.3225
    4MPD2    C114206   1.273   2.410  12.553 -0.3339 -0.2656  0.4151
    4MPD2    C214207   1.271   2.528  12.479  0.0276  0.1076  0.0450
    4MPD2    C314208   1.190   2.549  12.366 -0.5040  0.3207  0.3328
    4MPD2    C414209   1.130   2.437  12.320 -0.0652 -0.3977 -0.0660
    4MPD2    C514210   1.134   2.314  12.389 -0.5074 -0.1422 -0.6009
    4MPD2     H14211   1.332   2.607  12.521  0.6063 -0.1782 -0.2529
    4MPD2    H114212   1.073   2.426  12.229 -1.3542  0.5719  0.6112
    4MPD2    H214213   1.207   2.200  12.548 -0.4021  0.1859 -0.5071
    4MPD2    H314214   1.088   2.230  12.339  1.6901 -2.6798  1.6680
    4MPD2     N14215   1.195   2.657  12.283 -0.4836  0.6773 -0.1695
    4MPD2    H514216   1.143   2.655  12.196  1.5363  0.2793 -1.3527
    4MPD2    N114217   1.364   2.414  12.659 -0.3910  0.1868 -0.1648
    4MPD2    H714218   1.406   2.504  12.681 -2.0392  0.7637  0.6893
    5TMC3    C114219   1.497   2.341  12.844 -0.4704 -0.5602  0.2182
    5TMC3    C214220   1.612   2.271  12.838  0.2282  0.4240  0.4163
    5TMC3    C314221   1.725   2.349  12.852 -0.1033  0.1820  0.2889
    5TMC3    C414222   1.489   2.472  12.874 -0.6609 -0.2312  0.0931
    5TMC3    C514223   1.603   2.544  12.877 -0.4385 -0.5653 -1.3276
    5TMC3    C614224   1.726   2.479  12.866  0.3872  0.0124  0.3064
    5TMC3     C14225   1.404   2.305  12.739 -0.2358  1.0467 -0.4844
    5TMC3     O14226   1.372   2.189  12.736  0.3490 -0.6096  0.6291
    5TMC3     H14227   1.629   2.168  12.807 -0.9460  0.7405 -1.2525
    5TMC3    H114228   1.393   2.521  12.867 -1.2789 -1.3437  0.8041
    5TMC3    H214229   1.815   2.540  12.853  0.7572 -0.1894  1.9594
    5TMC3    C714230   1.582   2.668  12.797  0.5417 -0.2432  0.5717
    5TMC3    C814231   1.848   2.276  12.844 -0.5584 -0.2729 -0.0111
    5TMC3    O114232   1.485   2.656  12.723  0.2326 -0.0402 -0.3064
    5TMC3    O214233   1.847   2.169  12.786 -0.0131  0.7795 -0.3564
    6TMC3    C114234   1.686   3.323  11.215  0.5883  0.2910  0.5214
    6TMC3    C214235   1.620   3.304  11.099 -0.1579  0.6070 -0.6374
    6TMC3    C314236   1.555   3.184  11.080  0.3864  0.1603 -0.0186
    6TMC3    C414237   1.679   3.233  11.321 -0.3908  0.6637  0.1701
    6TMC3    C514238   1.602   3.123  11.299  0.3378  0.0523  0.3017
    6TMC3    C614239   1.543   3.087  11.179 -0.6243 -0.4457 -0.2152
    6TMC3     C14240   1.774   3.444  11.228  0.3903  0.7182  0.3022
    6TMC3     O14241   1.783   3.519  11.128  0.1537 -0.1942  0.3298
    6TMC3     H14242   1.644   3.382  11.027 -0.0485  0.5609 -0.6508
    6TMC3    H114243   1.718   3.248  11.421 -1.0284 -0.0732  0.5325
    6TMC3    H214244   1.500   2.989  11.162 -1.0716 -0.1020 -1.0573
    6TMC3    C714245   1.564   3.040  11.419 -0.2353 -1.1017  0.3310
    6TMC3    C814246   1.521   3.137  10.952  0.4287 -0.5586 -0.0083
    6TMC3    O114247   1.598   3.070  11.530  0.0694 -0.2704  0.0933
    6TMC3    O214248   1.492   3.019  10.939 -0.7791 -0.0168 -0.5002
    7MPD2     C14249   1.714   3.099  12.528 -0.6941  0.8676 -0.5518
    7MPD2    C114250   1.615   3.006  12.514 -0.3189 -0.1184 -0.0976
    7MPD2    C214251   1.607   2.889  12.589 -0.5466  0.2703 -0.2400
    7MPD2    C314252   1.700   2.861  12.680  0.6827  0.5924  1.1428
    7MPD2    C414253   1.813   2.940  12.680  0.5519  0.1451  0.3077
    7MPD2    C514254   1.813   3.055  12.616  1.1475 -0.3789 -0.0238
    7MPD2     H14255   1.520   2.826  12.577  0.7869 -1.2949 -1.6715
    7MPD2    H114256   1.886   2.922  12.758  0.7761 -0.2192  0.0152
    7MPD2    H214257   1.730   3.193  12.475  0.5200 -0.0441 -1.8218
    7MPD2    H314258   1.888   3.126  12.648 -0.6698  1.3594  0.4352
    7MPD2     N14259   1.688   2.759  12.782  0.8240  0.1907 -0.2808
    7MPD2    H514260   1.756   2.754  12.856 -0.0389 -2.7606  0.3266
    7MPD2    N114261   1.519   3.012  12.410  0.7433 -0.5309 -0.0426
    7MPD2    H714262   1.456   2.935  12.390  2.5900 -1.9121 -0.5553
    8TMC3    C114263   1.385   3.064  12.228  0.2994  0.5188  0.0537
    8TMC3    C214264   1.434   3.037  12.103 -0.0908  0.4159 -0.4028
    8TMC3    C314265   1.393   2.919  12.049 -0.5315 -0.4095 -0.4757
    8TMC3    C414266   1.304   2.982  12.297 -0.1031  0.7703 -0.4466
    8TMC3    C514267   1.267   2.868  12.241  1.1757  0.0022 -0.2242
    8TMC3    C614268   1.317   2.825  12.115  0.3920  0.0680  0.5130
    8TMC3     C14269   1.494   3.105  12.315  0.6646  0.0917 -0.2025
    8TMC3     O14270   1.570   3.193  12.280  0.5730  0.0425  0.8645
    8TMC3     H14271   1.491   3.111  12.048  3.5175 -0.8029  1.7362
    8TMC3    H114272   1.267   3.014  12.393  0.9528 -0.0135  0.2260
    8TMC3    H214273   1.290   2.727  12.078 -2.3292  0.8926  0.2937
    8TMC3    C714274   1.258   2.765  12.335  0.4437 -0.2477  0.1658
    8TMC3    C814275   1.423   2.897  11.910 -0.3119 -0.3547  0.0919
    8TMC3    O114276   1.309   2.794  12.439  0.2409 -0.0126 -0.0509
    8TMC3    O214277   1.500   2.977  11.864  0.3000  0.0577  0.4167
    9MPD2     C14278   1.266   2.684  11.649  1.1045 -0.5639  0.5226
    9MPD2    C114279   1.347   2.783  11.700  0.2228 -0.0461  0.0977
    9MPD2    C214280   1.414   2.864  11.613  0.9454  0.6537 -0.7421
    9MPD2    C314281   1.402   2.857  11.476 -0.2374 -0.2376  1.2028
    9MPD2    C414282   1.321   2.756  11.428  0.0809 -0.3417 -0.2872
    9MPD2    C514283   1.245   2.676  11.510 -0.4589 -0.4331 -0.0034
    9MPD2     H14284   1.482   2.938  11.653  1.5587  0.9581 -2.3710
    9MPD2    H114285   1.303   2.762  11.321  0.3468 -1.3818 -0.3856
    9MPD2    H214286   1.205   2.614  11.706  0.2692  1.8625  2.6155
    9MPD2    H314287   1.181   2.595  11.474 -0.9711 -0.2565  0.5118
    9MPD2     N14288   1.475   2.935  11.384 -0.2676 -0.5997  0.2512
    9MPD2    H514289   1.436   2.929  11.291 -0.8015 -1.0093  0.4946
    9MPD2    N114290   1.352   2.796  11.846 -0.3685  0.2447 -0.0122
    9MPD2    H714291   1.297   2.727  11.896  2.2299 -1.0463  1.0091
    1MPD1     C14292   2.708   1.813  17.496  0.7390  0.7075 -0.3654
    1MPD1    C114293   2.609   1.794  17.406 -0.0018 -0.0475 -0.1257
    1MPD1    C214294   2.547   1.903  17.351 -0.0235  0.1089 -0.5419
    1MPD1    C314295   2.570   2.036  17.402 -0.3142  0.9169  0.2074
    1MPD1    C414296   2.672   2.051  17.494 -0.0768  0.2445  0.0628
    1MPD1    C514297   2.749   1.942  17.534  0.3992 -0.2428  0.2018
    1MPD1     H14298   2.471   1.897  17.273  1.3035  0.6330 -1.8863
    1MPD1    H114299   2.683   2.149  17.538  0.9679  0.2253 -0.1486
    1MPD1    H214300   2.757   1.724  17.535 -0.2782 -0.2448 -1.2752
    1MPD1    H314301   2.820   1.960  17.614  0.2742  1.4665 -0.0762
    1MPD1     N14302   2.510   2.155  17.354 -0.0185 -0.2021  0.0086
    1MPD1    H514303   2.536   2.230  17.417  0.9833  0.3769 -1.0941
    1MPD1    N114304   2.563   1.665  17.373  0.0301 -0.0676 -0.5692
    1MPD1    H614305   2.519   1.670  17.281 -2.4933  3.1048  0.7899
    1MPD1    H714306   2.638   1.597  17.362  0.8429  0.9629 -1.2939
    2TMC2    C114307   2.233   2.417  17.086 -0.4113  0.4251  0.5731
    2TMC2    C214308   2.275   2.537  17.146 -0.5410  0.3400  0.0272
    2TMC2    C314309   2.379   2.527  17.236 -0.1213  0.6133 -0.3924
    2TMC2    C414310   2.287   2.297  17.110  0.2124 -0.2472 -0.7650
    2TMC2    C514311   2.387   2.290  17.210 -0.2566 -0.0821  0.2527
    2TMC2    C614312   2.432   2.402  17.272 -0.3391 -0.4764  0.4261
    2TMC2     C14313   2.125   2.419  16.999 -0.6730  0.0990  0.0969
    2TMC2     O14314   2.064   2.316  16.977 -0.2780  0.2368 -0.1541
    2TMC2     H14315   2.220   2.629  17.133 -0.6753  0.5676  2.1312
    2TMC2    H114316   2.257   2.205  17.062 -0.7506  0.3798 -1.3427
    2TMC2    H214317   2.513   2.410  17.343 -0.0778 -1.6046  0.2642
    2TMC2    C714318   2.441   2.163  17.232  0.3578  0.3194  0.4624
    2TMC2    C814319   2.386   2.635  17.335  0.0059  0.7841 -0.5147
    2TMC2    O114320   2.447   2.079  17.140 -0.4776 -0.3779 -0.2346
    2TMC2    O214321   2.347   2.747  17.311  0.1107  0.5339  0.5690
    2TMC2    O514322   2.395   2.586  17.459  0.6336 -0.7663 -0.2277
    2TMC2    H514323   2.403   2.489  17.470  1.0694 -0.9681 -2.2155
    3MPD1     C14324   1.819   2.694  16.685 -0.2213 -0.1919 -0.1177
    3MPD1    C114325   1.930   2.765  16.713  0.2756 -0.6791  0.7914
    3MPD1    C214326   2.024   2.714  16.799  0.0387  0.5070  0.1128
    3MPD1    C314327   2.003   2.590  16.856 -0.1994 -0.1268  0.2083
    3MPD1    C414328   1.892   2.514  16.822 -0.1259 -0.3548  0.8547
    3MPD1    C514329   1.796   2.571  16.745  0.2219  0.2993  0.2551
    3MPD1     H14330   2.113   2.774  16.812  0.0547  1.0357 -2.3957
    3MPD1    H114331   1.886   2.409  16.850 -0.9450 -0.2158  1.1873
    3MPD1    H214332   1.744   2.747  16.626 -1.9666  1.4624  3.6289
    3MPD1    H314333   1.707   2.512  16.724  0.3988 -0.3979  1.4342
    3MPD1     N14334   2.111   2.539  16.942 -0.2381 -0.5010 -0.2622
    3MPD1    H514335   2.187   2.605  16.954 -1.3832  1.1495 -1.9986
    3MPD1    N114336   1.962   2.883  16.642  0.5728  0.0564 -0.2797
    3MPD1    H614337   2.020   2.939  16.705  2.4922 -0.1361 -1.8528
    3MPD1    H714338   1.884   2.935  16.604 -0.1354 -1.1345 -0.4361
    1TMC1    C114339   4.706   0.570  13.266 -0.0231  0.1734  0.4686
    1TMC1    C214340   4.630   0.455  13.240  0.1129 -0.1697  0.6453
    1TMC1    C314341   4.492   0.474  13.233 -0.4302 -0.2700  0.0644
    1TMC1    C414342   4.652   0.691  13.295  0.6219 -0.2581 -0.0198
    1TMC1    C514343   4.520   0.706  13.279  0.1709 -0.0933  0.0733
    1TMC1    C614344   4.442   0.594  13.263  0.1564 -0.5587  0.8660
    1TMC1     C14345   0.101   0.559  13.227  0.3786  1.0587  0.8597
    1TMC1     O14346   0.123   0.480  13.138 -0.5230 -0.6183 -0.0974
    1TMC1     H14347   4.671   0.362  13.203  0.0010  1.3090 -3.2605
    1TMC1    H114348   4.723   0.766  13.328  0.7172  0.5162 -1.9749
    1TMC1    H214349   4.334   0.598  13.269  0.0186  0.0857 -2.1321
    1TMC1    C714350   4.461   0.814  13.354 -0.0029  0.3425 -0.3292
    1TMC1    C814351   4.405   0.364  13.197 -0.0871 -0.4239  0.2048
    1TMC1    O114352   4.343   0.813  13.389 -0.5192  0.2795  0.3222
    1TMC1    O214353   4.291   0.377  13.160  0.7291 -0.2819 -0.2637
    1TMC1    O314354   4.523   0.912  13.290  0.5154  0.0503  0.0770
    1TMC1    H314355   4.586   0.892  13.217 -0.7058 -1.4140 -0.5700
    1TMC1    O514356   4.440   0.259  13.276  0.1079 -0.2763  0.0819
    1TMC1    H514357   4.529   0.261  13.317  0.2472  1.2032 -0.3058
    2MPD2     C14358   0.388   0.604  13.143  0.2895  0.6842  0.2240
    2MPD2    C114359   0.331   0.661  13.255  0.1884 -0.1188 -0.7326
    2MPD2    C214360   0.409   0.733  13.343  0.6387  0.5197 -0.7275
    2MPD2    C314361   0.544   0.752  13.326 -0.3077  0.0720 -0.1350
    2MPD2    C414362   0.594   0.707  13.207 -0.7841 -0.6060  0.0504
    2MPD2    C514363   0.521   0.632  13.116  0.0336 -0.8975 -0.1269
    2MPD2     H14364   0.360   0.776  13.429  0.3558 -2.0784  0.3989
    2MPD2    H114365   0.702   0.703  13.192 -0.8460 -2.0510 -0.0756
    2MPD2    H214366   0.330   0.550  13.069  0.9098 -1.1984  1.1301
    2MPD2    H314367   0.564   0.593  13.024  4.0412  1.6689  0.6602
    2MPD2     N14368   0.614   0.822  13.422  0.6168  0.4650  0.2622
    2MPD2    H514369   0.558   0.857  13.499  0.0850  0.5273 -0.1573
    2MPD2    N114370   0.192   0.645  13.295  0.2805  0.1752  0.3983
    2MPD2    H714371   0.152   0.682  13.380  1.9833 -1.3363  1.8440
    3TCq1    O114372   0.527   1.178  13.787  0.1934 -0.2830  0.0992
    3TCq1    C114373   0.581   1.236  13.679  0.4962  0.0753 -0.2635
    3TCq1    O214374   0.511   1.270  13.586 -0.1573 -0.3280  0.9086
    3TCq1    C214375   0.700   1.141  13.647 -0.0419 -0.2010 -0.5122
    3TCq1    C314376   0.820   1.162  13.710 -0.0714 -0.5159 -0.6880
    3TCq1    C414377   0.917   1.068  13.679  0.3292 -0.4227  0.3635
    3TCq1    C514378   0.891   0.970  13.591  0.1648  0.3114  0.1014
    3TCq1    C614379   0.772   0.962  13.520 -0.4457  0.8356  0.8202
    3TCq1    C714380   0.673   1.050  13.556  0.2404  0.2652 -0.4133
    3TCq1    C814381   0.745   0.870  13.413 -0.3831 -0.3698 -0.0025
    3TCq1    O414382   0.842   0.833  13.344 -0.4610 -0.4821  0.7183
    3TCq1    C914383   1.035   1.061  13.754  0.0826 -0.1234 -0.2677
    3TCq1    O514384   1.059   1.163  13.823 -0.4377 -0.1023 -0.0212
    3TCq1    O614385   1.078   0.948  13.779  0.4273 -0.2447 -0.5906
    3TCq1    H114386   0.590   1.172  13.862  0.4095 -1.9351 -0.2238
    3TCq1    H214387   0.841   1.240  13.783 -0.5285  0.6709 -1.8151
    3TCq1    H314388   0.971   0.901  13.566 -1.4392 -1.2120 -0.9123
    3TCq1    H414389   0.570   1.031  13.529 -0.0222 -1.2156  1.6727
    1MPD2     C14390   3.919   2.337  15.146  0.2376 -0.9295 -0.0075
    1MPD2    C114391   3.972   2.222  15.098  0.1036  0.1216  0.3566
    1MPD2    C214392   4.109   2.192  15.123  0.3582  0.0940  0.6261
    1MPD2    C314393   4.184   2.292  15.191 -0.3418 -0.4090  0.3794
    1MPD2    C414394   4.122   2.399  15.249  0.4663 -0.2942  0.0209
    1MPD2    C514395   3.989   2.419  15.231 -0.1671  0.2494  0.2281
    1MPD2     H14396   4.151   2.098  15.090  2.0799  0.2112  2.5073
    1MPD2    H114397   4.179   2.465  15.314 -1.8284  0.4926  1.2084
    1MPD2    H214398   3.815   2.352  15.118  0.1105 -0.5888  0.6372
    1MPD2    H314399   3.939   2.502  15.279  0.7444 -1.5077  4.1673
    1MPD2     N14400   4.322   2.275  15.201  0.8808  0.0949  0.1655
    1MPD2    H514401   4.365   2.199  15.149 -1.8315 -1.2400 -0.1440
    1MPD2    N114402   3.896   2.145  15.014 -0.3103 -0.2505 -0.9939
    1MPD2    H714403   3.806   2.183  14.988 -0.6808 -0.0600  0.5860
    2TMC3    C114404   3.828   1.968  14.880 -0.2072  0.0250  0.1248
    2TMC3    C214405   3.855   1.833  14.889  0.8906 -0.2341 -1.0506
    2TMC3    C314406   3.882   1.766  14.774  0.2324 -0.2045  0.2691
    2TMC3    C414407   3.830   2.027  14.757  0.8367  0.2172  0.6844
    2TMC3    C514408   3.851   1.954  14.642  0.6227 -0.1333  0.7263
    2TMC3    C614409   3.876   1.820  14.649  0.2741  0.0473 -0.0883
    2TMC3     C14410   3.915   2.024  14.979 -0.0857  0.0301  0.2460
    2TMC3     O14411   4.002   1.955  15.027 -0.1078 -0.2012 -0.2170
    2TMC3     H14412   3.861   1.770  14.977 -2.6794  0.3063 -0.4389
    2TMC3    H114413   3.822   2.135  14.752 -0.9726 -0.0282 -1.6395
    2TMC3    H214414   3.909   1.768  14.560 -0.5389  1.2242 -1.0765
    2TMC3    C714415   3.868   2.012  14.509 -0.3132  1.6856 -0.6166
    2TMC3    C814416   3.999   1.677  14.788  0.3269  0.0768 -0.7612
    2TMC3    O114417   3.870   1.939  14.409 -0.2653 -0.2582 -0.7367
    2TMC3    O214418   4.027   1.609  14.687  0.7894 -0.0852 -0.0682
    3TCq1    O114419   3.641   3.146  14.413  0.0491 -0.0404  0.1264
    3TCq1    C114420   3.750   3.168  14.338  0.3484  0.2282  0.6382
    3TCq1    O214421   3.739   3.202  14.221  0.2007 -0.2080 -0.4731
    3TCq1    C214422   3.844   3.069  14.383 -0.0645  0.4096  0.3823
    3TCq1    C314423   3.876   3.075  14.518 -0.0282 -0.2789 -0.0381
    3TCq1    C414424   3.937   2.962  14.573 -0.1132  1.0470 -0.0724
    3TCq1    C514425   3.954   2.848  14.496 -0.9159  0.2498  0.1199
    3TCq1    C614426   3.914   2.847  14.366  0.1884 -0.2318  0.0917
    3TCq1    C714427   3.860   2.960  14.301  0.8089  0.1893  0.1895
    3TCq1    C814428   3.867   2.721  14.306  0.2218 -0.0458 -0.1484
    3TCq1    O414429   3.808   2.728  14.198  0.2124 -0.3007 -0.6996
    3TCq1    C914430   3.972   2.969  14.716  0.0756  0.5360 -0.2650
    3TCq1    O514431   4.042   2.868  14.758 -0.1102 -0.6840  0.0523
    3TCq1    O614432   3.933   3.058  14.790 -0.0091  0.0209 -0.5562
    3TCq1    H114433   3.647   3.142  14.510  1.0022  1.3337  0.1393
    3TCq1    H214434   3.857   3.156  14.587  1.0269 -0.9806  1.0687
    3TCq1    H314435   4.017   2.773  14.541 -3.1966 -0.8637  1.4392
    3TCq1    H414436   3.808   2.957  14.205  1.7240 -0.4956 -0.2873
    4MPD2     C14437   3.845   2.428  14.216  0.5824  0.0517 -1.0830
    4MPD2    C114438   3.867   2.472  14.340  0.8687  0.1699 -0.8287
    4MPD2    C214439   3.868   2.373  14.434  0.0484  0.3394  0.1711
    4MPD2    C314440   3.859   2.234  14.410  0.3147  0.2554  0.4880
    4MPD2    C414441   3.827   2.201  14.281  0.2825  0.1681 -0.4522
    4MPD2    C514442   3.835   2.297  14.185  0.4388 -0.2800 -0.1957
    4MPD2     H14443   3.882   2.410  14.535 -0.6839 -1.2944  0.8744
    4MPD2    H114444   3.802   2.098  14.260 -1.6191  0.1316  1.9406
    4MPD2    H214445   3.839   2.491  14.128  0.7009 -0.6911 -1.6182
    4MPD2    H314446   3.828   2.267  14.081  0.8248  0.9884 -0.5852
    4MPD2     N14447   3.867   2.144  14.518  0.1479  0.4057 -0.3366
    4MPD2    H514448   3.881   2.182  14.611  0.2450 -2.1619  0.6987
    4MPD2    N114449   3.892   2.611  14.378  0.2992  0.2696 -1.2882
    4MPD2    H714450   3.930   2.614  14.471  1.1728  0.5116 -1.6581
    5TMC2    C114451   4.574   2.054  15.190 -0.4739  0.2197 -0.0431
    5TMC2    C214452   4.583   1.996  15.313 -0.1626 -0.0135 -0.3534
    5TMC2    C314453   4.579   2.075  15.422 -0.7377 -0.7508 -0.1438
    5TMC2    C414454   4.565   2.194  15.179  0.7018 -0.0353  1.1311
    5TMC2    C514455   4.534   2.271  15.290  0.0725 -0.1275  0.0265
    5TMC2    C614456   4.556   2.216  15.414  0.3420 -0.8289 -0.3145
    5TMC2     C14457   4.488   1.985  15.103  0.1373  0.2697  0.5675
    5TMC2     O14458   4.410   2.055  15.046  0.3703  0.2775  0.6547
    5TMC2     H14459   4.597   1.889  15.327  0.3426  0.2809  1.4202
    5TMC2    H114460   4.552   2.237  15.081 -0.3508  0.0634  1.3188
    5TMC2    H214461   4.532   2.267  15.507  0.8152  2.4012 -1.9825
    5TMC2    C714462   4.408   2.347  15.283  0.2862 -0.3476  0.2567
    5TMC2    C814463   4.674   2.041  15.524  0.8545  0.1211 -0.2023
    5TMC2    O114464   4.391   2.426  15.374  0.7678 -0.1940 -0.2981
    5TMC2    O214465   4.719   1.929  15.535 -0.0625  1.0460 -0.4230
    5TMC2    O514466   0.001   2.155  15.555 -0.3358 -0.0461  0.4161
    5TMC2    H514467   4.699   2.241  15.529  2.2263  1.0731  0.2970
    6MPD2     C14468   4.272   1.575  14.868 -0.6699  0.4083 -0.0760
    6MPD2    C114469   4.219   1.687  14.911 -0.4103  0.3855  0.1448
    6MPD2    C214470   4.300   1.779  14.981 -0.3326 -0.3773 -0.7454
    6MPD2    C314471   4.430   1.759  15.018 -0.3115 -0.2227 -0.3278
    6MPD2    C414472   4.476   1.625  14.998 -0.6440  0.5432 -0.9032
    6MPD2    C514473   4.396   1.542  14.921 -0.1991  0.3184  0.2871
    6MPD2     H14474   4.254   1.875  15.000  0.7454 -0.8653  4.1548
    6MPD2    H114475   4.577   1.599  15.028 -0.5037 -0.4408 -2.2433
    6MPD2    H214476   4.225   1.501  14.803 -0.5871  0.2713  0.0200
    6MPD2    H314477   4.439   1.445  14.897 -1.8429 -0.1378 -0.7846
    6MPD2     N14478   4.505   1.848  15.099  0.6864 -0.4331 -0.5967
    6MPD2    H514479   4.582   1.806  15.151  0.8033 -0.9625 -1.1983
    6MPD2    N114480   4.088   1.730  14.876  0.3046  0.0359  0.1210
    6MPD2    H714481   4.058   1.811  14.928  2.0901  0.6341  0.2127
  945NH4     N114482   3.172   2.819  13.971  0.3730 -0.3583  0.3469
  945NH4     H214483   3.072   2.799  13.990 -0.4157  1.9945 -1.3945
  945NH4     H314484   3.198   2.900  14.031  1.3683 -2.5115  2.8569
  945NH4     H414485   3.178   2.840  13.870 -0.4866  2.0647  0.8163
  945NH4     H514486   3.231   2.734  13.989 -1.1384 -0.8896  2.8689
  946SOD     NA14487   3.184   1.452   2.104 -0.0415  0.2326  0.5289
  947SOD     NA14488   1.122   3.760  17.416 -0.3798  0.1488  0.7167
  948SOD     NA14489   0.773   2.440  12.663  0.5984 -0.1682 -0.1201
  949SOD     NA14490   3.021   3.654  13.095  0.4357 -0.2641  0.1351
  950SOD     NA14491   3.317   0.303  15.527  0.5163  0.1988  0.2963
  951SOD     NA14492   1.184   4.441   8.090  0.2970  0.1323 -0.4471
  952SOD     NA14493   3.433   2.216  12.462 -0.1432 -0.1209 -0.4906
  953SOL     OW14494   1.146   1.384   3.626 -0.0622  0.3708  0.4638
  953SOL    HW114495   1.055   1.376   3.654  0.1841 -0.8423  0.9485
  953SOL    HW214496   1.163   1.463   3.676  1.5133  2.2900 -3.0885
  954SOL     OW14497   0.933   2.491   7.908 -0.4207 -0.2919 -0.0441
  954SOL    HW114498   0.931   2.528   7.820  0.2708  1.1672  0.5411
  954SOL    HW214499   0.987   2.558   7.951 -0.4905  0.0380 -0.4744
  955SOL     OW14500   0.997   4.719   5.068  0.0281 -0.2876 -0.0680
  955SOL    HW114501   0.972   0.062   5.020 -1.2329 -0.3888  0.4446
  955SOL    HW214502   0.928   4.720   5.133  0.0386  1.4886 -0.0848
  956SOL     OW14503   2.212   1.292   8.752 -0.2655 -0.2139 -0.7121
  956SOL    HW114504   2.260   1.345   8.688  1.5789 -0.3195  0.5648
  956SOL    HW214505   2.254   1.207   8.737  2.3686  0.6871  1.4670
  957SOL     OW14506   0.270   1.726   8.353 -0.0134  0.2968 -0.2843
  957SOL    HW114507   0.348   1.775   8.327 -0.4817  0.8630 -0.6445
  957SOL    HW214508   0.229   1.748   8.269 -0.5114 -1.2939 -0.4473
  958SOL     OW14509   1.001   0.694   8.820  0.0925  0.2619 -0.5268
  958SOL    HW114510   0.948   0.769   8.847  1.4494  1.1147 -0.2235
  958SOL    HW214511   0.974   0.696   8.728  0.4758  1.7676 -0.5960
  959SOL     OW14512   1.650   1.617   4.394 -0.8158  0.5191  0.1602
  959SOL    HW114513   1.711   1.618   4.467  0.7780  1.3438 -1.1828
  959SOL    HW214514   1.677   1.534   4.354 -3.3081  0.2577 -0.9685
  960SOL     OW14515   1.610   0.611  15.594 -0.2843 -0.3465 -0.6090
  960SOL    HW114516   1.549   0.537  15.598 -2.2923  1.3667  0.5946
  960SOL    HW214517   1.579   0.669  15.663 -1.1452 -0.4833 -0.8760
  961SOL     OW14518   0.127   4.060  14.424 -0.2322 -0.2049 -0.3309
  961SOL    HW114519   0.067   3.999  14.465  0.0788 -1.1406 -1.2445
  961SOL    HW214520   0.082   4.144  14.424  1.1414  0.5424 -1.8605
  962SOL     OW14521   3.114   4.178   5.802 -0.2292 -0.3553  0.3698
  962SOL    HW114522   3.180   4.220   5.856 -0.8965 -0.0802  0.9740
  962SOL    HW214523   3.057   4.252   5.783  0.1229  0.3083  1.9463
  963SOL     OW14524   1.642   0.254  11.652 -0.5259  0.9174  0.1214
  963SOL    HW114525   1.554   0.287  11.633 -0.9035 -0.3615 -0.3791
  963SOL    HW214526   1.691   0.295  11.581 -0.6680  3.7558  1.6578
  964SOL     OW14527   2.916   4.284   2.329  0.1751 -0.4400  0.2162
  964SOL    HW114528   2.920   4.324   2.416 -0.1266 -0.7036  0.3519
  964SOL    HW214529   2.953   4.197   2.340 -0.2885 -0.4529  1.6703
  965SOL     OW14530   1.978   3.105   5.020  0.1879 -0.3293 -0.1732
  965SOL    HW114531   1.969   3.198   4.997 -2.0642  0.0226  2.1258
  965SOL    HW214532   2.072   3.091   5.006  0.2206 -0.9889  0.7768
  966SOL     OW14533   3.691   0.081   5.495 -0.1156 -0.1328 -0.2838
  966SOL    HW114534   3.619   0.021   5.510  0.3568 -0.4028  0.9179
  966SOL    HW214535   3.712   0.063   5.404  1.5316  2.6976 -0.4905
  967SOL     OW14536   1.232   4.492   8.606  0.8765  0.9060 -0.2056
  967SOL    HW114537   1.221   4.567   8.665 -2.1408 -0.4856  1.0174
  967SOL    HW214538   1.302   4.446   8.653  0.1408  1.0476  1.0406
  968SOL     OW14539   3.992   0.760   1.141 -0.0909  0.0561 -0.0393
  968SOL    HW114540   3.906   0.749   1.181 -0.3717 -2.1840 -1.2486
  968SOL    HW214541   3.962   0.768   1.050  0.9938 -0.2566 -0.4243
  969SOL     OW14542   3.686   4.082   9.658  0.0817  0.2762  0.3080
  969SOL    HW114543   3.632   4.010   9.693  0.3493  0.8173  1.8158
  969SOL    HW214544   3.621   4.152   9.649 -0.5681 -0.2371  0.9460
  970SOL     OW14545   1.771   3.545   4.933  0.0526 -0.2525 -0.3679
  970SOL    HW114546   1.821   3.621   4.964 -1.9144  0.6002  0.7113
  970SOL    HW214547   1.681   3.577   4.935 -0.0230 -0.4158 -1.0885
  971SOL     OW14548   2.003   0.399   6.489  1.0902  0.6343 -0.1163
  971SOL    HW114549   1.938   0.470   6.489 -0.9991 -1.2597 -0.1855
  971SOL    HW214550   1.982   0.360   6.574  2.1632 -0.9364 -0.5869
  972SOL     OW14551   3.304   3.559   8.893  0.1806  0.0335 -0.5334
  972SOL    HW114552   3.386   3.517   8.921 -0.1117 -0.2085 -0.0295
  972SOL    HW214553   3.242   3.488   8.909  0.3421 -0.1507 -0.7163
  973SOL     OW14554   0.255   0.314   1.561 -0.2108  0.2549  0.1937
  973SOL    HW114555   0.216   0.397   1.589 -0.7758  0.7892 -2.2248
  973SOL    HW214556   0.190   0.303   1.492  0.9318  1.1182 -1.0325
  974SOL     OW14557   1.529   4.536   2.051  0.4679  0.1748  0.0114
  974SOL    HW114558   1.437   4.536   2.025  0.4228 -2.1530  0.1805
  974SOL    HW214559   1.516   4.477   2.125 -0.2913  0.9499  0.4878
  975SOL     OW14560   1.217   2.319   7.775  0.1398 -0.3206  0.0976
  975SOL    HW114561   1.261   2.253   7.722  1.4977  0.5950  0.0816
  975SOL    HW214562   1.291   2.368   7.811  0.7171  0.4473 -2.1166
  976SOL     OW14563   3.250   0.930  10.946  0.4122  0.1747  0.0235
  976SOL    HW114564   3.314   0.912  11.014  0.9306  0.0298 -0.5012
  976SOL    HW214565   3.191   0.858  10.969  2.7662 -1.3803  1.1724
  977SOL     OW14566   3.398   3.954   4.261 -0.0027  0.0187 -0.2947
  977SOL    HW114567   3.471   3.893   4.251  0.5826  0.1337  3.1168
  977SOL    HW214568   3.332   3.884   4.269 -1.5249  1.3514 -1.1779
  978SOL     OW14569   1.171   1.943   6.349 -0.4975 -0.0332 -0.9902
  978SOL    HW114570   1.107   1.984   6.291 -0.2510 -0.1274 -1.3288
  978SOL    HW214571   1.124   1.867   6.383  1.1231 -0.4102  0.4008
  979SOL     OW14572   3.387   4.611   2.787 -0.0044  0.1358  0.0643
  979SOL    HW114573   3.398   4.705   2.772 -0.3085  0.3444  1.1347
  979SOL    HW214574   3.369   4.576   2.700 -4.3085 -1.4491  1.6059
  980SOL     OW14575   1.537   3.474   7.956 -0.0437  0.1332 -0.7391
  980SOL    HW114576   1.605   3.515   8.010  1.5753 -3.2155 -0.2130
  980SOL    HW214577   1.594   3.427   7.896  0.4462 -1.5700  1.0352
  981SOL     OW14578   2.736   1.842   5.521 -0.4964  0.4088  0.1215
  981SOL    HW114579   2.692   1.813   5.600 -1.2905  1.9214  0.2238
  981SOL    HW214580   2.759   1.932   5.547  2.2547 -0.4590  0.7172
  982SOL     OW14581   1.899   1.187  17.489  0.1603  0.1137  0.0394
  982SOL    HW114582   1.971   1.151  17.541  0.1738 -4.8682 -3.3485
  982SOL    HW214583   1.839   1.231  17.550 -2.9560 -0.0325 -2.9262
  983SOL     OW14584   2.904   3.398   1.495 -0.3031 -0.3321  0.6255
  983SOL    HW114585   2.996   3.382   1.472 -0.1544  3.2560 -1.2538
  983SOL    HW214586   2.889   3.467   1.431 -0.8421 -0.3313  0.7547
  984SOL     OW14587   3.147   4.431   1.171 -0.3456 -0.4002 -0.2447
  984SOL    HW114588   3.224   4.486   1.152 -0.1483 -0.6783 -0.2412
  984SOL    HW214589   3.077   4.496   1.171  0.1305  0.1128  0.3977
  985SOL     OW14590   4.499   2.155   1.156  0.2140 -0.2188  0.5127
  985SOL    HW114591   4.551   2.087   1.198 -0.0493 -0.6846  0.0787
  985SOL    HW214592   4.557   2.220   1.116 -1.9245 -0.2297 -2.6268
  986SOL     OW14593   4.653   1.922   4.762  0.1374  0.0439  0.2293
  986SOL    HW114594   4.679   1.999   4.813 -0.8102 -0.8020  1.9699
  986SOL    HW214595   4.684   1.848   4.814  0.6123 -1.0549 -1.6129
  987SOL     OW14596   1.748   1.607  16.394 -0.1345 -0.4149 -0.0081
  987SOL    HW114597   1.842   1.615  16.411  0.2986 -0.1023 -2.4957
  987SOL    HW214598   1.757   1.633  16.302  0.4571 -1.4076 -0.2304
  988SOL     OW14599   3.455   3.690   5.256 -1.0681  0.4187 -0.1677
  988SOL    HW114600   3.395   3.619   5.234  0.1998 -0.3242 -1.2773
  988SOL    HW214601   3.542   3.658   5.234 -1.3803 -1.0035  0.6947
  989SOL     OW14602   3.044   2.075  14.542  0.4112 -0.1721  1.1115
  989SOL    HW114603   3.105   2.127  14.595  0.0167  0.4947  0.9109
  989SOL    HW214604   2.981   2.144  14.518  0.5683 -0.4623 -0.1179
  990SOL     OW14605   4.456   3.090  15.339 -0.1345  0.3821  0.1293
  990SOL    HW114606   4.402   3.070  15.262  0.3263 -1.8306  0.3738
  990SOL    HW214607   4.396   3.155  15.375 -1.6876 -1.0258  0.0637
  991SOL     OW14608   3.895   0.282   3.750 -0.1456  0.6130  0.3982
  991SOL    HW114609   3.908   0.342   3.677  2.6272  0.9309  1.1394
  991SOL    HW214610   3.849   0.338   3.812  1.9877  0.9095  1.7061
  992SOL     OW14611   1.418   3.625  11.499 -0.0078 -0.7443 -0.2044
  992SOL    HW114612   1.492   3.573  11.528  1.6064  0.7509 -1.6546
  992SOL    HW214613   1.354   3.554  11.505 -1.2161  0.5614  2.2718
  993SOL     OW14614   0.209   3.378   3.801 -0.5872  0.6284 -0.4224
  993SOL    HW114615   0.252   3.296   3.777 -0.7190  0.8477 -1.4117
  993SOL    HW214616   0.202   3.369   3.897  3.6769  1.5103 -0.0486
  994SOL     OW14617   4.116   4.208   4.464  0.1858  0.2750  0.3058
  994SOL    HW114618   4.132   4.206   4.370 -1.4696 -1.3980  0.0497
  994SOL    HW214619   4.031   4.252   4.459 -0.0960 -0.5106 -1.9988
  995SOL     OW14620   4.003   1.439   0.525 -0.3438 -0.2066  0.2484
  995SOL    HW114621   4.028   1.529   0.504 -0.7757 -0.2880 -0.5995
  995SOL    HW214622   4.026   1.400   0.441 -0.1517 -1.3259  0.8314
  996SOL     OW14623   0.997   3.035   8.077 -0.5204 -0.1216 -1.2632
  996SOL    HW114624   0.911   3.065   8.108 -0.1991 -2.2064  1.7139
  996SOL    HW214625   1.061   3.070   8.139  1.1806 -1.7643 -2.0886
  997SOL     OW14626   0.168   0.517   2.064  0.0233 -0.4047  0.3076
  997SOL    HW114627   0.231   0.582   2.032  0.5435 -0.0270  2.0911
  997SOL    HW214628   0.217   0.435   2.068 -0.1569 -0.4663  1.1790
  998SOL     OW14629   4.711   4.520  13.707  0.5194 -0.2262  0.1988
  998SOL    HW114630   4.643   4.558  13.652  0.6525 -0.1031  0.1199
  998SOL    HW214631   4.664   4.513  13.790  1.9943  0.5622  1.0753
  999SOL     OW14632   2.553   1.400   4.757 -0.9431 -0.2903 -0.1912
  999SOL    HW114633   2.498   1.390   4.680 -3.2349  2.3739  1.0990
  999SOL    HW214634   2.503   1.473   4.793  0.1239 -0.6851  2.1331
 1000SOL     OW14635   0.550   3.840   9.966 -0.0844 -0.0025 -0.4588
 1000SOL    HW114636   0.599   3.769  10.007 -1.2295 -0.2986  0.3818
 1000SOL    HW214637   0.482   3.789   9.923 -3.4693  3.1942  1.1518
 1001SOL     OW14638   0.950   1.893   4.019 -0.1991 -0.1754 -0.1299
 1001SOL    HW114639   0.915   1.964   4.072  2.4203 -0.2738  1.6676
 1001SOL    HW214640   0.894   1.822   4.052 -0.3169 -0.8610 -1.7771
 1002SOL     OW14641   1.288   0.702  12.870  0.3534  0.3090 -0.0987
 1002SOL    HW114642   1.345   0.776  12.851  0.6771 -0.0433 -0.5064
 1002SOL    HW214643   1.295   0.665  12.782 -0.3031  0.6487 -0.2964
 1003SOL     OW14644   2.082   2.057   6.090 -0.0346 -0.3521  0.5765
 1003SOL    HW114645   2.128   2.140   6.079 -0.1065 -0.5997 -1.6318
 1003SOL    HW214646   2.151   1.991   6.099  0.7389  0.6119  1.6688
 1004SOL     OW14647   4.257   3.946   3.956 -0.3200 -0.2093 -0.3754
 1004SOL    HW114648   4.193   3.896   3.904 -0.6582 -0.3629  0.1898
 1004SOL    HW214649   4.297   3.874   4.005  0.2169 -0.0589 -0.5899
 1005SOL     OW14650   1.798   2.520  15.158 -0.2903  0.4968 -0.2194
 1005SOL    HW114651   1.847   2.440  15.137  1.0220  1.5564 -1.2262
 1005SOL    HW214652   1.766   2.494  15.244 -0.5197 -1.5543 -0.9290
 1006SOL     OW14653   4.060   3.916   5.486 -0.6479 -0.2268 -0.3259
 1006SOL    HW114654   4.125   3.849   5.507 -0.4507 -0.5774 -2.0768
 1006SOL    HW214655   4.061   3.931   5.391  0.4152 -1.4096 -0.5113
 1007SOL     OW14656   2.339   3.237   1.248  0.1977 -0.0391 -0.1227
 1007SOL    HW114657   2.322   3.291   1.325  1.2993 -3.1356  2.3286
 1007SOL    HW214658   2.375   3.158   1.289 -2.4722 -0.6534  1.0495
 1008SOL     OW14659   2.429   2.858   4.975 -0.0885 -0.6027 -0.0814
 1008SOL    HW114660   2.393   2.843   4.888  2.2911 -2.0048 -0.7957
 1008SOL    HW214661   2.373   2.922   5.019 -0.4397 -0.7649 -0.2937
 1009SOL     OW14662   2.549   2.934   7.998  0.1342 -0.2462 -0.2073
 1009SOL    HW114663   2.512   2.948   8.085 -2.6089  0.0059 -1.4217
 1009SOL    HW214664   2.576   2.843   8.010  0.6034 -0.0777  0.0339
 1010SOL     OW14665   1.884   2.371   4.079 -0.4331  0.6357  0.3426
 1010SOL    HW114666   1.968   2.335   4.107 -0.2317  2.3028  1.8794
 1010SOL    HW214667   1.831   2.302   4.117  0.3500 -0.0731  0.1347
 1011SOL     OW14668   3.078   1.438  16.068 -0.2329 -0.3754  0.3307
 1011SOL    HW114669   3.150   1.495  16.041  0.6697 -1.2929  0.7932
 1011SOL    HW214670   3.105   1.364  16.013 -1.0860  1.2674 -2.2962
 1012SOL     OW14671   0.759   0.605   1.596  0.0293 -0.0069 -0.0441
 1012SOL    HW114672   0.673   0.564   1.606  0.8792 -1.6277  0.5183
 1012SOL    HW214673   0.816   0.533   1.569  0.0669  0.0401 -0.0892
 1013SOL     OW14674   2.724   3.255   7.509  0.1194 -0.1846  0.4726
 1013SOL    HW114675   2.737   3.160   7.514  0.1294 -0.1819  0.5005
 1013SOL    HW214676   2.754   3.278   7.421 -1.6146 -0.5076 -0.2086
 1014SOL     OW14677   2.246   0.358   3.620 -0.4563 -0.5320 -0.9427
 1014SOL    HW114678   2.180   0.329   3.682  0.7019 -0.4813  0.3020
 1014SOL    HW214679   2.313   0.392   3.679  1.0665 -0.2852 -2.7982
 1015SOL     OW14680   4.642   1.924  11.894 -0.2036 -0.2526  0.6004
 1015SOL    HW114681   4.731   1.901  11.868  0.6243  0.4726  2.7396
 1015SOL    HW214682   4.661   2.007  11.937  0.0092  0.4180 -0.8289
 1016SOL     OW14683   0.421   2.980   4.237  0.2031 -0.3351 -0.0787
 1016SOL    HW114684   0.360   3.015   4.301 -0.0765 -3.3386  1.2812
 1016SOL    HW214685   0.392   2.889   4.239 -0.0697 -0.2175  1.0953
 1017SOL     OW14686   0.974   2.363   3.097  0.0763 -0.0205  0.1379
 1017SOL    HW114687   0.926   2.392   3.175  0.3969  1.8666 -0.3750
 1017SOL    HW214688   0.912   2.314   3.043 -0.9271 -1.0177  2.1821
 1018SOL     OW14689   0.298   2.397   5.785  0.2962  0.2669  0.6250
 1018SOL    HW114690   0.225   2.434   5.834 -0.6311 -2.2548  1.1451
 1018SOL    HW214691   0.253   2.344   5.718  1.5292 -0.1415  0.1235
 1019SOL     OW14692   2.792   2.282  12.677  0.6091 -0.3790  0.8972
 1019SOL    HW114693   2.854   2.341  12.635  0.4925 -0.4073  0.6824
 1019SOL    HW214694   2.766   2.331  12.755  0.3259 -1.2473  1.3616
 1020SOL     OW14695   1.994   0.100   2.355 -0.1634  0.1443 -0.0991
 1020SOL    HW114696   2.084   0.067   2.358  0.2657  1.1798 -1.8242
 1020SOL    HW214697   2.012   0.186   2.317  0.8900 -0.2044 -0.3808
 1021SOL     OW14698   4.471   1.640   7.941  0.5952 -0.5492  0.5113
 1021SOL    HW114699   4.555   1.655   7.898 -0.0531 -0.7370 -0.8122
 1021SOL    HW214700   4.413   1.651   7.865  1.7910  0.3518 -0.2609
 1022SOL     OW14701   0.461   2.405   3.789 -0.2737  0.3801 -0.0639
 1022SOL    HW114702   0.451   2.329   3.846  1.1639 -0.2189 -0.5998
 1022SOL    HW214703   0.445   2.469   3.858 -0.4631  0.3911 -0.1184
 1023SOL     OW14704   3.276   1.945   4.149  0.0559  0.8998 -0.1160
 1023SOL    HW114705   3.308   1.959   4.238  1.3371  3.0927 -0.9153
 1023SOL    HW214706   3.281   1.851   4.133  0.9264  1.0317 -0.6575
 1024SOL     OW14707   1.815   2.297   8.096 -0.2918 -0.0475  0.0402
 1024SOL    HW114708   1.877   2.337   8.035  0.1365 -1.0328 -0.1766
 1024SOL    HW214709   1.860   2.213   8.111  0.8435  1.0173  2.5545
 1025SOL     OW14710   2.841   2.198   8.175 -0.2288  0.2010  0.7404
 1025SOL    HW114711   2.826   2.256   8.100  0.0051 -3.2241 -1.9440
 1025SOL    HW214712   2.895   2.241   8.241  1.0010  0.3447 -0.3617
 1026SOL     OW14713   0.748   0.324   5.932  0.5989 -0.0864  0.0790
 1026SOL    HW114714   0.730   0.286   5.846 -0.5931  1.1120 -0.1977
 1026SOL    HW214715   0.722   0.255   5.993 -2.1750 -0.2447 -1.2489
 1027SOL     OW14716   2.519   3.799   7.667 -0.3916 -0.4007  0.4022
 1027SOL    HW114717   2.519   3.705   7.648 -0.0036 -0.0178 -1.4697
 1027SOL    HW214718   2.434   3.812   7.625 -0.7150 -0.8149  0.9270
 1028SOL     OW14719   2.552   4.319  16.468  0.1504  0.3195  0.0327
 1028SOL    HW114720   2.512   4.280  16.390  2.0285  0.3789 -0.9538
 1028SOL    HW214721   2.630   4.266  16.488 -0.0195  1.3345  3.4601
 1029SOL     OW14722   1.621   0.437   6.482 -0.0689  0.1485  0.2868
 1029SOL    HW114723   1.651   0.363   6.535 -0.0200 -1.2873 -1.7289
 1029SOL    HW214724   1.687   0.504   6.498  0.2158 -0.7867  2.9676
 1030SOL     OW14725   4.036   0.234   4.693 -0.0461  0.5461  0.3068
 1030SOL    HW114726   4.103   0.185   4.646  0.9500 -0.4754  2.7910
 1030SOL    HW214727   4.071   0.223   4.781  0.1373  0.4437  0.2206
 1031SOL     OW14728   0.378   4.130   7.732 -0.1068  0.0791 -0.1952
 1031SOL    HW114729   0.309   4.097   7.789 -0.4146 -1.3845 -1.4030
 1031SOL    HW214730   0.350   4.221   7.735 -1.8218 -0.4419 -0.4332
 1032SOL     OW14731   0.731   3.580   8.520  0.4948 -0.3622  0.2634
 1032SOL    HW114732   0.708   3.669   8.547 -1.0905 -0.1465 -1.7849
 1032SOL    HW214733   0.686   3.583   8.435  0.7703 -0.2896  0.1212
 1033SOL     OW14734   1.961   4.320   5.399 -0.4277 -0.8770 -0.1275
 1033SOL    HW114735   1.967   4.411   5.370 -0.5288 -0.0867  2.3750
 1033SOL    HW214736   1.991   4.285   5.315  0.7471  0.6587 -0.3308
 1034SOL     OW14737   1.151   2.654   0.929  0.3765  0.1437  0.6585
 1034SOL    HW114738   1.085   2.585   0.925  0.8334 -0.2672  0.2058
 1034SOL    HW214739   1.196   2.641   0.846  0.6073  0.5389  0.7215
 1035SOL     OW14740   4.035   1.769   9.452  0.7889 -0.6523  0.0661
 1035SOL    HW114741   4.011   1.822   9.375  0.2194  0.7599  1.2129
 1035SOL    HW214742   3.994   1.690   9.417 -1.0357  0.8960 -1.3370
 1036SOL     OW14743   0.570   3.826   4.677  0.2845 -0.3226  0.3706
 1036SOL    HW114744   0.634   3.826   4.605 -1.1129 -0.6429 -0.8731
 1036SOL    HW214745   0.580   3.736   4.708 -0.0998  0.8727  4.0147
 1037SOL     OW14746   3.056   3.889  14.338  0.3260 -0.3601 -0.0082
 1037SOL    HW114747   3.075   3.948  14.411  0.1757  0.4022 -0.5802
 1037SOL    HW214748   3.137   3.840  14.327  0.3004  0.1358 -2.3887
 1038SOL     OW14749   1.339   4.568   4.219 -0.3029  0.0574 -0.8977
 1038SOL    HW114750   1.307   4.644   4.267 -0.0002 -0.3035 -0.1097
 1038SOL    HW214751   1.264   4.513   4.245 -0.8042  1.8666  1.4397
 1039SOL     OW14752   0.591   0.104   8.122  0.0332  0.1546  0.5771
 1039SOL    HW114753   0.670   0.145   8.086  1.3220 -0.5691  2.5849
 1039SOL    HW214754   0.532   0.115   8.048  1.3319 -2.6832 -0.8452
 1040SOL     OW14755   4.643   0.659   7.258  0.4523 -0.6425  0.2932
 1040SOL    HW114756   4.696   0.739   7.260 -0.7895  0.1705  0.5860
 1040SOL    HW214757   4.687   0.615   7.331  1.7302  1.3466  0.7232
 1041SOL     OW14758   0.408   2.615   3.970  0.7385 -0.0576  0.1559
 1041SOL    HW114759   0.408   2.641   4.062 -0.4135 -1.3142  0.4998
 1041SOL    HW214760   0.391   2.697   3.924  0.2276 -0.0603  0.3397
 1042SOL     OW14761   4.339   1.288  11.901 -0.0315 -0.6277 -0.0619
 1042SOL    HW114762   4.335   1.381  11.923  1.7711 -1.1687  2.6490
 1042SOL    HW214763   4.248   1.266  11.879 -0.8384  2.2465  0.3756
 1043SOL     OW14764   3.024   3.583   4.362 -0.3220 -0.1881  0.2411
 1043SOL    HW114765   3.034   3.649   4.294  0.7512  0.7747  1.3156
 1043SOL    HW214766   3.073   3.519   4.309  0.1706 -0.5797  1.1602
 1044SOL     OW14767   2.828   1.135   2.858  0.0648  0.2621 -0.6472
 1044SOL    HW114768   2.860   1.198   2.923 -2.1229  0.5019  0.2172
 1044SOL    HW214769   2.869   1.160   2.776 -1.2693  5.2113  0.1908
 1045SOL     OW14770   1.587   4.729   5.011 -0.6729  0.4082 -0.0439
 1045SOL    HW114771   1.500   4.716   4.973 -0.9611 -0.5342  0.9265
 1045SOL    HW214772   1.561   0.008   5.102  0.1452  1.9813 -0.0773
 1046SOL     OW14773   0.980   2.878   3.026 -0.4020  0.4533  0.2988
 1046SOL    HW114774   0.966   2.902   3.118 -2.9422  0.2863 -0.0336
 1046SOL    HW214775   0.989   2.964   2.984 -2.2792 -0.1491 -1.3476
 1047SOL     OW14776   1.732   0.010  10.666  0.3625  0.2961 -0.3235
 1047SOL    HW114777   1.718   4.668  10.613  1.5147  0.8504 -1.4575
 1047SOL    HW214778   1.642   0.029  10.693 -0.2987 -2.9625 -0.2236
 1048SOL     OW14779   4.258   3.433   9.064  0.3766 -0.3167 -0.3380
 1048SOL    HW114780   4.221   3.345   9.060 -0.0575 -0.2207  1.5933
 1048SOL    HW214781   4.315   3.429   9.141 -2.6801 -0.6535  1.9005
 1049SOL     OW14782   3.303   2.125   4.439  0.0771 -0.4932 -0.5317
 1049SOL    HW114783   3.295   2.114   4.534 -2.5753 -0.1855 -0.7141
 1049SOL    HW214784   3.316   2.219   4.432 -0.3212 -0.4089 -0.1453
 1050SOL     OW14785   1.388   0.749   6.525 -0.4617 -0.5224  0.1146
 1050SOL    HW114786   1.348   0.713   6.446 -0.2414  0.1959 -0.3191
 1050SOL    HW214787   1.445   0.674   6.540  1.2061  0.1204 -3.0119
 1051SOL     OW14788   2.733   0.416   5.802  0.0605 -0.1281 -0.2285
 1051SOL    HW114789   2.789   0.354   5.755 -1.1131  1.1443 -3.3524
 1051SOL    HW214790   2.800   0.482   5.823  0.4610 -0.2386 -1.1509
 1052SOL     OW14791   1.301   3.393   2.675 -0.1558  1.0234  0.1987
 1052SOL    HW114792   1.313   3.379   2.769 -0.6101  0.5874  0.1935
 1052SOL    HW214793   1.298   3.301   2.650  0.7868  1.4687 -1.5129
 1053SOL     OW14794   2.395   0.258   7.413  0.1525  0.1663  0.1174
 1053SOL    HW114795   2.388   0.167   7.442 -0.2059 -0.7785 -2.8705
 1053SOL    HW214796   2.475   0.290   7.454 -1.8092  1.0168  3.2176
 1054SOL     OW14797   2.706   3.685   4.415  0.0764 -0.5828 -0.3271
 1054SOL    HW114798   2.781   3.726   4.372 -1.0531 -0.3110 -2.0609
 1054SOL    HW214799   2.746   3.638   4.488 -0.2683  0.1183  0.3248
 1055SOL     OW14800   1.117   4.382   2.963 -0.3423 -0.0764 -0.3363
 1055SOL    HW114801   1.156   4.414   3.045 -0.6235 -0.0238 -0.2232
 1055SOL    HW214802   1.060   4.453   2.934 -1.8013 -0.7897  0.7324
 1056SOL     OW14803   3.584   4.707  12.963  0.8293 -0.5760  0.0420
 1056SOL    HW114804   3.644   0.028  13.011 -0.8033  0.9450  0.2210
 1056SOL    HW214805   3.633   4.709  12.881  1.1713  1.4899  0.3174
 1057SOL     OW14806   0.534   0.392   3.237  0.2615 -0.5514  0.1162
 1057SOL    HW114807   0.549   0.401   3.331 -2.0090  1.3759  0.2602
 1057SOL    HW214808   0.578   0.469   3.201 -0.5228  0.0244  0.4046
 1058SOL     OW14809   2.068   3.742   6.948  0.1448 -0.0519  0.6050
 1058SOL    HW114810   2.096   3.781   7.031 -0.0393  1.3438  0.0102
 1058SOL    HW214811   2.129   3.672   6.927 -0.9686 -0.9964  0.5256
 1059SOL     OW14812   4.503   0.534   4.962  0.0751  0.1734  0.0564
 1059SOL    HW114813   4.579   0.490   4.999 -0.6448  1.5447  3.1459
 1059SOL    HW214814   4.435   0.480   5.003  0.0047 -1.2370 -1.8951
 1060SOL     OW14815   4.201   1.007   2.241 -0.8347 -0.4954 -0.1025
 1060SOL    HW114816   4.193   1.011   2.337  1.0346 -0.2203  0.0437
 1060SOL    HW214817   4.131   1.067   2.214  0.7873  1.7524  0.6068
 1061SOL     OW14818   2.060   0.694   6.366  0.1285  0.0388  0.0372
 1061SOL    HW114819   2.104   0.668   6.447 -0.3063 -0.1039  0.2255
 1061SOL    HW214820   1.971   0.684   6.398  0.0431  0.2284 -0.1380
 1062SOL     OW14821   3.459   2.889   5.482 -0.1244 -0.2352  0.6079
 1062SOL    HW114822   3.390   2.956   5.482  0.6659  0.5832  0.4450
 1062SOL    HW214823   3.510   2.922   5.556  0.6529  2.1385 -0.9633
 1063SOL     OW14824   1.038   4.577   9.185 -0.2128  0.4711 -0.2441
 1063SOL    HW114825   0.961   4.546   9.139 -0.1203 -1.4796  0.9408
 1063SOL    HW214826   1.017   4.661   9.226 -0.7428 -0.2717  0.9934
 1064SOL     OW14827   4.018   2.306  14.719 -0.1208  0.4454 -0.1332
 1064SOL    HW114828   4.034   2.400  14.707  1.7702  0.0558 -0.6847
 1064SOL    HW214829   4.101   2.270  14.753  0.4509  1.1447 -0.7859
 1065SOL     OW14830   0.577   3.241   5.138  0.1043 -0.1271 -0.1462
 1065SOL    HW114831   0.525   3.196   5.071  1.6135 -0.2394 -1.2452
 1065SOL    HW214832   0.667   3.241   5.105  0.8179 -1.9049  1.8443
 1066SOL     OW14833   0.922   0.474  14.564  0.3843 -0.0614 -0.0284
 1066SOL    HW114834   0.835   0.475  14.603 -0.5303 -0.7874 -2.0322
 1066SOL    HW214835   0.975   0.461  14.643 -1.6051 -0.4767  1.2360
 1067SOL     OW14836   0.284   4.431   6.788  0.1531  0.4859  0.3259
 1067SOL    HW114837   0.323   4.407   6.872 -2.3690 -1.5294  0.9165
 1067SOL    HW214838   0.328   4.516   6.776  0.1969  0.6245  1.4745
 1068SOL     OW14839   0.283   0.981   1.899 -0.3896 -0.4962  0.1097
 1068SOL    HW114840   0.353   1.045   1.886 -0.8217 -0.3043 -1.2330
 1068SOL    HW214841   0.279   0.921   1.824  1.8740 -0.1408 -0.2958
 1069SOL     OW14842   1.953   2.773   8.535 -0.2060 -0.2767 -0.2959
 1069SOL    HW114843   1.895   2.705   8.500 -2.0472  1.1355  0.0346
 1069SOL    HW214844   1.891   2.817   8.593 -0.7451 -1.9586  0.4097
 1070SOL     OW14845   2.427   1.734  16.799  0.0026 -0.0835 -0.9261
 1070SOL    HW114846   2.445   1.819  16.837  3.0836 -1.0111 -0.3040
 1070SOL    HW214847   2.338   1.745  16.763  0.5134 -0.2958 -2.2752
 1071SOL     OW14848   0.673   1.064   2.278  0.0838  0.6664 -0.4626
 1071SOL    HW114849   0.765   1.067   2.252  0.2425  0.0347  0.0388
 1071SOL    HW214850   0.633   1.013   2.207  0.4051  1.7793 -1.4596
 1072SOL     OW14851   3.086   2.158   8.513 -0.5432  0.1311 -0.0556
 1072SOL    HW114852   3.055   2.237   8.468 -2.2050  0.5222  1.7530
 1072SOL    HW214853   3.049   2.175   8.599  1.0701  0.7891  0.5190
 1073SOL     OW14854   4.279   0.952   3.758 -0.9940  0.5873  0.0578
 1073SOL    HW114855   4.371   0.965   3.734 -0.7004 -0.9053  0.3820
 1073SOL    HW214856   4.276   0.870   3.808  3.9321 -1.4168 -2.8929
 1074SOL     OW14857   3.645   0.543   5.025  0.0589  0.1058  0.6264
 1074SOL    HW114858   3.639   0.485   4.950  0.2656 -0.6595  1.1990
 1074SOL    HW214859   3.569   0.515   5.077  0.0010  1.6511  1.3702
 1075SOL     OW14860   4.040   2.490   1.306  0.1870 -0.1856  0.1200
 1075SOL    HW114861   4.109   2.518   1.246  1.7617 -1.3712  1.3730
 1075SOL    HW214862   4.021   2.401   1.277  1.7141 -0.2351 -0.7425
 1076SOL     OW14863   2.599   0.082   8.634 -0.1829 -0.1846 -0.3605
 1076SOL    HW114864   2.610   0.044   8.721  0.7789 -2.2391 -1.3888
 1076SOL    HW214865   2.611   0.174   8.659 -4.0970  0.0695  0.5493
 1077SOL     OW14866   1.716   1.914   8.643  0.0944 -0.2044 -0.1102
 1077SOL    HW114867   1.783   1.910   8.575  0.2686 -0.2448  0.0621
 1077SOL    HW214868   1.650   1.972   8.605 -0.3638 -0.3440  0.4785
 1078SOL     OW14869   0.381   0.464   6.970 -0.7276  0.0052 -0.5787
 1078SOL    HW114870   0.299   0.510   6.990 -1.4357 -1.2040 -0.7061
 1078SOL    HW214871   0.400   0.412   7.048 -0.0067  1.1512  0.0060
 1079SOL     OW14872   0.621   1.778   0.504  0.7190 -0.0288  0.1707
 1079SOL    HW114873   0.605   1.864   0.465  0.4972 -0.3587 -0.4740
 1079SOL    HW214874   0.537   1.734   0.490  1.3398 -2.1763  3.2319
 1080SOL     OW14875   3.223   3.619   1.892  0.3970 -0.4250  0.2822
 1080SOL    HW114876   3.292   3.633   1.827 -0.9627 -0.6555 -1.2093
 1080SOL    HW214877   3.168   3.556   1.846 -1.1378 -0.8763  2.7600
 1081SOL     OW14878   1.258   0.133   9.712 -0.2827 -0.1338 -0.2281
 1081SOL    HW114879   1.340   0.106   9.670  0.3290 -1.6279  1.9668
 1081SOL    HW214880   1.224   0.053   9.750  0.3788 -0.9853 -1.4417
 1082SOL     OW14881   2.832   2.330  11.712  0.8407 -0.0501  0.0669
 1082SOL    HW114882   2.835   2.317  11.807 -0.1518  1.1424  0.2617
 1082SOL    HW214883   2.895   2.401  11.700  1.2876 -0.7409 -1.6799
 1083SOL     OW14884   2.391   1.025  16.782 -0.1019  0.1667  0.3788
 1083SOL    HW114885   2.457   1.023  16.713  0.4363 -2.5705  0.9779
 1083SOL    HW214886   2.441   0.987  16.854  0.7167 -1.0140 -0.8172
 1084SOL     OW14887   3.721   4.319   1.483 -0.0582 -0.4671 -0.2901
 1084SOL    HW114888   3.748   4.231   1.510  0.4427  0.0379  0.8376
 1084SOL    HW214889   3.788   4.365   1.533 -0.9637  0.7414 -0.2174
 1085SOL     OW14890   1.309   4.159   3.456 -0.4143  0.3783 -0.0873
 1085SOL    HW114891   1.386   4.189   3.504  0.1641  0.9034 -1.3569
 1085SOL    HW214892   1.243   4.209   3.504 -1.8315 -2.5848  1.0642
 1086SOL     OW14893   4.486   4.482   4.320 -0.9722 -0.3840  0.2447
 1086SOL    HW114894   4.467   4.403   4.371  0.6608 -0.3953  0.8453
 1086SOL    HW214895   4.534   4.536   4.383  0.6604 -0.4211 -0.9456
 1087SOL     OW14896   3.854   0.103  17.571  0.9902 -0.2107 -0.2132
 1087SOL    HW114897   3.873   0.010  17.561 -1.2148 -0.7675  0.7198
 1087SOL    HW214898   3.930   0.131  17.621  1.3240 -1.4937 -0.0192
 1088SOL     OW14899   0.070   3.648   2.515  0.2284  0.2883 -0.2558
 1088SOL    HW114900   4.712   3.636   2.500 -0.2742  0.4068  2.8560
 1088SOL    HW214901   0.093   3.556   2.506  0.2522  0.2424  0.3387
 1089SOL     OW14902   4.714   2.026   6.178  0.4488 -0.6509 -0.2417
 1089SOL    HW114903   4.671   2.109   6.198  0.7728 -0.4218 -0.4854
 1089SOL    HW214904   4.657   1.973   6.233 -1.2504 -0.6862 -2.0183
 1090SOL     OW14905   4.026   3.235   7.261 -0.3422  0.3887  0.3262
 1090SOL    HW114906   4.044   3.301   7.194  0.6330  0.6627  0.8560
 1090SOL    HW214907   4.120   3.225   7.277 -0.8116  0.3524  3.0400
 1091SOL     OW14908   4.703   3.398   2.737 -0.8403  0.0652 -0.2577
 1091SOL    HW114909   4.715   3.392   2.643 -0.9426 -2.7589 -0.1146
 1091SOL    HW214910   0.013   3.318   2.763 -0.5829  1.0572  2.3693
 1092SOL     OW14911   3.841   0.011  14.270  0.0211  0.3577  0.6218
 1092SOL    HW114912   3.746   0.026  14.274  0.5158  3.4524  0.5421
 1092SOL    HW214913   3.865   0.095  14.308 -0.0329 -0.2837  2.0858
 1093SOL     OW14914   0.686   1.210   2.644 -0.1669 -0.0122 -0.3637
 1093SOL    HW114915   0.756   1.260   2.602  0.6366 -1.0718 -0.2952
 1093SOL    HW214916   0.651   1.266   2.713 -2.1668  1.5211 -2.6325
 1094SOL     OW14917   3.967   3.523   1.219  0.4331  0.0759 -0.5446
 1094SOL    HW114918   4.047   3.575   1.211  0.1010  0.1751 -3.3427
 1094SOL    HW214919   3.899   3.589   1.222  0.0457 -0.2937 -1.1683
 1095SOL     OW14920   2.548   0.364   2.616 -0.2810 -0.2483  0.4480
 1095SOL    HW114921   2.612   0.431   2.638  1.2718 -1.5534 -0.1184
 1095SOL    HW214922   2.489   0.417   2.562  0.5163  1.9430  1.7172
 1096SOL     OW14923   3.780   2.769   1.727 -0.1320  0.1294  0.5225
 1096SOL    HW114924   3.864   2.740   1.690 -1.4597 -1.4972 -1.2303
 1096SOL    HW214925   3.749   2.818   1.651 -0.4564  0.4672  0.8736
 1097SOL     OW14926   0.909   2.822   0.210  0.2782  0.0762 -0.1226
 1097SOL    HW114927   0.824   2.852   0.242  0.4388 -0.7124  1.0839
 1097SOL    HW214928   0.925   2.733   0.243 -0.8457  0.3722  1.1936
 1098SOL     OW14929   1.615   1.467   7.904 -0.5142 -0.4741  0.1262
 1098SOL    HW114930   1.621   1.522   7.825  0.8311 -0.3030  0.3488
 1098SOL    HW214931   1.528   1.427   7.895 -1.5478  1.6699  0.3026
 1099SOL     OW14932   0.614   4.545   2.767 -0.2341 -0.7841  0.3553
 1099SOL    HW114933   0.644   4.630   2.735 -0.2556 -0.6355  0.7408
 1099SOL    HW214934   0.534   4.575   2.809 -0.1893 -1.1372  0.6879
 1100SOL     OW14935   3.113   3.788  13.785 -0.3837 -0.0990  0.0561
 1100SOL    HW114936   3.021   3.815  13.787 -0.3555  0.0812 -1.5983
 1100SOL    HW214937   3.152   3.872  13.809  0.4263 -0.5079  0.1920
 1101SOL     OW14938   1.867   3.095  14.225  0.0809 -0.5362  0.8387
 1101SOL    HW114939   1.906   3.145  14.154 -1.2694 -0.1318  0.3703
 1101SOL    HW214940   1.797   3.045  14.183  0.0864  0.9817 -0.9413
 1102SOL     OW14941   4.116   0.222   4.955  0.3817 -0.2877 -0.6468
 1102SOL    HW114942   4.207   0.251   4.963 -0.7729  3.3796 -0.8948
 1102SOL    HW214943   4.122   0.131   4.985  1.0578  0.5511  1.7415
 1103SOL     OW14944   1.469   0.089  13.176 -0.0504 -0.2178  0.2673
 1103SOL    HW114945   1.472   0.142  13.255  2.1452 -0.0958  0.1217
 1103SOL    HW214946   1.564   0.083  13.165 -0.1348  0.2159 -0.7157
 1104SOL     OW14947   0.631   1.252  12.204 -0.3512 -0.0244 -0.6146
 1104SOL    HW114948   0.720   1.226  12.181 -0.9104 -0.3294 -2.5004
 1104SOL    HW214949   0.600   1.250  12.113  0.4137  1.2391 -0.8940
 1105SOL     OW14950   4.249   4.463   2.159  0.3295  0.2738 -0.1559
 1105SOL    HW114951   4.167   4.415   2.148  0.7818 -0.6307  0.4224
 1105SOL    HW214952   4.285   4.468   2.071 -0.8132  2.8038 -0.4866
 1106SOL     OW14953   3.558   0.933   0.799 -0.2903 -0.1102  0.8220
 1106SOL    HW114954   3.582   0.996   0.731  2.2805 -0.0826  1.7533
 1106SOL    HW214955   3.508   0.982   0.864 -0.4977 -1.5936  1.7721
 1107SOL     OW14956   1.733   3.710   4.285 -0.0697  0.1155  0.0916
 1107SOL    HW114957   1.780   3.793   4.286  1.4822 -0.7588  2.2912
 1107SOL    HW214958   1.787   3.663   4.222  0.3844  0.3266  0.3259
 1108SOL     OW14959   2.263   0.516  11.681 -0.3746  0.7041  1.1528
 1108SOL    HW114960   2.260   0.472  11.596  0.9320 -0.0525  1.4939
 1108SOL    HW214961   2.180   0.484  11.716 -0.5238 -0.3895 -0.1737
 1109SOL     OW14962   4.166   2.689   4.211 -0.2107 -0.6473 -0.1508
 1109SOL    HW114963   4.105   2.626   4.174  0.0110 -1.4898  0.9274
 1109SOL    HW214964   4.129   2.766   4.169  1.7441  1.5081  2.0488
 1110SOL     OW14965   2.113   4.479   8.352  0.1793  0.4952  0.3824
 1110SOL    HW114966   2.146   4.396   8.386 -0.4080 -0.6620 -1.8130
 1110SOL    HW214967   2.095   4.532   8.430 -3.3744  0.6987 -0.5471
 1111SOL     OW14968   3.259   2.406   7.578 -0.1764 -0.0779 -0.4703
 1111SOL    HW114969   3.185   2.444   7.531  0.8695  3.0078  0.3950
 1111SOL    HW214970   3.226   2.319   7.598 -1.2605  0.0435 -1.6748
 1112SOL     OW14971   4.693   2.345   1.006 -0.2437  0.2396  0.1482
 1112SOL    HW114972   0.036   2.364   0.955  0.5285  1.5259  1.8405
 1112SOL    HW214973   4.698   2.388   1.091 -0.2638  0.3519  0.0926
 1113SOL     OW14974   0.631   1.792   6.438 -0.2594 -0.0282 -0.0537
 1113SOL    HW114975   0.571   1.720   6.458  0.7782 -1.3749 -1.8381
 1113SOL    HW214976   0.616   1.845   6.516 -0.1860 -1.1302  0.7131
 1114SOL     OW14977   1.644   1.558   5.015 -0.6328 -0.0725 -0.1601
 1114SOL    HW114978   1.599   1.611   4.948 -1.2050 -1.1517 -0.6340
 1114SOL    HW214979   1.565   1.531   5.063 -1.4945 -0.2653 -1.6786
 1115SOL     OW14980   1.185   1.806   3.387 -0.0394 -0.2262  0.3246
 1115SOL    HW114981   1.136   1.857   3.323 -0.4122  1.2372  1.7684
 1115SOL    HW214982   1.115   1.744   3.408 -1.0953  0.0225 -2.5497
 1116SOL     OW14983   2.152   2.866   7.435 -0.0336  0.0581 -0.0550
 1116SOL    HW114984   2.204   2.787   7.422 -1.0928 -0.6022 -0.2266
 1116SOL    HW214985   2.158   2.877   7.530 -0.9971  0.3178 -0.0232
 1117SOL     OW14986   1.891   0.550   9.595 -0.1837 -0.0870 -0.1833
 1117SOL    HW114987   1.906   0.505   9.678 -2.9335  0.2059  0.4807
 1117SOL    HW214988   1.835   0.484   9.553  1.9788  0.0439 -3.2694
 1118SOL     OW14989   1.599   1.354   5.416  0.0322  0.8465  0.0369
 1118SOL    HW114990   1.650   1.388   5.343  0.1157  1.4292  0.3709
 1118SOL    HW214991   1.514   1.384   5.382 -1.6443 -0.9370  2.6772
 1119SOL     OW14992   0.690   1.945   0.732 -0.3975 -0.7920  0.3081
 1119SOL    HW114993   0.781   1.918   0.739  0.4663  1.3175 -2.7829
 1119SOL    HW214994   0.654   1.879   0.672  1.2330 -1.7611  0.4013
 1120SOL     OW14995   3.748   1.741  15.245 -0.2323  0.1211  0.1635
 1120SOL    HW114996   3.726   1.672  15.182 -0.1234  0.0738  0.1768
 1120SOL    HW214997   3.730   1.695  15.327  1.8436  0.0146  0.5656
 1121SOL     OW14998   3.461   2.764   3.084  0.0898  0.2227 -0.1482
 1121SOL    HW114999   3.516   2.721   3.018 -2.1386 -1.8774 -0.6467
 1121SOL    HW215000   3.511   2.746   3.163  1.1624 -0.4183 -0.9660
 1122SOL     OW15001   1.408   2.385  15.262 -0.7793  0.0993  0.1794
 1122SOL    HW115002   1.458   2.446  15.208 -1.6509  2.4907  2.1046
 1122SOL    HW215003   1.481   2.336  15.299 -2.0743 -2.8114 -1.0699
 1123SOL     OW15004   0.934   0.950   8.590 -0.5493  0.2992 -0.8904
 1123SOL    HW115005   0.981   1.005   8.653 -0.3841 -0.2943 -0.4916
 1123SOL    HW215006   0.967   0.994   8.512 -0.9544  1.2155 -0.5513
 1124SOL     OW15007   1.554   4.276  15.937  0.2204 -1.2615  0.6513
 1124SOL    HW115008   1.542   4.371  15.932  1.3642 -1.1002  1.1497
 1124SOL    HW215009   1.470   4.240  15.906 -0.4316  0.4517  0.4564
 1125SOL     OW15010   2.563   3.865  14.782 -0.4134 -0.1866  0.2527
 1125SOL    HW115011   2.583   3.772  14.769 -2.7188 -0.6644  0.2719
 1125SOL    HW215012   2.484   3.852  14.834 -2.0343 -2.8682 -2.9045
 1126SOL     OW15013   2.289   4.399  13.641  0.6187 -0.3604 -0.5255
 1126SOL    HW115014   2.342   4.322  13.621 -0.4360 -1.2396  0.0708
 1126SOL    HW215015   2.254   4.385  13.729 -2.0669 -2.6051 -1.9560
 1127SOL     OW15016   2.332   1.021   8.178 -0.3822 -0.1041  0.5933
 1127SOL    HW115017   2.308   1.097   8.230  1.3954  0.5213  0.4879
 1127SOL    HW215018   2.246   0.982   8.164  0.4135 -2.0818  1.1344
 1128SOL     OW15019   4.468   0.892   5.878  0.1090 -0.4436  0.6266
 1128SOL    HW115020   4.418   0.954   5.824  1.2356  0.8397  1.0529
 1128SOL    HW215021   4.553   0.937   5.875 -0.4899  0.2602 -5.0758
 1129SOL     OW15022   2.871   2.766   2.754  0.2815 -0.6816 -0.2890
 1129SOL    HW115023   2.861   2.681   2.798  0.8863  0.0626  1.2910
 1129SOL    HW215024   2.874   2.734   2.664 -0.8487 -1.4411 -0.0532
 1130SOL     OW15025   3.504   2.033  11.947 -0.2683  0.0760 -0.0405
 1130SOL    HW115026   3.416   2.042  11.911 -0.5816  0.9999  0.9521
 1130SOL    HW215027   3.544   2.117  11.924  1.3320 -0.7634 -0.3208
 1131SOL     OW15028   1.207   2.494   4.393  0.4736 -0.0987 -0.6839
 1131SOL    HW115029   1.260   2.530   4.464  1.6044 -1.7897 -0.6846
 1131SOL    HW215030   1.274   2.464   4.331  0.5663  1.6749 -1.4505
 1132SOL     OW15031   4.446   3.443   0.122 -0.0168 -0.2392  0.2574
 1132SOL    HW115032   4.501   3.508   0.079 -1.2574  0.4908 -0.2158
 1132SOL    HW215033   4.495   3.367   0.090  3.4595  1.1452  2.2908
 1133SOL     OW15034   4.464   2.398   6.791 -0.3726 -0.0363  0.5413
 1133SOL    HW115035   4.464   2.340   6.715 -2.2540  0.1624  0.3994
 1133SOL    HW215036   4.516   2.472   6.758  0.2292 -0.3686  0.7410
 1134SOL     OW15037   0.707   3.831   5.835  0.1034 -0.2340 -0.0939
 1134SOL    HW115038   0.759   3.910   5.820  1.0733 -0.7384  0.5864
 1134SOL    HW215039   0.739   3.809   5.922 -0.4613 -0.3648  0.0778
 1135SOL     OW15040   3.410   1.634   5.108  0.2127  0.2939 -0.4296
 1135SOL    HW115041   3.435   1.545   5.135  1.2246  0.8134  0.3653
 1135SOL    HW215042   3.326   1.647   5.153 -0.0103  1.0220 -1.0655
 1136SOL     OW15043   3.648   2.573  13.887  0.1567 -1.1555 -0.2284
 1136SOL    HW115044   3.631   2.607  13.799  2.0550  2.3247  0.7317
 1136SOL    HW215045   3.744   2.568  13.882  0.2188  0.2861 -0.5232
 1137SOL     OW15046   3.059   2.767  11.101  0.1438 -0.0395  0.3322
 1137SOL    HW115047   3.093   2.721  11.178 -1.1668  0.3156  1.1179
 1137SOL    HW215048   3.008   2.696  11.062  1.0218 -0.4931  0.0051
 1138SOL     OW15049   1.169   0.349   6.626 -0.5166 -0.0828 -0.4142
 1138SOL    HW115050   1.248   0.387   6.665  0.1719 -0.9283 -1.0117
 1138SOL    HW215051   1.139   0.418   6.567  2.4387  0.1292 -1.6480
 1139SOL     OW15052   1.989   0.397   8.283 -0.2952  0.9681  0.0955
 1139SOL    HW115053   1.974   0.481   8.239 -3.4997  1.0002  1.2373
 1139SOL    HW215054   1.905   0.352   8.273 -0.3531  1.0606  0.1598
 1140SOL     OW15055   3.749   4.017   3.885  0.2915 -0.2362  0.5137
 1140SOL    HW115056   3.666   4.028   3.932  0.9448 -0.4562  1.6999
 1140SOL    HW215057   3.775   4.099   3.842 -0.1487 -0.6778 -0.5904
 1141SOL     OW15058   4.424   1.439  11.138  0.0270 -0.1395 -0.3496
 1141SOL    HW115059   4.514   1.454  11.166  0.0521 -2.1809  0.7074
 1141SOL    HW215060   4.440   1.451  11.044  0.4985 -0.4252 -0.3064
 1142SOL     OW15061   4.359   4.487  15.596  0.1707  0.1401 -0.6327
 1142SOL    HW115062   4.389   4.488  15.505 -0.3226 -1.4066 -0.8030
 1142SOL    HW215063   4.445   4.457  15.625 -0.8691 -1.1491  1.0337
 1143SOL     OW15064   0.231   1.051   8.861  0.5771  0.4763 -0.1853
 1143SOL    HW115065   0.222   1.088   8.949 -2.1670 -1.0198  0.1611
 1143SOL    HW215066   0.150   1.001   8.852  0.7581 -0.1590  1.6800
 1144SOL     OW15067   0.491   0.107   5.887  0.0860 -0.3779  0.5504
 1144SOL    HW115068   0.448   0.022   5.873  1.9215 -1.6016  2.2152
 1144SOL    HW215069   0.563   0.086   5.947  0.3407 -1.4610 -0.1358
 1145SOL     OW15070   2.773   3.609   3.485  0.1299  0.0274 -0.3078
 1145SOL    HW115071   2.747   3.681   3.427 -0.3108  0.1275  0.0214
 1145SOL    HW215072   2.828   3.652   3.550 -0.8772  0.2341  0.4026
 1146SOL     OW15073   2.469   1.947   5.377  0.0797 -0.3155  0.1894
 1146SOL    HW115074   2.428   1.860   5.369 -0.2453 -0.0556 -1.1235
 1146SOL    HW215075   2.543   1.926   5.433  0.2935 -0.5123 -0.1651
 1147SOL     OW15076   4.478   2.898  10.876  0.5513 -0.3544 -0.2886
 1147SOL    HW115077   4.567   2.908  10.910 -0.1471 -4.3822  2.6924
 1147SOL    HW215078   4.488   2.814  10.832 -1.4174 -0.5389 -0.3611
 1148SOL     OW15079   2.305   0.664   3.282  0.1882 -0.1239 -0.0759
 1148SOL    HW115080   2.381   0.717   3.256 -0.7500 -0.1487 -2.9100
 1148SOL    HW215081   2.246   0.726   3.325 -1.3269 -2.0651  0.6611
 1149SOL     OW15082   1.608   0.699  15.890 -0.0655  0.1430  0.1261
 1149SOL    HW115083   1.672   0.631  15.869  0.5874  0.9443 -0.4974
 1149SOL    HW215084   1.533   0.645  15.914 -0.9910  2.4980  2.5067
 1150SOL     OW15085   4.481   3.832   8.892 -0.6415 -0.0822  0.4092
 1150SOL    HW115086   4.432   3.753   8.911 -0.0629 -0.3774  0.6546
 1150SOL    HW215087   4.438   3.890   8.956  0.9694 -1.5005  2.7684
 1151SOL     OW15088   1.463   2.191   5.450 -0.4958 -0.2212 -0.1298
 1151SOL    HW115089   1.368   2.182   5.456 -0.7805  2.8121 -0.1433
 1151SOL    HW215090   1.478   2.260   5.515  2.4646  1.0499 -2.1430
 1152SOL     OW15091   2.636   1.838  12.537  0.2017  0.6466  0.1267
 1152SOL    HW115092   2.709   1.789  12.574 -0.6634  0.2556  1.3274
 1152SOL    HW215093   2.578   1.775  12.494 -1.7534  2.2769  0.3645
 1153SOL     OW15094   2.193   1.662   3.171  0.3306 -0.0873  0.1313
 1153SOL    HW115095   2.137   1.689   3.244 -0.0463 -1.5688  0.3808
 1153SOL    HW215096   2.209   1.752   3.144  0.2501 -0.3735 -0.8762
 1154SOL     OW15097   4.233   0.862   4.802  0.7023  0.5623 -0.4066
 1154SOL    HW115098   4.264   0.811   4.877  0.5684  0.6320 -0.3047
 1154SOL    HW215099   4.196   0.789   4.751 -0.0233  0.9525 -0.4337
 1155SOL     OW15100   1.498   1.826   6.316 -0.0617  0.0308  0.2180
 1155SOL    HW115101   1.444   1.876   6.378  0.9109  3.0991 -1.4065
 1155SOL    HW215102   1.589   1.841   6.343  0.2117 -0.0766 -0.6634
 1156SOL     OW15103   2.201   3.923   9.089  0.0896  0.0721  0.0536
 1156SOL    HW115104   2.204   3.932   8.994  1.1439 -0.3585  0.0449
 1156SOL    HW215105   2.199   4.014   9.120 -1.0672  1.0843 -3.0379
 1157SOL     OW15106   0.244   3.498   6.609 -0.0783 -0.3208  0.5892
 1157SOL    HW115107   0.228   3.432   6.541 -2.1974  0.0601  0.7248
 1157SOL    HW215108   0.164   3.502   6.661  0.0207  0.3660  0.6794
 1158SOL     OW15109   0.826   1.879  17.633 -0.5727  0.0200  0.2601
 1158SOL    HW115110   0.796   1.883  17.542  1.8676 -0.5859 -0.5705
 1158SOL    HW215111   0.886   1.954  17.629 -1.7743  0.9575 -0.0310
 1159SOL     OW15112   4.271   4.027   3.606  0.6258  0.3250 -0.7413
 1159SOL    HW115113   4.342   3.968   3.634  0.4533  0.3380 -0.2716
 1159SOL    HW215114   4.228   3.987   3.531 -1.1111  0.5765  0.1161
 1160SOL     OW15115   1.254   2.832   3.171 -0.0320 -0.6452  0.0485
 1160SOL    HW115116   1.178   2.855   3.118 -1.0960 -1.5984  1.1481
 1160SOL    HW215117   1.323   2.878   3.123 -2.2618 -1.1355 -3.5773
 1161SOL     OW15118   4.095   2.060   4.606  0.2837 -0.4085 -0.4254
 1161SOL    HW115119   4.029   2.126   4.588  1.7364  1.0298 -0.5168
 1161SOL    HW215120   4.095   2.061   4.702 -0.0014 -0.2270 -0.4291
 1162SOL     OW15121   3.197   4.241   8.921 -0.0735 -0.5068  0.4643
 1162SOL    HW115122   3.197   4.185   8.843 -1.0678  0.8689 -0.5371
 1162SOL    HW215123   3.291   4.241   8.936  0.2417 -0.7604 -1.4184
 1163SOL     OW15124   3.725   2.793  11.208 -0.2484 -0.1318  0.6091
 1163SOL    HW115125   3.714   2.845  11.128  0.4181 -0.7174  0.1378
 1163SOL    HW215126   3.674   2.852  11.263  0.8412  0.1540  1.3197
 1164SOL     OW15127   4.736   1.011   9.188 -0.1277 -0.2964  0.0090
 1164SOL    HW115128   4.719   1.011   9.093  0.1653  0.9592 -0.0411
 1164SOL    HW215129   0.072   1.071   9.200  1.0138 -1.3900 -1.3643
 1165SOL     OW15130   1.520   3.442   2.863  0.1573 -0.0157 -0.5976
 1165SOL    HW115131   1.595   3.385   2.846 -0.8749 -1.5768  0.0908
 1165SOL    HW215132   1.514   3.486   2.778 -2.0018 -1.6112 -1.2617
 1166SOL     OW15133   0.960   3.455  10.218 -0.0194  0.7283  0.6107
 1166SOL    HW115134   0.892   3.511  10.256 -0.9704  0.9592 -1.4051
 1166SOL    HW215135   0.969   3.495  10.131  2.0697 -0.5664  0.2343
 1167SOL     OW15136   0.693   0.047   3.295  0.6136  0.5779 -0.4716
 1167SOL    HW115137   0.758   0.099   3.343 -0.7738  2.5869 -0.7567
 1167SOL    HW215138   0.630   0.019   3.362  0.8774 -2.0280 -1.3273
 1168SOL     OW15139   0.856   0.084  12.077 -0.1979  0.3397 -0.1089
 1168SOL    HW115140   0.951   0.095  12.073 -0.1782  0.4784  0.8068
 1168SOL    HW215141   0.828   0.172  12.105  0.5058  0.5494 -0.0572
 1169SOL     OW15142   1.263   2.229   3.983  0.5107 -0.1755 -0.1951
 1169SOL    HW115143   1.353   2.233   4.014  0.5058 -1.8519  0.0043
 1169SOL    HW215144   1.276   2.216   3.889 -1.3292 -1.2414 -0.3132
 1170SOL     OW15145   1.096   3.745   6.650 -0.5063  0.5187  0.0973
 1170SOL    HW115146   1.004   3.719   6.654 -0.7663  1.4671  0.2683
 1170SOL    HW215147   1.133   3.657   6.652  0.3594  0.8930  0.6138
 1171SOL     OW15148   2.427   3.051   4.408  0.0465 -0.5329  0.5666
 1171SOL    HW115149   2.486   2.992   4.360 -1.2332 -0.1650 -1.4583
 1171SOL    HW215150   2.483   3.092   4.474  0.0096 -1.3062  1.0778
 1172SOL     OW15151   1.306   0.697   8.990 -0.0764 -0.3877 -0.2288
 1172SOL    HW115152   1.283   0.637   9.061  0.8033  0.5694  0.8602
 1172SOL    HW215153   1.389   0.737   9.015 -1.9082  3.7428 -0.7408
 1173SOL     OW15154   1.578   2.027  11.326  0.1639  0.5240  0.3135
 1173SOL    HW115155   1.541   2.115  11.323 -1.8473 -0.2963  1.2438
 1173SOL    HW215156   1.665   2.053  11.358  2.2180 -2.9439 -2.3592
 1174SOL     OW15157   4.531   0.189   4.631  0.1120  0.4483 -0.2423
 1174SOL    HW115158   4.464   0.122   4.644 -0.8830  1.5136  0.1014
 1174SOL    HW215159   4.503   0.248   4.562  1.9680  0.4705 -0.9679
 1175SOL     OW15160   2.910   2.528   3.283 -0.2019  0.1096  0.2189
 1175SOL    HW115161   2.888   2.620   3.269 -1.0069  0.0147  0.8517
 1175SOL    HW215162   2.836   2.484   3.241  1.6107 -1.9580 -0.7965
 1176SOL     OW15163   2.818   3.859   3.946  0.4519  0.4782  0.5968
 1176SOL    HW115164   2.759   3.786   3.964  2.9011 -2.2494 -2.4119
 1176SOL    HW215165   2.771   3.920   3.890 -0.1215  1.9256  2.6597
 1177SOL     OW15166   1.229   2.666   7.615  0.2374 -0.3565  0.4518
 1177SOL    HW115167   1.324   2.678   7.615  0.0486  1.1177 -0.5989
 1177SOL    HW215168   1.230   2.576   7.647 -0.2783  0.0468  1.6358
 1178SOL     OW15169   4.490   1.753   3.349 -0.2542  0.2399  0.1398
 1178SOL    HW115170   4.426   1.788   3.412 -1.8685 -1.0307 -0.8018
 1178SOL    HW215171   4.480   1.810   3.273 -1.1730 -0.0945  0.0073
 1179SOL     OW15172   1.444   3.705   8.145 -0.2015  0.3185 -0.6557
 1179SOL    HW115173   1.455   3.638   8.212 -2.5381 -1.1049 -1.7257
 1179SOL    HW215174   1.430   3.787   8.192  0.5425  0.7462 -1.1770
 1180SOL     OW15175   1.129   0.447   4.943  0.2489  0.2139 -0.0114
 1180SOL    HW115176   1.209   0.458   4.892  0.5380  4.0010  1.3132
 1180SOL    HW215177   1.080   0.519   4.904  3.0136  2.6874  1.1029
 1181SOL     OW15178   1.215   3.642   1.984 -0.7038 -0.1801 -0.0490
 1181SOL    HW115179   1.299   3.638   1.938  0.1867  2.9361  1.3165
 1181SOL    HW215180   1.236   3.620   2.074  1.1974  0.3522 -0.3708
 1182SOL     OW15181   3.196   2.094   0.852 -0.5022 -0.8386  0.4246
 1182SOL    HW115182   3.150   2.116   0.771 -0.4396  1.1134  0.9289
 1182SOL    HW215183   3.120   2.083   0.909  0.4819 -1.3354  1.6403
 1183SOL     OW15184   4.699   4.711   2.624 -0.3231  0.1031 -0.8220
 1183SOL    HW115185   0.039   4.654   2.617 -0.2981  0.3365 -2.4826
 1183SOL    HW215186   0.011   0.057   2.633 -0.2207  0.0071 -0.4764
 1184SOL     OW15187   1.298   3.223   1.113  0.2800 -0.2361 -0.1760
 1184SOL    HW115188   1.368   3.242   1.175 -0.7630 -2.0898  1.5637
 1184SOL    HW215189   1.229   3.214   1.179  0.5462  0.5277  0.2122
 1185SOL     OW15190   4.088   1.520   2.270 -0.5925 -0.1779 -1.1492
 1185SOL    HW115191   4.166   1.535   2.323 -0.7694 -0.4535 -0.8154
 1185SOL    HW215192   4.033   1.568   2.331  0.6707 -0.9500  0.5908
 1186SOL     OW15193   1.408   0.437   8.391 -0.3064 -0.7804 -0.3838
 1186SOL    HW115194   1.370   0.521   8.366 -1.4505 -0.9875  0.6727
 1186SOL    HW215195   1.335   0.421   8.452  0.0310 -0.5837  0.0685
 1187SOL     OW15196   4.351   1.359   5.507 -0.5073  0.2424 -0.2210
 1187SOL    HW115197   4.270   1.314   5.531  0.6695 -0.9598  1.5229
 1187SOL    HW215198   4.306   1.429   5.460 -0.2988  0.5597  0.0469
 1188SOL     OW15199   3.741   2.053  12.579 -0.2062 -0.4802  0.4095
 1188SOL    HW115200   3.823   2.070  12.533  0.5382 -0.8195  1.5986
 1188SOL    HW215201   3.684   2.086  12.510 -1.8397  0.3400  2.1584
 1189SOL     OW15202   0.987   4.718  15.227 -0.0915 -0.1058 -0.2196
 1189SOL    HW115203   0.906   4.667  15.226  0.0072 -0.2803  0.7546
 1189SOL    HW215204   1.035   4.670  15.295  1.3175 -0.7070 -1.6393
 1190SOL     OW15205   1.366   0.601  15.115 -0.0381 -1.0405 -0.1948
 1190SOL    HW115206   1.401   0.613  15.027  1.5674 -0.5060  0.4993
 1190SOL    HW215207   1.446   0.566  15.156 -0.3564 -1.1633  0.3182
 1191SOL     OW15208   4.517   1.415   6.584 -0.0973  0.0103 -0.1289
 1191SOL    HW115209   4.607   1.385   6.596 -0.7532 -1.7882  0.2595
 1191SOL    HW215210   4.516   1.404   6.489 -0.9903  1.8317 -0.3254
 1192SOL     OW15211   0.620   0.837  14.597 -0.0913 -0.4397  0.0968
 1192SOL    HW115212   0.644   0.827  14.689 -1.1610  1.1064  0.5383
 1192SOL    HW215213   0.591   0.929  14.594  1.2875  0.0799  2.9916
 1193SOL     OW15214   3.316   2.065  11.771  0.4244  0.1167 -0.2580
 1193SOL    HW115215   3.326   2.104  11.684  1.3534  0.3267 -0.0524
 1193SOL    HW215216   3.229   2.094  11.799  0.8296  0.8154  0.2533
 1194SOL     OW15217   4.700   0.679   6.863 -0.3442 -0.3899 -0.2257
 1194SOL    HW115218   4.682   0.593   6.824 -0.2670 -0.6841  0.3759
 1194SOL    HW215219   0.033   0.670   6.929 -0.4119  2.2440  0.1716
 1195SOL     OW15220   1.431   0.460   8.856 -0.0788 -0.1728 -0.4563
 1195SOL    HW115221   1.395   0.484   8.770 -0.4515  0.3857 -0.1411
 1195SOL    HW215222   1.387   0.533   8.899  1.5123  1.5621 -1.8075
 1196SOL     OW15223   2.909   2.911   6.820 -0.0686 -0.1553  0.3771
 1196SOL    HW115224   2.933   2.923   6.729 -1.1482  0.0884  0.1263
 1196SOL    HW215225   2.932   2.998   6.853 -3.7782  0.6571  0.8383
 1197SOL     OW15226   3.309   4.444   5.538  0.2398 -0.0737 -0.1504
 1197SOL    HW115227   3.226   4.450   5.491 -0.6135 -1.6103  1.1718
 1197SOL    HW215228   3.355   4.380   5.483 -1.2436  0.1292 -1.6156
 1198SOL     OW15229   1.486   2.730   7.641  0.2570 -0.0870 -0.1475
 1198SOL    HW115230   1.467   2.822   7.621 -2.2799 -0.5101  0.3451
 1198SOL    HW215231   1.556   2.711   7.578  0.2218  0.6983 -0.4283
 1199SOL     OW15232   4.658   3.117   6.490  0.4743  0.0804  0.4583
 1199SOL    HW115233   4.730   3.080   6.541  0.4129 -0.4001  0.1986
 1199SOL    HW215234   4.694   3.103   6.402  2.3596  0.4252  1.1814
 1200SOL     OW15235   3.506   3.795   0.379  0.0931 -0.3559  0.1528
 1200SOL    HW115236   3.471   3.795   0.468 -0.6248 -0.5355 -0.1293
 1200SOL    HW215237   3.594   3.759   0.393  0.4931  0.3221 -0.6308
 1201SOL     OW15238   2.344   1.115   9.735  0.1255  0.2683 -0.7739
 1201SOL    HW115239   2.436   1.119   9.709 -0.1627 -0.3004 -1.9048
 1201SOL    HW215240   2.350   1.098   9.829  2.3511  3.1299 -0.4291
 1202SOL     OW15241   1.212   3.556   0.426 -0.0870 -0.3491  0.3970
 1202SOL    HW115242   1.175   3.503   0.497 -0.3186 -1.9586 -0.9139
 1202SOL    HW215243   1.306   3.545   0.440 -0.2846 -2.1791  0.3651
 1203SOL     OW15244   1.019   1.111   6.424 -0.7366  0.0735  0.0187
 1203SOL    HW115245   1.060   1.128   6.509 -0.1686 -2.1537  0.2066
 1203SOL    HW215246   1.099   1.096   6.374 -1.0410 -1.8585  0.1183
 1204SOL     OW15247   2.047   2.649  13.838 -0.3703 -0.0001 -0.2360
 1204SOL    HW115248   2.085   2.663  13.925  0.0121  0.4094 -0.4671
 1204SOL    HW215249   1.953   2.632  13.850  0.0523 -2.6617 -0.9302
 1205SOL     OW15250   1.544   2.911   8.953  0.1228 -0.1445 -0.1117
 1205SOL    HW115251   1.569   2.919   8.861  0.6061 -0.8329 -0.0437
 1205SOL    HW215252   1.449   2.911   8.943  0.0683 -0.6717  0.3888
 1206SOL     OW15253   2.176   3.946   8.350 -0.0580 -0.5995  0.3867
 1206SOL    HW115254   2.129   3.931   8.268 -2.0430  2.6921  0.9327
 1206SOL    HW215255   2.255   3.995   8.326 -2.6415  2.5461 -1.7563
 1207SOL     OW15256   2.385   3.048  14.611  0.5844  0.0733  0.4778
 1207SOL    HW115257   2.426   2.997  14.681  2.8735  2.4481  0.8198
 1207SOL    HW215258   2.316   2.986  14.585  2.4997 -1.5131 -0.8303
 1208SOL     OW15259   4.308   2.932   7.277 -0.1316  0.9858 -0.7455
 1208SOL    HW115260   4.340   2.909   7.190 -0.0840 -1.8585  0.0106
 1208SOL    HW215261   4.302   3.027   7.268  0.5743  0.9675 -1.4401
 1209SOL     OW15262   1.821   1.070   3.507  0.3284 -0.1478 -0.1396
 1209SOL    HW115263   1.883   1.142   3.495  0.5211 -0.5401 -1.4686
 1209SOL    HW215264   1.812   1.041   3.416 -0.7695 -0.3763  0.0384
 1210SOL     OW15265   0.396   0.351   2.684 -0.2870 -0.0794  0.2058
 1210SOL    HW115266   0.317   0.396   2.714 -1.0749 -0.6607 -0.9930
 1210SOL    HW215267   0.426   0.412   2.616  0.0081  0.7717  1.0894
 1211SOL     OW15268   2.619   3.142   4.077  0.4980 -0.2764 -0.7822
 1211SOL    HW115269   2.670   3.083   4.021  1.9946 -0.3582  0.6473
 1211SOL    HW215270   2.675   3.218   4.059 -0.4794  0.4160 -0.8485
 1212SOL     OW15271   4.676   0.976   1.290 -0.1233 -0.1440 -0.0388
 1212SOL    HW115272   4.655   0.978   1.197 -2.0780  1.0551  0.4329
 1212SOL    HW215273   4.734   1.052   1.298  1.1436 -0.9869 -1.1591
 1213SOL     OW15274   4.334   3.004  10.525 -1.1028  0.2569  0.3970
 1213SOL    HW115275   4.387   2.931  10.557 -1.1146  0.1534  0.1805
 1213SOL    HW215276   4.313   2.974  10.437  0.6072 -0.8859  0.3846
 1214SOL     OW15277   0.510   0.488   1.553  0.0121 -0.1823  0.0668
 1214SOL    HW115278   0.439   0.430   1.529  0.8532 -0.4457 -1.7954
 1214SOL    HW215279   0.469   0.570   1.524  0.4657 -1.0460 -2.9501
 1215SOL     OW15280   2.291   2.240   2.102 -0.1848  0.8326 -0.1466
 1215SOL    HW115281   2.264   2.148   2.100  0.9158  0.5099  0.1538
 1215SOL    HW215282   2.240   2.275   2.175  0.5052 -0.5599  0.9858
 1216SOL     OW15283   3.875   1.013   8.097 -0.2046  0.5691  0.2547
 1216SOL    HW115284   3.965   1.040   8.111  0.2416 -0.7004 -0.1754
 1216SOL    HW215285   3.828   1.096   8.106  1.3752  1.6745 -1.7231
 1217SOL     OW15286   1.302   0.913   6.755  0.2901 -0.8736  0.0376
 1217SOL    HW115287   1.301   0.860   6.675  0.5962  0.5507 -0.9147
 1217SOL    HW215288   1.394   0.939   6.752 -0.2076  1.0225  0.8742
 1218SOL     OW15289   4.577   0.995   7.284 -0.1713 -0.4923 -0.8173
 1218SOL    HW115290   4.544   0.973   7.197  1.2057 -0.7559 -1.2676
 1218SOL    HW215291   4.501   1.035   7.326  0.4433  0.6456 -0.7815
 1219SOL     OW15292   3.802   3.504   3.673  0.2083 -0.5922  0.1501
 1219SOL    HW115293   3.719   3.459   3.654 -0.6491 -0.0296  2.4605
 1219SOL    HW215294   3.783   3.562   3.747 -0.4239 -1.7878  0.9402
 1220SOL     OW15295   3.850   0.171   4.405  0.0289  0.0103 -0.1428
 1220SOL    HW115296   3.812   0.193   4.320 -2.6287 -0.3481  0.9455
 1220SOL    HW215297   3.912   0.103   4.380 -1.7975 -1.1776 -1.5050
 1221SOL     OW15298   2.241   3.434   7.085  0.3460 -0.3288 -0.3941
 1221SOL    HW115299   2.174   3.367   7.075  2.2709 -2.3035 -0.0103
 1221SOL    HW215300   2.325   3.387   7.084  0.2029 -0.6120  1.1945
 1222SOL     OW15301   3.671   4.646   1.862 -0.3918 -0.1195 -0.2965
 1222SOL    HW115302   3.698   4.631   1.952 -0.5459  1.9245  0.0825
 1222SOL    HW215303   3.610   4.572   1.856 -1.1265  0.3835  1.0393
 1223SOL     OW15304   3.376   0.601   9.809 -0.9375 -0.7139  0.3501
 1223SOL    HW115305   3.388   0.669   9.743 -1.2355  0.2370  1.2770
 1223SOL    HW215306   3.360   0.656   9.886 -1.7015 -1.5621  0.7970
 1224SOL     OW15307   4.397   1.537   9.875  0.3490 -0.3580  0.2931
 1224SOL    HW115308   4.337   1.592   9.825 -1.8221 -1.4684  1.6613
 1224SOL    HW215309   4.455   1.597   9.921 -0.0064  0.2327 -0.0409
 1225SOL     OW15310   0.776   4.666   7.772 -0.1503 -0.0084 -0.1458
 1225SOL    HW115311   0.761   4.598   7.707 -2.5717 -0.3604  0.7772
 1225SOL    HW215312   0.695   4.661   7.824 -0.8684 -0.0297 -1.2668
 1226SOL     OW15313   2.433   1.950   6.330 -0.3414 -0.2672 -0.4771
 1226SOL    HW115314   2.454   1.921   6.419 -1.2511 -2.7126 -1.0578
 1226SOL    HW215315   2.520   1.937   6.294 -0.1111  1.2719 -0.4783
 1227SOL     OW15316   4.550   2.504   4.521 -0.2262  0.4613 -0.1741
 1227SOL    HW115317   4.495   2.431   4.550 -0.8408  0.2420 -1.8583
 1227SOL    HW215318   4.607   2.463   4.456 -0.9873  2.0708 -1.8620
 1228SOL     OW15319   1.461   3.775   5.484  0.4825 -0.2335  0.1542
 1228SOL    HW115320   1.374   3.763   5.447  1.0182 -0.4681 -1.0282
 1228SOL    HW215321   1.463   3.681   5.503 -0.6108 -0.7927 -2.4555
 1229SOL     OW15322   0.508   1.422   6.516  0.2532 -0.1942 -0.0643
 1229SOL    HW115323   0.487   1.353   6.580 -3.4827 -0.6325 -1.7397
 1229SOL    HW215324   0.480   1.505   6.553  0.8645  0.0449 -0.1447
 1230SOL     OW15325   3.605   2.690   5.928 -0.4092  0.1188  0.5113
 1230SOL    HW115326   3.530   2.748   5.914  0.4555  1.4524  1.4375
 1230SOL    HW215327   3.664   2.757   5.962 -1.4898  0.3009  2.0124
 1231SOL     OW15328   3.686   0.112   7.887  0.5514  0.0088  0.4671
 1231SOL    HW115329   3.732   0.131   7.805  0.8445  1.2866  0.9376
 1231SOL    HW215330   3.710   0.188   7.940  0.6080  0.9145 -0.8651
 1232SOL     OW15331   0.769   2.069  14.867 -0.5035 -0.0663  0.2031
 1232SOL    HW115332   0.675   2.068  14.851 -0.5270  1.5899  0.2175
 1232SOL    HW215333   0.773   2.068  14.962 -1.6256 -1.6180  0.2394
 1233SOL     OW15334   3.664   1.663   7.731 -0.1077 -0.2315 -0.6057
 1233SOL    HW115335   3.655   1.726   7.660  1.4149  0.3136 -0.3233
 1233SOL    HW215336   3.637   1.584   7.683  0.1567  0.6647 -2.2165
 1234SOL     OW15337   3.508   3.715   8.065 -0.0258  0.2544 -0.0108
 1234SOL    HW115338   3.592   3.754   8.088 -0.7432  1.2061  0.9837
 1234SOL    HW215339   3.536   3.645   8.006  1.5608  0.5302  0.4013
 1235SOL     OW15340   1.147   4.348   6.576 -0.0209  0.4754  0.4096
 1235SOL    HW115341   1.242   4.338   6.577 -0.3104 -2.6078 -2.3326
 1235SOL    HW215342   1.118   4.304   6.656 -3.0119  1.0681 -0.3592
 1236SOL     OW15343   0.053   2.370  14.458 -0.2160  0.4707  0.1492
 1236SOL    HW115344   0.024   2.381  14.548 -0.9190  1.3263 -0.1825
 1236SOL    HW215345   0.113   2.445  14.465  1.4219 -1.1074  2.8413
 1237SOL     OW15346   1.696   3.381   2.135  0.2580 -0.2356  0.1270
 1237SOL    HW115347   1.699   3.477   2.126  0.6468 -0.0984  1.8053
 1237SOL    HW215348   1.753   3.353   2.063 -0.3707 -0.4077 -0.3019
 1238SOL     OW15349   4.488   2.460   2.327 -0.2411 -0.2596  0.2400
 1238SOL    HW115350   4.477   2.553   2.310  0.4841  0.1464  2.0065
 1238SOL    HW215351   4.494   2.423   2.238  1.1189 -1.8328  0.9818
 1239SOL     OW15352   3.904   3.043   1.462  0.0602 -0.2713 -0.0547
 1239SOL    HW115353   3.992   3.047   1.425 -0.0750 -0.5538 -0.4018
 1239SOL    HW215354   3.850   3.077   1.390  1.9938  0.4365 -1.1600
 1240SOL     OW15355   2.098   3.641   7.896  0.3049  0.3374 -0.1287
 1240SOL    HW115356   2.190   3.658   7.917  0.8427 -0.6253 -1.7382
 1240SOL    HW215357   2.087   3.724   7.849 -2.9124 -0.2928 -0.4656
 1241SOL     OW15358   2.698   4.100   8.358  0.2978 -0.2578  0.0132
 1241SOL    HW115359   2.680   4.007   8.351 -1.1176  0.0238 -0.0826
 1241SOL    HW215360   2.776   4.094   8.414 -0.0969  0.3176  0.6202
 1242SOL     OW15361   3.616   3.495   7.934 -0.4138  0.0829  0.1867
 1242SOL    HW115362   3.593   3.430   8.001 -0.1384  0.5821  0.7655
 1242SOL    HW215363   3.576   3.462   7.854  0.3478  1.9953 -0.9541
 1243SOL     OW15364   2.203   2.347   6.127  0.8161  0.2820  0.2019
 1243SOL    HW115365   2.132   2.342   6.190  0.1115 -0.4567 -0.6425
 1243SOL    HW215366   2.272   2.339   6.193 -1.4907  1.6952  2.7471
 1244SOL     OW15367   0.019   0.744   3.110  0.2125  0.9092  0.1042
 1244SOL    HW115368   4.735   0.838   3.117 -1.4544  0.5287  0.3512
 1244SOL    HW215369   0.024   0.732   3.015  1.9642 -1.2881  0.4773
 1245SOL     OW15370   0.104   2.297   8.527 -0.3771 -0.1876 -0.2284
 1245SOL    HW115371   0.013   2.274   8.545 -0.6571  0.1421 -1.2194
 1245SOL    HW215372   0.136   2.218   8.485  0.6275  0.6851 -1.0888
 1246SOL     OW15373   2.826   1.231   9.037 -1.0885 -0.6238 -0.2452
 1246SOL    HW115374   2.810   1.149   9.084 -2.3284 -0.4202 -0.3047
 1246SOL    HW215375   2.871   1.201   8.959 -1.2965 -0.0658 -0.5813
 1247SOL     OW15376   0.938   1.104   0.279  0.4351 -0.3503 -0.0031
 1247SOL    HW115377   1.004   1.147   0.334  0.4845 -0.5389  0.0860
 1247SOL    HW215378   0.985   1.025   0.252 -0.5854 -0.2894 -1.9370
 1248SOL     OW15379   3.506   4.007   2.460 -0.0274  0.7171  0.1210
 1248SOL    HW115380   3.465   3.989   2.375  1.1497 -1.0943 -0.0728
 1248SOL    HW215381   3.594   3.985   2.430  0.2518  0.2321  1.3140
 1249SOL     OW15382   2.331   1.309   5.700 -0.4484 -0.4827 -0.1051
 1249SOL    HW115383   2.339   1.228   5.649 -1.5992 -0.6351 -0.0332
 1249SOL    HW215384   2.239   1.305   5.726  0.0775 -4.9612  1.1235
 1250SOL     OW15385   3.181   3.539   8.304 -0.0612  0.0536 -0.5241
 1250SOL    HW115386   3.181   3.472   8.235 -1.9709  0.5043 -0.9584
 1250SOL    HW215387   3.275   3.558   8.308  0.1711 -1.3611  0.2953
 1251SOL     OW15388   1.699   0.023   8.633  0.2869 -0.4625  0.5673
 1251SOL    HW115389   1.710   0.034   8.538 -0.0873  1.3073  0.7340
 1251SOL    HW215390   1.647   4.679   8.627  0.6274 -0.5841 -0.7640
 1252SOL     OW15391   2.087   1.131   5.543 -0.6230 -0.1279 -0.5301
 1252SOL    HW115392   2.156   1.171   5.489 -1.5663 -0.3568 -1.9112
 1252SOL    HW215393   2.014   1.130   5.482  1.3468  0.4523 -2.9327
 1253SOL     OW15394   0.786   2.726  15.601 -0.7667  0.3646 -0.0860
 1253SOL    HW115395   0.696   2.747  15.574 -0.7631  0.0062 -0.3744
 1253SOL    HW215396   0.774   2.700  15.693  1.3453 -0.1249  0.0528
 1254SOL     OW15397   2.345   1.119   3.289  0.6185 -0.1242  0.9175
 1254SOL    HW115398   2.303   1.205   3.294 -0.5637 -0.8279  3.4305
 1254SOL    HW215399   2.280   1.057   3.321 -0.3721 -0.5082 -1.9314
 1255SOL     OW15400   1.512   3.375   0.820  0.0539 -0.5590 -0.4062
 1255SOL    HW115401   1.572   3.379   0.894  0.2676 -4.4001 -0.3749
 1255SOL    HW215402   1.440   3.336   0.870  0.3550 -0.9971 -0.3144
 1256SOL     OW15403   2.407   1.039   5.565 -0.1030 -0.4668  0.3113
 1256SOL    HW115404   2.407   1.050   5.470 -3.0033 -3.1144  0.0125
 1256SOL    HW215405   2.341   0.972   5.585 -0.3233  0.9284  4.2775
 1257SOL     OW15406   3.116   0.326  11.252  0.3185 -0.2755  0.1992
 1257SOL    HW115407   3.130   0.261  11.321  0.4599  1.0858  1.4706
 1257SOL    HW215408   3.038   0.284  11.218 -0.1954  1.2285 -0.4923
 1258SOL     OW15409   4.535   0.883   2.476 -0.1069 -0.6244 -0.1671
 1258SOL    HW115410   4.600   0.890   2.545  0.7781 -0.7663 -0.9892
 1258SOL    HW215411   4.512   0.791   2.485 -0.5197 -0.4645  0.4155
 1259SOL     OW15412   1.028   2.013   9.514  0.5454 -0.0415  0.0471
 1259SOL    HW115413   1.097   2.047   9.457 -0.2243 -0.1198 -0.9434
 1259SOL    HW215414   1.009   1.930   9.470  0.5202 -0.7024  1.2963
 1260SOL     OW15415   3.757   1.551   2.655  0.7353 -0.2965 -0.1812
 1260SOL    HW115416   3.762   1.456   2.653 -0.1897 -0.3280 -1.3105
 1260SOL    HW215417   3.667   1.571   2.683  0.2769  0.0701 -1.8669
 1261SOL     OW15418   0.530   2.833   5.621 -0.0103 -0.1941  0.1717
 1261SOL    HW115419   0.437   2.827   5.645 -0.6618  1.5278 -1.9645
 1261SOL    HW215420   0.581   2.855   5.699  2.7147 -0.7533 -1.4589
 1262SOL     OW15421   0.557   4.112   3.766  0.1594  0.3164 -0.1760
 1262SOL    HW115422   0.556   4.024   3.728  0.1244  1.1790 -2.1930
 1262SOL    HW215423   0.464   4.124   3.786  0.1622  2.1457 -1.3148
 1263SOL     OW15424   1.543   4.237   3.998 -0.0250  0.2675 -0.4811
 1263SOL    HW115425   1.466   4.197   4.038 -0.2526  0.6957 -0.4979
 1263SOL    HW215426   1.601   4.163   3.978 -0.7576  0.1978 -2.3379
 1264SOL     OW15427   0.374   1.214  16.053 -0.1589  0.1084  0.1493
 1264SOL    HW115428   0.343   1.127  16.079 -0.7804  0.7239  1.4978
 1264SOL    HW215429   0.361   1.204  15.959 -1.4705  0.4448  0.2971
 1265SOL     OW15430   2.426   1.548   7.819 -0.2908  0.3722 -0.3329
 1265SOL    HW115431   2.431   1.466   7.770  0.9604  0.8751 -1.0363
 1265SOL    HW215432   2.387   1.515   7.900  1.5931  1.0198  0.8236
 1266SOL     OW15433   3.183   3.962   4.797 -0.0378 -0.5423 -0.3400
 1266SOL    HW115434   3.261   4.010   4.768 -0.1142  0.7544  1.5957
 1266SOL    HW215435   3.221   3.875   4.809  1.0649  0.0124  0.2651
 1267SOL     OW15436   1.903   3.865   6.763  0.0491  0.6125 -0.0498
 1267SOL    HW115437   1.956   3.820   6.829  0.0714 -1.3301 -1.3865
 1267SOL    HW215438   1.924   3.811   6.688 -2.9534  0.9773 -1.1440
 1268SOL     OW15439   3.882   0.128   6.035 -0.1804  0.6060 -0.4541
 1268SOL    HW115440   3.905   0.221   6.028  1.0184  0.2095 -1.9368
 1268SOL    HW215441   3.800   0.140   6.083  0.2590 -0.1614  0.4783
 1269SOL     OW15442   0.975   2.335   9.065  0.4133  0.5768 -0.0298
 1269SOL    HW115443   0.944   2.245   9.055  0.7785  0.7335 -2.5609
 1269SOL    HW215444   0.899   2.379   9.102  0.4792  2.2225 -1.8500
 1270SOL     OW15445   4.260   1.373   6.735  0.1552 -0.1941 -0.8492
 1270SOL    HW115446   4.190   1.437   6.750 -0.3470 -0.7661 -0.7130
 1270SOL    HW215447   4.316   1.421   6.675 -0.0946  2.9835  1.4545
 1271SOL     OW15448   3.011   1.900  11.961  0.3444  0.2964 -0.2404
 1271SOL    HW115449   2.975   1.828  12.012 -0.4456  1.4432  0.8194
 1271SOL    HW215450   3.102   1.870  11.963  0.1606 -0.2447 -0.0001
 1272SOL     OW15451   2.536   2.105   2.059 -0.5363 -0.3135  0.5308
 1272SOL    HW115452   2.448   2.134   2.081  0.2394  3.5402 -1.5351
 1272SOL    HW215453   2.591   2.183   2.062 -2.0389  0.7096  1.4995
 1273SOL     OW15454   2.600   0.695  12.692  0.1344  0.5851 -0.3819
 1273SOL    HW115455   2.588   0.738  12.776  0.3723  1.8044 -0.9689
 1273SOL    HW215456   2.668   0.630  12.711 -1.9126 -2.0311 -2.0583
 1274SOL     OW15457   1.603   1.931  15.667  0.3824 -0.3889  0.2255
 1274SOL    HW115458   1.617   2.025  15.669  2.2156 -0.6781  1.7581
 1274SOL    HW215459   1.639   1.908  15.582  1.6776  2.3247  0.0582
 1275SOL     OW15460   3.226   2.584  13.436 -0.3155 -0.2276 -0.0642
 1275SOL    HW115461   3.219   2.582  13.532 -2.3324 -1.1489 -0.2387
 1275SOL    HW215462   3.287   2.513  13.416 -0.8983 -0.8141  0.2251
 1276SOL     OW15463   3.061   0.507   4.921 -0.4799 -0.0852  0.2879
 1276SOL    HW115464   3.030   0.496   4.832 -0.7415 -1.8177  0.5952
 1276SOL    HW215465   3.153   0.482   4.914 -0.3174  0.3236  0.9432
 1277SOL     OW15466   0.308   1.365   3.353  0.2273  0.3871  0.7754
 1277SOL    HW115467   0.231   1.384   3.301 -0.1392  0.4053  1.3217
 1277SOL    HW215468   0.271   1.415   3.426 -0.4429 -0.4042  0.9863
 1278SOL     OW15469   1.031   2.802   4.473  0.3015 -0.4109 -0.2211
 1278SOL    HW115470   0.951   2.790   4.524  0.6802  1.5211  0.8326
 1278SOL    HW215471   1.096   2.763   4.531  0.0754 -0.0299  0.2874
 1279SOL     OW15472   1.840   3.963   2.835 -0.3111 -0.4660 -0.7699
 1279SOL    HW115473   1.781   3.888   2.842  0.6991 -1.0801  1.0933
 1279SOL    HW215474   1.787   4.035   2.799  1.0713 -0.3217 -2.5131
 1280SOL     OW15475   2.267   3.394   3.297 -0.9893 -0.0611  0.5795
 1280SOL    HW115476   2.289   3.316   3.246  2.0814  0.4242  1.1325
 1280SOL    HW215477   2.337   3.455   3.274 -0.3772 -0.5181  1.2378
 1281SOL     OW15478   1.838   2.092   3.389 -0.2785  0.5321 -0.3687
 1281SOL    HW115479   1.768   2.043   3.345 -2.0057  1.2254  1.5684
 1281SOL    HW215480   1.800   2.160   3.445  0.2468  0.8546 -0.4054
 1282SOL     OW15481   0.968   0.042   7.917  0.5064  0.6184 -0.6752
 1282SOL    HW115482   1.039   0.064   7.856  0.1279 -0.3609 -1.4789
 1282SOL    HW215483   0.910   0.002   7.853  0.3600 -0.8187  0.3715
 1283SOL     OW15484   3.199   3.531   2.902  0.3560 -0.3496  0.0348
 1283SOL    HW115485   3.179   3.577   2.984 -1.8453  2.5255 -2.1106
 1283SOL    HW215486   3.216   3.441   2.927  0.2542  0.3854  2.7541
 1284SOL     OW15487   3.868   0.928   6.395 -0.1497  0.1982  0.4718
 1284SOL    HW115488   3.879   0.837   6.422  1.5390 -0.2886 -1.8533
 1284SOL    HW215489   3.840   0.913   6.304 -0.1746 -0.8759  0.6518
 1285SOL     OW15490   4.116   1.252   5.541  0.1636  0.3527  0.2621
 1285SOL    HW115491   4.099   1.157   5.539  0.2978  0.3318  0.0222
 1285SOL    HW215492   4.028   1.285   5.524  0.8069  1.6980 -0.4599
 1286SOL     OW15493   3.083   3.817   5.305  0.3122 -0.4366 -0.4646
 1286SOL    HW115494   3.071   3.871   5.227 -2.5320 -1.0692 -0.4874
 1286SOL    HW215495   3.120   3.877   5.369 -1.9303  1.0881 -0.5859
 1287SOL     OW15496   4.277   1.064   3.284  0.4006  0.5007  1.0242
 1287SOL    HW115497   4.331   1.083   3.208  0.5059  0.8472  1.1847
 1287SOL    HW215498   4.188   1.086   3.258  0.1573  0.8705  2.1414
 1288SOL     OW15499   2.337   2.914  16.596  0.2692 -0.0069  0.0793
 1288SOL    HW115500   2.315   2.962  16.676 -0.8244 -1.7278  0.8146
 1288SOL    HW215501   2.407   2.968  16.561 -0.0033  0.3119  0.0326
 1289SOL     OW15502   4.399   2.898   6.380 -0.1643  0.0658 -0.3163
 1289SOL    HW115503   4.349   2.980   6.374 -0.2293  0.0276 -0.3034
 1289SOL    HW215504   4.431   2.891   6.290  3.0157 -2.2476  1.0000
 1290SOL     OW15505   3.391   2.989   6.236 -0.7320 -1.0403 -0.3943
 1290SOL    HW115506   3.425   3.061   6.182  0.0508 -1.1019  0.0235
 1290SOL    HW215507   3.298   3.010   6.242 -0.5375  0.2984 -1.8106
 1291SOL     OW15508   0.145   3.353   6.411  0.8585  0.0966  0.0480
 1291SOL    HW115509   0.088   3.396   6.347 -0.5988  0.6369  1.7188
 1291SOL    HW215510   0.079   3.291   6.442 -1.7588  2.3275 -1.0130
 1292SOL     OW15511   1.572   0.089   9.671 -0.3804 -0.1748 -0.1735
 1292SOL    HW115512   1.654   0.044   9.691  0.0182  0.9252  0.6756
 1292SOL    HW215513   1.559   0.161   9.733  4.0695  0.3663  0.1220
 1293SOL     OW15514   3.969   3.631  12.839  0.2172 -0.8863  0.1780
 1293SOL    HW115515   4.010   3.547  12.819  2.5094 -0.1652  1.7296
 1293SOL    HW215516   4.039   3.693  12.819 -0.9430  0.7738  1.3086
 1294SOL     OW15517   3.429   2.835  12.454  0.0971 -0.2309  0.2053
 1294SOL    HW115518   3.346   2.790  12.466 -0.4341  0.7374  0.1431
 1294SOL    HW215519   3.497   2.777  12.488  0.0165  0.2977  1.3057
 1295SOL     OW15520   0.681   4.283  14.129 -0.6459 -0.6367  0.0884
 1295SOL    HW115521   0.645   4.369  14.105  1.0818  0.2376  0.6200
 1295SOL    HW215522   0.753   4.272  14.067 -1.7001  1.8334 -1.6169
 1296SOL     OW15523   4.198   4.020  11.678  0.3021  0.2730  0.3669
 1296SOL    HW115524   4.107   4.034  11.651  0.6774  1.7360 -0.1459
 1296SOL    HW215525   4.238   4.105  11.659 -1.0074  0.4189 -1.7862
 1297SOL     OW15526   3.564   1.480  13.760  0.8112  0.1799  1.1623
 1297SOL    HW115527   3.548   1.444  13.672  2.4182  1.7474  0.2339
 1297SOL    HW215528   3.542   1.401  13.810  0.2184  1.3110  2.6715
 1298SOL     OW15529   1.759   4.083   7.693  0.5546  0.2627 -0.4090
 1298SOL    HW115530   1.675   4.055   7.730  0.6452 -1.3792 -1.4785
 1298SOL    HW215531   1.761   4.028   7.615 -1.9795 -0.6974  0.1983
 1299SOL     OW15532   4.399   4.262   4.444 -0.4351  0.5886 -0.4961
 1299SOL    HW115533   4.307   4.237   4.454 -0.1882 -0.7173 -1.3689
 1299SOL    HW215534   4.427   4.273   4.535 -0.6277  0.7051 -0.4521
 1300SOL     OW15535   2.180   3.943   4.388  0.6685  0.0844 -0.4305
 1300SOL    HW115536   2.275   3.944   4.379  0.8701 -0.0061  1.7625
 1300SOL    HW215537   2.161   3.979   4.301  0.8248 -2.0211 -1.3329
 1301SOL     OW15538   3.343   4.164   2.800  0.1306  0.0196  1.0049
 1301SOL    HW115539   3.420   4.114   2.775 -0.6660 -1.0210  0.6093
 1301SOL    HW215540   3.321   4.220   2.726  3.5839  0.1497  0.0819
 1302SOL     OW15541   2.433   3.044  12.956  0.8416  0.3669 -0.3051
 1302SOL    HW115542   2.466   3.113  12.899 -3.8634  2.9035  0.0391
 1302SOL    HW215543   2.369   2.993  12.905 -1.4713  2.9222  0.0649
 1303SOL     OW15544   0.380   1.072   8.634 -0.5162 -0.0601 -0.4806
 1303SOL    HW115545   0.325   1.078   8.712  0.4375 -0.0350  0.1899
 1303SOL    HW215546   0.445   1.003   8.648 -0.6772  0.3318  2.1567
 1304SOL     OW15547   3.463   2.511   8.602  0.3103 -0.2594  0.0325
 1304SOL    HW115548   3.421   2.430   8.630  1.0003  0.1841  2.2937
 1304SOL    HW215549   3.412   2.529   8.523 -0.2097  0.8986  0.6288
 1305SOL     OW15550   2.173   4.653  13.910  0.4876 -0.3595 -0.2202
 1305SOL    HW115551   2.119   4.632  13.833 -0.8977  1.1899  0.3323
 1305SOL    HW215552   2.234   4.702  13.854 -0.3592  0.1035 -0.7397
 1306SOL     OW15553   0.638   3.425   7.177  0.3916 -0.7225  0.4510
 1306SOL    HW115554   0.666   3.367   7.106  1.0141  1.9472 -1.5090
 1306SOL    HW215555   0.560   3.382   7.212  0.5328 -1.7857 -0.5240
 1307SOL     OW15556   1.147   2.469   0.133  0.2064 -0.0292  0.0074
 1307SOL    HW115557   1.066   2.505   0.168  0.3243 -0.0671  0.3189
 1307SOL    HW215558   1.188   2.547   0.095  0.4694 -0.0669  0.2187
 1308SOL     OW15559   1.637   1.637  15.674 -0.2527 -0.2059  0.6239
 1308SOL    HW115560   1.633   1.721  15.718 -0.8784 -0.3392  0.8189
 1308SOL    HW215561   1.568   1.589  15.720  0.4427 -1.7323  0.0860
 1309SOL     OW15562   3.667   3.047   0.474  0.3883  0.2026  0.0259
 1309SOL    HW115563   3.727   3.118   0.451  2.1912 -0.5369  2.3491
 1309SOL    HW215564   3.592   3.091   0.513  0.0768 -0.5411  0.2803
 1310SOL     OW15565   3.633   4.651   4.836 -0.4837 -0.8540 -0.1420
 1310SOL    HW115566   3.679   4.707   4.773 -0.4690 -0.6398  0.0596
 1310SOL    HW215567   3.708   4.634   4.892 -0.7001  1.1297  0.7441
 1311SOL     OW15568   4.652   3.338   1.201 -0.3607  0.0629  0.1717
 1311SOL    HW115569   4.721   3.398   1.231 -2.1803  1.7073  1.0707
 1311SOL    HW215570   4.638   3.361   1.109 -1.0927  1.1400  0.5641
 1312SOL     OW15571   0.267   4.185   4.398  0.6099  0.1394 -0.1439
 1312SOL    HW115572   0.296   4.161   4.310 -0.3571 -1.2026 -0.1010
 1312SOL    HW215573   0.344   4.224   4.440 -2.5808  1.4149  4.4840
 1313SOL     OW15574   2.281   3.261  14.807  0.0440  0.0664 -0.1150
 1313SOL    HW115575   2.280   3.183  14.863 -2.0204  0.4935  0.4645
 1313SOL    HW215576   2.324   3.224  14.731 -0.8936  0.7823 -0.9905
 1314SOL     OW15577   0.999   0.713  10.772  0.2614  0.4870  0.2255
 1314SOL    HW115578   1.035   0.793  10.733 -1.9415  2.1289  1.5547
 1314SOL    HW215579   0.917   0.737  10.815 -0.1393 -1.3013  0.4679
 1315SOL     OW15580   2.668   2.569   8.268  0.2315  0.2297  0.6865
 1315SOL    HW115581   2.704   2.567   8.357 -0.7012  0.5311  1.0721
 1315SOL    HW215582   2.626   2.482   8.265  1.8872 -0.5997  1.9048
 1316SOL     OW15583   3.741   1.233   1.730 -0.2354 -0.1742  0.1918
 1316SOL    HW115584   3.725   1.188   1.647  2.0223 -0.7290  0.0371
 1316SOL    HW215585   3.677   1.304   1.733  0.7700  0.7296  0.4910
 1317SOL     OW15586   2.163   0.939   6.183 -0.2067 -0.4883  0.0958
 1317SOL    HW115587   2.090   0.968   6.238 -0.3765  0.7918 -0.7847
 1317SOL    HW215588   2.155   0.844   6.190  0.9324 -0.6418 -0.6489
 1318SOL     OW15589   0.504   4.268   4.544  0.3885  0.0942  0.0460
 1318SOL    HW115590   0.588   4.304   4.515 -0.4329  1.6163 -0.4515
 1318SOL    HW215591   0.517   4.221   4.626 -1.0896  0.1597  0.3163
 1319SOL     OW15592   1.542   3.951   9.317 -0.7002  0.4054 -0.6960
 1319SOL    HW115593   1.545   3.883   9.384 -1.4004 -0.2881 -1.3841
 1319SOL    HW215594   1.502   3.906   9.243  1.8622 -0.0154 -1.8414
 1320SOL     OW15595   3.058   2.844   5.107 -0.2761  0.5520 -0.1223
 1320SOL    HW115596   3.081   2.802   5.190  0.4246 -0.8200 -1.0026
 1320SOL    HW215597   2.963   2.834   5.113 -0.3455  0.7294 -1.0421
 1321SOL     OW15598   4.493   3.766   5.568 -0.3393 -0.1162  0.0671
 1321SOL    HW115599   4.522   3.854   5.589  0.6886 -0.4316 -0.0090
 1321SOL    HW215600   4.552   3.732   5.501  1.4030  0.1028  1.4857
 1322SOL     OW15601   2.314   2.728  12.032 -0.3658 -0.7527  0.2919
 1322SOL    HW115602   2.234   2.680  12.008  1.2460 -1.4225 -3.8404
 1322SOL    HW215603   2.279   2.808  12.071 -2.7980 -1.1745 -1.0300
 1323SOL     OW15604   4.247   1.576   4.465 -0.5286 -0.5321 -0.2603
 1323SOL    HW115605   4.243   1.492   4.512 -1.0056  0.3370  1.2494
 1323SOL    HW215606   4.181   1.633   4.505  0.4408 -0.0131  0.5821
 1324SOL     OW15607   1.675   1.075   5.231  0.2824 -0.2673 -0.1155
 1324SOL    HW115608   1.600   1.079   5.289 -0.5899 -0.1834 -1.2626
 1324SOL    HW215609   1.641   1.024   5.158  1.6907  1.8625 -2.2626
 1325SOL     OW15610   2.217   2.231   2.815  0.0389  0.1445  0.4397
 1325SOL    HW115611   2.134   2.277   2.799  0.8795  1.3159 -0.5792
 1325SOL    HW215612   2.236   2.265   2.903 -2.0530  0.2941  0.8236
 1326SOL     OW15613   0.324   1.325   4.705 -0.5666  0.0591 -0.2630
 1326SOL    HW115614   0.404   1.361   4.742 -0.2587 -0.9688  0.0805
 1326SOL    HW215615   0.334   1.333   4.610  3.0448  1.8675  0.3006
 1327SOL     OW15616   0.609   1.559   6.742  0.2538 -0.2993 -0.2510
 1327SOL    HW115617   0.634   1.537   6.652 -0.6750 -0.0797 -0.5657
 1327SOL    HW215618   0.662   1.501   6.797 -0.4888  2.0698  2.9508
 1328SOL     OW15619   0.470   1.899   8.264 -0.9435 -0.0411  0.1513
 1328SOL    HW115620   0.536   1.858   8.207 -0.0083  2.1668 -0.3438
 1328SOL    HW215621   0.531   1.947   8.319  1.0544 -1.0439 -1.1580
 1329SOL     OW15622   1.827   0.554   2.899  0.0591 -0.2241 -0.3918
 1329SOL    HW115623   1.742   0.594   2.917  0.9139  1.1901  0.4982
 1329SOL    HW215624   1.855   0.525   2.986 -0.0868  3.5201  0.9055
 1330SOL     OW15625   0.914   4.039   5.886  0.3438 -0.1301 -0.7093
 1330SOL    HW115626   0.870   4.123   5.899  0.7446 -0.2029  1.0251
 1330SOL    HW215627   0.911   4.001   5.973 -0.5591  1.3621 -0.1025
 1331SOL     OW15628   3.088   2.735   6.465  0.1975 -0.1128 -0.3320
 1331SOL    HW115629   3.033   2.661   6.492 -2.5877  2.0884  0.0091
 1331SOL    HW215630   3.051   2.753   6.378  1.0103  0.6754 -0.5102
 1332SOL     OW15631   3.681   0.303   6.873 -0.0393 -0.7144 -0.2601
 1332SOL    HW115632   3.747   0.362   6.910 -0.4085 -0.9328  0.7705
 1332SOL    HW215633   3.713   0.278   6.787  1.6177 -2.9426  0.9924
 1333SOL     OW15634   2.925   4.482  13.817  0.8881  0.1268 -0.0781
 1333SOL    HW115635   2.975   4.424  13.874  0.8789 -1.2610 -1.4682
 1333SOL    HW215636   2.944   4.567  13.857  0.1352 -0.3576  1.2943
 1334SOL     OW15637   2.498   1.822   2.313 -0.8114  0.3406 -0.1134
 1334SOL    HW115638   2.418   1.846   2.359 -0.3727 -1.5053  1.6488
 1334SOL    HW215639   2.459   1.759   2.253 -0.3169 -0.1929  0.1148
 1335SOL     OW15640   0.143   4.132  13.216  0.5431 -0.0060 -0.0376
 1335SOL    HW115641   0.125   4.226  13.215 -2.3919 -0.5701 -1.5732
 1335SOL    HW215642   0.237   4.128  13.197  0.9376 -1.2866  2.0978
 1336SOL     OW15643   2.242   2.941  11.580 -0.1431  0.1298  0.1070
 1336SOL    HW115644   2.181   2.917  11.509 -0.5892  0.6589  0.3049
 1336SOL    HW215645   2.305   2.869  11.582  0.4712  0.6133 -1.8140
 1337SOL     OW15646   0.990   0.128   1.807 -0.4434 -0.5518  0.0317
 1337SOL    HW115647   1.043   0.048   1.814 -0.5527 -0.7538 -1.6135
 1337SOL    HW215648   0.973   0.144   1.714  2.6209  0.1958 -0.4021
 1338SOL     OW15649   1.952   2.087  12.554  0.0825  0.1224  0.6015
 1338SOL    HW115650   2.040   2.060  12.579 -1.0999 -2.4819  1.9317
 1338SOL    HW215651   1.919   2.109  12.641 -2.2821 -1.7627  0.1839
 1339SOL     OW15652   0.739   2.947   0.396 -0.1630 -0.0606  0.3344
 1339SOL    HW115653   0.674   2.978   0.459 -0.3157 -1.1114  0.6999
 1339SOL    HW215654   0.724   2.853   0.408 -0.0367  0.3077  3.2566
 1340SOL     OW15655   0.654   4.447   7.599  0.8828 -0.2177 -0.2050
 1340SOL    HW115656   0.620   4.394   7.670  2.1178  0.2908  0.7779
 1340SOL    HW215657   0.741   4.407   7.593  0.1499 -1.6045 -1.3825
 1341SOL     OW15658   0.848   1.426   4.721 -0.0221 -0.4910  0.1671
 1341SOL    HW115659   0.854   1.345   4.670 -0.7490  0.7633 -1.8950
 1341SOL    HW215660   0.826   1.490   4.654  1.1472  1.0670  1.2762
 1342SOL     OW15661   0.508   0.166   9.351  0.3655 -0.7751 -0.1383
 1342SOL    HW115662   0.566   0.190   9.423  0.6467 -3.0380  0.3803
 1342SOL    HW215663   0.447   0.102   9.387 -0.5539  0.1102 -0.1225
 1343SOL     OW15664   4.399   4.231   3.487 -0.3301  0.0147  0.4023
 1343SOL    HW115665   4.432   4.181   3.413 -3.2476 -0.0004 -0.9009
 1343SOL    HW215666   4.348   4.165   3.534 -1.8185  1.0440  0.2409
 1344SOL     OW15667   2.120   4.450  10.439  0.6969 -0.2077  0.5105
 1344SOL    HW115668   2.180   4.376  10.451  0.0835 -0.8279 -0.2095
 1344SOL    HW215669   2.089   4.455  10.529 -0.9395  1.0780 -0.1079
 1345SOL     OW15670   0.467   3.029   9.380  0.0272  0.1591  0.4710
 1345SOL    HW115671   0.550   2.981   9.379 -0.6429 -0.9514 -1.2581
 1345SOL    HW215672   0.483   3.104   9.322  1.4739 -1.1359 -0.7827
 1346SOL     OW15673   3.401   3.253  13.927  0.2006  0.2542  0.3801
 1346SOL    HW115674   3.308   3.235  13.944  0.7305  0.0523  3.0922
 1346SOL    HW215675   3.433   3.197  13.999 -0.3697 -0.2285  0.2615
 1347SOL     OW15676   2.276   0.838   4.872  0.5117  0.7644 -0.0932
 1347SOL    HW115677   2.203   0.875   4.921  0.9343  1.3419  0.0997
 1347SOL    HW215678   2.324   0.802   4.947 -1.1985 -0.2511  0.5178
 1348SOL     OW15679   3.367   2.812   6.001 -0.0329 -0.0062 -0.0616
 1348SOL    HW115680   3.294   2.751   5.998 -0.5324  0.6342 -0.7887
 1348SOL    HW215681   3.366   2.831   6.095 -2.0359  2.4143 -0.5710
 1349SOL     OW15682   1.374   4.475  16.298  0.6963  0.2451 -0.1605
 1349SOL    HW115683   1.418   4.413  16.239  0.8372 -0.2896  0.5081
 1349SOL    HW215684   1.383   4.559  16.253  1.1431  0.5087  0.4243
 1350SOL     OW15685   1.521   4.515  12.217 -0.5559 -0.3900 -0.1845
 1350SOL    HW115686   1.518   4.493  12.310  1.2509 -2.7286 -0.6861
 1350SOL    HW215687   1.614   4.491  12.210 -0.0681  1.0400  1.3081
 1351SOL     OW15688   0.683   3.557   5.721 -0.1159  0.7254 -0.1145
 1351SOL    HW115689   0.740   3.632   5.739 -1.2848  1.4338  0.5969
 1351SOL    HW215690   0.754   3.493   5.715  2.0353  2.9349  1.2947
 1352SOL     OW15691   1.533   1.018  16.701 -0.4628  0.4677 -0.1198
 1352SOL    HW115692   1.482   0.954  16.651 -2.8770  1.4252  1.1431
 1352SOL    HW215693   1.615   1.003  16.654 -0.9141 -2.1016 -0.0901
 1353SOL     OW15694   0.591   3.677   6.972  0.4646  0.5241  0.4796
 1353SOL    HW115695   0.575   3.584   6.989 -2.2656  0.9975  0.5473
 1353SOL    HW215696   0.659   3.685   7.038 -0.3630 -2.6151  1.7171
 1354SOL     OW15697   2.269   3.575   9.991  0.2920 -0.2114 -0.1492
 1354SOL    HW115698   2.325   3.510  10.033  0.7136 -0.1331 -0.5927
 1354SOL    HW215699   2.177   3.555  10.011  0.3122 -1.9066 -1.7456
 1355SOL     OW15700   1.921   4.650   4.921  0.1657  0.1749  0.0324
 1355SOL    HW115701   1.840   4.601   4.913  0.0784  0.0038  1.8135
 1355SOL    HW215702   1.881   4.720   4.973 -2.5753 -2.4240  1.3753
 1356SOL     OW15703   0.418   4.224  13.346 -0.3435 -0.1578  0.4445
 1356SOL    HW115704   0.483   4.283  13.308 -0.4365 -0.4267 -0.1209
 1356SOL    HW215705   0.438   4.143  13.299  1.6521  0.3885  0.3461
 1357SOL     OW15706   1.324   1.042   8.466 -0.0932 -0.2714  0.7753
 1357SOL    HW115707   1.360   0.964   8.508  0.1801 -0.4681  0.1734
 1357SOL    HW215708   1.404   1.079   8.427  1.3551 -1.9620  2.1849
 1358SOL     OW15709   0.833   3.168   4.974 -0.1920 -0.1055  0.0697
 1358SOL    HW115710   0.899   3.164   4.905 -2.3150 -3.8599 -1.6899
 1358SOL    HW215711   0.876   3.103   5.029 -2.4098  0.3956  2.3820
 1359SOL     OW15712   2.781   0.497   6.437  0.0977  0.2108 -0.1787
 1359SOL    HW115713   2.852   0.443   6.402  0.3771  0.4174  0.0765
 1359SOL    HW215714   2.707   0.459   6.388 -0.3197 -0.0601  0.6552
 1360SOL     OW15715   0.382   2.812   5.133  0.4455 -0.3794  0.0951
 1360SOL    HW115716   0.452   2.818   5.198  0.8866  0.8736 -0.5006
 1360SOL    HW215717   0.307   2.839   5.187  0.3164 -0.9944  0.2254
 1361SOL     OW15718   2.639   4.726  12.220 -0.4072  0.2772 -0.1580
 1361SOL    HW115719   2.603   4.639  12.200 -0.0062  0.0053  0.3116
 1361SOL    HW215720   2.664   4.726  12.312 -0.6776 -1.0425 -0.0817
 1362SOL     OW15721   4.088   4.566   8.359 -0.6013 -0.1196  0.1801
 1362SOL    HW115722   4.129   4.652   8.361 -0.8402 -0.0047  0.1756
 1362SOL    HW215723   4.057   4.555   8.449 -0.7114 -1.9811 -0.0882
 1363SOL     OW15724   2.388   0.107   8.930 -0.5065 -0.1895 -0.6401
 1363SOL    HW115725   2.362   0.083   8.842 -0.3836 -3.6329  0.2797
 1363SOL    HW215726   2.319   0.066   8.982  0.4024  0.5306  1.1666
 1364SOL     OW15727   0.797   2.925   3.972  0.6984 -0.2332  0.0497
 1364SOL    HW115728   0.891   2.928   3.993  0.7975  0.5310 -0.5094
 1364SOL    HW215729   0.780   3.018   3.953  0.3345 -1.0696 -3.6686
 1365SOL     OW15730   2.161   0.654   7.164  0.4986 -0.0743 -0.8948
 1365SOL    HW115731   2.187   0.606   7.085 -2.0849  0.4025 -2.0500
 1365SOL    HW215732   2.145   0.580   7.223  0.0872  1.4405  0.8977
 1366SOL     OW15733   1.934   2.046   6.585  0.4348  0.0634 -0.6826
 1366SOL    HW115734   2.012   1.990   6.582  1.0106  0.6875  2.4351
 1366SOL    HW215735   1.866   1.985   6.615  0.6884  0.2006  0.1962
 1367SOL     OW15736   0.168   0.577  17.477  0.3411  0.6233  0.1133
 1367SOL    HW115737   0.225   0.609  17.407  1.4919  1.6478  1.5090
 1367SOL    HW215738   0.079   0.593  17.447  0.4911  0.9916 -0.1358
 1368SOL     OW15739   1.895   2.505  12.603 -0.6569  0.5405  0.1935
 1368SOL    HW115740   1.924   2.549  12.523 -0.3618 -0.2155 -0.1155
 1368SOL    HW215741   1.838   2.431  12.580  3.9270 -2.3858 -1.7537
 1369SOL     OW15742   2.923   0.622   3.559 -0.0906  0.1893 -0.0053
 1369SOL    HW115743   2.846   0.634   3.615 -0.0713  1.9015 -0.3517
 1369SOL    HW215744   2.887   0.649   3.474  0.3457 -0.7996 -0.5099
 1370SOL     OW15745   1.451   1.950  16.237 -0.3785 -0.4043 -0.2001
 1370SOL    HW115746   1.540   1.957  16.202 -0.2599 -0.2541  0.1343
 1370SOL    HW215747   1.463   2.023  16.298 -0.3032 -2.0395  1.7221
 1371SOL     OW15748   1.423   1.486  12.924 -0.3730  0.7416  0.8268
 1371SOL    HW115749   1.508   1.524  12.900  0.4771 -0.6128  1.6616
 1371SOL    HW215750   1.365   1.560  12.909  1.1751  2.0821  1.3646
 1372SOL     OW15751   1.840   0.950   3.277 -0.3210  0.0034 -0.0176
 1372SOL    HW115752   1.882   1.002   3.210 -3.3471 -0.7833 -2.5322
 1372SOL    HW215753   1.787   0.893   3.221  2.0567 -1.6774 -0.5527
 1373SOL     OW15754   3.551   2.626  17.379  0.3448 -0.4404 -0.0296
 1373SOL    HW115755   3.563   2.594  17.468  0.1304 -1.8259 -0.4964
 1373SOL    HW215756   3.551   2.721  17.393 -4.0465 -0.2011 -1.5553
 1374SOL     OW15757   0.127   0.576   2.331 -0.4379  0.0818 -0.0307
 1374SOL    HW115758   0.157   0.589   2.241 -1.7060  0.5661 -0.3713
 1374SOL    HW215759   0.130   0.480   2.331  1.5071  0.1356 -1.7921
 1375SOL     OW15760   3.712   3.400  16.709  0.3351 -0.6434  0.2353
 1375SOL    HW115761   3.649   3.346  16.661  0.4546  0.1112 -0.7843
 1375SOL    HW215762   3.766   3.430  16.635 -2.2937 -0.2399 -1.5168
 1376SOL     OW15763   4.093   2.996   2.568 -0.3703 -0.0488 -0.5527
 1376SOL    HW115764   4.015   3.036   2.530 -0.7327  0.4172  0.6769
 1376SOL    HW215765   4.107   2.930   2.500 -0.7763 -1.4353  0.7172
 1377SOL     OW15766   2.816   0.308   1.701  0.1232  0.1075 -1.0553
 1377SOL    HW115767   2.799   0.249   1.627  1.1473  0.1364 -1.3045
 1377SOL    HW215768   2.827   0.394   1.660  2.3691 -0.5648 -1.8501
 1378SOL     OW15769   2.378   3.015   7.454  0.6010  0.0138 -0.0497
 1378SOL    HW115770   2.421   2.943   7.500 -1.7283 -0.2816  1.6559
 1378SOL    HW215771   2.455   3.062   7.421  2.4695 -1.0673  2.8031
 1379SOL     OW15772   4.598   3.262   9.264 -0.1878 -0.1789 -0.2332
 1379SOL    HW115773   4.523   3.320   9.274  0.0582  0.4555 -2.0122
 1379SOL    HW215774   4.646   3.272   9.346 -1.1765  1.6613  0.0961
 1380SOL     OW15775   0.582   1.401   2.792  1.2124  0.2196 -0.5211
 1380SOL    HW115776   0.564   1.488   2.756  0.8185  0.0814 -0.6652
 1380SOL    HW215777   0.494   1.367   2.809  1.9256 -2.0484 -1.3344
 1381SOL     OW15778   1.631   2.344   3.677  0.3112 -0.2620 -0.2033
 1381SOL    HW115779   1.641   2.439   3.682 -0.3475 -0.2504  0.8593
 1381SOL    HW215780   1.721   2.323   3.652  0.4291 -0.1317  0.1174
 1382SOL     OW15781   4.204   3.427   8.345 -0.2741  0.2498 -0.3311
 1382SOL    HW115782   4.157   3.481   8.281  0.7421 -1.1664 -2.2484
 1382SOL    HW215783   4.222   3.499   8.406 -2.0849  1.9571 -1.7952
 1383SOL     OW15784   3.687   2.293  15.497  0.3321  0.1123 -0.0112
 1383SOL    HW115785   3.757   2.353  15.524  0.7904 -0.5688  0.2937
 1383SOL    HW215786   3.735   2.235  15.438  2.9529  1.4411  0.8356
 1384SOL     OW15787   4.492   4.664   5.458 -0.2088  0.3889  0.0134
 1384SOL    HW115788   4.444   4.630   5.383 -0.2122 -1.3790  0.8062
 1384SOL    HW215789   4.539   4.735   5.414  4.3072 -3.0264 -0.7070
 1385SOL     OW15790   1.390   0.605   7.009 -0.4874  0.1105 -0.0109
 1385SOL    HW115791   1.452   0.610   7.082  0.5593 -2.0653 -0.7485
 1385SOL    HW215792   1.358   0.695   7.018 -2.1027 -0.5473  0.8426
 1386SOL     OW15793   0.302   2.425   4.882 -0.6708 -0.3122  0.3182
 1386SOL    HW115794   0.377   2.478   4.858  1.3664 -2.2548  2.4083
 1386SOL    HW215795   0.277   2.422   4.790  1.7926  0.4115 -0.3727
 1387SOL     OW15796   4.705   3.252  15.379  0.3701  0.3732  0.2216
 1387SOL    HW115797   4.719   3.209  15.463  0.0476 -0.3423 -0.0979
 1387SOL    HW215798   4.631   3.202  15.346 -0.2270  0.3936  1.5297
 1388SOL     OW15799   4.358   3.712   5.784 -0.1595 -0.3684 -0.4837
 1388SOL    HW115800   4.399   3.735   5.701 -1.6050  2.9799 -0.2380
 1388SOL    HW215801   4.433   3.679   5.835 -1.2721  0.1731  1.5101
 1389SOL     OW15802   1.066   0.444   3.273  0.2309  0.0784 -0.2771
 1389SOL    HW115803   1.002   0.411   3.209  0.4443  0.1100 -0.5062
 1389SOL    HW215804   1.113   0.364   3.294 -1.2823 -0.3416  1.4949
 1390SOL     OW15805   4.684   2.298   4.840  0.2966 -0.2822 -0.2482
 1390SOL    HW115806   4.631   2.344   4.904 -0.7990 -0.8903 -0.7063
 1390SOL    HW215807   0.002   2.253   4.905  0.0722 -0.9888 -0.5387
 1391SOL     OW15808   2.830   2.251   4.686 -0.3476  0.3904  0.4000
 1391SOL    HW115809   2.916   2.213   4.671 -0.6812 -0.9970  2.0999
 1391SOL    HW215810   2.805   2.281   4.598 -0.8710  2.4381  1.2252
 1392SOL     OW15811   3.900   4.360  10.107  0.0113 -0.5427 -0.1720
 1392SOL    HW115812   3.894   4.455  10.097  1.4551 -0.4949 -0.5329
 1392SOL    HW215813   3.837   4.322  10.046 -0.7688  1.5684 -0.6652
 1393SOL     OW15814   4.426   3.269   4.370  0.4806 -0.0333 -0.2793
 1393SOL    HW115815   4.359   3.309   4.315  0.1452  0.6074  0.5821
 1393SOL    HW215816   4.449   3.340   4.431  2.0573  0.2737 -1.2328
 1394SOL     OW15817   0.365   0.505  10.097  1.1458  0.0169 -0.1664
 1394SOL    HW115818   0.357   0.567  10.024  2.7491  1.4609  0.9174
 1394SOL    HW215819   0.453   0.474  10.077  1.7196  0.6588  1.4045
 1395SOL     OW15820   4.227   3.346   3.875  0.2193  0.3060  0.0741
 1395SOL    HW115821   4.205   3.308   3.789  0.9294  1.2016 -0.5053
 1395SOL    HW215822   4.285   3.283   3.916 -1.9349 -0.7588  1.4582
 1396SOL     OW15823   0.591   2.198   3.327 -0.1150 -0.3363 -0.1786
 1396SOL    HW115824   0.568   2.146   3.404  0.1553 -0.8521 -0.4454
 1396SOL    HW215825   0.569   2.286   3.356 -0.1244  0.0406 -1.3426
 1397SOL     OW15826   0.505   0.564   8.345  0.0238  0.0109 -0.0141
 1397SOL    HW115827   0.549   0.485   8.315  0.4841 -0.3307  1.5247
 1397SOL    HW215828   0.426   0.568   8.291 -1.2755  2.4564  2.0327
 1398SOL     OW15829   0.975   4.686   3.529  0.3530  0.1343  0.1509
 1398SOL    HW115830   1.064   4.694   3.493 -0.3254 -1.0850 -1.8242
 1398SOL    HW215831   0.958   4.592   3.528  2.2342 -0.2106  0.5148
 1399SOL     OW15832   0.158   0.753   9.214 -0.1778  0.7602  0.3609
 1399SOL    HW115833   0.219   0.679   9.216 -2.0793 -0.8033  0.1887
 1399SOL    HW215834   0.151   0.761   9.119  1.2936  1.2817  0.3013
 1400SOL     OW15835   1.412   4.708   8.477 -0.6429  0.5840 -0.2571
 1400SOL    HW115836   1.362   4.733   8.555  2.0591  1.5559  1.1695
 1400SOL    HW215837   1.465   4.634   8.507 -0.6954  0.7402  0.2301
 1401SOL     OW15838   4.350   1.488   7.309  0.2509 -0.1416 -0.0784
 1401SOL    HW115839   4.278   1.532   7.262  0.2478  1.2925  1.2739
 1401SOL    HW215840   4.431   1.503   7.261  0.8515 -0.1739  0.9465
 1402SOL     OW15841   3.707   2.958   2.241  0.6039  0.7487  0.0474
 1402SOL    HW115842   3.649   3.018   2.288  1.0027 -1.0517  2.8325
 1402SOL    HW215843   3.784   3.009   2.217  0.5723  0.1151 -1.4025
 1403SOL     OW15844   2.811   1.475   4.735  0.6607 -0.0028  0.0882
 1403SOL    HW115845   2.721   1.451   4.756 -0.0070  2.1995 -0.2534
 1403SOL    HW215846   2.854   1.489   4.819 -0.3180 -0.2606  0.6275
 1404SOL     OW15847   3.551   0.920  14.881 -0.3238 -0.4688 -0.1897
 1404SOL    HW115848   3.567   0.835  14.839  0.5669 -0.1106 -0.5643
 1404SOL    HW215849   3.633   0.965  14.860  0.8454 -1.7140  1.7356
 1405SOL     OW15850   2.140   4.652   2.057 -0.1247 -0.0855 -0.2359
 1405SOL    HW115851   2.209   4.622   1.997 -0.9733 -1.5611 -0.4630
 1405SOL    HW215852   2.189   4.720   2.102 -1.6253  1.7048 -1.3127
 1406SOL     OW15853   0.664   2.198   2.039 -0.0879 -0.6421  0.3147
 1406SOL    HW115854   0.695   2.111   2.062 -2.2710 -2.3373 -3.1452
 1406SOL    HW215855   0.630   2.179   1.951  1.9861  1.4807 -0.9526
 1407SOL     OW15856   1.721   4.193   2.205 -0.2758  0.7198  0.5784
 1407SOL    HW115857   1.816   4.186   2.208 -0.3489 -1.0605 -0.7555
 1407SOL    HW215858   1.703   4.244   2.126 -0.7556  1.4781  1.1769
 1408SOL     OW15859   3.882   2.786   6.585  0.2135  0.4883 -0.3154
 1408SOL    HW115860   3.830   2.768   6.663  0.4183 -1.5837 -0.6404
 1408SOL    HW215861   3.851   2.728   6.515  0.1221  0.9033 -0.6161
 1409SOL     OW15862   4.489   2.405  17.439  0.0651  0.4434 -0.1829
 1409SOL    HW115863   4.577   2.442  17.425 -0.6441  1.7196 -1.3090
 1409SOL    HW215864   4.476   2.353  17.360  0.3264 -1.3243  0.9333
 1410SOL     OW15865   3.716   4.283   8.820  0.3422 -0.5307  0.6133
 1410SOL    HW115866   3.734   4.375   8.799  0.6389 -1.0487 -1.3752
 1410SOL    HW215867   3.754   4.239   8.745 -0.9594 -1.0002  0.2326
 1411SOL     OW15868   0.137   2.478  11.462  0.0902 -0.4867  0.0578
 1411SOL    HW115869   0.171   2.548  11.517  4.5223 -1.2624 -1.6694
 1411SOL    HW215870   0.222   2.460  11.422  1.4791  1.6297  2.1106
 1412SOL     OW15871   4.595   3.717   8.658  0.3294  0.8078 -0.7740
 1412SOL    HW115872   4.516   3.664   8.656  0.4752  0.5020  0.8983
 1412SOL    HW215873   4.578   3.744   8.749  0.2608 -0.4169 -0.4218
 1413SOL     OW15874   1.918   3.205  14.479  0.0368  0.2947  0.2026
 1413SOL    HW115875   1.905   3.176  14.388 -2.9537 -2.3742  1.5021
 1413SOL    HW215876   2.014   3.201  14.477  0.0015  0.6847 -2.4648
 1414SOL     OW15877   4.106   0.288   2.992 -0.2419  0.5678  0.1544
 1414SOL    HW115878   4.143   0.342   2.922 -2.9729  0.9168 -1.0033
 1414SOL    HW215879   4.176   0.266   3.054  0.1159  1.7511  0.1653
 1415SOL     OW15880   4.001   3.846   4.751  0.7450 -0.4106  0.3387
 1415SOL    HW115881   4.032   3.807   4.833 -0.9128  0.1756  1.2516
 1415SOL    HW215882   4.076   3.885   4.707  0.0299 -0.5973 -1.0238
 1416SOL     OW15883   2.172   3.427   5.972 -0.5901  0.3088 -0.1679
 1416SOL    HW115884   2.232   3.370   6.020 -0.5248  0.0174 -0.5996
 1416SOL    HW215885   2.143   3.374   5.898  2.0010 -1.8530  0.3897
 1417SOL     OW15886   0.193   3.652   4.286 -0.2431 -0.6496 -0.2443
 1417SOL    HW115887   0.128   3.583   4.274 -1.0306  0.2152 -1.0178
 1417SOL    HW215888   0.235   3.620   4.366  1.0370  0.9126 -0.2902
 1418SOL     OW15889   0.413   1.161  17.231 -0.2015  0.1383 -0.2243
 1418SOL    HW115890   0.384   1.193  17.316  0.5124 -1.0918  0.4820
 1418SOL    HW215891   0.498   1.204  17.227 -0.0884 -0.1331 -0.7747
 1419SOL     OW15892   3.086   2.940  11.661 -0.0202 -0.0975  0.2428
 1419SOL    HW115893   3.116   2.861  11.706 -0.2674 -0.6995 -0.6590
 1419SOL    HW215894   3.051   2.988  11.736  3.2464  0.7175  1.2480
 1420SOL     OW15895   3.615   0.491  13.210  0.3034  0.5259 -0.2229
 1420SOL    HW115896   3.601   0.413  13.156 -0.2789  0.1927  0.4142
 1420SOL    HW215897   3.526   0.523  13.218 -0.4070 -1.4928  0.0130
 1421SOL     OW15898   1.404   2.113   6.163  0.4793 -0.4795  0.2111
 1421SOL    HW115899   1.366   2.033   6.199 -1.4839 -0.0560 -0.9250
 1421SOL    HW215900   1.453   2.074   6.091  1.3687  0.9337  0.0546
 1422SOL     OW15901   3.803   4.709   6.436 -0.5196 -0.5238 -0.0366
 1422SOL    HW115902   3.857   4.634   6.413  0.0282  0.0041 -0.4636
 1422SOL    HW215903   3.861   0.043   6.406 -0.4414 -0.3114  0.6159
 1423SOL     OW15904   3.467   4.084  15.883 -0.6737 -0.2411 -0.0403
 1423SOL    HW115905   3.444   4.064  15.974 -0.3942  1.6451  0.4589
 1423SOL    HW215906   3.416   4.024  15.829  2.2196 -0.4092 -2.5632
 1424SOL     OW15907   3.842   2.745   0.679  0.4716  0.1395 -0.0305
 1424SOL    HW115908   3.899   2.674   0.650 -0.0450  0.1384 -1.0512
 1424SOL    HW215909   3.783   2.759   0.604  2.2155 -3.6560 -2.1340
 1425SOL     OW15910   2.819   2.968   9.123  0.1751  0.4708 -0.1446
 1425SOL    HW115911   2.748   3.030   9.139  0.0001  0.0073  0.8546
 1425SOL    HW215912   2.871   2.964   9.203 -1.3147 -1.7497  0.7158
 1426SOL     OW15913   4.394   2.218  17.234  0.1476 -0.2241 -0.5885
 1426SOL    HW115914   4.401   2.250  17.144 -0.3945  0.6078 -0.3345
 1426SOL    HW215915   4.445   2.137  17.234 -1.0194 -0.9582  0.4376
 1427SOL     OW15916   4.177   3.961   7.818 -0.6464 -0.0339  0.1782
 1427SOL    HW115917   4.127   4.026   7.769  0.3547  1.5814  1.3073
 1427SOL    HW215918   4.206   3.906   7.745  0.4828 -0.6347  1.0710
 1428SOL     OW15919   4.127   2.399   2.057  0.6609 -0.4821 -0.6889
 1428SOL    HW115920   4.100   2.333   2.121  0.9959 -0.5778 -0.6439
 1428SOL    HW215921   4.074   2.474   2.085 -0.4173 -0.7275 -2.0590
 1429SOL     OW15922   3.050   2.179   8.012 -0.0705  0.5045 -0.0117
 1429SOL    HW115923   2.993   2.180   8.089  1.2362  0.0673  0.9649
 1429SOL    HW215924   3.109   2.109   8.039 -1.9926 -1.5953 -1.2629
 1430SOL     OW15925   0.654   4.424   8.492 -0.1973  0.0174 -0.5615
 1430SOL    HW115926   0.624   4.333   8.501  1.3840 -0.3621  0.8265
 1430SOL    HW215927   0.576   4.477   8.509  1.1513  2.2153 -1.2232
 1431SOL     OW15928   4.693   2.821   1.173  0.1437  0.2747  0.1329
 1431SOL    HW115929   4.632   2.747   1.171 -0.0884  0.5261 -1.9827
 1431SOL    HW215930   0.042   2.778   1.181  0.5879  0.7593 -2.2213
 1432SOL     OW15931   0.229   4.396   2.726 -0.3541  0.1855 -0.4079
 1432SOL    HW115932   0.280   4.460   2.776 -2.0316  2.0560 -1.0862
 1432SOL    HW215933   0.217   4.441   2.643  0.8036 -1.7216 -1.5905
 1433SOL     OW15934   2.434   0.112   1.070  0.4400  0.2462  0.2661
 1433SOL    HW115935   2.359   0.170   1.084 -0.6541 -0.9055 -0.9194
 1433SOL    HW215936   2.500   0.180   1.088  2.3771 -1.4695 -0.3470
 1434SOL     OW15937   3.458   2.471   1.642  0.1780 -0.4587  0.1428
 1434SOL    HW115938   3.465   2.554   1.595  2.4617 -0.9838 -0.4534
 1434SOL    HW215939   3.379   2.438   1.599 -1.0124 -1.7235  3.2991
 1435SOL     OW15940   3.603   1.173   9.717 -0.4277  0.0761 -0.5817
 1435SOL    HW115941   3.622   1.126   9.635 -2.5759  0.9574 -1.5791
 1435SOL    HW215942   3.611   1.266   9.696 -1.5097  0.1933 -0.4628
 1436SOL     OW15943   1.306   4.077   6.078 -0.3300  0.0276 -0.2848
 1436SOL    HW115944   1.289   4.171   6.070  0.3022  0.2662  1.0475
 1436SOL    HW215945   1.284   4.051   5.989 -1.0805 -0.0316 -0.0834
 1437SOL     OW15946   4.244   1.921  12.770 -0.5457  0.1008 -0.1564
 1437SOL    HW115947   4.220   1.840  12.815  2.1573  1.1003  3.0618
 1437SOL    HW215948   4.160   1.951  12.734 -0.7802  0.3094  0.5775
 1438SOL     OW15949   2.310   2.345  13.519 -0.2546  0.4968 -0.2474
 1438SOL    HW115950   2.260   2.330  13.600  1.2276  1.2960  0.8037
 1438SOL    HW215951   2.371   2.413  13.544  0.1553  0.2635 -0.6086
 1439SOL     OW15952   0.364   3.828   6.380 -0.1940 -0.0649  0.3423
 1439SOL    HW115953   0.326   3.836   6.467  0.7469  3.1677  0.4696
 1439SOL    HW215954   0.396   3.739   6.391  1.2927  0.7399  2.3450
 1440SOL     OW15955   2.025   3.341   9.792  0.3498 -0.0606  0.0885
 1440SOL    HW115956   2.082   3.405   9.750 -0.7111  0.5101 -0.4624
 1440SOL    HW215957   2.029   3.376   9.881  1.8926  0.6826 -0.2756
 1441SOL     OW15958   1.743   3.023  12.021 -0.1606 -0.1320 -0.0078
 1441SOL    HW115959   1.692   3.041  11.942 -0.6487  1.4339  0.6702
 1441SOL    HW215960   1.734   2.928  12.028 -2.0261  0.0075 -0.4560
 1442SOL     OW15961   3.859   3.137   7.466 -0.3762 -0.4304  0.2818
 1442SOL    HW115962   3.890   3.160   7.379 -0.6242  0.9695  0.5585
 1442SOL    HW215963   3.928   3.073   7.486  1.3349  1.1044 -0.7997
 1443SOL     OW15964   0.517   1.944   2.505  0.2029  0.4313  0.3467
 1443SOL    HW115965   0.539   2.035   2.484 -0.3925  0.0918 -1.7027
 1443SOL    HW215966   0.498   1.907   2.419 -0.4752  1.4827  0.0466
 1444SOL     OW15967   0.657   3.803  10.687  0.9345 -0.0005 -0.2626
 1444SOL    HW115968   0.613   3.750  10.620  1.3208 -1.7079  0.8366
 1444SOL    HW215969   0.599   3.879  10.680  0.3509 -0.5194 -1.1078
 1445SOL     OW15970   0.125   2.215   3.839  0.2674  0.2353  0.0073
 1445SOL    HW115971   0.163   2.295   3.803  1.0373 -0.4418 -0.6898
 1445SOL    HW215972   0.162   2.224   3.926  0.2089 -1.9862  0.2585
 1446SOL     OW15973   2.082   4.723   4.503 -0.0069 -0.2311 -0.8292
 1446SOL    HW115974   2.166   4.713   4.547 -0.0164 -2.1458 -1.2592
 1446SOL    HW215975   2.072   0.081   4.519 -0.3712 -0.4789  0.3791
 1447SOL     OW15976   2.653   1.473  10.850  0.1232  0.3916  0.3284
 1447SOL    HW115977   2.676   1.562  10.876 -1.0295  0.6163  0.5786
 1447SOL    HW215978   2.706   1.419  10.907  0.4926 -0.2929 -0.6665
 1448SOL     OW15979   3.424   2.548   5.187  0.0029 -0.3876  0.1367
 1448SOL    HW115980   3.438   2.561   5.280 -2.3163  0.5311  0.3243
 1448SOL    HW215981   3.463   2.630   5.157  2.5040 -0.7537  2.3742
 1449SOL     OW15982   4.277   3.799   2.741  0.4913 -0.5974 -0.1064
 1449SOL    HW115983   4.345   3.861   2.767 -0.5213  0.0203  1.0682
 1449SOL    HW215984   4.283   3.723   2.799 -1.4866  0.5762  1.6271
 1450SOL     OW15985   1.761   3.411   6.336 -0.2504  0.2272  0.0735
 1450SOL    HW115986   1.745   3.409   6.430  0.9912  0.5666  0.2903
 1450SOL    HW215987   1.845   3.370   6.315 -1.8697 -2.6747 -0.5943
 1451SOL     OW15988   4.134   1.830   8.803  0.5480 -0.4577  0.1438
 1451SOL    HW115989   4.179   1.845   8.719 -0.6975  1.0296 -0.2425
 1451SOL    HW215990   4.196   1.871   8.862  0.6756  0.2055 -0.4499
 1452SOL     OW15991   0.479   3.596  14.928  0.3156 -0.2739  0.1728
 1452SOL    HW115992   0.532   3.529  14.972  0.3602 -1.4188 -1.6368
 1452SOL    HW215993   0.392   3.560  14.909  1.0914 -1.1429 -1.7007
 1453SOL     OW15994   2.772   2.045  14.211 -0.2602  0.8314 -0.2529
 1453SOL    HW115995   2.840   1.984  14.238 -0.1362  1.6479  1.2277
 1453SOL    HW215996   2.793   2.114  14.274  0.4162  1.3340 -1.0256
 1454SOL     OW15997   0.464   3.618  15.228 -0.4323  0.2869  0.8978
 1454SOL    HW115998   0.464   3.656  15.140 -0.5251  2.1485  1.6967
 1454SOL    HW215999   0.420   3.535  15.209  0.4803 -0.2223  1.0270
 1455SOL     OW16000   0.559   0.637   7.118 -0.6794 -0.2862 -0.1898
 1455SOL    HW116001   0.542   0.575   7.189  0.7567 -0.2508  0.1866
 1455SOL    HW216002   0.591   0.572   7.056 -2.1857 -1.6239  0.4377
 1456SOL     OW16003   3.056   2.997   6.532  0.5552 -0.2727 -0.8119
 1456SOL    HW116004   3.059   2.909   6.494 -0.6494 -0.0208 -1.4731
 1456SOL    HW216005   3.149   3.019   6.540  0.4865  0.1010 -1.0692
 1457SOL     OW16006   4.197   2.459   6.742 -0.4248 -0.0980  0.3499
 1457SOL    HW116007   4.182   2.511   6.821  0.3640 -0.2293  0.5841
 1457SOL    HW216008   4.293   2.460   6.749 -0.1638 -1.2594 -2.6161
 1458SOL     OW16009   0.627   2.051   3.753  0.1007 -0.1688  0.5953
 1458SOL    HW116010   0.641   1.981   3.817 -0.1916 -0.2379  0.5849
 1458SOL    HW216011   0.704   2.108   3.762  0.7371 -1.0909  1.0636
 1459SOL     OW16012   1.969   0.647  14.960  0.6040 -0.4759  0.0634
 1459SOL    HW116013   1.945   0.712  15.026 -0.9593  0.3563 -1.3203
 1459SOL    HW216014   2.059   0.623  14.982  0.2665  0.8124  2.8401
 1460SOL     OW16015   3.448   0.582   9.469  0.1211  0.1587 -0.1700
 1460SOL    HW116016   3.402   0.507   9.507  0.6259  0.0629  0.2439
 1460SOL    HW216017   3.388   0.655   9.481 -0.8426 -0.8105  0.8791
 1461SOL     OW16018   3.524   1.708   6.252  0.1304 -0.7305  0.2367
 1461SOL    HW116019   3.501   1.642   6.318  0.6593 -2.2117 -1.0606
 1461SOL    HW216020   3.471   1.781   6.284 -0.1017 -0.3395 -1.0258
 1462SOL     OW16021   1.345   3.940   8.677 -0.1725 -0.3060  0.5304
 1462SOL    HW116022   1.304   4.017   8.638 -1.6014 -2.2243 -1.7049
 1462SOL    HW216023   1.404   3.982   8.741 -1.1412  0.2348  1.0673
 1463SOL     OW16024   2.170   3.138   7.540  0.0590  0.1270  0.3563
 1463SOL    HW116025   2.247   3.096   7.502  0.3995  0.8336  0.2728
 1463SOL    HW216026   2.099   3.102   7.486  0.3196  1.4591 -0.8729
 1464SOL     OW16027   2.888   1.908   4.706  0.1793 -0.3297 -0.3313
 1464SOL    HW116028   2.814   1.959   4.740  0.4347 -0.6429  0.7063
 1464SOL    HW216029   2.875   1.917   4.612  0.5481  0.4625 -0.3031
 1465SOL     OW16030   1.087   1.840  10.697  0.0837 -0.3729 -0.7814
 1465SOL    HW116031   1.140   1.778  10.747  2.1209  2.2450  0.3436
 1465SOL    HW216032   1.124   1.849  10.609 -0.2738  1.4503 -0.7415
 1466SOL     OW16033   1.740   3.838   8.626 -1.2779  0.1307  0.6215
 1466SOL    HW116034   1.730   3.744   8.646  0.5726  0.1674  1.6980
 1466SOL    HW216035   1.777   3.860   8.712 -0.1997  0.9238 -0.0638
 1467SOL     OW16036   3.250   2.025  11.422  0.2775 -0.0809 -0.0843
 1467SOL    HW116037   3.294   2.099  11.464 -1.0005  0.9640 -0.6021
 1467SOL    HW216038   3.164   2.067  11.428  0.4876  0.8373 -3.1985
 1468SOL     OW16039   2.790   4.140   6.812  0.5445  0.3212  0.1140
 1468SOL    HW116040   2.712   4.086   6.804  0.6260  0.2801 -0.4179
 1468SOL    HW216041   2.830   4.105   6.732 -1.8540 -2.5587  0.1785
 1469SOL     OW16042   1.717   3.489   2.541  0.0757  0.2576  0.4804
 1469SOL    HW116043   1.640   3.532   2.506 -0.0880 -0.3772  0.0548
 1469SOL    HW216044   1.761   3.566   2.578 -0.5772  0.3222  1.1054
 1470SOL     OW16045   1.824   0.427   9.855  0.0990 -0.1933  0.1226
 1470SOL    HW116046   1.790   0.365   9.920  1.5336  1.2499  2.2619
 1470SOL    HW216047   1.902   0.382   9.822  0.2953 -1.2677  2.0492
 1471SOL     OW16048   2.093   0.847   9.742 -0.2749  0.1340 -0.4449
 1471SOL    HW116049   2.080   0.758   9.774 -2.1599  0.3390 -0.6613
 1471SOL    HW216050   2.171   0.825   9.691  1.3139  1.5735  1.3653
 1472SOL     OW16051   1.291   0.680   5.528 -0.1114  0.1306 -0.1954
 1472SOL    HW116052   1.231   0.751   5.550  1.1262  0.2970  2.7196
 1472SOL    HW216053   1.252   0.600   5.563 -0.7171  0.5928  0.1886
 1473SOL     OW16054   2.430   4.472   6.693 -0.4502 -0.3597  0.1104
 1473SOL    HW116055   2.465   4.472   6.604 -0.4053  0.1618  0.1267
 1473SOL    HW216056   2.508   4.439   6.737  0.1063  0.8401  0.0433
 1474SOL     OW16057   0.623   3.246   8.931  0.2178 -0.1270  0.1026
 1474SOL    HW116058   0.719   3.236   8.935  0.2069  1.0677  2.8810
 1474SOL    HW216059   0.622   3.270   8.838 -0.8485 -1.0393 -0.1164
 1475SOL     OW16060   0.421   4.555  14.066  0.7561  0.4457  0.3191
 1475SOL    HW116061   0.514   4.576  14.071  0.7704  0.2660  0.7966
 1475SOL    HW216062   0.426   4.473  14.017 -0.5117  0.1360  0.6963
 1476SOL     OW16063   0.183   2.000  16.385 -0.5282 -0.3717  0.3880
 1476SOL    HW116064   0.168   2.003  16.291 -2.9189 -0.3295  0.7724
 1476SOL    HW216065   0.205   1.909  16.402  3.7025  0.6671  0.5130
 1477SOL     OW16066   2.471   3.005   0.549  0.3456 -0.7836 -0.0496
 1477SOL    HW116067   2.538   3.074   0.549  1.1129 -1.5335  0.3041
 1477SOL    HW216068   2.462   2.995   0.454  0.7398  1.8015 -0.3638
 1478SOL     OW16069   1.539   2.905  17.250  0.0769  0.0877  0.1149
 1478SOL    HW116070   1.474   2.955  17.200  1.2517  0.6610 -0.8518
 1478SOL    HW216071   1.615   2.939  17.203 -0.4176  1.5144  0.3499
 1479SOL     OW16072   1.834   2.954   3.585  0.1193 -0.2427 -0.5959
 1479SOL    HW116073   1.746   2.939   3.552  0.0071 -0.2263 -0.3029
 1479SOL    HW216074   1.833   3.049   3.596 -3.1758 -0.0987 -2.0809
 1480SOL     OW16075   1.240   0.601   2.226 -0.1281 -0.5786 -0.0532
 1480SOL    HW116076   1.315   0.556   2.264 -0.2881 -0.6176  0.2146
 1480SOL    HW216077   1.193   0.637   2.301 -0.1066 -0.7524  0.0429
 1481SOL     OW16078   3.714   2.683   4.394  0.6711  0.0048  0.6686
 1481SOL    HW116079   3.657   2.709   4.322  2.9004  0.7140 -0.8054
 1481SOL    HW216080   3.777   2.755   4.394  0.9317 -0.2276 -1.0010
 1482SOL     OW16081   1.298   0.142   3.839 -0.4347 -0.1685  0.5357
 1482SOL    HW116082   1.311   0.236   3.850 -1.2334 -0.1937  1.6941
 1482SOL    HW216083   1.386   0.112   3.864 -0.4122 -0.3998  0.1835
 1483SOL     OW16084   4.244   4.465   8.792  0.0934  0.0813 -0.2949
 1483SOL    HW116085   4.257   4.471   8.887  0.0543  0.1005 -0.2909
 1483SOL    HW216086   4.198   4.547   8.777  0.5806  1.0165  3.2853
 1484SOL     OW16087   1.342   1.977   4.810 -0.8168  0.3412 -0.3082
 1484SOL    HW116088   1.278   1.936   4.752 -1.0621  0.0187  0.1862
 1484SOL    HW216089   1.406   1.906   4.818 -0.0186  1.1564  0.5411
 1485SOL     OW16090   3.299   3.787  15.200  0.1216  0.1941  0.4359
 1485SOL    HW116091   3.210   3.805  15.168  0.4236  0.6827 -0.1319
 1485SOL    HW216092   3.294   3.802  15.295 -0.3549 -1.7651  0.7150
 1486SOL     OW16093   3.070   0.534   4.146  0.1984  0.2106  0.3342
 1486SOL    HW116094   3.021   0.615   4.133  2.6767  1.9208  1.6815
 1486SOL    HW216095   3.124   0.548   4.068  1.5625  2.1028  1.6104
 1487SOL     OW16096   4.127   2.818   2.382 -0.1876 -0.5381  0.8874
 1487SOL    HW116097   4.161   2.762   2.452  0.1916 -0.4784  0.7519
 1487SOL    HW216098   4.191   2.796   2.314 -1.9234 -1.4290 -0.4563
 1488SOL     OW16099   3.064   1.713  11.006  0.2862  0.0980  0.1968
 1488SOL    HW116100   3.059   1.618  10.993 -2.0520  0.3869 -1.0456
 1488SOL    HW216101   3.103   1.709  11.093 -1.2559 -1.2330  0.8290
 1489SOL     OW16102   3.994   2.201  10.968 -0.7196  0.1970 -0.2708
 1489SOL    HW116103   4.003   2.282  11.018  0.7158 -0.0173 -0.2047
 1489SOL    HW216104   3.899   2.205  10.957 -0.9389 -1.2553  1.1900
 1490SOL     OW16105   3.642   4.048   5.727 -0.2987 -0.0358 -0.3286
 1490SOL    HW116106   3.595   4.060   5.809 -1.2469 -0.0454 -0.8781
 1490SOL    HW216107   3.625   3.956   5.708  1.0129 -0.3536  0.0131
 1491SOL     OW16108   0.900   2.575   4.863  0.3670 -0.1556 -0.1049
 1491SOL    HW116109   0.876   2.506   4.802  0.3404 -0.2814  0.0492
 1491SOL    HW216110   0.944   2.526   4.932 -1.0295 -0.2957  0.6842
 1492SOL     OW16111   3.061   3.104   8.950 -0.1958 -0.5505 -0.5540
 1492SOL    HW116112   3.047   3.186   8.903 -0.5983 -0.3068 -0.0092
 1492SOL    HW216113   3.013   3.106   9.033 -0.1957  0.7431 -0.5926
 1493SOL     OW16114   4.176   4.733   3.107 -0.0539  0.9142 -0.1856
 1493SOL    HW116115   4.224   4.708   3.186  0.3278  0.8787 -0.4316
 1493SOL    HW216116   4.091   4.729   3.152 -0.5079  0.2995 -1.0986
 1494SOL     OW16117   1.742   3.344   3.293 -0.4232  0.1802  0.1554
 1494SOL    HW116118   1.658   3.370   3.256 -0.2908  3.3939  2.1219
 1494SOL    HW216119   1.808   3.327   3.226 -1.1499 -0.7064 -0.3357
 1495SOL     OW16120   3.565   1.489  10.174  0.3316 -0.1036 -0.0898
 1495SOL    HW116121   3.500   1.430  10.136 -0.8693  1.0972  0.1252
 1495SOL    HW216122   3.531   1.576  10.155  0.4905 -0.2501 -1.0704
 1496SOL     OW16123   1.018   2.760   2.079  0.4900  0.5198  0.2025
 1496SOL    HW116124   0.973   2.729   2.157 -0.3816 -1.0724 -0.9293
 1496SOL    HW216125   1.006   2.689   2.015 -0.8772 -1.1581  2.3426
 1497SOL     OW16126   4.365   3.863   7.453 -0.0549 -0.2414  0.5575
 1497SOL    HW116127   4.353   3.814   7.535 -1.5004  2.5222  2.0132
 1497SOL    HW216128   4.276   3.888   7.429  0.5093  0.8963 -0.3574
 1498SOL     OW16129   3.320   4.723   6.636  0.7413  0.4919  0.5188
 1498SOL    HW116130   3.369   4.702   6.715  1.6999  0.8856  0.0298
 1498SOL    HW216131   3.237   0.015   6.673  1.6422  2.2327  1.1920
 1499SOL     OW16132   2.999   0.596   7.534  0.0740 -0.3120 -0.1906
 1499SOL    HW116133   2.964   0.684   7.546 -1.5195 -0.8972 -0.4599
 1499SOL    HW216134   2.919   0.544   7.527  1.8689 -3.1240  0.5105
 1500SOL     OW16135   2.384   4.516  14.072  0.0224  0.4512 -0.2079
 1500SOL    HW116136   2.478   4.525  14.058 -0.0378  0.8483 -0.3791
 1500SOL    HW216137   2.354   4.594  14.025  0.8128  0.1048 -1.2736
 1501SOL     OW16138   1.064   4.615   9.537  0.3734  0.1172 -0.8658
 1501SOL    HW116139   1.108   4.652   9.613 -3.1115  1.0300  0.7200
 1501SOL    HW216140   1.036   4.530   9.570 -1.7944  0.9838 -0.4854
 1502SOL     OW16141   3.137   1.797  14.684  0.6709 -0.1784 -0.0992
 1502SOL    HW116142   3.141   1.758  14.596 -0.4491  0.7689 -0.5852
 1502SOL    HW216143   3.212   1.755  14.724 -0.0045 -0.4780  0.8527
 1503SOL     OW16144   1.029   1.478  10.579 -0.4464 -0.2733  0.5768
 1503SOL    HW116145   0.974   1.554  10.561 -2.0745 -1.3309  1.0252
 1503SOL    HW216146   1.056   1.453  10.491  0.0335  2.4771 -0.0546
 1504SOL     OW16147   1.033   3.113   7.806 -0.5440  0.1031  0.3069
 1504SOL    HW116148   1.034   3.037   7.747  1.0151  0.4155 -0.0701
 1504SOL    HW216149   1.027   3.068   7.890 -1.4882  0.8188  0.6160
 1505SOL     OW16150   3.231   4.266   9.831  0.4236 -0.0967  0.1309
 1505SOL    HW116151   3.181   4.254   9.912  0.0105  1.3354  0.0996
 1505SOL    HW216152   3.158   4.266   9.769 -1.2752 -2.9508  2.1200
 1506SOL     OW16153   3.532   2.308   4.656 -0.0692  0.1185  0.0637
 1506SOL    HW116154   3.597   2.315   4.725  1.1546 -1.5005 -0.9269
 1506SOL    HW216155   3.572   2.249   4.592 -2.6739 -1.4515 -0.1354
 1507SOL     OW16156   2.845   2.334  13.341 -0.0356  0.8128 -0.0339
 1507SOL    HW116157   2.802   2.248  13.340 -1.7350  1.6341  1.8637
 1507SOL    HW216158   2.779   2.390  13.300 -1.6538 -0.9454  0.1233
 1508SOL     OW16159   2.054   0.571  16.145  0.3634 -0.1267  0.5499
 1508SOL    HW116160   1.983   0.631  16.166 -0.8998 -2.4269  2.8107
 1508SOL    HW216161   2.125   0.593  16.206  2.0596 -0.0549 -1.4244
 1509SOL     OW16162   4.091   3.641   6.315  0.6921 -0.0008  0.9877
 1509SOL    HW116163   4.002   3.667   6.290  0.1024 -0.8478  2.2289
 1509SOL    HW216164   4.122   3.709   6.375  1.1266 -0.4236  1.2392
 1510SOL     OW16165   3.236   0.169   4.853  0.2996 -0.0978  0.3772
 1510SOL    HW116166   3.141   0.168   4.847  0.4865  0.7594 -2.4137
 1510SOL    HW216167   3.256   0.082   4.818 -0.4984 -1.0758  2.3554
 1511SOL     OW16168   3.381   0.158   5.805  0.2260 -0.0477  0.0601
 1511SOL    HW116169   3.421   0.182   5.721 -2.2757 -0.0237 -1.1103
 1511SOL    HW216170   3.461   0.157   5.858 -1.1407  2.6448  2.1636
 1512SOL     OW16171   1.758   0.361  14.994 -0.2428 -0.7101  0.0240
 1512SOL    HW116172   1.822   0.331  15.057 -1.5885 -0.2011  1.6274
 1512SOL    HW216173   1.811   0.393  14.921  1.5222 -1.1019  1.1474
 1513SOL     OW16174   0.801   0.892   6.765 -0.7893  0.0494  0.1889
 1513SOL    HW116175   0.808   0.804   6.803  0.6235 -0.7297 -1.8800
 1513SOL    HW216176   0.825   0.879   6.673  0.7766 -1.0702  0.7625
 1514SOL     OW16177   3.550   1.027   8.912  0.3803  0.4718 -0.7471
 1514SOL    HW116178   3.605   0.979   8.974  2.7367  0.1498 -3.0256
 1514SOL    HW216179   3.580   1.118   8.923 -0.2952  0.7446 -1.1386
 1515SOL     OW16180   2.828   1.769   5.804  0.0254  0.2133  0.0944
 1515SOL    HW116181   2.773   1.703   5.762  0.6496  1.0352 -2.0174
 1515SOL    HW216182   2.905   1.714   5.822  1.5165  2.6854  1.3016
 1516SOL     OW16183   2.557   2.349   0.054  0.4856 -0.2475 -0.3978
 1516SOL    HW116184   2.531   2.440   0.070 -1.4996 -0.3880 -2.7597
 1516SOL    HW216185   2.572   2.305   0.138 -2.6911 -1.9113 -0.6966
 1517SOL     OW16186   4.685   4.480  10.741  0.4876 -0.2385  0.1631
 1517SOL    HW116187   4.675   4.569  10.707  0.0087 -0.0689  0.7370
 1517SOL    HW216188   4.602   4.460  10.786 -0.6868  1.7914 -1.0997
 1518SOL     OW16189   3.868   1.382  17.179 -0.2843 -0.3491  0.3085
 1518SOL    HW116190   3.931   1.454  17.166  1.4239 -1.9804 -0.4560
 1518SOL    HW216191   3.873   1.363  17.272 -1.2164  1.0140  0.6302
 1519SOL     OW16192   3.049   4.009   5.564  0.3379  0.0974 -0.8911
 1519SOL    HW116193   3.060   4.062   5.643  0.6198  0.8908 -1.4558
 1519SOL    HW216194   3.079   3.929   5.606  1.6684 -1.0447 -4.0229
 1520SOL     OW16195   3.361   0.592   5.077  0.1898 -0.4518  0.2864
 1520SOL    HW116196   3.389   0.658   5.014 -0.4398  0.2457  0.7403
 1520SOL    HW216197   3.372   0.507   5.033  0.5474 -0.0008 -0.4893
 1521SOL     OW16198   4.438   0.589   7.538 -0.0031  0.1817  0.2262
 1521SOL    HW116199   4.420   0.633   7.455 -1.0593  0.6175  0.6755
 1521SOL    HW216200   4.388   0.654   7.588  1.3997  0.2659  1.5262
 1522SOL     OW16201   2.461   1.972  12.260 -0.4583 -0.3920  0.1139
 1522SOL    HW116202   2.431   2.034  12.327 -0.9847  0.0187 -0.5035
 1522SOL    HW216203   2.456   1.889  12.308 -2.9230  0.9920  2.2857
 1523SOL     OW16204   1.667   1.650   7.254  0.4793  0.0321 -0.7106
 1523SOL    HW116205   1.727   1.720   7.278  0.6626  0.3274 -2.0211
 1523SOL    HW216206   1.622   1.615   7.331  1.1803 -0.2641 -0.4355
 1524SOL     OW16207   2.215   4.505   7.713 -0.4144 -0.0486 -0.2426
 1524SOL    HW116208   2.165   4.586   7.721 -2.0700 -1.1597  0.6362
 1524SOL    HW216209   2.159   4.433   7.742 -1.4022  0.2505 -1.4339
 1525SOL     OW16210   1.355   4.378   8.812 -0.2288 -0.0468  0.0789
 1525SOL    HW116211   1.376   4.431   8.889 -1.4121  0.4769  0.0467
 1525SOL    HW216212   1.357   4.293   8.856  0.1675 -0.3102 -0.4556
 1526SOL     OW16213   3.530   1.940   5.871  0.1068  0.2868  0.2919
 1526SOL    HW116214   3.516   1.975   5.783 -0.2064 -0.7843 -0.0843
 1526SOL    HW216215   3.464   1.987   5.922 -1.8146 -1.6582 -0.3778
 1527SOL     OW16216   3.630   0.731   2.707  0.7413 -0.3702  0.3937
 1527SOL    HW116217   3.681   0.724   2.626  0.9811 -0.7569  0.5799
 1527SOL    HW216218   3.559   0.791   2.682  0.1870 -1.5037 -0.7222
 1528SOL     OW16219   1.770   0.109   2.507  0.1092 -0.3504  0.0889
 1528SOL    HW116220   1.853   0.077   2.473  1.2833  2.0925  0.6897
 1528SOL    HW216221   1.791   0.188   2.557  0.0926 -0.4561  0.2636
 1529SOL     OW16222   2.740   3.675  10.179  0.1183  0.0154 -0.2274
 1529SOL    HW116223   2.746   3.625  10.261  1.6169 -1.0722 -0.9954
 1529SOL    HW216224   2.711   3.760  10.212  2.6649  0.9493 -0.3511
 1530SOL     OW16225   1.576   4.322   7.716  0.0373  0.1563 -0.2889
 1530SOL    HW116226   1.636   4.262   7.672  0.4488  0.0541  0.4191
 1530SOL    HW216227   1.543   4.257   7.777  0.0201  1.9008  1.5545
 1531SOL     OW16228   3.965   4.070   4.045 -0.0039  0.0824  0.0549
 1531SOL    HW116229   3.906   4.136   4.080  0.5961  0.3424  0.5733
 1531SOL    HW216230   3.901   4.043   3.980  0.4022  1.3851 -0.9008
 1532SOL     OW16231   4.494   1.950  17.166 -0.0321  0.2425  0.6071
 1532SOL    HW116232   4.550   1.953  17.088 -1.4859 -1.2730 -0.4843
 1532SOL    HW216233   4.457   1.863  17.155  0.7928 -0.0267 -0.0518
 1533SOL     OW16234   0.704   4.113  14.812 -0.1474 -0.2077 -0.2097
 1533SOL    HW116235   0.632   4.175  14.799 -1.1517 -1.3425 -0.0605
 1533SOL    HW216236   0.659   4.029  14.805 -0.0930 -0.3190  0.7847
 1534SOL     OW16237   2.142   0.400  10.402 -0.0112 -0.4186  0.0604
 1534SOL    HW116238   2.072   0.452  10.440  2.7685  1.3790  2.7149
 1534SOL    HW216239   2.149   0.321  10.457 -0.9450  0.0480  0.8501
 1535SOL     OW16240   0.713   0.897  17.260 -0.1000  0.5590  0.0022
 1535SOL    HW116241   0.686   0.977  17.304 -1.1767  0.5090 -0.5929
 1535SOL    HW216242   0.634   0.851  17.287 -1.5805  3.0907 -0.1328
 1536SOL     OW16243   1.366   0.582   0.395 -0.7745 -0.5910 -0.5437
 1536SOL    HW116244   1.305   0.522   0.439  0.1972 -2.1989 -1.4186
 1536SOL    HW216245   1.381   0.557   0.304 -0.5927 -0.0506 -0.6614
 1537SOL     OW16246   2.078   0.157   5.268 -0.3530 -0.0279 -0.3348
 1537SOL    HW116247   2.039   0.090   5.212 -2.2287 -0.0106  0.9527
 1537SOL    HW216248   2.168   0.130   5.282 -0.7347 -1.2457 -0.2824
 1538SOL     OW16249   3.352   2.458  11.836  0.5433  0.3940  0.2668
 1538SOL    HW116250   3.350   2.524  11.906  2.7359  0.4404  0.2897
 1538SOL    HW216251   3.266   2.416  11.834  1.5655 -1.6394 -0.3152
 1539SOL     OW16252   2.895   1.286   5.743 -0.3657  0.0891  0.4039
 1539SOL    HW116253   2.964   1.221   5.761 -0.9814 -0.2788  1.4399
 1539SOL    HW216254   2.913   1.316   5.654 -1.8021 -0.5371 -0.1020
 1540SOL     OW16255   2.052   1.512   5.733  0.0601  0.2476  0.3098
 1540SOL    HW116256   1.978   1.480   5.682  0.7930  0.2612 -0.7732
 1540SOL    HW216257   2.074   1.435   5.785 -0.5873  0.3078  0.6722
 1541SOL     OW16258   1.386   3.297   5.231 -0.3061  0.3607  0.1494
 1541SOL    HW116259   1.376   3.212   5.187 -1.4487  0.1828  0.7412
 1541SOL    HW216260   1.474   3.320   5.203 -0.0891  0.0849  0.5973
 1542SOL     OW16261   3.337   1.335   0.434  0.5623 -0.4063  0.0507
 1542SOL    HW116262   3.287   1.291   0.502  0.7021 -0.1150  0.3398
 1542SOL    HW216263   3.300   1.423   0.433  1.4190 -0.0273  2.2659
 1543SOL     OW16264   2.838   1.944   5.084 -0.3434 -0.1281  0.1293
 1543SOL    HW116265   2.887   1.862   5.080 -0.7307 -0.4876  2.5994
 1543SOL    HW216266   2.885   1.986   5.156 -2.4817  2.9824 -0.3156
 1544SOL     OW16267   4.185   1.348  15.754 -0.9273 -0.1599 -0.0040
 1544SOL    HW116268   4.179   1.328  15.848 -1.5184 -2.7470 -0.5917
 1544SOL    HW216269   4.277   1.366  15.733 -0.6352 -2.7701 -0.9954
 1545SOL     OW16270   2.143   2.759  13.148  0.1208  0.1653  0.2424
 1545SOL    HW116271   2.123   2.706  13.225 -0.4261  1.2187  0.8284
 1545SOL    HW216272   2.222   2.805  13.177  0.0604 -0.0078  0.6690
 1546SOL     OW16273   4.181   1.573   6.553 -0.0236 -0.1399 -0.0142
 1546SOL    HW116274   4.162   1.654   6.601  0.5661  0.2471 -0.4290
 1546SOL    HW216275   4.165   1.606   6.464  0.1637 -1.3599 -0.5005
 1547SOL     OW16276   3.666   1.976   5.526 -0.0598 -0.3135  0.2720
 1547SOL    HW116277   3.692   2.052   5.474  0.4442 -2.2281 -2.2710
 1547SOL    HW216278   3.597   2.009   5.583  0.1575  1.0555 -0.2439
 1548SOL     OW16279   4.130   1.651   7.788  0.0466 -0.0770 -0.4918
 1548SOL    HW116280   4.120   1.561   7.756  0.5711 -0.9212  1.7229
 1548SOL    HW216281   4.203   1.669   7.728 -0.0068 -0.3236 -0.6317
 1549SOL     OW16282   3.456   3.368   2.269 -0.2930  0.5063  0.3850
 1549SOL    HW116283   3.393   3.399   2.334 -2.2699 -0.6949 -0.9647
 1549SOL    HW216284   3.410   3.381   2.187  2.1276 -0.6378 -1.1668
 1550SOL     OW16285   2.681   0.412   3.549 -0.2254 -0.1081 -0.5262
 1550SOL    HW116286   2.711   0.423   3.459  3.0376 -1.6101  0.3780
 1550SOL    HW216287   2.618   0.484   3.558 -1.4509 -1.3697  0.8162
 1551SOL     OW16288   3.985   3.997   5.970 -0.3950  0.0790 -0.0110
 1551SOL    HW116289   3.946   4.023   6.054  2.0266 -2.2557  1.8851
 1551SOL    HW216290   4.002   4.079   5.924  0.9741 -0.9514 -1.3536
 1552SOL     OW16291   1.721   0.098   8.377 -0.6276 -0.4646 -0.4401
 1552SOL    HW116292   1.681   0.184   8.363  1.5199  0.6295  0.1379
 1552SOL    HW216293   1.678   0.043   8.312 -1.6496 -0.2416  0.0378
 1553SOL     OW16294   3.589   2.514   4.940 -0.3775 -0.2004 -0.3400
 1553SOL    HW116295   3.523   2.516   4.870 -0.0906 -1.3403 -0.6394
 1553SOL    HW216296   3.650   2.451   4.901  1.0773  0.7143  0.4346
 1554SOL     OW16297   3.785   1.902   9.558  0.1867  0.5074 -0.1966
 1554SOL    HW116298   3.753   1.922   9.470 -0.8118  1.7120  0.4524
 1554SOL    HW216299   3.867   1.858   9.533  0.5975  1.2551 -0.1536
 1555SOL     OW16300   0.480   0.438   7.298 -0.3240  0.3961  0.0544
 1555SOL    HW116301   0.564   0.408   7.333 -1.0417 -1.5398  0.0958
 1555SOL    HW216302   0.454   0.350   7.270  3.0254 -0.5249 -0.2210
 1556SOL     OW16303   4.344   0.491   9.356  0.4773 -0.7763  0.3069
 1556SOL    HW116304   4.326   0.451   9.442 -1.1251 -0.7788 -0.0394
 1556SOL    HW216305   4.425   0.448   9.328 -1.3787 -3.1159 -1.3777
 1557SOL     OW16306   2.121   1.603   7.603 -0.0529 -0.5447 -0.5281
 1557SOL    HW116307   2.173   1.593   7.523 -0.7300 -2.7586 -0.7159
 1557SOL    HW216308   2.134   1.512   7.630  1.1987  0.0144  0.7633
 1558SOL     OW16309   1.086   3.023   2.169  0.3583 -0.0926 -0.1358
 1558SOL    HW116310   1.074   3.017   2.263  1.5493  0.1785  0.0281
 1558SOL    HW216311   1.051   2.939   2.139  0.1642  0.8555 -2.5995
 1559SOL     OW16312   1.645   1.159   9.900 -0.1838 -0.0912 -0.0371
 1559SOL    HW116313   1.722   1.112   9.866 -0.0250 -0.2212  0.5066
 1559SOL    HW216314   1.650   1.129   9.991 -3.6303  0.5776  0.3757
 1560SOL     OW16315   2.578   2.458  12.304  0.1499 -0.0585  0.3207
 1560SOL    HW116316   2.535   2.479  12.221 -1.6020 -0.9835  0.9988
 1560SOL    HW216317   2.612   2.374  12.272 -0.2641  0.2240 -0.8732
 1561SOL     OW16318   3.430   1.595   2.409  0.4619  0.2521  0.2613
 1561SOL    HW116319   3.390   1.533   2.470  1.4669 -0.3744  0.2807
 1561SOL    HW216320   3.438   1.674   2.462 -0.9029  0.8744 -0.4636
 1562SOL     OW16321   3.694   2.674   3.442  0.5020  0.2813 -0.2675
 1562SOL    HW116322   3.603   2.670   3.412  0.7393  0.9413 -1.0732
 1562SOL    HW216323   3.695   2.751   3.499 -1.7569  1.6026 -2.0015
 1563SOL     OW16324   0.194   3.457   6.028 -0.1538 -0.3513  0.2449
 1563SOL    HW116325   0.196   3.494   5.940 -0.2531  0.2088  0.4774
 1563SOL    HW216326   0.279   3.483   6.063 -0.0706  1.1371 -1.0698
 1564SOL     OW16327   1.067   2.057   2.586 -0.1394 -0.1254  0.0719
 1564SOL    HW116328   0.988   2.003   2.584 -0.4335  0.3132 -0.2759
 1564SOL    HW216329   1.031   2.135   2.628 -0.8850 -1.6421  2.2748
 1565SOL     OW16330   0.158   3.201   6.015 -0.0594 -0.0985 -0.4763
 1565SOL    HW116331   0.238   3.181   5.965  0.3237  2.4243 -0.8670
 1565SOL    HW216332   0.175   3.289   6.049 -1.0193 -0.0234 -0.2045
 1566SOL     OW16333   4.075   4.143   7.647 -0.5343  0.3417  0.6709
 1566SOL    HW116334   4.151   4.165   7.594 -0.1058 -1.8068  0.3890
 1566SOL    HW216335   4.062   4.228   7.691  0.7080  0.5138  0.7129
 1567SOL     OW16336   4.000   0.085  14.572 -0.0924 -0.4236  0.5043
 1567SOL    HW116337   3.980   0.156  14.512  0.5341  0.2721  1.1300
 1567SOL    HW216338   3.968   0.009  14.523 -2.1961 -0.2703  1.6660
 1568SOL     OW16339   4.730   4.535   0.581  0.0749  0.0682 -0.1454
 1568SOL    HW116340   0.085   4.566   0.580 -0.1542  0.7070 -1.2311
 1568SOL    HW216341   0.005   4.446   0.550 -1.7388  0.7941 -2.8144
 1569SOL     OW16342   0.926   1.000   6.163  0.0104  0.1237 -0.3889
 1569SOL    HW116343   0.989   1.071   6.158  0.3313 -0.1168  0.3365
 1569SOL    HW216344   0.873   1.049   6.226 -0.6936 -1.7539  0.4972
 1570SOL     OW16345   4.613   3.676   1.421  0.1344  0.7430  0.3953
 1570SOL    HW116346   4.640   3.695   1.330 -0.7923  0.3477  0.0455
 1570SOL    HW216347   4.535   3.622   1.412  0.9859 -0.1724 -1.4515
 1571SOL     OW16348   0.255   3.931   3.009  0.8995 -0.2462  1.0338
 1571SOL    HW116349   0.164   3.940   2.980  1.3973  1.4846 -0.0378
 1571SOL    HW216350   0.303   3.999   2.962 -1.9109  0.8069 -0.3610
 1572SOL     OW16351   1.508   1.144   1.914 -0.3755 -0.1930 -0.2007
 1572SOL    HW116352   1.554   1.061   1.929  0.4584 -0.3869 -3.9212
 1572SOL    HW216353   1.462   1.149   1.998 -2.2903 -2.7791 -1.0642
 1573SOL     OW16354   3.655   4.124   4.318  0.4240 -0.1100 -0.7366
 1573SOL    HW116355   3.738   4.089   4.351  0.2612 -1.4736 -1.7552
 1573SOL    HW216356   3.609   4.044   4.292 -0.8341  0.3765 -0.0346
 1574SOL     OW16357   1.916   2.128   8.351 -0.2645  0.1946  0.1286
 1574SOL    HW116358   1.871   2.044   8.346  0.8221 -0.3569 -0.3539
 1574SOL    HW216359   1.844   2.190   8.358  0.4852  1.1930 -1.1072
 1575SOL     OW16360   0.233   2.929   4.455  0.4544 -0.7775  0.2158
 1575SOL    HW116361   0.159   2.945   4.397  1.2198 -2.7446 -1.2997
 1575SOL    HW216362   0.253   3.015   4.493  0.5047 -1.4796  1.7761
 1576SOL     OW16363   1.932   1.533  16.084  0.6556  0.2129  0.0581
 1576SOL    HW116364   1.854   1.588  16.088 -0.8283 -2.0510  2.4305
 1576SOL    HW216365   1.900   1.469  16.021 -0.6513  1.2804 -0.3635
 1577SOL     OW16366   2.920   3.423   2.281  0.2280 -0.1995 -0.1361
 1577SOL    HW116367   2.894   3.332   2.269  3.6519 -1.1335 -0.5189
 1577SOL    HW216368   2.896   3.447   2.370 -0.9391 -1.5484 -0.0811
 1578SOL     OW16369   0.679   2.295   7.118  0.0771 -0.6453  0.3599
 1578SOL    HW116370   0.599   2.345   7.100 -0.5061 -0.7414  2.6090
 1578SOL    HW216371   0.736   2.331   7.050  0.4688 -1.3160  0.3327
 1579SOL     OW16372   2.016   2.435   6.358  0.3173  0.0405  0.3259
 1579SOL    HW116373   1.935   2.435   6.410 -0.0398  2.1875 -0.2290
 1579SOL    HW216374   2.077   2.424   6.431  4.4049  2.7280 -2.7832
 1580SOL     OW16375   0.695   0.272   9.527 -0.5498 -0.2978 -0.6318
 1580SOL    HW116376   0.757   0.343   9.514  0.4850 -0.7274  1.9160
 1580SOL    HW216377   0.746   0.198   9.561 -1.5782 -1.0570 -0.7271
 1581SOL     OW16378   1.298   0.196   9.365 -0.1043  0.2003  0.5508
 1581SOL    HW116379   1.303   0.276   9.417  1.3509 -0.8158  1.9251
 1581SOL    HW216380   1.344   0.223   9.285 -1.5723  1.0585 -0.0313
 1582SOL     OW16381   2.460   2.284  15.240  0.1069 -0.0267 -0.2038
 1582SOL    HW116382   2.508   2.295  15.157 -1.7439  1.6712 -1.0380
 1582SOL    HW216383   2.533   2.301  15.299 -0.1449 -0.6899  0.2970
 1583SOL     OW16384   3.843   3.573  12.001 -0.3806  0.3209 -0.7207
 1583SOL    HW116385   3.776   3.570  11.933  0.9395 -2.6791 -1.9012
 1583SOL    HW216386   3.901   3.504  11.968 -0.4680  0.4615 -1.1679
 1584SOL     OW16387   2.756   1.406   8.406 -0.3621 -0.1310  0.7522
 1584SOL    HW116388   2.707   1.476   8.362 -0.4039 -0.7000 -0.1067
 1584SOL    HW216389   2.778   1.347   8.334 -4.6072 -2.0350  0.9622
 1585SOL     OW16390   2.740   1.656   9.268  0.2134 -0.0340  0.3809
 1585SOL    HW116391   2.730   1.702   9.352  1.4920  1.1582 -0.1260
 1585SOL    HW216392   2.688   1.577   9.284 -1.4273  1.5647  3.1473
 1586SOL     OW16393   1.683   1.152  12.771  0.1966 -0.5141 -0.0093
 1586SOL    HW116394   1.647   1.134  12.684  0.0833 -0.4531  0.0237
 1586SOL    HW216395   1.610   1.177  12.828  1.2553  2.1536  0.1661
 1587SOL     OW16396   2.000   4.197   3.814 -0.6325 -0.0617  0.0271
 1587SOL    HW116397   1.951   4.118   3.835 -1.6122  0.6534  0.4203
 1587SOL    HW216398   1.964   4.233   3.733  0.5776  3.0617  0.8662
 1588SOL     OW16399   3.282   2.420   2.321  0.4576 -0.1799 -0.0843
 1588SOL    HW116400   3.272   2.454   2.410  0.3286 -0.1678 -0.1030
 1588SOL    HW216401   3.252   2.487   2.259 -2.4403 -1.5964 -0.1805
 1589SOL     OW16402   0.086   0.106  10.407  0.3863  0.1328 -0.1071
 1589SOL    HW116403   0.170   0.149  10.420 -0.1105  0.7119  1.2050
 1589SOL    HW216404   0.034   0.185  10.390  0.2176  0.1909  0.6986
 1590SOL     OW16405   0.578   2.795   5.343  0.3686 -0.1514 -0.2822
 1590SOL    HW116406   0.646   2.860   5.328  2.0107 -1.4768  1.3738
 1590SOL    HW216407   0.572   2.805   5.438  2.2696  0.5419 -0.2296
 1591SOL     OW16408   3.765   3.193   8.683 -0.5833 -1.0852  0.1752
 1591SOL    HW116409   3.673   3.206   8.706 -0.0474  1.6249  0.7764
 1591SOL    HW216410   3.781   3.102   8.659  1.2522 -0.1341 -2.2548
 1592SOL     OW16411   0.429   0.940  12.041 -0.1308 -0.4113  0.2966
 1592SOL    HW116412   0.470   0.854  12.048  1.2788  0.3271  1.1075
 1592SOL    HW216413   0.503   1.001  12.045  0.7059 -1.1491 -4.2611
 1593SOL     OW16414   0.758   2.836   8.012 -0.2105 -0.2352  0.5121
 1593SOL    HW116415   0.710   2.755   7.996  4.2102 -2.9213  0.5697
 1593SOL    HW216416   0.827   2.847   7.946 -0.1875 -2.2088  0.2122
 1594SOL     OW16417   3.991   2.944  13.524 -0.1942  0.0698  0.1455
 1594SOL    HW116418   4.009   2.929  13.616  0.2768 -0.8571 -0.0965
 1594SOL    HW216419   4.010   3.037  13.514  1.3337 -0.4040 -1.4471
 1595SOL     OW16420   3.183   3.758   7.293 -0.3207 -0.0052  0.6901
 1595SOL    HW116421   3.118   3.804   7.240  0.3650 -0.8746 -0.8816
 1595SOL    HW216422   3.262   3.752   7.239  0.6811  1.0199  2.0262
 1596SOL     OW16423   0.143   1.172   1.220  0.5736 -0.5297 -0.1638
 1596SOL    HW116424   0.204   1.226   1.169 -0.2958  0.7267  0.1270
 1596SOL    HW216425   0.142   1.226   1.300  0.6871  0.0154 -0.5256
 1597SOL     OW16426   0.389   0.623   3.638 -0.2331 -0.0653 -0.2571
 1597SOL    HW116427   0.375   0.718   3.643 -0.7476 -0.1061 -1.0681
 1597SOL    HW216428   0.295   0.603   3.635 -0.3036  0.4411 -1.2246
 1598SOL     OW16429   0.258   4.333   7.464 -0.1077  0.2210  0.0421
 1598SOL    HW116430   0.226   4.406   7.517 -1.4361  0.7778 -1.5210
 1598SOL    HW216431   0.249   4.356   7.372  0.2275  0.1245 -0.0170
 1599SOL     OW16432   2.810   3.916   5.837 -0.5897  0.6003  0.0603
 1599SOL    HW116433   2.869   3.911   5.912 -1.0246 -0.2723  0.3519
 1599SOL    HW216434   2.845   3.994   5.796  1.7781 -0.3715  0.2519
 1600SOL     OW16435   1.803   4.073  14.833 -0.2679  0.3971  0.0207
 1600SOL    HW116436   1.738   4.024  14.782 -1.8055  1.9444  0.4873
 1600SOL    HW216437   1.835   4.137  14.769 -1.9475  1.5933  0.3676
 1601SOL     OW16438   0.928   0.839  11.159  0.2809 -0.0237 -0.9973
 1601SOL    HW116439   0.996   0.848  11.226 -0.7012 -2.5175  0.3376
 1601SOL    HW216440   0.867   0.782  11.206  1.5887 -0.1997  0.4869
 1602SOL     OW16441   1.471   0.380   0.163 -0.6453  0.0226  0.1008
 1602SOL    HW116442   1.452   0.340   0.078  2.3438 -0.0174 -0.5348
 1602SOL    HW216443   1.492   0.466   0.126  1.4543 -0.5208  0.0541
 1603SOL     OW16444   0.415   1.938   3.974 -0.3477 -0.1915  0.0576
 1603SOL    HW116445   0.491   1.893   3.937 -1.5842 -1.7529 -0.6463
 1603SOL    HW216446   0.341   1.882   3.948 -0.2217  0.1853 -1.1370
 1604SOL     OW16447   0.651   1.994   7.900  0.2117  0.3260 -0.0317
 1604SOL    HW116448   0.572   2.037   7.931  1.1766  0.6765  1.9634
 1604SOL    HW216449   0.684   1.962   7.984  1.6518  2.1934  0.1057
 1605SOL     OW16450   2.497   0.664   5.698 -0.4870  0.5449  0.1282
 1605SOL    HW116451   2.549   0.739   5.726 -1.0037  1.0639 -0.3031
 1605SOL    HW216452   2.422   0.713   5.664 -0.3005  0.0869 -0.9600
 1606SOL     OW16453   1.584   2.500   4.637 -0.2739  0.3602 -0.3425
 1606SOL    HW116454   1.620   2.574   4.686 -2.0901 -0.8725  2.8035
 1606SOL    HW216455   1.521   2.538   4.576  0.1203  0.8298 -0.4637
 1607SOL     OW16456   2.228   1.079  13.579 -0.2126  0.4605  0.2525
 1607SOL    HW116457   2.160   1.066  13.513 -0.0152 -0.5867  0.2615
 1607SOL    HW216458   2.198   1.167  13.603 -0.7116  0.1007  0.9294
 1608SOL     OW16459   0.901   3.355   0.218  0.7166 -0.4608 -0.4424
 1608SOL    HW116460   0.895   3.338   0.312 -0.3927  0.6131 -0.3222
 1608SOL    HW216461   0.996   3.353   0.207  0.6768  1.0012 -1.1160
 1609SOL     OW16462   0.770   1.787  17.331 -0.6626  0.2216  0.0625
 1609SOL    HW116463   0.694   1.845  17.337  0.2628  1.2157  2.1154
 1609SOL    HW216464   0.743   1.726  17.261 -1.7522  0.4268  0.3068
 1610SOL     OW16465   1.521   3.251   7.661  1.0849  0.0082 -0.1942
 1610SOL    HW116466   1.460   3.324   7.671  1.1539 -0.0450  0.6157
 1610SOL    HW216467   1.603   3.288   7.696  1.8282 -1.7673 -0.0749
 1611SOL     OW16468   2.357   0.854   6.586  0.3106 -0.0725  0.0086
 1611SOL    HW116469   2.363   0.864   6.491 -0.5766 -1.0940 -0.1615
 1611SOL    HW216470   2.445   0.876   6.615  0.7887  0.1329 -1.6016
 1612SOL     OW16471   3.377   2.314   7.154  0.4156  0.5324 -0.0623
 1612SOL    HW116472   3.395   2.229   7.193  1.4360  0.9089  0.2888
 1612SOL    HW216473   3.310   2.303   7.087  1.6361 -2.1911 -0.8362
 1613SOL     OW16474   1.280   1.558   0.456 -0.4453 -0.3614  0.3585
 1613SOL    HW116475   1.232   1.601   0.385  0.1219 -0.2612  0.0426
 1613SOL    HW216476   1.318   1.486   0.406 -1.7210 -0.8498  0.0760
 1614SOL     OW16477   0.839   4.370   4.241  0.1166 -0.3851 -0.3403
 1614SOL    HW116478   0.827   4.430   4.168 -0.9175 -0.6075 -0.3544
 1614SOL    HW216479   0.759   4.318   4.237  1.0229 -1.8414  0.3017
 1615SOL     OW16480   4.067   0.410  11.312  0.1699 -0.0988 -0.6534
 1615SOL    HW116481   4.109   0.495  11.299 -1.8850  0.9585 -0.3404
 1615SOL    HW216482   4.007   0.417  11.237 -0.0401  2.6905 -0.2149
 1616SOL     OW16483   0.247   2.863   6.226  0.2061  0.8561  0.4168
 1616SOL    HW116484   0.281   2.785   6.182 -2.9915 -0.8757  1.0600
 1616SOL    HW216485   0.200   2.825   6.300  3.0213 -1.5476  0.9991
 1617SOL     OW16486   0.567   1.393   4.821  0.2215 -0.0985 -0.1140
 1617SOL    HW116487   0.662   1.403   4.813  0.3100 -0.2137  0.8469
 1617SOL    HW216488   0.552   1.332   4.893 -2.1128  1.3624  0.6162
 1618SOL     OW16489   1.796   0.639   3.276  0.2580 -0.7570 -0.0584
 1618SOL    HW116490   1.831   0.600   3.356  0.1212 -0.1122  0.3072
 1618SOL    HW216491   1.848   0.591   3.211 -0.2563  2.1698 -2.6087
 1619SOL     OW16492   2.270   4.545   5.130 -0.2516  0.2805  0.1630
 1619SOL    HW116493   2.323   4.561   5.209 -0.7183 -0.2708  0.5892
 1619SOL    HW216494   2.183   4.524   5.164  0.3313 -2.3932 -0.0215
 1620SOL     OW16495   4.510   3.396   8.811 -0.1635  0.1894  0.3861
 1620SOL    HW116496   4.472   3.356   8.889 -1.2800  1.8723  0.7207
 1620SOL    HW216497   4.451   3.471   8.800 -2.1918 -1.5243 -0.4685
 1621SOL     OW16498   4.046   0.127   6.408  0.3867 -0.4023  0.1938
 1621SOL    HW116499   4.109   0.097   6.474 -1.8190 -0.7127  2.1966
 1621SOL    HW216500   4.054   0.221   6.394  4.3679 -0.7433  0.3058
 1622SOL     OW16501   0.104   4.423   2.281  0.8315  0.1020 -0.6936
 1622SOL    HW116502   0.073   4.493   2.224  1.1748  1.1460  0.3919
 1622SOL    HW216503   0.112   4.356   2.213  0.0339 -1.6257  0.8995
 1623SOL     OW16504   0.038   0.741   2.525  0.2007 -0.6332  0.2183
 1623SOL    HW116505   0.030   0.700   2.439  0.5774  3.0417 -1.5758
 1623SOL    HW216506   0.127   0.776   2.532 -1.0959  2.4477  1.4978
 1624SOL     OW16507   1.066   1.737  17.738 -0.1371 -0.8198 -0.6644
 1624SOL    HW116508   1.041   1.742   0.086  0.8052  0.0713 -0.4632
 1624SOL    HW216509   0.977   1.763  17.713  0.8204  1.4135 -1.7394
 1625SOL     OW16510   3.872   4.558  17.656 -0.1484  0.3987  0.3854
 1625SOL    HW116511   3.921   4.482  17.687  1.8694  1.9831  1.0021
 1625SOL    HW216512   3.824   4.585  17.735  1.2612 -0.6832  1.6110
 1626SOL     OW16513   0.461   1.562  17.199  0.5501  0.3197 -0.0490
 1626SOL    HW116514   0.462   1.532  17.108 -0.1393  1.5705 -0.4658
 1626SOL    HW216515   0.441   1.655  17.184 -1.6343 -0.2096 -0.4192
 1627SOL     OW16516   3.338   3.687  11.592 -0.6001  0.4051  0.4351
 1627SOL    HW116517   3.308   3.746  11.523 -2.5066  0.0731  0.9836
 1627SOL    HW216518   3.381   3.616  11.545 -0.2638  1.9911 -1.6532
 1628SOL     OW16519   3.148   3.895   2.752  0.5167  0.2015 -0.0014
 1628SOL    HW116520   3.236   3.931   2.752  0.1534  1.1606 -3.2776
 1628SOL    HW216521   3.138   3.885   2.846  0.4908 -0.8032 -0.1098
 1629SOL     OW16522   4.319   2.912   1.145 -0.2592  0.6794  0.0232
 1629SOL    HW116523   4.246   2.852   1.131 -0.4794  0.7486  0.8957
 1629SOL    HW216524   4.382   2.849   1.180 -1.9996  0.4377  2.7055
 1630SOL     OW16525   2.259   1.668   5.377 -0.2023 -0.0107  0.0961
 1630SOL    HW116526   2.336   1.668   5.318 -1.2522 -2.6301 -1.2929
 1630SOL    HW216527   2.191   1.636   5.318 -0.5248  0.2473  0.3263
 1631SOL     OW16528   2.477   2.834  14.776 -0.7169  0.3215  0.4667
 1631SOL    HW116529   2.490   2.793  14.691 -0.2807 -0.9354  1.1372
 1631SOL    HW216530   2.483   2.759  14.835  2.4611  0.4686  0.3212
 1632SOL     OW16531   0.194   3.530   7.720  0.2549 -0.1959 -0.2613
 1632SOL    HW116532   0.108   3.501   7.748 -0.1431  0.9345 -0.3095
 1632SOL    HW216533   0.241   3.500   7.798  0.1421 -1.7133 -0.7884
 1633SOL     OW16534   3.071   0.694  15.447  0.2230 -0.3901 -0.0867
 1633SOL    HW116535   3.003   0.724  15.387 -0.6733 -0.4391  0.9066
 1633SOL    HW216536   3.008   0.641  15.496 -0.3010 -0.1102 -0.4548
 1634SOL     OW16537   0.159   2.334   0.830  0.4922  0.5225 -0.2389
 1634SOL    HW116538   0.223   2.363   0.765  1.0942  2.6498  1.3076
 1634SOL    HW216539   0.202   2.256   0.866  0.8177  0.2638 -1.1918
 1635SOL     OW16540   1.290   4.462   9.728  0.0521  0.4363  0.4436
 1635SOL    HW116541   1.232   4.516   9.782  1.5641  1.7701  0.7598
 1635SOL    HW216542   1.227   4.410   9.679  0.7027 -0.7765  0.9014
 1636SOL     OW16543   3.253   4.010   7.681 -0.1254 -0.3953  0.1559
 1636SOL    HW116544   3.265   3.947   7.753  0.8906 -1.0748 -0.6130
 1636SOL    HW216545   3.177   4.056   7.717  0.5925  1.7987 -1.1274
 1637SOL     OW16546   2.418   3.060   3.807 -0.2864  0.0022 -0.7659
 1637SOL    HW116547   2.463   3.144   3.794 -1.0177  0.5132 -0.0067
 1637SOL    HW216548   2.450   3.041   3.895 -0.7724  1.8665 -0.1749
 1638SOL     OW16549   4.125   2.912   7.479 -0.3955 -0.6321 -0.2992
 1638SOL    HW116550   4.059   2.845   7.459 -1.1247  0.2348 -0.8011
 1638SOL    HW216551   4.187   2.890   7.410  0.2369  1.1292 -0.2980
 1639SOL     OW16552   2.655   0.003   4.429 -0.2961 -0.5672 -0.0088
 1639SOL    HW116553   2.687   4.650   4.443  0.7671 -0.2094 -0.1297
 1639SOL    HW216554   2.722   0.029   4.365  0.1394 -1.6359  0.0056
 1640SOL     OW16555   2.553   3.480   7.945  0.4291 -0.8337 -0.1307
 1640SOL    HW116556   2.574   3.419   7.875  1.5647  1.1065 -1.4881
 1640SOL    HW216557   2.637   3.487   7.992 -0.0867  0.7386  0.5794
 1641SOL     OW16558   3.656   2.234  15.994 -0.1740  0.3563 -0.0286
 1641SOL    HW116559   3.591   2.294  15.958  1.8041  2.9871  0.8057
 1641SOL    HW216560   3.604   2.173  16.047  1.4907 -0.6430  0.4370
 1642SOL     OW16561   1.174   0.418  15.101 -0.3032  0.3502 -0.4623
 1642SOL    HW116562   1.235   0.488  15.077  0.0031  0.6423  1.1933
 1642SOL    HW216563   1.226   0.375  15.169 -0.3351  1.4291  0.2426
 1643SOL     OW16564   4.086   2.770   5.054  0.4838  0.2275  0.2470
 1643SOL    HW116565   4.163   2.724   5.020  0.9222  2.3044 -1.5465
 1643SOL    HW216566   4.012   2.731   5.009  1.5018  0.3723 -1.5434
 1644SOL     OW16567   2.583   1.927   6.590  0.1156 -0.1572 -0.1207
 1644SOL    HW116568   2.651   1.867   6.619  0.5222  1.0174  1.3665
 1644SOL    HW216569   2.623   2.014   6.591  1.6893 -0.8867 -0.1104
 1645SOL     OW16570   2.529   0.711   7.504  0.1794  0.5643  0.1787
 1645SOL    HW116571   2.522   0.731   7.411 -1.0170  1.9528  0.5870
 1645SOL    HW216572   2.479   0.629   7.507 -0.8674  1.2275  0.9107
 1646SOL     OW16573   3.150   3.082   2.387 -0.6816  0.0037  0.0330
 1646SOL    HW116574   3.146   3.119   2.476 -1.4726 -0.2973  0.1222
 1646SOL    HW216575   3.164   2.989   2.401 -0.0772  0.0242 -0.4355
 1647SOL     OW16576   2.608   2.122  16.787 -0.1278  0.0050 -0.4762
 1647SOL    HW116577   2.586   2.107  16.695  0.1495 -2.5890 -0.1340
 1647SOL    HW216578   2.700   2.097  16.789  0.2197  1.3036 -0.3986
 1648SOL     OW16579   1.709   4.417   8.766 -0.2140  0.0387 -0.4853
 1648SOL    HW116580   1.775   4.425   8.836  0.0697 -3.3262 -0.3870
 1648SOL    HW216581   1.702   4.322   8.760 -0.4406 -0.1370  2.5010
 1649SOL     OW16582   0.287   2.198   0.044  0.0182 -0.1123 -0.6583
 1649SOL    HW116583   0.231   2.214  17.712 -3.1947 -0.0499  1.7455
 1649SOL    HW216584   0.257   2.251   0.118  0.8457 -2.0756  1.1142
 1650SOL     OW16585   4.653   3.859   8.425 -0.1355 -0.2617 -0.1392
 1650SOL    HW116586   4.566   3.895   8.411  0.2043 -0.0010 -1.5655
 1650SOL    HW216587   4.649   3.804   8.504 -2.2405  0.0055 -0.0592
 1651SOL     OW16588   1.582   1.097   0.649  1.1709  0.3661 -0.2714
 1651SOL    HW116589   1.614   1.185   0.630 -1.3291  0.5775 -3.4868
 1651SOL    HW216590   1.491   1.103   0.622  1.7178  0.7225 -2.0567
 1652SOL     OW16591   0.249   3.226  13.544  0.1191 -0.3697  0.4343
 1652SOL    HW116592   0.267   3.311  13.584  1.5488  1.5824 -4.3350
 1652SOL    HW216593   0.241   3.168  13.619  0.3061 -0.9983 -0.0295
 1653SOL     OW16594   1.751   0.557   5.455  0.2001 -0.1529 -0.0171
 1653SOL    HW116595   1.783   0.633   5.407 -2.9524  0.3945 -1.3003
 1653SOL    HW216596   1.826   0.533   5.509  0.0108  1.1553  0.8146
 1654SOL     OW16597   2.203   0.213  15.534  0.5486  0.3256  0.2687
 1654SOL    HW116598   2.262   0.202  15.609 -0.1335 -0.7709  0.6431
 1654SOL    HW216599   2.222   0.306  15.520 -1.5211  0.8266  0.7457
 1655SOL     OW16600   1.696   4.622   9.174 -0.4337 -0.2276  0.1449
 1655SOL    HW116601   1.696   4.556   9.106  2.1556 -0.1871  0.0714
 1655SOL    HW216602   1.646   4.571   9.237  0.1734 -1.4225 -0.3488
 1656SOL     OW16603   4.510   1.139   4.854 -0.2093  0.5372  0.2443
 1656SOL    HW116604   4.424   1.134   4.812 -0.1266  1.7243 -0.0443
 1656SOL    HW216605   4.549   1.222   4.827  2.1526 -0.1929  1.4302
 1657SOL     OW16606   3.982   1.559   4.737  0.0397  0.3424 -0.5925
 1657SOL    HW116607   4.068   1.575   4.776  0.0193  0.7776 -0.7219
 1657SOL    HW216608   3.992   1.473   4.696  0.2723 -0.4630  1.1684
 1658SOL     OW16609   1.492   3.204   0.299  0.1274 -0.1248 -0.0918
 1658SOL    HW116610   1.513   3.225   0.391 -1.3720  1.0944 -0.0284
 1658SOL    HW216611   1.428   3.271   0.275 -1.5371 -2.1362 -1.1751
 1659SOL     OW16612   3.883   1.924   2.839  0.5948  0.3429  0.2620
 1659SOL    HW116613   3.899   1.834   2.867 -2.0452 -0.3649 -0.5658
 1659SOL    HW216614   3.943   1.964   2.902 -0.1878  0.4983  0.9081
 1660SOL     OW16615   4.627   4.172   9.992  0.1025 -0.2158  0.4355
 1660SOL    HW116616   4.714   4.201  10.021  0.5631 -1.2134  0.0388
 1660SOL    HW216617   4.589   4.260   9.992  0.0177 -0.2421 -0.9087
 1661SOL     OW16618   3.341   1.298   2.127  0.3613  0.1374  0.0975
 1661SOL    HW116619   3.309   1.229   2.184 -2.3196  1.5303  0.2548
 1661SOL    HW216620   3.399   1.246   2.071  0.3383  0.2602 -0.0435
 1662SOL     OW16621   3.043   2.125  12.095 -0.0628  0.1520  0.1618
 1662SOL    HW116622   3.135   2.142  12.113  0.0735  1.8933 -2.2396
 1662SOL    HW216623   3.038   2.031  12.077  1.1593  0.4125 -1.5548
 1663SOL     OW16624   2.193   0.231   5.570 -0.2035  0.6874  0.1328
 1663SOL    HW116625   2.267   0.243   5.511  0.5412  1.3806  1.2096
 1663SOL    HW216626   2.194   0.136   5.568  2.3077  0.6786  2.9947
 1664SOL     OW16627   0.200   0.640  10.321  0.5660  0.3434  0.0548
 1664SOL    HW116628   0.279   0.615  10.273  0.9340  1.3352  0.1468
 1664SOL    HW216629   0.128   0.623  10.260  0.6431  1.4687 -0.3557
 1665SOL     OW16630   2.316   4.722   3.763  0.1008 -0.1652  0.1699
 1665SOL    HW116631   2.395   0.027   3.797 -0.3609  1.4169 -0.7067
 1665SOL    HW216632   2.356   4.677   3.689  1.3311 -3.0476  2.5581
 1666SOL     OW16633   2.300   0.459  15.851  0.2506  0.2186 -0.0161
 1666SOL    HW116634   2.225   0.427  15.901  0.1712  0.1705 -0.1668
 1666SOL    HW216635   2.314   0.552  15.869 -2.4615  0.9074 -1.5514
 1667SOL     OW16636   1.631   0.352  10.096  0.9550 -0.6876  0.0357
 1667SOL    HW116637   1.718   0.361  10.136  0.7052  3.5533 -0.3899
 1667SOL    HW216638   1.611   0.268  10.138  1.9816  0.0272  1.9759
 1668SOL     OW16639   3.706   2.332  11.729  0.1581 -0.5986 -0.0117
 1668SOL    HW116640   3.739   2.278  11.657  1.4880 -0.6194  0.6091
 1668SOL    HW216641   3.728   2.421  11.702  0.4249 -1.4891 -2.8072
 1669SOL     OW16642   1.390   0.861   2.854  0.2003 -0.3522  1.3087
 1669SOL    HW116643   1.307   0.907   2.866 -0.5757 -1.3425 -0.2623
 1669SOL    HW216644   1.437   0.922   2.798 -3.8603  0.8823 -0.7735
 1670SOL     OW16645   3.458   4.421   5.117  0.2205 -0.2684 -0.3063
 1670SOL    HW116646   3.404   4.371   5.179 -0.7029  0.2566 -0.6912
 1670SOL    HW216647   3.549   4.413   5.147  0.5932  0.8498 -1.1560
 1671SOL     OW16648   2.472   3.759  13.764 -0.2665  0.1010  0.1048
 1671SOL    HW116649   2.472   3.854  13.781 -0.4182 -0.1187  1.3161
 1671SOL    HW216650   2.522   3.722  13.836  1.5527  0.6079 -0.9163
 1672SOL     OW16651   4.365   1.090   1.453 -0.2018 -0.0775  0.1933
 1672SOL    HW116652   4.272   1.083   1.474  0.0583 -1.0878  1.0455
 1672SOL    HW216653   4.358   1.041   1.371  1.1307  2.2981 -1.3397
 1673SOL     OW16654   3.130   4.509  17.679  0.4102 -0.0810  0.1520
 1673SOL    HW116655   3.120   4.600  17.648  1.5356 -0.2897 -0.8271
 1673SOL    HW216656   3.079   4.458  17.616  0.3165  2.9753 -2.2674
 1674SOL     OW16657   0.550   3.978   7.232  0.4507 -0.1055  0.0039
 1674SOL    HW116658   0.522   4.054   7.282  0.7358 -0.9800  1.5015
 1674SOL    HW216659   0.471   3.932   7.204  0.7113 -0.3318 -0.3654
 1675SOL     OW16660   1.675   2.054   6.075 -0.3348 -0.1959  0.3279
 1675SOL    HW116661   1.696   2.082   6.164 -0.7340 -1.8377  0.9401
 1675SOL    HW216662   1.736   1.982   6.059  0.1186  0.4600 -0.8863
 1676SOL     OW16663   2.955   2.000   3.311 -0.1172 -0.1485  0.3891
 1676SOL    HW116664   3.005   2.056   3.251 -0.4707  0.6621  0.8590
 1676SOL    HW216665   2.864   2.027   3.300 -0.5731 -1.4709  0.8142
 1677SOL     OW16666   2.940   3.221  16.948 -0.0626  0.2633  0.1709
 1677SOL    HW116667   2.864   3.260  16.905  1.1083 -0.2484 -2.3907
 1677SOL    HW216668   2.963   3.143  16.897  0.9572  1.1491 -0.7348
 1678SOL     OW16669   0.490   2.708  15.590  0.0244 -0.0883  0.0018
 1678SOL    HW116670   0.410   2.715  15.642 -0.4421  1.1613 -0.8936
 1678SOL    HW216671   0.452   2.721  15.503  2.4205 -0.1669 -1.0632
 1679SOL     OW16672   3.749   1.109  14.320  0.4058  0.3419  0.8040
 1679SOL    HW116673   3.840   1.101  14.349  0.3792  0.8281  1.0285
 1679SOL    HW216674   3.704   1.154  14.391 -0.2855  0.9678 -0.0337
 1680SOL     OW16675   4.167   4.140   6.385  0.0209  0.0338  0.3181
 1680SOL    HW116676   4.227   4.201   6.429 -0.5459  1.4234 -0.8507
 1680SOL    HW216677   4.131   4.191   6.313  2.5211 -0.5803 -1.3440
 1681SOL     OW16678   2.821   3.738   9.082 -0.0870  0.2236 -0.1008
 1681SOL    HW116679   2.786   3.827   9.095 -0.3846  0.0567  0.2456
 1681SOL    HW216680   2.877   3.735   9.160 -0.6953  0.5160  0.3524
 1682SOL     OW16681   3.837   1.185   5.766  0.5769 -0.2380 -0.1276
 1682SOL    HW116682   3.870   1.231   5.689 -0.8833 -0.0784 -0.6493
 1682SOL    HW216683   3.893   1.226   5.832 -0.9264  0.7343  0.5350
 1683SOL     OW16684   4.208   1.412   2.783  0.2706 -0.3762 -0.1751
 1683SOL    HW116685   4.185   1.368   2.701  0.3111  0.5955 -0.7147
 1683SOL    HW216686   4.203   1.501   2.746 -0.6825 -0.4484 -0.2345
 1684SOL     OW16687   4.030   1.915   2.391 -0.3270  0.2825  0.8158
 1684SOL    HW116688   4.044   1.999   2.434  0.7660  0.3683  0.2935
 1684SOL    HW216689   4.119   1.886   2.369  0.2525  0.9909  2.2123
 1685SOL     OW16690   4.068   0.135  12.667 -0.5680  0.0912 -0.6628
 1685SOL    HW116691   4.025   0.172  12.589 -3.5817  0.8405  1.3672
 1685SOL    HW216692   4.146   0.190  12.678  0.4120 -1.5482  0.5378
 1686SOL     OW16693   1.226   4.451   8.330 -0.1081 -0.2023  0.0154
 1686SOL    HW116694   1.232   4.419   8.421 -0.0364  0.6509  0.3093
 1686SOL    HW216695   1.202   4.539   8.357  1.1837  0.6317 -1.5799
 1687SOL     OW16696   4.320   1.405   4.672  0.5894 -0.6430  0.5988
 1687SOL    HW116697   4.298   1.343   4.741 -1.6295 -0.9307 -0.3836
 1687SOL    HW216698   4.288   1.486   4.711  0.4068 -0.1304 -0.5985
 1688SOL     OW16699   3.621   1.838   5.250  0.3345  0.1521 -0.0265
 1688SOL    HW116700   3.561   1.802   5.185 -0.1699 -0.0847  0.5727
 1688SOL    HW216701   3.606   1.932   5.238  0.3648  0.3010  1.0570
 1689SOL     OW16702   1.579   1.954   6.693 -0.1178 -0.2157  0.4410
 1689SOL    HW116703   1.615   1.930   6.608 -0.5935 -0.9359  0.4381
 1689SOL    HW216704   1.504   1.999   6.655  0.8532  0.4486 -0.7043
 1690SOL     OW16705   0.102   4.232   5.186  0.0636  0.3542  0.0103
 1690SOL    HW116706   0.138   4.219   5.098  0.8376  1.5845  0.1429
 1690SOL    HW216707   0.038   4.302   5.177 -0.8931 -0.5139  0.1973
 1691SOL     OW16708   0.637   2.579   5.689 -0.3892 -0.1076 -0.2763
 1691SOL    HW116709   0.585   2.651   5.655 -0.6566 -0.0979  0.1603
 1691SOL    HW216710   0.721   2.592   5.644 -0.7835 -2.3398 -1.6677
 1692SOL     OW16711   1.778   0.953   4.169  0.1909  0.3945 -0.2632
 1692SOL    HW116712   1.715   0.886   4.197  0.9786 -0.6815 -1.0899
 1692SOL    HW216713   1.832   0.903   4.108  0.3478 -0.5461  0.6358
 1693SOL     OW16714   2.414   4.677   5.943  0.0063  0.1213 -0.2642
 1693SOL    HW116715   2.394   0.003   5.874 -1.3078  1.0531  0.9621
 1693SOL    HW216716   2.349   4.609   5.926  1.6265 -0.7983 -2.7817
 1694SOL     OW16717   3.016   4.098   4.344 -0.1330  0.0782 -0.3851
 1694SOL    HW116718   2.944   4.147   4.386  1.1862 -1.3804  3.5872
 1694SOL    HW216719   2.965   4.027   4.305  1.4509 -0.1734 -1.9709
 1695SOL     OW16720   1.007   0.587   1.867  0.4660 -0.6054  0.2745
 1695SOL    HW116721   1.056   0.506   1.852  0.4630 -0.6294  0.3957
 1695SOL    HW216722   1.011   0.590   1.963  1.5422 -1.2266  0.2501
 1696SOL     OW16723   3.350   4.479   0.738  0.0769  0.1379 -0.1694
 1696SOL    HW116724   3.352   4.383   0.736 -0.1754  0.0946  1.4005
 1696SOL    HW216725   3.257   4.493   0.759  0.3363 -0.3693  1.3318
 1697SOL     OW16726   4.316   2.382   2.506 -0.1436  0.5500  0.2000
 1697SOL    HW116727   4.277   2.469   2.506 -0.8076  0.2526  0.3862
 1697SOL    HW216728   4.389   2.393   2.445  0.7725 -1.8670  0.8573
 1698SOL     OW16729   2.096   4.330   6.662  0.5440  0.5317 -0.1908
 1698SOL    HW116730   2.147   4.310   6.741  0.7680 -0.1666 -0.5136
 1698SOL    HW216731   2.032   4.259   6.665  1.2133 -0.1021 -0.9583
 1699SOL     OW16732   3.086   2.527  12.156 -0.0722  0.0260  0.1895
 1699SOL    HW116733   3.066   2.447  12.205  0.9167 -0.7736 -0.7101
 1699SOL    HW216734   2.998   2.564  12.160 -0.2861 -0.4740  0.1288
 1700SOL     OW16735   2.141   2.235   4.792  0.1013  0.1233  0.5720
 1700SOL    HW116736   2.224   2.283   4.788  0.7499 -1.1271 -1.1546
 1700SOL    HW216737   2.123   2.257   4.883 -0.0498 -0.8514  0.7774
 1701SOL     OW16738   1.611   3.872   8.386  0.3765  0.1932  0.0979
 1701SOL    HW116739   1.699   3.849   8.357 -0.1282  0.5674 -1.7768
 1701SOL    HW216740   1.639   3.875   8.477 -2.9755 -1.4392  1.2008
 1702SOL     OW16741   0.994   0.393   5.812 -0.4471 -0.3730 -0.6192
 1702SOL    HW116742   0.922   0.399   5.875 -0.0793 -1.6989 -0.0563
 1702SOL    HW216743   1.058   0.342   5.862  1.1411  1.5205 -0.7033
 1703SOL     OW16744   4.693   4.167   3.409 -0.7261  0.3883  0.2628
 1703SOL    HW116745   0.038   4.153   3.361 -0.7351 -1.4613  0.8187
 1703SOL    HW216746   4.626   4.139   3.347 -1.9544  3.1028  0.3358
 1704SOL     OW16747   0.203   3.274   8.847 -0.5798 -0.3335  0.7919
 1704SOL    HW116748   0.277   3.218   8.873 -1.4142 -1.2830  1.1254
 1704SOL    HW216749   0.146   3.255   8.922 -0.7112 -0.1590  0.7361
 1705SOL     OW16750   1.932   4.352   0.644 -0.0514 -0.0862  0.5913
 1705SOL    HW116751   1.974   4.351   0.730 -0.2422 -0.5155  0.6814
 1705SOL    HW216752   1.913   4.445   0.643  0.9715  0.1284  0.9955
 1706SOL     OW16753   0.171   0.434  12.876  0.7941 -0.3434  0.2047
 1706SOL    HW116754   0.146   0.440  12.968 -0.2299 -3.8810  0.1329
 1706SOL    HW216755   0.205   0.520  12.850 -0.7002  0.7453  1.8012
 1707SOL     OW16756   4.650   3.359   4.050 -0.4890 -0.0988  0.2591
 1707SOL    HW116757   4.559   3.337   4.071 -0.3847 -1.3908 -0.6414
 1707SOL    HW216758   4.628   3.420   3.979 -1.7128  1.7551  2.2356
 1708SOL     OW16759   0.217   1.182   9.108 -0.1131  0.3539 -0.0703
 1708SOL    HW116760   0.266   1.106   9.142 -0.7928 -0.0049  0.1216
 1708SOL    HW216761   0.214   1.238   9.186  0.7993 -0.5666  0.6361
 1709SOL     OW16762   3.808   3.737   6.195  0.2722 -0.0329  0.0808
 1709SOL    HW116763   3.820   3.832   6.197  1.4435 -0.1604 -0.5540
 1709SOL    HW216764   3.754   3.720   6.118 -0.8435 -1.6224  1.2317
 1710SOL     OW16765   3.186   0.284   2.001  0.6230  0.5107 -0.4369
 1710SOL    HW116766   3.207   0.330   1.921 -0.3824 -0.3643 -1.2097
 1710SOL    HW216767   3.093   0.302   2.017  0.4519 -2.1426  1.7568
 1711SOL     OW16768   1.857   4.636  17.262 -0.3090 -0.6539 -0.2405
 1711SOL    HW116769   1.872   4.729  17.279  0.7720 -0.9105  0.2199
 1711SOL    HW216770   1.944   4.597  17.258 -0.5919 -1.4926  2.1915
 1712SOL     OW16771   1.571   3.619   5.953 -0.3445 -0.3661 -0.4638
 1712SOL    HW116772   1.534   3.531   5.959 -2.6090  0.5263 -1.3650
 1712SOL    HW216773   1.496   3.670   5.983 -0.2876  1.5933 -3.6463
 1713SOL     OW16774   3.171   4.246   0.832  0.2827  0.1086 -0.4318
 1713SOL    HW116775   3.201   4.196   0.756  0.3994  0.1424 -0.4079
 1713SOL    HW216776   3.133   4.182   0.892  2.6963  1.3054  2.3870
 1714SOL     OW16777   4.137   1.140   9.881 -0.5613 -0.1179  0.1758
 1714SOL    HW116778   4.095   1.205   9.825  0.6718  2.0246  1.7620
 1714SOL    HW216779   4.186   1.201   9.936  0.2165  0.3672 -1.0781
 1715SOL     OW16780   2.783   3.102   5.015  0.4452  0.0914 -0.0949
 1715SOL    HW116781   2.817   3.169   5.075  0.1721  1.1099 -1.0788
 1715SOL    HW216782   2.764   3.147   4.933 -2.7104  0.1830  0.6757
 1716SOL     OW16783   3.837   0.196   3.050 -0.6416  0.2299 -0.2452
 1716SOL    HW116784   3.793   0.239   2.977  2.9419  2.1173 -1.2843
 1716SOL    HW216785   3.927   0.213   3.021 -0.2569  0.5046  1.1059
 1717SOL     OW16786   3.433   3.437  15.057 -0.1697  0.5283 -0.1064
 1717SOL    HW116787   3.360   3.375  15.054  0.0333  0.4228 -2.5330
 1717SOL    HW216788   3.502   3.376  15.082 -0.5006 -0.4031 -1.4406
 1718SOL     OW16789   1.235   0.626   4.603 -0.0302 -0.6637 -0.7520
 1718SOL    HW116790   1.285   0.566   4.658  1.5947  0.7781 -0.6291
 1718SOL    HW216791   1.216   0.563   4.533 -1.8908 -1.1411  0.1950
 1719SOL     OW16792   3.929   1.364   6.220 -0.4065 -0.1152 -0.1767
 1719SOL    HW116793   3.976   1.427   6.166  0.3340 -0.9660 -0.5235
 1719SOL    HW216794   3.956   1.399   6.305  0.0909  0.8837 -0.7484
 1720SOL     OW16795   3.629   2.048   3.365  0.8011 -0.2935  0.4966
 1720SOL    HW116796   3.724   2.045   3.375  0.7011 -1.5497  1.0379
 1720SOL    HW216797   3.612   2.134   3.404 -0.9514 -0.9510  1.1803
 1721SOL     OW16798   2.799   4.216   4.497  0.3004 -0.4052 -0.1807
 1721SOL    HW116799   2.747   4.136   4.488  0.3188 -0.4707  0.2576
 1721SOL    HW216800   2.865   4.186   4.560 -0.9180 -0.5257  1.0526
 1722SOL     OW16801   3.037   4.488   8.290  0.2709 -0.2315  1.1914
 1722SOL    HW116802   3.033   4.511   8.197 -0.0928 -1.6275  0.8733
 1722SOL    HW216803   3.036   4.573   8.334 -1.8188  0.5126 -0.2937
 1723SOL     OW16804   1.092   2.345   5.562  0.0336  0.0782 -0.0273
 1723SOL    HW116805   1.137   2.263   5.584  0.1690  0.0721 -0.3238
 1723SOL    HW216806   1.134   2.375   5.481  2.6992 -0.4236  1.1571
 1724SOL     OW16807   2.402   4.423   2.370  0.7856  0.3407 -0.0339
 1724SOL    HW116808   2.317   4.389   2.344 -0.0326  0.7472  2.1123
 1724SOL    HW216809   2.411   4.382   2.455 -0.5871 -1.2487 -0.6693
 1725SOL     OW16810   1.642   2.167   0.968 -0.3235  0.2421 -0.3641
 1725SOL    HW116811   1.577   2.209   1.025  0.5596  2.5380 -1.0399
 1725SOL    HW216812   1.708   2.235   0.954  1.9730 -1.9810 -0.0927
 1726SOL     OW16813   3.418   2.220   8.622  0.2148 -0.2582 -0.6382
 1726SOL    HW116814   3.334   2.187   8.653 -0.0277  0.3531 -0.6538
 1726SOL    HW216815   3.411   2.207   8.527  0.3944 -0.4191 -0.6299
 1727SOL     OW16816   1.221   4.387   5.567 -0.2304  0.4962 -0.3502
 1727SOL    HW116817   1.143   4.341   5.539 -1.1660  3.2046 -2.2870
 1727SOL    HW216818   1.276   4.366   5.492 -0.3825 -0.0371 -0.3051
 1728SOL     OW16819   4.589   3.051  10.348  0.1343 -0.2227 -0.1185
 1728SOL    HW116820   4.530   3.122  10.374  2.3561  2.0434 -1.2076
 1728SOL    HW216821   4.559   2.975  10.398 -1.0500  0.2736 -0.0751
 1729SOL     OW16822   3.811   1.810  11.527 -0.1704  0.5141 -0.0735
 1729SOL    HW116823   3.734   1.842  11.573  0.5202  0.1285  1.3634
 1729SOL    HW216824   3.803   1.866  11.450 -1.5058 -0.3242 -0.5439
 1730SOL     OW16825   0.127   0.519   8.848  0.5714 -0.2628  0.2552
 1730SOL    HW116826   0.064   0.451   8.872 -1.1485  0.7418 -1.4838
 1730SOL    HW216827   0.122   0.496   8.755 -0.1465 -0.8095  0.4296
 1731SOL     OW16828   2.555   3.829   0.316  0.4709  0.1962 -0.1672
 1731SOL    HW116829   2.646   3.833   0.342 -0.4676  0.4534  3.0031
 1731SOL    HW216830   2.543   3.922   0.293  1.7117 -0.1372 -2.1356
 1732SOL     OW16831   2.147   2.281   2.360 -0.1067 -0.3169 -0.4324
 1732SOL    HW116832   2.066   2.331   2.367  0.3560  0.1855  1.1634
 1732SOL    HW216833   2.143   2.219   2.433  1.0185 -0.1398 -0.2082
 1733SOL     OW16834   1.846   0.985   8.665  0.0867 -0.0893  0.4775
 1733SOL    HW116835   1.939   1.001   8.651 -0.3132  1.3792 -0.5463
 1733SOL    HW216836   1.808   1.072   8.653 -3.2561 -2.0419 -3.1658
 1734SOL     OW16837   2.164   1.301  13.374 -0.3684  0.6071  0.2971
 1734SOL    HW116838   2.085   1.248  13.381 -1.5835  2.2644 -1.0125
 1734SOL    HW216839   2.172   1.338  13.462  0.8369 -0.7257  0.7408
 1735SOL     OW16840   3.307   2.165   2.279  0.8748  0.1343  0.3785
 1735SOL    HW116841   3.307   2.258   2.302 -0.9022  0.2072  0.0917
 1735SOL    HW216842   3.314   2.164   2.184 -0.6243 -0.4623  0.2730
 1736SOL     OW16843   3.562   1.054  16.625 -0.0988  0.2855  0.0473
 1736SOL    HW116844   3.505   1.119  16.585 -2.6931 -1.6225  0.6659
 1736SOL    HW216845   3.502   1.030  16.696  0.7600 -1.0339  0.3414
 1737SOL     OW16846   3.626   1.697   3.343  0.0488  0.2029  0.1756
 1737SOL    HW116847   3.636   1.762   3.413  1.0907  1.4073 -1.0859
 1737SOL    HW216848   3.679   1.739   3.275  0.3066  0.9920  0.8653
 1738SOL     OW16849   0.541   2.085  11.614 -0.0369  0.5025 -0.1039
 1738SOL    HW116850   0.457   2.128  11.625 -0.3703 -0.1703 -0.0487
 1738SOL    HW216851   0.563   2.092  11.707 -2.0152  1.8622  0.2472
 1739SOL     OW16852   0.083   1.931   7.912  0.1661  0.0293 -0.1296
 1739SOL    HW116853   0.176   1.926   7.891  0.2842 -0.9824  0.6438
 1739SOL    HW216854   0.075   2.027   7.918  1.8783  0.3282 -2.5444
 1740SOL     OW16855   4.353   4.707   9.804  0.6815 -0.0284  0.0021
 1740SOL    HW116856   4.277   4.673   9.849 -0.4080  2.2360 -0.0931
 1740SOL    HW216857   4.363   0.059   9.840  1.0579  0.1279 -0.4783
 1741SOL     OW16858   4.030   3.559   3.285 -0.4662  0.0034 -0.3894
 1741SOL    HW116859   3.942   3.533   3.257 -0.7620  0.4097  0.1585
 1741SOL    HW216860   4.053   3.634   3.231 -0.0157 -1.0078 -1.6134
 1742SOL     OW16861   1.052   4.625   8.137 -0.2277  0.1716 -0.0985
 1742SOL    HW116862   1.029   4.690   8.070 -0.2820  1.3328  1.0382
 1742SOL    HW216863   0.968   4.592   8.169 -1.1024  1.2012 -1.3345
 1743SOL     OW16864   2.933   1.734   3.553  0.0687 -0.3269  0.1572
 1743SOL    HW116865   2.870   1.800   3.581 -0.7931 -1.1432  0.1286
 1743SOL    HW216866   3.004   1.787   3.516 -0.9846  1.4135  0.6310
 1744SOL     OW16867   1.000   1.274  17.159  0.1495  0.1962 -0.4260
 1744SOL    HW116868   1.027   1.196  17.207  0.2821  0.2075 -0.4834
 1744SOL    HW216869   1.004   1.249  17.067 -1.9163 -2.0698  0.1285
 1745SOL     OW16870   0.001   2.242   5.250  0.3359 -0.6202  0.4617
 1745SOL    HW116871   0.033   2.324   5.288  1.8886 -1.3134  0.6396
 1745SOL    HW216872   0.078   2.201   5.211  0.3547 -1.0955  0.9930
 1746SOL     OW16873   4.481   3.001   9.463  0.4056 -0.6420  0.2715
 1746SOL    HW116874   4.535   3.061   9.412 -0.6668 -0.1493 -0.2690
 1746SOL    HW216875   4.391   3.027   9.445  0.4682  0.1111  1.0440
 1747SOL     OW16876   0.687   3.639   3.353  0.0813 -0.2734 -0.2374
 1747SOL    HW116877   0.629   3.594   3.292  2.0626 -0.4869 -1.9321
 1747SOL    HW216878   0.697   3.578   3.426  0.0442 -1.0077 -0.8408
 1748SOL     OW16879   0.562   0.919   2.544 -0.0167 -0.0742 -0.3972
 1748SOL    HW116880   0.555   0.876   2.459 -1.3565  2.4264 -1.5407
 1748SOL    HW216881   0.579   1.007   2.510 -2.9472  1.2348  1.5527
 1749SOL     OW16882   2.134   3.392   7.386  0.2316 -0.1239 -0.5328
 1749SOL    HW116883   2.063   3.360   7.331  0.9594  0.9382 -2.0857
 1749SOL    HW216884   2.160   3.311   7.429 -1.7820 -0.7913 -0.5858
 1750SOL     OW16885   3.773   1.353   9.250 -0.2270  0.5676  0.0279
 1750SOL    HW116886   3.847   1.304   9.214  0.3942  2.0462 -0.6950
 1750SOL    HW216887   3.704   1.354   9.184  0.2734 -1.1461 -0.5120
 1751SOL     OW16888   4.295   2.056   1.310  0.1617  0.2011  0.0743
 1751SOL    HW116889   4.363   2.110   1.269 -1.4369  1.3722 -1.0475
 1751SOL    HW216890   4.328   1.968   1.291 -1.4978 -0.6046  0.9434
 1752SOL     OW16891   2.988   2.720   8.125 -0.6138 -0.1291 -0.7009
 1752SOL    HW116892   3.008   2.656   8.193 -2.3059 -1.5174 -1.5119
 1752SOL    HW216893   2.921   2.775   8.165 -0.5976 -1.2872  0.9200
 1753SOL     OW16894   4.086   4.390   2.465 -0.2561 -0.3393  0.3788
 1753SOL    HW116895   4.020   4.457   2.486  0.6123  0.2884  1.1110
 1753SOL    HW216896   4.062   4.351   2.381  1.6756  1.1290 -0.8657
 1754SOL     OW16897   1.497   0.063   7.072 -0.1545  0.0123 -0.3550
 1754SOL    HW116898   1.570   0.096   7.125  0.7995  0.3072 -1.8633
 1754SOL    HW216899   1.544   4.720   7.049 -2.6557 -1.3183 -0.8769
 1755SOL     OW16900   4.387   1.826   8.965 -0.0764  0.0716 -0.1875
 1755SOL    HW116901   4.448   1.897   8.985  2.0302 -1.8541  0.2380
 1755SOL    HW216902   4.355   1.797   9.051  0.7821  0.8271  0.3927
 1756SOL     OW16903   0.889   0.743  17.503 -0.5154 -0.0653 -0.1121
 1756SOL    HW116904   0.973   0.749  17.459  0.0554 -0.4369  0.9328
 1756SOL    HW216905   0.859   0.658  17.469  1.3503  0.3061 -2.6445
 1757SOL     OW16906   2.621   4.086   6.541  0.1721  0.8166 -0.5095
 1757SOL    HW116907   2.566   4.113   6.468 -2.4074 -1.6490  0.5274
 1757SOL    HW216908   2.673   4.165   6.556  0.6914  0.1522  1.1894
 1758SOL     OW16909   4.370   0.739   7.311 -0.2629  0.4912 -0.3941
 1758SOL    HW116910   4.354   0.830   7.333 -0.4029 -0.2077  2.4013
 1758SOL    HW216911   4.452   0.754   7.263  0.5754  2.4801  1.6894
 1759SOL     OW16912   0.773   4.697   7.036 -0.3191  0.1919 -0.2734
 1759SOL    HW116913   0.706   0.027   7.018 -1.1484 -0.8977 -1.2138
 1759SOL    HW216914   0.817   4.731   7.114 -1.5284 -0.5471  0.7434
 1760SOL     OW16915   4.213   0.677   9.024 -0.5064  0.9494 -0.5846
 1760SOL    HW116916   4.175   0.640   8.945  0.6231 -1.5245  0.0053
 1760SOL    HW216917   4.253   0.602   9.069  1.1365  2.8339  1.0949
 1761SOL     OW16918   3.040   2.167   4.360  0.6893  0.0652  0.4263
 1761SOL    HW116919   3.122   2.130   4.392  0.9483  0.7801  0.5929
 1761SOL    HW216920   3.069   2.258   4.349  0.2947  0.1301 -0.0619
 1762SOL     OW16921   2.327   1.922   2.519 -0.0533  0.0100  0.1558
 1762SOL    HW116922   2.359   1.914   2.609  0.6863 -1.5508 -0.2612
 1762SOL    HW216923   2.299   2.014   2.522  0.1950  0.0283  1.7167
 1763SOL     OW16924   0.224   1.836   0.992  0.5219  0.6231  0.0693
 1763SOL    HW116925   0.229   1.926   0.959  0.3178  0.9102  0.8317
 1763SOL    HW216926   0.135   1.808   0.974  0.3521  1.4452 -0.3734
 1764SOL     OW16927   2.870   2.065   6.319  0.4042  0.8689  0.1626
 1764SOL    HW116928   2.874   2.139   6.259  0.3490 -0.9484 -2.0859
 1764SOL    HW216929   2.917   2.098   6.395 -2.3283 -0.6941  2.5083
 1765SOL     OW16930   3.022   2.762   3.628  0.0701 -0.1721  0.5143
 1765SOL    HW116931   3.059   2.837   3.675  0.1285  0.3458 -0.3657
 1765SOL    HW216932   3.001   2.804   3.545  2.3943 -0.3004 -0.1649
 1766SOL     OW16933   4.269   4.577   3.731 -0.1543  0.1112 -0.1577
 1766SOL    HW116934   4.242   4.486   3.740 -0.7126  0.5791  2.8879
 1766SOL    HW216935   4.346   4.578   3.788 -0.4516  2.8190  0.2021
 1767SOL     OW16936   4.503   2.914   5.464  0.2641  0.2967  0.2423
 1767SOL    HW116937   4.582   2.865   5.486 -0.1409 -1.9040 -3.1126
 1767SOL    HW216938   4.480   2.891   5.374  0.0652 -1.4433  0.7357
 1768SOL     OW16939   1.261   4.314  12.355 -0.0231 -0.3632 -0.1833
 1768SOL    HW116940   1.233   4.361  12.277 -0.1139  0.8774  0.5887
 1768SOL    HW216941   1.176   4.308  12.398 -0.2495 -0.8737 -0.7186
 1769SOL     OW16942   0.427   1.128   3.254  0.3539 -0.5824 -0.1293
 1769SOL    HW116943   0.408   1.205   3.308 -0.0732 -1.5072  1.0524
 1769SOL    HW216944   0.337   1.104   3.232 -0.2055  1.5327 -0.1368
 1770SOL     OW16945   1.999   1.932  16.781  0.2930 -0.4187  0.2823
 1770SOL    HW116946   1.930   1.941  16.715 -2.1899  0.8731  3.0862
 1770SOL    HW216947   1.974   1.996  16.847 -1.8690 -2.3434  1.3222
 1771SOL     OW16948   2.927   2.710  11.910 -0.2605 -0.5885  0.4060
 1771SOL    HW116949   2.973   2.793  11.919 -0.3833 -0.4001 -0.6588
 1771SOL    HW216950   2.872   2.713  11.988 -0.5083 -0.5093  0.2300
 1772SOL     OW16951   2.770   3.847   7.598  0.0527  0.5224  0.0629
 1772SOL    HW116952   2.676   3.858   7.615 -0.2659 -0.8861 -0.7845
 1772SOL    HW216953   2.804   3.849   7.688 -1.6430 -3.4085  0.7735
 1773SOL     OW16954   2.236   3.080   3.586  0.0647 -0.0864 -0.4265
 1773SOL    HW116955   2.203   3.146   3.647 -2.4290 -1.1940 -0.5778
 1773SOL    HW216956   2.309   3.060   3.644 -0.3643  1.9481  0.8396
 1774SOL     OW16957   3.953   4.626  16.472  0.7296 -0.2360 -0.4791
 1774SOL    HW116958   4.049   4.630  16.472  0.7166  0.2942 -1.6449
 1774SOL    HW216959   3.939   4.533  16.459 -1.4486 -0.0469  0.4435
 1775SOL     OW16960   1.736   0.409   3.475 -0.7351 -0.0898 -0.2888
 1775SOL    HW116961   1.683   0.432   3.399  0.5630  0.8247 -0.9219
 1775SOL    HW216962   1.667   0.399   3.541 -1.1723  1.3744 -0.5450
 1776SOL     OW16963   3.038   4.295   9.629 -0.0345 -0.2238 -0.8115
 1776SOL    HW116964   2.947   4.324   9.619  0.0150  0.4464  0.5762
 1776SOL    HW216965   3.076   4.317   9.544  0.4235 -0.4427 -0.6637
 1777SOL     OW16966   2.351   0.883   5.286 -0.2752 -0.0284 -0.0619
 1777SOL    HW116967   2.355   0.970   5.246 -0.8195 -0.1979 -0.4812
 1777SOL    HW216968   2.436   0.849   5.258 -0.3543  0.2305 -0.6217
 1778SOL     OW16969   4.237   0.443   2.143  0.0883  0.2331 -0.1634
 1778SOL    HW116970   4.233   0.348   2.131  0.8904 -0.1264  2.4353
 1778SOL    HW216971   4.229   0.448   2.238 -1.8949 -0.0589 -0.3227
 1779SOL     OW16972   2.927   3.954   6.621  0.7568 -0.1114  0.0742
 1779SOL    HW116973   2.882   3.930   6.540  2.9488  1.2293 -1.5483
 1779SOL    HW216974   3.017   3.923   6.614  1.1363  0.7242  1.2330
 1780SOL     OW16975   1.876   4.157   4.448  0.6189  0.2759 -0.1962
 1780SOL    HW116976   1.794   4.199   4.423  0.5365  0.4288  0.3174
 1780SOL    HW216977   1.917   4.221   4.507 -1.9346  1.5719  0.2076
 1781SOL     OW16978   3.084   0.818   1.414  0.0734 -0.2936 -0.6721
 1781SOL    HW116979   3.056   0.880   1.347 -0.7862 -0.8266 -0.8075
 1781SOL    HW216980   3.007   0.761   1.418 -1.2522  1.5794  0.2424
 1782SOL     OW16981   4.144   2.278   9.917  0.8850 -0.2457  0.1461
 1782SOL    HW116982   4.111   2.367   9.912 -0.0008 -0.5295  1.1047
 1782SOL    HW216983   4.235   2.291   9.890  0.3964 -2.0635 -2.4247
 1783SOL     OW16984   4.660   2.988   7.669 -0.2856 -0.2803  0.0896
 1783SOL    HW116985   4.723   2.985   7.742 -0.2346 -0.3164  0.0436
 1783SOL    HW216986   4.668   2.904   7.623 -1.5376  1.3587 -3.0812
 1784SOL     OW16987   1.057   3.775  14.917  0.7357  0.1878  0.1074
 1784SOL    HW116988   1.111   3.787  14.995  3.9351 -0.6353 -1.9978
 1784SOL    HW216989   1.002   3.854  14.913  1.3803  0.6244 -0.2140
 1785SOL     OW16990   0.129   0.962   8.442 -0.0633 -0.5276  0.5749
 1785SOL    HW116991   0.036   0.976   8.423  0.2789 -0.0514 -0.7719
 1785SOL    HW216992   0.142   1.043   8.491  1.4296  0.1062 -0.8840
 1786SOL     OW16993   0.931   3.039   6.345  0.4561 -0.5454  0.1443
 1786SOL    HW116994   0.851   3.091   6.353  0.8946  0.4323 -1.7667
 1786SOL    HW216995   0.909   2.993   6.264  0.4087 -0.4279  0.0904
 1787SOL     OW16996   4.009   2.330  12.862 -0.1835  0.0571 -0.6699
 1787SOL    HW116997   4.000   2.379  12.781  1.2718  0.4907 -0.5606
 1787SOL    HW216998   4.102   2.346  12.875 -0.4395  1.5308 -0.6188
 1788SOL     OW16999   2.887   1.366  15.228  0.2498 -0.5151 -0.6811
 1788SOL    HW117000   2.834   1.292  15.257 -0.9994  1.1500  1.3385
 1788SOL    HW217001   2.970   1.330  15.261 -0.1826 -0.5159  0.3866
 1789SOL     OW17002   1.312   4.063  11.722 -0.5408 -0.3397  0.5242
 1789SOL    HW117003   1.323   4.105  11.637 -0.7493 -1.8118 -0.2432
 1789SOL    HW217004   1.354   3.978  11.704 -0.0637  0.1529 -0.6978
 1790SOL     OW17005   1.330   1.581  17.422 -0.1391  0.1348 -0.4139
 1790SOL    HW117006   1.424   1.564  17.431 -0.2513 -0.4678 -0.3587
 1790SOL    HW217007   1.317   1.561  17.329 -1.1575  1.0291 -0.4538
 1791SOL     OW17008   3.921   4.650  10.180  0.2338  0.4094  0.5575
 1791SOL    HW117009   3.899   4.611  10.265  0.1082 -1.1934 -0.2089
 1791SOL    HW217010   3.987   4.712  10.210  0.2851  1.0205 -0.8143
 1792SOL     OW17011   2.418   0.394   4.484  0.2976  0.2222 -0.2927
 1792SOL    HW117012   2.430   0.316   4.537  2.3728 -0.8354 -2.3076
 1792SOL    HW217013   2.439   0.463   4.547  1.1092 -0.3419  0.0578
 1793SOL     OW17014   3.918   2.089   2.620  0.0030  0.0655  0.2651
 1793SOL    HW117015   3.999   2.141   2.619  0.6042 -0.8547  0.8156
 1793SOL    HW217016   3.938   2.023   2.687  1.0642  0.1420  0.0360
 1794SOL     OW17017   4.370   0.928   8.685 -0.0397 -0.4652  0.3683
 1794SOL    HW117018   4.388   1.015   8.649 -0.2491 -0.4141  0.3868
 1794SOL    HW217019   4.305   0.891   8.624  0.4725 -0.6755 -0.0554
 1795SOL     OW17020   4.467   1.135   8.522 -0.4602 -0.4404  0.6592
 1795SOL    HW117021   4.479   1.196   8.449  0.5496 -0.6931  0.6051
 1795SOL    HW217022   4.525   1.181   8.583  0.6376  0.1832 -0.8746
 1796SOL     OW17023   1.426   0.115  17.139  0.7275 -0.0787 -0.3145
 1796SOL    HW117024   1.357   0.118  17.073  1.5589  1.1622 -1.1139
 1796SOL    HW217025   1.483   0.048  17.101  0.0236 -0.0556 -1.4249
 1797SOL     OW17026   2.526   1.722  13.694 -0.1629 -0.4954  0.1055
 1797SOL    HW117027   2.571   1.791  13.644 -2.6098 -0.9601 -2.6944
 1797SOL    HW217028   2.488   1.787  13.754 -1.6049 -0.7932 -0.5060
 1798SOL     OW17029   3.540   1.735   9.891  1.0592 -0.6734 -0.2703
 1798SOL    HW117030   3.624   1.768   9.923  1.6126 -0.7112 -1.7125
 1798SOL    HW217031   3.487   1.808   9.921  1.5894  0.3048 -1.7185
 1799SOL     OW17032   3.176   3.282  11.837  0.2958  0.9106 -0.2928
 1799SOL    HW117033   3.104   3.298  11.899  1.0588 -2.1620  1.4054
 1799SOL    HW217034   3.255   3.281  11.890 -0.2386 -0.7431  0.4598
 1800SOL     OW17035   1.877   4.680  12.690 -0.4712  0.1501 -0.1668
 1800SOL    HW117036   1.793   4.691  12.647 -1.4464 -0.4478  1.5967
 1800SOL    HW217037   1.933   0.008  12.646 -0.7804 -0.7102 -1.8204
 1801SOL     OW17038   2.840   0.394   7.690  0.0200 -0.2630  0.3179
 1801SOL    HW117039   2.873   0.427   7.773  0.2702  0.1128  0.0709
 1801SOL    HW217040   2.913   0.354   7.642  1.1310 -0.0672  1.8562
 1802SOL     OW17041   3.727   0.978   1.043 -0.1443  0.2144 -0.2857
 1802SOL    HW117042   3.705   0.967   0.951  0.3247 -1.5551 -0.1738
 1802SOL    HW217043   3.801   1.036   1.023 -0.3144  0.3406 -0.5408
 1803SOL     OW17044   1.704   1.729   1.746 -0.9459  0.1826 -0.3036
 1803SOL    HW117045   1.714   1.644   1.703  0.3139  1.6376 -2.8598
 1803SOL    HW217046   1.615   1.726   1.781 -1.5350  0.1213 -1.8200
 1804SOL     OW17047   3.444   1.173   3.833 -0.0476  0.0582 -0.0250
 1804SOL    HW117048   3.527   1.187   3.788  0.0456 -0.4009 -0.0014
 1804SOL    HW217049   3.393   1.111   3.780  0.6153  0.3356 -0.9793
 1805SOL     OW17050   3.510   2.839   0.929  0.1644 -0.1848  1.1321
 1805SOL    HW117051   3.605   2.839   0.938  0.4456  0.6452 -1.9428
 1805SOL    HW217052   3.494   2.746   0.913 -1.8393  0.5524 -1.1247
 1806SOL     OW17053   1.800   1.010   6.605  0.0040  0.3734  0.1396
 1806SOL    HW117054   1.864   0.993   6.535 -1.7560 -1.2584 -1.0724
 1806SOL    HW217055   1.857   0.989   6.679  0.1612 -0.4008 -0.1957
 1807SOL     OW17056   2.555   0.385   3.206 -0.0265 -0.3762 -0.0613
 1807SOL    HW117057   2.499   0.307   3.205 -0.9738  0.3046 -0.8020
 1807SOL    HW217058   2.638   0.351   3.240  0.3280  1.1323  0.5388
 1808SOL     OW17059   2.616   3.827   8.873  0.1869 -0.6772 -0.2668
 1808SOL    HW117060   2.589   3.754   8.816  0.1588 -0.7165 -0.2028
 1808SOL    HW217061   2.702   3.842   8.832 -0.3682  0.2696 -1.0806
 1809SOL     OW17062   3.545   0.436   8.031 -0.1980 -0.5307  0.0711
 1809SOL    HW117063   3.628   0.389   8.031  0.8170  1.2442  0.4527
 1809SOL    HW217064   3.570   0.528   8.020  0.3287 -0.5723  0.9212
 1810SOL     OW17065   3.227   3.989   0.322 -0.1512  0.1385 -1.0626
 1810SOL    HW117066   3.196   4.002   0.232 -0.0517  3.0499 -0.6539
 1810SOL    HW217067   3.321   4.007   0.316  0.3174 -2.1275 -0.7322
 1811SOL     OW17068   3.343   1.220  12.333 -0.0562 -0.3346  0.4031
 1811SOL    HW117069   3.321   1.159  12.404  0.2544  1.7523  2.2828
 1811SOL    HW217070   3.278   1.186  12.271  0.9274 -1.4079 -0.0441
 1812SOL     OW17071   1.678   2.079  12.094 -0.7349  0.6489 -0.2402
 1812SOL    HW117072   1.721   2.141  12.035 -0.5682  1.6571  0.9265
 1812SOL    HW217073   1.734   2.002  12.083  1.4629  2.3377 -0.7820
 1813SOL     OW17074   4.403   3.526   1.363 -0.5740  0.0892 -0.1635
 1813SOL    HW117075   4.345   3.451   1.379  1.1970 -1.2874 -0.1097
 1813SOL    HW217076   4.434   3.508   1.274 -1.1292 -0.4577 -0.2433
 1814SOL     OW17077   4.012   2.632  11.701  0.1475 -0.0669 -0.2601
 1814SOL    HW117078   3.972   2.667  11.622 -1.5611  1.8413  1.4734
 1814SOL    HW217079   4.085   2.584  11.662 -0.1117 -1.2111  0.6535
 1815SOL     OW17080   0.463   2.098  14.888  0.0066  0.0688  0.1230
 1815SOL    HW117081   0.456   2.143  14.972 -0.7963 -0.2889  0.2469
 1815SOL    HW217082   0.394   2.033  14.897 -0.0237  0.1076  0.1750
 1816SOL     OW17083   2.208   2.809   9.829 -0.3976 -0.2455 -0.2168
 1816SOL    HW117084   2.208   2.903   9.846  0.0933  0.1969 -2.7279
 1816SOL    HW217085   2.127   2.799   9.880 -0.3898 -1.2779 -0.3991
 1817SOL     OW17086   1.858   2.289   9.154 -0.2104 -0.5128 -0.1645
 1817SOL    HW117087   1.906   2.342   9.091  0.8183 -0.2599  0.8308
 1817SOL    HW217088   1.773   2.333   9.145  0.0906  0.0110 -0.3796
 1818SOL     OW17089   3.308   3.088   5.609 -0.1667 -0.0244 -0.9321
 1818SOL    HW117090   3.340   3.176   5.588  0.8945 -0.1664  0.0408
 1818SOL    HW217091   3.343   3.080   5.698  0.0352 -0.8547 -1.0857
 1819SOL     OW17092   1.320   4.605  16.060 -0.4745 -0.2496 -0.8960
 1819SOL    HW117093   1.231   4.623  16.033 -1.2050 -0.3541  1.4358
 1819SOL    HW217094   1.366   4.585  15.978  0.9764  1.1853 -0.4224
 1820SOL     OW17095   3.240   0.959   6.586 -0.0980  0.3240 -0.3610
 1820SOL    HW117096   3.182   0.905   6.533  0.1662 -0.0445 -0.2836
 1820SOL    HW217097   3.322   0.974   6.539  0.1099 -2.5648 -0.9232
 1821SOL     OW17098   1.431   2.825   8.314  0.4247 -0.0656 -0.6236
 1821SOL    HW117099   1.371   2.788   8.378 -0.9949 -1.2527 -2.6684
 1821SOL    HW217100   1.446   2.907   8.362  1.6148 -0.4385 -0.3549
 1822SOL     OW17101   2.486   2.249   5.528 -0.3534  0.1494 -0.0418
 1822SOL    HW117102   2.408   2.247   5.474  0.3543  0.2013 -1.0656
 1822SOL    HW217103   2.449   2.214   5.609  3.3508 -0.2661  1.5198
 1823SOL     OW17104   0.918   1.025   2.146 -0.4797  0.1868 -0.2631
 1823SOL    HW117105   0.927   0.964   2.073  0.5939  1.1010 -0.8977
 1823SOL    HW217106   0.975   0.982   2.210 -1.5361  0.4306  0.8379
 1824SOL     OW17107   3.570   0.981   8.172  0.5486  0.4311 -0.1182
 1824SOL    HW117108   3.620   0.948   8.247 -0.9836  3.1702  2.1516
 1824SOL    HW217109   3.578   1.077   8.174  4.3146  0.0848  1.5129
 1825SOL     OW17110   3.634   2.906  10.982 -0.0059 -0.3684 -0.5784
 1825SOL    HW117111   3.545   2.894  10.950 -0.2707 -0.5967  0.2464
 1825SOL    HW217112   3.665   2.955  10.906 -0.5844  1.7166  0.5327
 1826SOL     OW17113   4.551   0.227   5.265  0.1015  0.8457 -0.3586
 1826SOL    HW117114   4.472   0.262   5.306 -0.3198 -0.6575  0.1318
 1826SOL    HW217115   4.611   0.219   5.340 -1.0445  0.1545  0.4936
 1827SOL     OW17116   2.996   2.509   8.674 -0.4139 -0.4987  0.2034
 1827SOL    HW117117   3.002   2.419   8.707 -0.8246 -0.7547 -0.4115
 1827SOL    HW217118   3.082   2.542   8.700 -1.8891  3.2733  0.2819
 1828SOL     OW17119   4.670   0.489   3.196  0.3638  0.1377  0.1973
 1828SOL    HW117120   0.005   0.478   3.260 -0.8063 -2.7283  1.0260
 1828SOL    HW217121   4.685   0.583   3.191 -0.0893  0.0425 -2.6983
 1829SOL     OW17122   0.701   1.711   8.540 -0.0767  0.1865  0.0520
 1829SOL    HW117123   0.644   1.682   8.611  0.0654  2.7453  1.2108
 1829SOL    HW217124   0.653   1.671   8.467  0.0012 -0.0003  0.1050
 1830SOL     OW17125   4.356   3.167   4.649  0.0984 -0.2485  0.3802
 1830SOL    HW117126   4.384   3.143   4.560 -0.2389 -1.3389  0.5689
 1830SOL    HW217127   4.443   3.172   4.688  0.7134 -1.7586 -0.7649
 1831SOL     OW17128   1.509   3.336   9.247  0.5081  0.6566 -0.0774
 1831SOL    HW117129   1.550   3.250   9.234 -1.6404 -0.2466 -0.9329
 1831SOL    HW217130   1.530   3.387   9.169  0.4469 -0.3681 -0.7609
 1832SOL     OW17131   0.665   2.679  17.560 -0.0277  0.2193  0.3981
 1832SOL    HW117132   0.642   2.707  17.471 -1.9781 -3.5786 -0.2706
 1832SOL    HW217133   0.748   2.726  17.566 -0.2694  0.7889 -0.6994
 1833SOL     OW17134   0.381   1.701   6.520  0.5812  0.3016  0.0125
 1833SOL    HW117135   0.382   1.784   6.471 -2.6164 -0.0405 -0.6259
 1833SOL    HW217136   0.286   1.694   6.526  0.6345  3.3563  4.1582
 1834SOL     OW17137   2.873   0.466   3.807  0.4751  0.7953  0.0330
 1834SOL    HW117138   2.949   0.409   3.813  0.9052  1.4267  0.5940
 1834SOL    HW217139   2.856   0.451   3.714 -2.0236 -0.5724  0.6804
 1835SOL     OW17140   3.732   2.034   6.074  0.9231  0.0694  0.4328
 1835SOL    HW117141   3.671   1.982   6.022  1.5279 -1.6037  1.3753
 1835SOL    HW217142   3.814   1.995   6.044  1.0802 -0.0395  1.0058
 1836SOL     OW17143   1.673   0.702  15.322 -0.0708 -0.0854  0.0560
 1836SOL    HW117144   1.711   0.614  15.318  3.8382  1.5076  3.0730
 1836SOL    HW217145   1.682   0.722  15.415 -0.0067 -1.3915  0.3404
 1837SOL     OW17146   2.224   2.096   3.276 -0.3297  0.1056 -0.0859
 1837SOL    HW117147   2.307   2.126   3.314  0.5557 -0.6257 -1.4214
 1837SOL    HW217148   2.254   2.015   3.234  1.1587  0.6395 -0.0528
 1838SOL     OW17149   3.856   3.850   8.774  0.4323  0.3711 -0.0104
 1838SOL    HW117150   3.893   3.895   8.698  0.9219 -1.0306 -0.6007
 1838SOL    HW217151   3.928   3.865   8.835 -0.0079  0.8325  0.4054
 1839SOL     OW17152   2.115   3.677   3.250 -0.3211 -0.2126  0.3214
 1839SOL    HW117153   2.134   3.594   3.293 -1.1474 -0.6086 -0.0858
 1839SOL    HW217154   2.048   3.708   3.311 -2.1241  1.5494 -2.5449
 1840SOL     OW17155   2.256   0.895   3.840 -0.3106 -0.6357 -0.5976
 1840SOL    HW117156   2.281   0.977   3.797 -1.5866  0.6364  1.1083
 1840SOL    HW217157   2.332   0.838   3.828  1.7584  2.1176 -0.6440
 1841SOL     OW17158   4.538   1.443   8.786 -0.3116 -0.2567  0.2325
 1841SOL    HW117159   4.505   1.529   8.761 -0.1433  0.8166  3.6852
 1841SOL    HW217160   4.453   1.400   8.774  0.8684 -2.8385  1.0723
 1842SOL     OW17161   4.414   1.784   5.144 -0.0071 -0.3724 -0.0071
 1842SOL    HW117162   4.499   1.810   5.181 -0.3781 -1.0953  1.3615
 1842SOL    HW217163   4.440   1.773   5.053 -0.6234  0.9362 -0.3266
 1843SOL     OW17164   4.096   1.466   3.048 -0.2889  0.1799  0.2141
 1843SOL    HW117165   4.123   1.558   3.045  1.3553 -0.2907  1.1942
 1843SOL    HW217166   4.095   1.443   2.955 -1.1831 -1.8175  0.7212
 1844SOL     OW17167   3.770   1.286  14.929  0.4265 -0.4166 -0.0175
 1844SOL    HW117168   3.770   1.209  14.985 -0.8414 -1.4616 -1.4465
 1844SOL    HW217169   3.850   1.261  14.883  1.2543 -0.8988  1.6995
 1845SOL     OW17170   1.550   4.393   4.534 -0.0452 -0.0196 -0.1673
 1845SOL    HW117171   1.472   4.341   4.517  0.9114 -0.6557 -2.5362
 1845SOL    HW217172   1.547   4.454   4.460  0.8704  1.9711  1.4169
 1846SOL     OW17173   2.738   2.360   0.838  0.3707  0.1310  0.1527
 1846SOL    HW117174   2.782   2.444   0.850 -1.9914  1.5874 -1.3898
 1846SOL    HW217175   2.673   2.391   0.774 -0.2458  1.8416  1.6207
 1847SOL     OW17176   0.477   3.428   5.318 -0.1814 -0.0248 -0.1320
 1847SOL    HW117177   0.501   3.367   5.249  1.7140 -0.5220  0.9559
 1847SOL    HW217178   0.562   3.471   5.333 -0.1641 -0.0491 -0.1618
 1848SOL     OW17179   3.524   2.116   7.907  0.4670  0.2025 -0.2075
 1848SOL    HW117180   3.472   2.186   7.867  1.6046  1.8195  1.1130
 1848SOL    HW217181   3.471   2.048   7.867 -1.3329  0.4278  1.7746
 1849SOL     OW17182   3.552   1.890   7.239 -0.9024  0.6422 -0.0176
 1849SOL    HW117183   3.493   1.934   7.300 -0.3416  1.6306 -0.1946
 1849SOL    HW217184   3.569   1.813   7.293  2.2767  1.7833  0.5620
 1850SOL     OW17185   1.923   3.869  16.551  0.6156 -0.3558  0.0745
 1850SOL    HW117186   1.863   3.908  16.488  1.6460 -1.1114 -1.3738
 1850SOL    HW217187   2.004   3.851  16.504 -0.7842  1.8123 -3.1110
 1851SOL     OW17188   4.634   4.413   7.728 -0.2318 -0.3825 -0.2034
 1851SOL    HW117189   4.550   4.367   7.720 -1.1263  1.4379 -1.3879
 1851SOL    HW217190   4.657   4.424   7.636  0.0973  1.0999  0.0659
 1852SOL     OW17191   4.676   3.269   7.591  0.1817  0.3012  0.0203
 1852SOL    HW117192   4.685   3.180   7.625  3.4581  0.3210 -0.8036
 1852SOL    HW217193   4.694   3.331   7.662  2.0598  0.0179 -0.1969
 1853SOL     OW17194   3.756   4.359  10.502  0.1531 -0.0490 -0.6690
 1853SOL    HW117195   3.688   4.399  10.556  1.2888  0.8379  0.1003
 1853SOL    HW217196   3.823   4.427  10.491 -1.3307  1.5395  0.1871
 1854SOL     OW17197   1.117   4.467   7.877  0.2422  0.3222  0.3505
 1854SOL    HW117198   1.027   4.443   7.857  0.7281  1.0293 -2.6767
 1854SOL    HW217199   1.158   4.487   7.793  0.2277 -0.9636  0.0330
 1855SOL     OW17200   0.846   2.301   3.489  0.5115 -0.1119 -0.0905
 1855SOL    HW117201   0.849   2.329   3.581  2.2295  2.8505 -1.0285
 1855SOL    HW217202   0.839   2.206   3.499  3.9740 -0.4586 -0.9102
 1856SOL     OW17203   2.619   4.267   4.293  0.4301  0.1991 -0.2009
 1856SOL    HW117204   2.550   4.297   4.353 -0.2227  1.7550 -1.7377
 1856SOL    HW217205   2.682   4.334   4.319  0.7612 -0.2568  0.1775
 1857SOL     OW17206   2.389   2.939   0.294 -0.2658  0.2453  0.2932
 1857SOL    HW117207   2.352   2.911   0.210 -0.4002  0.3850  0.3067
 1857SOL    HW217208   2.402   3.032   0.273  1.4092 -0.0829 -0.1051
 1858SOL     OW17209   3.536   2.295  11.930  0.6443  0.6436  0.0638
 1858SOL    HW117210   3.602   2.338  11.875  0.2377  1.2612  0.0470
 1858SOL    HW217211   3.463   2.356  11.921  0.6513  0.4211 -1.5321
 1859SOL     OW17212   2.520   4.698   2.198  0.1028  0.0615  0.7174
 1859SOL    HW117213   2.569   4.629   2.242 -0.6172 -0.1893  1.1176
 1859SOL    HW217214   2.578   4.704   2.122 -2.1748 -0.2817 -1.0172
 1860SOL     OW17215   4.579   0.241   6.281 -0.0233 -0.4523  0.9188
 1860SOL    HW117216   4.591   0.323   6.328  0.2945  0.1444 -0.2172
 1860SOL    HW217217   4.492   0.252   6.243  0.0854 -2.2417  0.1339
 1861SOL     OW17218   1.871   3.399  12.494 -0.2156 -0.3398  0.7450
 1861SOL    HW117219   1.878   3.452  12.414 -1.7923 -0.3042  0.6245
 1861SOL    HW217220   1.795   3.431  12.543 -0.7171  0.9396 -0.8737
 1862SOL     OW17221   3.621   0.428   9.326 -0.6867  0.0953 -0.2399
 1862SOL    HW117222   3.557   0.357   9.326  0.0687 -0.5847 -0.9025
 1862SOL    HW217223   3.579   0.479   9.395  2.1310  0.9068  0.8896
 1863SOL     OW17224   2.944   3.538   4.769  0.5039  0.5664 -0.2193
 1863SOL    HW117225   2.985   3.611   4.723  1.4312 -0.9405 -1.7973
 1863SOL    HW217226   2.974   3.469   4.709 -0.5947 -0.1136  0.0074
 1864SOL     OW17227   3.736   2.552  12.148  0.2455  0.0972 -0.1032
 1864SOL    HW117228   3.669   2.601  12.194 -0.2068 -0.2511 -0.3979
 1864SOL    HW217229   3.748   2.606  12.070 -0.5338 -1.3133 -1.2132
 1865SOL     OW17230   2.907   0.072   8.283  0.0534  0.1635  0.2194
 1865SOL    HW117231   2.920   0.133   8.211 -0.9906  0.4967  0.3149
 1865SOL    HW217232   2.988   0.093   8.330  0.8600  0.6002 -1.3551
 1866SOL     OW17233   2.358   2.841  15.996 -0.4287 -0.1179 -0.0423
 1866SOL    HW117234   2.277   2.790  16.003  0.4656 -1.3638  1.1907
 1866SOL    HW217235   2.353   2.863  15.903 -1.7825 -0.3274 -0.0201
 1867SOL     OW17236   3.873   4.064   6.202 -0.1842  0.0839  0.4134
 1867SOL    HW117237   3.795   4.120   6.215 -0.8586 -1.6037  3.5522
 1867SOL    HW217238   3.892   4.051   6.294 -1.1600 -0.5072  0.5294
 1868SOL     OW17239   2.164   2.857  14.528 -0.1010  0.4379  1.0016
 1868SOL    HW117240   2.077   2.856  14.487  1.1883  1.8923 -1.7151
 1868SOL    HW217241   2.149   2.825  14.617 -0.9118  4.2336  2.2221
 1869SOL     OW17242   1.654   0.104   8.885 -1.1469 -0.3031 -0.2648
 1869SOL    HW117243   1.600   0.040   8.929 -0.4158 -1.3450 -0.8763
 1869SOL    HW217244   1.659   0.061   8.799  1.0971 -2.8853  1.1671
 1870SOL     OW17245   3.679   1.843   3.556 -0.0844 -0.4616  0.2392
 1870SOL    HW117246   3.616   1.914   3.543  0.7878  0.3171  0.3167
 1870SOL    HW217247   3.690   1.853   3.651  0.8628 -2.7442  0.3535
 1871SOL     OW17248   3.212   0.631   8.780 -0.6215 -0.2907 -0.0570
 1871SOL    HW117249   3.178   0.626   8.869  0.0941  1.1338  0.2881
 1871SOL    HW217250   3.275   0.702   8.787  1.0707 -1.7610 -0.3770
 1872SOL     OW17251   3.485   4.266   9.636 -0.0166  0.7344  0.4088
 1872SOL    HW117252   3.486   4.337   9.571  2.0800  1.6958  1.5128
 1872SOL    HW217253   3.408   4.218   9.605  0.2908 -0.2880  1.2396
 1873SOL     OW17254   0.614   3.214   4.807  0.5299 -0.1975  0.5139
 1873SOL    HW117255   0.697   3.232   4.851  1.3245  0.1214 -1.0914
 1873SOL    HW217256   0.640   3.154   4.737 -0.6829 -0.5583  0.3709
 1874SOL     OW17257   1.946   1.867  16.285 -0.8873 -0.2063  0.5633
 1874SOL    HW117258   1.891   1.945  16.296 -0.3432  0.5531 -2.2200
 1874SOL    HW217259   2.023   1.900  16.240 -1.5032 -0.3364 -0.6094
 1875SOL     OW17260   3.347   1.293   2.864 -0.0372  0.7757  0.3563
 1875SOL    HW117261   3.336   1.203   2.896  0.4713  0.9413  0.9882
 1875SOL    HW217262   3.335   1.343   2.944 -1.5498 -1.2191  1.3902
 1876SOL     OW17263   3.350   1.875  15.767  0.9731 -0.1481  1.1569
 1876SOL    HW117264   3.428   1.868  15.822  0.5147 -1.6069  1.6179
 1876SOL    HW217265   3.394   1.898  15.685  0.0401 -0.4698  0.5685
 1877SOL     OW17266   1.127   2.778   2.517 -0.1171  0.0940  0.1226
 1877SOL    HW117267   1.222   2.771   2.522 -0.0239  0.9864 -0.2823
 1877SOL    HW217268   1.101   2.743   2.602  0.6328  0.1611  0.3780
 1878SOL     OW17269   0.329   1.092   4.845 -0.4172  0.2384 -0.0231
 1878SOL    HW117270   0.316   1.170   4.791 -1.4410 -1.6214 -2.4809
 1878SOL    HW217271   0.388   1.130   4.909 -0.3418  0.7890 -0.4205
 1879SOL     OW17272   0.996   3.079   0.379  0.1382 -0.1885 -0.1125
 1879SOL    HW117273   0.923   3.020   0.360 -2.0117  2.1815  0.7175
 1879SOL    HW217274   0.947   3.159   0.398 -0.6580 -0.8883  0.7899
 1880SOL     OW17275   3.869   1.669  10.603 -0.0319  0.2159 -0.1643
 1880SOL    HW117276   3.891   1.586  10.646  2.3227  1.3085  0.7194
 1880SOL    HW217277   3.799   1.637  10.546 -0.9965  0.4372  0.9148
 1881SOL     OW17278   3.975   3.900   1.657 -0.1508  0.6223  0.0012
 1881SOL    HW117279   4.031   3.864   1.725 -0.6709 -1.2655 -0.5627
 1881SOL    HW217280   3.984   3.839   1.583  1.4612 -0.5765  1.2027
 1882SOL     OW17281   0.018   0.310   1.426 -0.3774 -0.2990 -0.3408
 1882SOL    HW117282   4.726   0.370   1.356 -1.5866 -0.4995 -0.0246
 1882SOL    HW217283   4.714   0.352   1.501 -0.2618  0.0172 -0.4550
 1883SOL     OW17284   1.873   1.952   3.743  0.1938 -0.7132 -0.6959
 1883SOL    HW117285   1.867   1.988   3.832 -1.5299 -0.3977 -0.9325
 1883SOL    HW217286   1.785   1.961   3.707 -0.2910  0.0614  0.6829
 1884SOL     OW17287   0.635   2.408   6.772 -0.1102  0.1532  0.6987
 1884SOL    HW117288   0.599   2.491   6.803  0.5877  0.7358 -0.0371
 1884SOL    HW217289   0.729   2.418   6.791  0.1099 -1.5920  0.5257
 1885SOL     OW17290   2.888   1.991  12.845 -0.2626  0.6188  0.3446
 1885SOL    HW117291   2.812   2.049  12.845  0.1763  1.1884 -0.3165
 1885SOL    HW217292   2.960   2.044  12.877 -0.3820  1.4710 -0.7875
 1886SOL     OW17293   1.859   2.001  12.305  0.0015 -0.3630  0.6068
 1886SOL    HW117294   1.893   2.028  12.390 -0.9466  0.3755  0.7546
 1886SOL    HW217295   1.767   2.025  12.316  0.3122  2.2168 -2.3783
 1887SOL     OW17296   1.601   3.093   6.376  0.0945 -0.0539 -0.2960
 1887SOL    HW117297   1.584   3.177   6.333 -0.9985  0.2927  0.8094
 1887SOL    HW217298   1.610   3.125   6.466  1.6766  1.3621 -0.9475
 1888SOL     OW17299   0.396   2.872   3.105 -0.2512  0.1821 -0.1856
 1888SOL    HW117300   0.472   2.906   3.153  0.1575 -1.0169  0.0201
 1888SOL    HW217301   0.416   2.890   3.014  2.8304  0.9927  0.6541
 1889SOL     OW17302   3.915   2.372   5.063  0.0196  0.6206  0.3866
 1889SOL    HW117303   3.821   2.369   5.083 -0.2693 -1.4009 -1.3082
 1889SOL    HW217304   3.917   2.460   5.025  1.1367 -0.0901 -1.2155
 1890SOL     OW17305   1.043   2.126   0.409  0.1844 -0.1668  0.3081
 1890SOL    HW117306   1.131   2.139   0.445  0.6255 -3.1350  0.3579
 1890SOL    HW217307   1.006   2.212   0.392 -1.3863 -0.9514 -0.1942
 1891SOL     OW17308   3.731   0.732   0.803 -0.0694  0.6142  0.4775
 1891SOL    HW117309   3.657   0.791   0.796  1.5842  2.7034  0.7279
 1891SOL    HW217310   3.718   0.683   0.884  0.0949 -0.6063 -0.2205
 1892SOL     OW17311   0.571   4.224  15.601  0.1489 -0.3273  0.2150
 1892SOL    HW117312   0.667   4.226  15.609  0.3979 -1.0826 -2.5930
 1892SOL    HW217313   0.548   4.171  15.677 -0.0772  0.0347  0.3963
 1893SOL     OW17314   0.725   1.816   9.539  0.6678  0.2209  0.2718
 1893SOL    HW117315   0.749   1.791   9.450  0.1074 -2.0554  0.7484
 1893SOL    HW217316   0.630   1.804   9.541  0.8356 -0.8653  2.0980
 1894SOL     OW17317   4.703   1.151   5.269  0.5589 -0.0497  0.2034
 1894SOL    HW117318   4.693   1.204   5.348 -1.3065  0.9894 -0.7497
 1894SOL    HW217319   0.048   1.111   5.300 -0.8821 -3.0749  0.0602
 1895SOL     OW17320   4.422   1.630  10.628 -0.0458 -0.3931 -0.5528
 1895SOL    HW117321   4.386   1.656  10.544 -1.7522  0.4797  0.4502
 1895SOL    HW217322   4.486   1.701  10.636  0.3325 -1.1600  3.3707
 1896SOL     OW17323   1.945   1.754   5.759 -0.3484  0.2072  0.3547
 1896SOL    HW117324   1.971   1.780   5.671  1.4449 -0.0312  0.8183
 1896SOL    HW217325   1.994   1.672   5.770 -2.0983 -1.0082 -0.9685
 1897SOL     OW17326   3.181   0.546   4.390  0.8344 -0.0455  0.7377
 1897SOL    HW117327   3.272   0.570   4.370 -0.1990  2.3421 -1.1304
 1897SOL    HW217328   3.138   0.540   4.305  3.8992  1.1382 -0.9137
 1898SOL     OW17329   4.505   4.082  16.980 -0.1189  0.0357 -0.2150
 1898SOL    HW117330   4.597   4.107  16.965  0.3124 -0.1196  2.0876
 1898SOL    HW217331   4.473   4.169  17.003  1.2614  0.3738  0.4857
 1899SOL     OW17332   3.058   1.303   9.277  0.1017  0.0289 -0.1998
 1899SOL    HW117333   3.036   1.264   9.192  2.3664 -0.3101 -0.6489
 1899SOL    HW217334   3.137   1.256   9.305  0.0165 -0.2997 -0.5145
 1900SOL     OW17335   0.671   2.477   8.912  0.0166 -0.4976  0.5031
 1900SOL    HW117336   0.734   2.448   8.847 -1.7570 -2.5241 -0.3158
 1900SOL    HW217337   0.681   2.573   8.914 -2.1985 -0.2461 -0.9568
 1901SOL     OW17338   4.264   3.396   5.256 -0.4570 -0.7349  0.3102
 1901SOL    HW117339   4.353   3.414   5.284 -0.7489  1.4721 -0.1907
 1901SOL    HW217340   4.227   3.477   5.222 -0.2705  0.3155  2.6365
 1902SOL     OW17341   1.383   3.062   5.101  0.0846 -0.1556  0.7543
 1902SOL    HW117342   1.358   3.017   5.020  0.3301 -1.4362  1.3809
 1902SOL    HW217343   1.308   3.032   5.153 -0.3108  0.6655  0.6544
 1903SOL     OW17344   1.896   3.965   5.828 -0.5953 -0.3604 -0.0068
 1903SOL    HW117345   1.890   3.902   5.899 -3.9907  0.2588  0.2223
 1903SOL    HW217346   1.988   3.992   5.831 -0.5183 -0.5650 -0.4947
 1904SOL     OW17347   0.539   2.157   6.777  0.1767  0.1705 -0.5039
 1904SOL    HW117348   0.582   2.242   6.784  0.2885  0.0504  0.3231
 1904SOL    HW217349   0.466   2.172   6.837  0.1692 -0.3880 -0.3729
 1905SOL     OW17350   4.623   0.625  12.835 -0.3065  0.0485  0.0029
 1905SOL    HW117351   4.564   0.663  12.899  1.5114  2.2312  0.3730
 1905SOL    HW217352   4.688   0.695  12.825 -1.4344  1.0819 -0.0899
 1906SOL     OW17353   0.340   0.245  10.581  0.7757  0.0956 -0.2740
 1906SOL    HW117354   0.394   0.255  10.660  1.3066 -0.2951 -0.5826
 1906SOL    HW217355   0.290   0.327  10.580  1.4329  0.5054  1.0290
 1907SOL     OW17356   4.301   0.397   4.058 -0.1419  0.2323 -0.6165
 1907SOL    HW117357   4.265   0.332   3.998 -0.8304 -1.8435  2.0186
 1907SOL    HW217358   4.364   0.342   4.105 -1.7501 -0.0144  1.2660
 1908SOL     OW17359   0.922   0.277   2.030 -0.0678  0.5219 -0.4384
 1908SOL    HW117360   0.940   0.243   1.942 -0.7261 -2.7308  0.6491
 1908SOL    HW217361   0.979   0.230   2.090  0.1741 -0.9817 -1.8427
 1909SOL     OW17362   3.478   3.214   6.120  0.7374 -0.3309  0.1233
 1909SOL    HW117363   3.498   3.293   6.069  1.0498 -1.1034 -0.9313
 1909SOL    HW217364   3.490   3.232   6.214  3.0150 -1.0649 -0.0307
 1910SOL     OW17365   1.949   3.475   8.975  0.0712 -0.2721  0.1180
 1910SOL    HW117366   2.003   3.528   8.916  0.6134 -0.7611  0.1735
 1910SOL    HW217367   2.018   3.419   9.011 -0.8686 -1.9553 -0.7193
 1911SOL     OW17368   0.104   0.418  10.567 -0.3968 -0.0165 -0.1022
 1911SOL    HW117369   0.030   0.458  10.521 -1.7824  0.4067  2.5184
 1911SOL    HW217370   0.079   0.392  10.655 -0.7124  0.6556  0.0021
 1912SOL     OW17371   4.407   3.103   7.819  0.2172 -0.3928 -0.1995
 1912SOL    HW117372   4.495   3.066   7.809  0.3599  0.7124 -3.0594
 1912SOL    HW217373   4.364   3.061   7.744 -0.6149 -1.1991  0.7161
 1913SOL     OW17374   0.017   4.583  16.289 -0.0661  0.0353  0.1580
 1913SOL    HW117375   4.709   4.630  16.218  2.6840 -1.1109 -2.2926
 1913SOL    HW217376   4.703   4.627  16.357  1.3513  0.9169  0.6555
 1914SOL     OW17377   1.109   0.115   2.654 -0.4232  0.7060  0.2057
 1914SOL    HW117378   1.120   0.020   2.641 -1.3462  0.7107 -0.5989
 1914SOL    HW217379   1.027   0.131   2.700 -0.5109 -1.8330  0.9715
 1915SOL     OW17380   0.907   2.656   2.874  0.7585  0.4339 -0.1517
 1915SOL    HW117381   0.994   2.674   2.839  1.0262  1.2046  0.9246
 1915SOL    HW217382   0.896   2.737   2.923 -0.6739 -0.5390  1.1200
 1916SOL     OW17383   3.818   4.149   9.905  0.3257  0.1458 -0.2704
 1916SOL    HW117384   3.783   4.060   9.898 -0.8143  0.4519  1.6643
 1916SOL    HW217385   3.741   4.184   9.859  1.5465  2.2817 -0.6806
 1917SOL     OW17386   2.279   1.681   5.673 -0.2395  0.1585 -0.5346
 1917SOL    HW117387   2.286   1.642   5.585  1.3988  0.3365 -0.4803
 1917SOL    HW217388   2.204   1.630   5.703 -0.2128 -1.7895 -3.7183
 1918SOL     OW17389   4.735   1.739   4.995 -0.0104 -0.0821 -0.3032
 1918SOL    HW117390   4.708   1.726   5.086  0.0085  1.7970 -0.0376
 1918SOL    HW217391   0.091   1.761   5.001  0.6858 -2.6490 -1.6009
 1919SOL     OW17392   4.365   1.121   9.523  0.2289 -0.3017 -0.2178
 1919SOL    HW117393   4.435   1.098   9.462  1.2416 -0.3275  0.9384
 1919SOL    HW217394   4.314   1.041   9.532 -1.7700  0.8676 -0.9404
 1920SOL     OW17395   3.073   3.901  10.044 -0.9399  0.1472 -0.3096
 1920SOL    HW117396   3.048   3.962   9.975 -2.4889  0.2561  0.3597
 1920SOL    HW217397   3.024   3.939  10.117  0.9596 -0.7636  1.4453
 1921SOL     OW17398   3.107   2.155   2.854 -0.0152 -0.2391  0.5362
 1921SOL    HW117399   3.188   2.182   2.812 -0.8616 -1.6425 -2.0136
 1921SOL    HW217400   3.103   2.059   2.853  0.2790 -0.2489 -0.3827
 1922SOL     OW17401   3.518   0.255   3.894  0.4615 -0.4866  0.0060
 1922SOL    HW117402   3.455   0.306   3.844  2.0805  0.5787 -0.9289
 1922SOL    HW217403   3.545   0.312   3.966 -1.4659  1.8481 -1.1534
 1923SOL     OW17404   3.518   1.251   6.056 -0.0948  0.4954  0.4850
 1923SOL    HW117405   3.516   1.347   6.051  1.2159  0.2795 -3.5955
 1923SOL    HW217406   3.449   1.227   5.994  0.7884 -1.6540  0.3519
 1924SOL     OW17407   3.133   4.300   1.424  0.1588 -0.1715 -0.0634
 1924SOL    HW117408   3.129   4.341   1.338  0.4190  1.2782  0.6147
 1924SOL    HW217409   3.078   4.366   1.467  2.3378  1.6766 -0.0926
 1925SOL     OW17410   2.951   0.618  11.512  0.1614 -0.3271 -1.2464
 1925SOL    HW117411   3.006   0.546  11.543 -1.0887 -0.9499 -0.5095
 1925SOL    HW217412   2.873   0.565  11.499  0.1083 -0.9763  1.8917
 1926SOL     OW17413   2.388   0.849   6.940 -0.2987 -0.3468  0.0302
 1926SOL    HW117414   2.462   0.883   6.891 -0.0365 -0.5197  0.3087
 1926SOL    HW217415   2.404   0.756   6.923 -0.2679 -0.3023 -0.1854
 1927SOL     OW17416   0.521   0.615  14.464 -0.3376  0.0325 -0.3794
 1927SOL    HW117417   0.571   0.630  14.384  2.8753 -2.6794  1.1045
 1927SOL    HW217418   0.548   0.693  14.513 -1.9554 -0.8210  1.8739
 1928SOL     OW17419   1.833   3.181   5.858 -0.4972  0.0064  0.1075
 1928SOL    HW117420   1.908   3.211   5.909  0.8381 -1.6295 -0.8655
 1928SOL    HW217421   1.870   3.105   5.813 -0.3723  0.2420 -0.1875
 1929SOL     OW17422   0.929   1.657  10.889  0.4722  0.7785 -0.6651
 1929SOL    HW117423   0.927   1.746  10.853 -1.0264  0.5352 -1.1688
 1929SOL    HW217424   1.023   1.638  10.896  0.0199 -0.9358  0.6007
 1930SOL     OW17425   2.841   1.280  10.918 -0.3199 -0.1917  0.2640
 1930SOL    HW117426   2.931   1.304  10.942  0.0515 -0.4846 -0.8733
 1930SOL    HW217427   2.839   1.185  10.916 -0.9858 -0.1151 -2.3109
 1931SOL     OW17428   4.508   1.672   2.514  0.4054  0.2510 -0.5393
 1931SOL    HW117429   4.446   1.653   2.444 -1.1675  1.0264  0.6513
 1931SOL    HW217430   4.502   1.766   2.500 -2.2702 -0.1643 -2.0824
 1932SOL     OW17431   0.283   2.450   5.166  0.1124 -0.4129 -0.1284
 1932SOL    HW117432   0.221   2.523   5.172  0.6506 -0.1479  2.4680
 1932SOL    HW217433   0.276   2.417   5.077 -0.9631  1.9993 -0.9417
 1933SOL     OW17434   1.498   0.177  17.401  0.3351  0.4646 -0.0483
 1933SOL    HW117435   1.487   0.179  17.305 -0.9529  1.0558  0.1092
 1933SOL    HW217436   1.483   0.083  17.409  0.6202  0.4384  0.1447
 1934SOL     OW17437   0.755   0.864   1.278  0.2449 -0.4209 -0.0327
 1934SOL    HW117438   0.827   0.805   1.254 -0.6221 -0.8811 -1.4749
 1934SOL    HW217439   0.687   0.835   1.218  0.1425 -3.8747  1.7567
 1935SOL     OW17440   4.226   4.495   6.506  0.6782  0.0979  0.1368
 1935SOL    HW117441   4.235   4.542   6.589 -1.5259  0.4775  0.1570
 1935SOL    HW217442   4.283   4.421   6.526  0.9770  0.0555 -0.8834
 1936SOL     OW17443   0.815   2.497  12.870 -0.6236  0.0502 -0.3629
 1936SOL    HW117444   0.793   2.590  12.881  1.5109  0.4758  0.1571
 1936SOL    HW217445   0.786   2.455  12.951  0.3717  1.4121  0.6880
 1937SOL     OW17446   2.578   1.165  13.183 -0.1614 -0.0594 -0.2854
 1937SOL    HW117447   2.486   1.189  13.175  0.1873  1.6591  0.7834
 1937SOL    HW217448   2.596   1.218  13.261 -0.7169 -0.6379  0.2303
 1938SOL     OW17449   0.030   1.209   2.980 -0.1857 -0.0710  0.3251
 1938SOL    HW117450   0.024   1.259   2.899  1.4210  2.2123  1.6228
 1938SOL    HW217451   4.674   1.203   3.006  0.3039 -0.0525  2.0830
 1939SOL     OW17452   3.472   1.965   8.352 -0.4228  0.1693 -0.4867
 1939SOL    HW117453   3.452   2.055   8.328  0.3201  0.2689 -0.7138
 1939SOL    HW217454   3.530   1.935   8.282  0.5049 -1.7937  1.1141
 1940SOL     OW17455   3.401   2.190  11.543 -0.3847  0.3641  0.5619
 1940SOL    HW117456   3.434   2.279  11.537  2.1667 -0.7232 -1.5614
 1940SOL    HW217457   3.484   2.142  11.540 -1.1229 -0.8013 -1.7119
 1941SOL     OW17458   0.513   3.523   3.930  0.6884 -0.3599 -0.4690
 1941SOL    HW117459   0.549   3.474   4.004 -0.2234  0.8662  0.7987
 1941SOL    HW217460   0.420   3.521   3.950  1.0611  0.3341  1.3378
 1942SOL     OW17461   1.437   0.154   5.519  0.2656  0.5286  0.5642
 1942SOL    HW117462   1.357   0.175   5.567 -0.7192 -1.0414 -0.3934
 1942SOL    HW217463   1.477   0.235   5.549  0.1761 -0.0668  2.2647
 1943SOL     OW17464   4.707   3.782  16.797  0.0594 -0.6101  0.1487
 1943SOL    HW117465   4.697   3.828  16.714  1.0297 -1.2313 -0.3073
 1943SOL    HW217466   0.043   3.726  16.769 -0.6299 -1.3302 -0.1686
 1944SOL     OW17467   4.162   3.176   9.055  0.2023  0.3032  0.0889
 1944SOL    HW117468   4.140   3.153   9.146 -1.4297  0.7441 -0.2005
 1944SOL    HW217469   4.076   3.172   9.013  0.7978 -0.6387 -1.0447
 1945SOL     OW17470   4.409   3.800   3.636 -0.3726 -0.0599  0.0082
 1945SOL    HW117471   4.491   3.820   3.680 -1.2469  2.2753  0.5901
 1945SOL    HW217472   4.366   3.734   3.689 -3.6886  0.7442 -1.6477
 1946SOL     OW17473   3.630   2.053   8.152 -0.0436 -0.2283 -0.2368
 1946SOL    HW117474   3.703   2.002   8.118  0.0917 -1.9424  2.5929
 1946SOL    HW217475   3.574   2.071   8.077 -1.1650  0.3962  0.7608
 1947SOL     OW17476   3.100   2.942  11.371  0.5374 -0.4119 -0.0362
 1947SOL    HW117477   3.090   2.853  11.335  1.9663 -1.1340  1.3189
 1947SOL    HW217478   3.089   2.920  11.463 -1.9386 -0.2243 -0.3015
 1948SOL     OW17479   3.796   4.653  13.767  0.0921  0.0122  0.8247
 1948SOL    HW117480   3.845   4.664  13.848  1.1107  0.5106  0.1467
 1948SOL    HW217481   3.718   4.610  13.802 -0.6694  1.6190  1.1027
 1949SOL     OW17482   4.114   3.032   3.358 -0.0140  0.3905  0.2024
 1949SOL    HW117483   4.172   3.053   3.286 -1.6321 -0.4611 -1.3510
 1949SOL    HW217484   4.040   2.996   3.309  0.9200  0.3546 -1.1842
 1950SOL     OW17485   3.622   2.021   2.199  0.6432  0.3230 -0.6524
 1950SOL    HW117486   3.617   2.115   2.216  0.3070  0.2188 -0.1857
 1950SOL    HW217487   3.689   2.016   2.131  0.6414 -1.9800 -0.4719
 1951SOL     OW17488   4.189   2.936   7.735  0.1950  0.6142 -0.0609
 1951SOL    HW117489   4.142   3.012   7.770  1.2446  2.4611 -2.6755
 1951SOL    HW217490   4.160   2.934   7.643 -1.7232  1.4412  0.5253
 1952SOL     OW17491   0.039   0.075   6.757 -0.1018 -0.2601 -0.5186
 1952SOL    HW117492   0.088   0.144   6.713  1.0179 -0.4558  0.4515
 1952SOL    HW217493   0.077   4.727   6.734 -0.3901 -0.7778  0.9158
 1953SOL     OW17494   1.590   0.312   2.937 -0.0484 -0.0036 -0.0519
 1953SOL    HW117495   1.611   0.339   2.847 -0.3398 -0.7404 -0.3351
 1953SOL    HW217496   1.497   0.334   2.943  0.4656  2.6172 -1.2135
 1954SOL     OW17497   4.693   1.952   8.660 -0.0724  0.0291  0.2234
 1954SOL    HW117498   4.675   2.045   8.650 -0.0766  0.2398  2.3160
 1954SOL    HW217499   0.050   1.960   8.641 -0.4382  1.3140 -1.0647
 1955SOL     OW17500   0.387   1.948   5.336  0.1053 -0.6697  0.6126
 1955SOL    HW117501   0.407   1.935   5.429  2.0291 -0.6180  0.2129
 1955SOL    HW217502   0.472   1.936   5.293 -0.1905  0.8113 -0.3970
 1956SOL     OW17503   1.776   2.172  11.421 -0.1027  0.1811 -0.9288
 1956SOL    HW117504   1.737   2.258  11.406  0.0208  0.2235 -1.0093
 1956SOL    HW217505   1.869   2.193  11.429 -0.3097  0.9947 -0.6946
 1957SOL     OW17506   3.302   0.227   6.961  0.5229 -0.3165  0.0990
 1957SOL    HW117507   3.381   0.218   6.909  0.5773  2.6861 -0.3422
 1957SOL    HW217508   3.326   0.296   7.022 -0.4308 -0.2713  0.4298
 1958SOL     OW17509   1.101   0.268   4.417 -0.4189 -0.1833 -0.5552
 1958SOL    HW117510   1.070   0.358   4.425  1.0542  0.2880 -0.1025
 1958SOL    HW217511   1.020   0.218   4.418 -1.1870  1.0836  0.3813
 1959SOL     OW17512   0.925   1.513   9.523 -0.2283  0.9205  0.4467
 1959SOL    HW117513   0.832   1.497   9.507  0.0797 -0.5401  0.1828
 1959SOL    HW217514   0.957   1.424   9.537  1.0646  1.6452  2.1772
 1960SOL     OW17515   1.047   3.373   7.687 -0.2067 -0.0039  0.0194
 1960SOL    HW117516   1.127   3.410   7.724 -1.8036  1.7918  1.7584
 1960SOL    HW217517   1.038   3.286   7.726 -1.0398  0.7825  1.6077
 1961SOL     OW17518   2.685   0.635  16.361  0.0750 -0.2270 -0.2579
 1961SOL    HW117519   2.651   0.717  16.398 -0.9170 -0.2473 -1.1277
 1961SOL    HW217520   2.727   0.615  16.445 -0.4137 -1.3402 -0.2798
 1962SOL     OW17521   4.367   1.476   4.225 -0.2816  0.1040  0.1980
 1962SOL    HW117522   4.384   1.403   4.284 -1.5620 -0.0790  0.3405
 1962SOL    HW217523   4.315   1.535   4.280  0.7937  2.2459 -1.0457
 1963SOL     OW17524   1.861   1.522   9.297 -0.1898 -0.0215  0.0663
 1963SOL    HW117525   1.807   1.558   9.227 -0.1938  1.6354  0.9267
 1963SOL    HW217526   1.800   1.453   9.321 -1.0364  0.3924 -0.8755
 1964SOL     OW17527   0.574   0.434   6.264 -0.0325  0.0269  0.4829
 1964SOL    HW117528   0.540   0.348   6.241  0.6415 -1.1083  3.7060
 1964SOL    HW217529   0.492   0.483   6.272  0.2758  0.9574 -1.9334
 1965SOL     OW17530   2.929   2.998   2.883 -0.3132 -0.5555 -0.6737
 1965SOL    HW117531   2.909   2.912   2.846  0.7583 -0.9909 -0.2534
 1965SOL    HW217532   2.891   3.056   2.818  0.5108  1.2982  0.4803
 1966SOL     OW17533   4.238   2.095  10.083  0.0744  0.4315  0.5099
 1966SOL    HW117534   4.169   2.030  10.069  1.2372 -0.8303  0.5961
 1966SOL    HW217535   4.216   2.159  10.016 -2.1841  0.0368  0.8703
 1967SOL     OW17536   3.520   1.682   0.857  0.4163 -0.0156 -0.2361
 1967SOL    HW117537   3.487   1.675   0.947 -2.5222  0.1880 -1.3005
 1967SOL    HW217538   3.503   1.776   0.853 -0.7973 -0.2241  0.0769
 1968SOL     OW17539   0.568   1.042   6.841 -0.7485 -0.0635 -0.1087
 1968SOL    HW117540   0.551   1.066   6.932  1.1050 -0.9578  0.4739
 1968SOL    HW217541   0.648   0.990   6.849 -0.6991 -0.0376 -0.4632
 1969SOL     OW17542   0.777   1.573   9.058 -0.3266 -0.2055  0.2590
 1969SOL    HW117543   0.849   1.525   9.017  1.7943  1.6044  1.8879
 1969SOL    HW217544   0.714   1.501   9.062 -1.0522  0.4910  1.2287
 1970SOL     OW17545   3.755   1.667   4.815  0.0867  0.0073  0.1641
 1970SOL    HW117546   3.778   1.623   4.897  1.3587  0.1857 -0.0892
 1970SOL    HW217547   3.825   1.620   4.769 -0.6788 -1.5640  0.6159
 1971SOL     OW17548   1.401   2.821   2.509  0.2215 -0.1331 -0.0836
 1971SOL    HW117549   1.419   2.785   2.422 -0.1218 -0.8217  0.1325
 1971SOL    HW217550   1.455   2.900   2.512 -0.0310  0.0243  0.2223
 1972SOL     OW17551   2.394   2.256   7.469  0.0359  0.0805  0.0458
 1972SOL    HW117552   2.382   2.329   7.530  1.6376 -0.6448  1.2138
 1972SOL    HW217553   2.401   2.189   7.537 -1.1932  1.1563  1.2317
 1973SOL     OW17554   1.387   3.488  12.626  0.0824 -0.2438 -0.2441
 1973SOL    HW117555   1.401   3.410  12.681 -1.0733  0.3871  0.9251
 1973SOL    HW217556   1.479   3.513  12.639  0.6328 -2.0669 -0.5008
 1974SOL     OW17557   0.583   0.946   2.058 -0.5680  0.5798 -0.0303
 1974SOL    HW117558   0.614   0.895   1.984 -1.7408  0.9539 -0.7900
 1974SOL    HW217559   0.493   0.960   2.028 -1.0882  0.0297  1.2341
 1975SOL     OW17560   0.293   4.412  11.742 -0.5845  0.7812  0.0822
 1975SOL    HW117561   0.324   4.446  11.658  0.6401 -0.2880  0.0860
 1975SOL    HW217562   0.370   4.422  11.798 -0.1352 -0.6601 -0.2672
 1976SOL     OW17563   2.515   2.906   6.319  0.1192  0.0075 -0.3776
 1976SOL    HW117564   2.509   2.893   6.414  0.6244 -0.1330 -0.3624
 1976SOL    HW217565   2.439   2.964   6.316  0.0898 -0.0557 -0.8026
 1977SOL     OW17566   4.043   0.992   5.679  0.1987  0.6807  0.4492
 1977SOL    HW117567   4.081   0.904   5.683 -1.7538 -0.1971 -0.2313
 1977SOL    HW217568   3.958   0.976   5.720 -0.0296 -1.3157 -0.7906
 1978SOL     OW17569   1.935   0.881   7.891 -0.1168 -0.0345 -0.2638
 1978SOL    HW117570   1.961   0.790   7.873 -0.9437  0.0807 -2.0722
 1978SOL    HW217571   1.851   0.859   7.931  0.2876  2.4476  1.9063
 1979SOL     OW17572   0.163   2.867  15.170  0.8311 -0.7851 -0.1295
 1979SOL    HW117573   0.070   2.859  15.188  0.6169  0.0214 -0.8991
 1979SOL    HW217574   0.164   2.897  15.079  0.6177  2.1701  0.8201
 1980SOL     OW17575   1.634   2.380   5.961  0.2274  0.1068  0.6539
 1980SOL    HW117576   1.597   2.298   5.994 -0.2419  0.0114 -0.1005
 1980SOL    HW217577   1.678   2.406   6.042  1.0626  0.7956 -0.0158
 1981SOL     OW17578   2.861   2.664  12.175 -0.3943  0.0263 -0.6541
 1981SOL    HW117579   2.783   2.673  12.121  0.1858 -1.1210 -1.6862
 1981SOL    HW217580   2.826   2.687  12.261 -0.3694  1.4661 -1.0267
 1982SOL     OW17581   0.294   0.519   9.239 -0.0363  0.2428  0.2244
 1982SOL    HW117582   0.299   0.427   9.265  1.4162  0.2058 -0.2112
 1982SOL    HW217583   0.340   0.505   9.157 -0.7498 -1.2224  0.0826
 1983SOL     OW17584   3.068   2.185   1.771 -0.6161  0.2482 -0.5214
 1983SOL    HW117585   3.120   2.265   1.761  0.2737  0.0057  2.2830
 1983SOL    HW217586   3.002   2.207   1.837 -0.2932 -0.6630  0.0888
 1984SOL     OW17587   0.526   2.221   3.977  0.4393 -0.4380 -0.9778
 1984SOL    HW117588   0.451   2.221   4.036 -0.0946  0.7091 -1.6672
 1984SOL    HW217589   0.531   2.127   3.958  0.2817 -0.5046 -0.6952
 1985SOL     OW17590   1.531   2.644   5.150  0.2662 -0.5313  0.1955
 1985SOL    HW117591   1.556   2.712   5.212 -0.8334  0.0840 -0.0515
 1985SOL    HW217592   1.605   2.582   5.149  0.7034 -0.0181  0.4652
 1986SOL     OW17593   2.619   1.166   9.786  0.0228 -0.9133  0.1646
 1986SOL    HW117594   2.627   1.119   9.869  0.0638 -1.5090 -0.1798
 1986SOL    HW217595   2.696   1.123   9.748  0.1983 -0.8568  0.4539
 1987SOL     OW17596   3.188   1.201   7.875 -0.1501 -0.9062 -0.5807
 1987SOL    HW117597   3.265   1.202   7.819 -0.2426  1.6859 -0.6754
 1987SOL    HW217598   3.122   1.172   7.813 -2.0511 -1.1220  1.5416
 1988SOL     OW17599   1.675   3.695   3.543 -0.4689 -0.5502  0.1725
 1988SOL    HW117600   1.595   3.650   3.514 -0.6436  0.5941 -1.1104
 1988SOL    HW217601   1.665   3.768   3.482  0.3137  0.0928  0.8134
 1989SOL     OW17602   4.149   1.700   5.063  0.3807  0.2126  0.2059
 1989SOL    HW117603   4.222   1.756   5.089 -0.4375  0.6084  1.6141
 1989SOL    HW217604   4.080   1.749   5.106  1.0950  0.9094  0.5619
 1990SOL     OW17605   4.234   3.247   0.876  0.0466  0.0124  0.5628
 1990SOL    HW117606   4.208   3.307   0.805 -0.6063  0.3745  1.1001
 1990SOL    HW217607   4.161   3.268   0.935 -1.6225 -1.9313 -0.8201
 1991SOL     OW17608   1.021   3.397   7.403 -0.2897  0.2870  0.7040
 1991SOL    HW117609   1.018   3.403   7.499  0.3486 -0.9619  0.7892
 1991SOL    HW217610   0.973   3.474   7.372  0.3526  0.8031  0.9795
 1992SOL     OW17611   3.044   4.643  13.614  0.0132  0.2223 -0.1101
 1992SOL    HW117612   3.005   4.568  13.659  1.4226 -1.1311 -1.1994
 1992SOL    HW217613   2.961   4.688  13.595  1.6041  3.2982  0.2669
 1993SOL     OW17614   2.596   4.301   7.119  0.3817  0.1221  0.1087
 1993SOL    HW117615   2.655   4.233   7.151  0.6388  1.6356  2.8308
 1993SOL    HW217616   2.525   4.279   7.179  0.8932  0.1576  0.7240
 1994SOL     OW17617   3.402   1.963  16.473 -0.2034  0.1406  0.9689
 1994SOL    HW117618   3.355   2.042  16.445  0.2990  0.1465  0.1308
 1994SOL    HW217619   3.388   1.907  16.396 -0.8007 -0.2157  1.3442
 1995SOL     OW17620   2.434   4.130  17.631 -0.5903  0.0086  0.0253
 1995SOL    HW117621   2.379   4.201  17.664  0.1804  0.7190 -0.2205
 1995SOL    HW217622   2.371   4.104  17.564 -1.0299  0.2067  0.3604
 1996SOL     OW17623   4.359   0.177   2.130  0.2073  0.5012 -0.1827
 1996SOL    HW117624   4.446   0.212   2.150  1.1921 -2.2711  0.3841
 1996SOL    HW217625   4.371   0.099   2.184  1.3426  2.2525  2.0958
 1997SOL     OW17626   3.931   1.189   0.606 -0.2041 -0.4485  0.4913
 1997SOL    HW117627   3.962   1.144   0.527  0.3776 -0.9253  0.9918
 1997SOL    HW217628   3.945   1.281   0.583 -0.5409  0.3839  3.6406
 1998SOL     OW17629   0.671   1.102   9.110  0.0010  0.4229  0.6617
 1998SOL    HW117630   0.741   1.150   9.154  0.2866  1.9526 -1.4440
 1998SOL    HW217631   0.612   1.062   9.173 -0.7350 -0.3440 -0.5131
 1999SOL     OW17632   1.144   2.204   4.255  0.0209  0.2963  0.4549
 1999SOL    HW117633   1.200   2.252   4.316 -0.3840  2.1469 -0.6534
 1999SOL    HW217634   1.203   2.218   4.181  0.6071  1.9179  1.2332
 2000SOL     OW17635   1.236   4.686   3.489  0.0739 -0.2970 -0.0145
 2000SOL    HW117636   1.227   4.612   3.549 -1.0851 -1.1862 -1.2846
 2000SOL    HW217637   1.330   4.670   3.475  0.5901  0.4372  2.5385
 2001SOL     OW17638   2.810   0.329   3.310  0.3678 -0.5071  0.5865
 2001SOL    HW117639   2.890   0.381   3.297 -0.1948 -0.2449 -1.7749
 2001SOL    HW217640   2.848   0.244   3.334  1.8509  0.6292  2.2998
 2002SOL     OW17641   4.029   0.851  10.272 -0.1897 -0.0511  0.6750
 2002SOL    HW117642   3.983   0.918  10.323 -0.3118 -0.0805  0.6031
 2002SOL    HW217643   4.033   0.894  10.186 -2.7621 -2.4342 -0.6188
 2003SOL     OW17644   3.952   1.534   9.390  0.6126  0.6631 -0.5081
 2003SOL    HW117645   4.001   1.459   9.424 -2.0615 -0.9668 -0.2852
 2003SOL    HW217646   3.888   1.496   9.330  0.0233 -3.8931  2.9792
 2004SOL     OW17647   1.459   4.193  11.102 -0.3030  0.3087 -0.1951
 2004SOL    HW117648   1.389   4.223  11.159 -1.7520 -1.5427 -0.9935
 2004SOL    HW217649   1.408   4.149  11.035  0.2007 -0.5800  0.0001
 2005SOL     OW17650   0.644   4.266  12.067  0.2251  0.0538 -0.1865
 2005SOL    HW117651   0.580   4.195  12.075 -0.2632  0.5892  0.7569
 2005SOL    HW217652   0.588   4.340  12.040  0.0279  0.7627  2.1667
 2006SOL     OW17653   4.074   2.084   1.451 -0.4812  0.2019  0.3351
 2006SOL    HW117654   4.002   2.053   1.396 -1.5922 -2.2945  3.1910
 2006SOL    HW217655   4.141   2.082   1.383  0.9088  2.1763  1.6296
 2007SOL     OW17656   0.687   1.468  10.447 -0.3069  0.7060 -0.4258
 2007SOL    HW117657   0.743   1.546  10.439  1.9688 -1.1820 -2.7826
 2007SOL    HW217658   0.618   1.474  10.381 -0.6100 -2.4504 -0.3920
 2008SOL     OW17659   1.996   4.223  14.683  0.3461 -0.0010  0.0791
 2008SOL    HW117660   2.045   4.160  14.630  1.4122  0.6257  0.3205
 2008SOL    HW217661   1.973   4.284  14.613  2.3827 -0.5374 -1.0561
 2009SOL     OW17662   1.971   4.514   5.221 -0.4573 -0.0177  0.0538
 2009SOL    HW117663   1.882   4.544   5.202 -0.8469 -0.7814  0.7260
 2009SOL    HW217664   1.965   4.436   5.165  0.2089  1.1554 -1.6618
 2010SOL     OW17665   4.673   3.814  10.387 -0.8337 -0.1888  0.0929
 2010SOL    HW117666   4.594   3.793  10.337 -0.4167 -0.5912 -0.3862
 2010SOL    HW217667   4.727   3.736  10.379 -1.5205 -0.4370 -2.1839
 2011SOL     OW17668   4.664   1.222   3.830  0.1106  0.2861  0.5028
 2011SOL    HW117669   4.730   1.171   3.878  1.8058  1.9795 -0.0137
 2011SOL    HW217670   4.611   1.153   3.789  3.3848 -1.9357 -0.0951
 2012SOL     OW17671   4.499   0.622   4.618 -0.2174  0.2086 -0.3003
 2012SOL    HW117672   4.503   0.593   4.709  0.9084  0.6838 -0.1878
 2012SOL    HW217673   4.574   0.681   4.621  1.2106 -1.5292 -1.9734
 2013SOL     OW17674   1.917   1.501   4.997 -0.4145 -0.1381  0.4416
 2013SOL    HW117675   1.873   1.419   5.017 -1.4130  0.5190  0.9195
 2013SOL    HW217676   1.858   1.572   4.970 -1.0323 -0.8574 -0.0858
 2014SOL     OW17677   3.830   0.430   3.951  0.5274  0.1777 -0.5629
 2014SOL    HW117678   3.795   0.514   3.923 -1.0997 -0.3732 -0.2025
 2014SOL    HW217679   3.872   0.460   4.031 -3.2041 -1.4912  2.0651
 2015SOL     OW17680   1.247   2.357  14.986  0.0747  0.1454  0.6193
 2015SOL    HW117681   1.199   2.433  15.017  0.5027  0.6109  0.1530
 2015SOL    HW217682   1.314   2.344  15.053 -1.0198  2.7697  2.1923
 2016SOL     OW17683   0.531   1.282   8.716 -0.0702 -0.2737  0.2316
 2016SOL    HW117684   0.589   1.297   8.642  1.1807 -2.2577  0.8218
 2016SOL    HW217685   0.530   1.186   8.717  3.3035 -0.3130 -0.8068
 2017SOL     OW17686   2.163   1.113  16.905  0.5700  0.1427 -0.1381
 2017SOL    HW117687   2.170   1.208  16.903  0.5905  0.1419 -0.1106
 2017SOL    HW217688   2.247   1.091  16.865  0.9014  2.0677 -0.5144
 2018SOL     OW17689   2.609   2.511   1.282  0.1232 -0.4599 -0.1088
 2018SOL    HW117690   2.531   2.532   1.231 -1.1026 -0.2869  1.8127
 2018SOL    HW217691   2.589   2.419   1.298 -1.6729 -0.3001 -1.5115
 2019SOL     OW17692   4.484   1.108   6.623  0.3448  0.4823 -0.2848
 2019SOL    HW117693   4.426   1.096   6.548  2.1804  0.1368 -1.6463
 2019SOL    HW217694   4.451   1.189   6.664 -0.5680  1.8487 -3.7830
 2020SOL     OW17695   1.193   3.464   7.037 -0.0541  0.5666  0.7877
 2020SOL    HW117696   1.209   3.524   7.110 -3.6822 -0.7343  2.6416
 2020SOL    HW217697   1.110   3.418   7.051  0.3845 -0.6182 -0.5248
 2021SOL     OW17698   0.678   2.884   9.330  0.2512 -0.7860  0.5120
 2021SOL    HW117699   0.773   2.879   9.346 -0.2310  0.1548  3.6988
 2021SOL    HW217700   0.655   2.801   9.373 -1.4090 -0.4829  0.1960
 2022SOL     OW17701   0.921   4.428   3.491  0.0875  0.0862  0.5224
 2022SOL    HW117702   0.834   4.401   3.460  0.1080  1.3588 -0.6674
 2022SOL    HW217703   0.943   4.373   3.565 -0.0216 -0.9699 -0.2319
 2023SOL     OW17704   1.661   1.750   0.639  0.4807  0.0411 -0.4874
 2023SOL    HW117705   1.640   1.798   0.559  2.9178 -1.4176 -2.0180
 2023SOL    HW217706   1.583   1.697   0.651 -0.4617  1.3458 -0.7926
 2024SOL     OW17707   1.883   1.512  15.190  0.0494 -0.1493  0.9438
 2024SOL    HW117708   1.820   1.584  15.196  0.2742 -0.0281  1.9413
 2024SOL    HW217709   1.931   1.537  15.111  0.6913  2.1820  2.0875
 2025SOL     OW17710   2.919   4.724   3.079  0.4581 -0.5985 -0.2406
 2025SOL    HW117711   2.868   4.645   3.060  0.8759 -0.8452 -0.3603
 2025SOL    HW217712   2.995   4.688   3.124  0.3770 -1.1423 -0.5311
 2026SOL     OW17713   3.366   1.185   3.289 -0.4424 -0.2354  0.0116
 2026SOL    HW117714   3.302   1.215   3.353  0.8447 -0.4134  1.3704
 2026SOL    HW217715   3.327   1.098   3.289  0.4048 -0.6485 -4.2115
 2027SOL     OW17716   3.339   2.077   7.287 -0.1887 -0.3789  0.1477
 2027SOL    HW117717   3.272   2.028   7.238 -1.4079  0.2695  1.1930
 2027SOL    HW217718   3.330   2.061   7.381 -0.0230 -0.0933  0.2098
 2028SOL     OW17719   1.959   2.528   7.578 -0.6233 -0.4942  0.0135
 2028SOL    HW117720   2.043   2.566   7.604 -0.8338  0.5531 -0.8385
 2028SOL    HW217721   1.976   2.434   7.587  1.2674 -0.3777 -2.2022
 2029SOL     OW17722   3.478   4.479   1.726  0.5408  0.6353  0.2062
 2029SOL    HW117723   3.480   4.565   1.685 -2.1893 -0.8447 -3.0456
 2029SOL    HW217724   3.459   4.423   1.651 -1.2326  1.8919 -0.2813
 2030SOL     OW17725   2.218   4.312   1.931 -0.0831 -0.6926  0.0032
 2030SOL    HW117726   2.150   4.361   1.977  0.9649 -1.5323  2.5126
 2030SOL    HW217727   2.294   4.370   1.938 -0.1220 -0.9014  2.1585
 2031SOL     OW17728   4.503   2.653   7.705 -0.0336  0.0676  0.2433
 2031SOL    HW117729   4.447   2.580   7.730 -1.2821  0.5830 -1.0512
 2031SOL    HW217730   4.480   2.730   7.757 -1.7717  0.1143 -0.6001
 2032SOL     OW17731   2.171   3.513   9.656  0.4420  0.2621  0.6096
 2032SOL    HW117732   2.123   3.523   9.574 -0.4520  1.2658  1.2675
 2032SOL    HW217733   2.262   3.495   9.629 -0.2429 -1.7516 -0.3964
 2033SOL     OW17734   4.559   2.772  15.022 -0.1597  0.4634 -0.3545
 2033SOL    HW117735   4.482   2.740  15.068  1.2610 -1.4589  0.6797
 2033SOL    HW217736   4.597   2.826  15.091 -2.1594 -2.7109  3.2328
 2034SOL     OW17737   3.614   3.922   8.884 -0.3316 -0.5481  1.0113
 2034SOL    HW117738   3.650   3.974   8.956 -0.3678 -0.8761  1.2669
 2034SOL    HW217739   3.694   3.903   8.835 -1.6257 -2.6333 -0.3092
 2035SOL     OW17740   2.749   0.700  16.733 -0.3914  0.4453  0.7877
 2035SOL    HW117741   2.768   0.621  16.683 -2.9615 -1.2410  2.5112
 2035SOL    HW217742   2.689   0.744  16.673  0.2812 -1.5529 -1.3708
 2036SOL     OW17743   1.709   0.180  15.328 -0.0679 -0.3631 -0.1161
 2036SOL    HW117744   1.790   0.194  15.279 -1.0248 -1.6308 -2.0580
 2036SOL    HW217745   1.689   0.097  15.284  2.0717 -0.7242 -0.4352
 2037SOL     OW17746   0.937   2.011   3.552  0.3643 -0.1725  0.5691
 2037SOL    HW117747   1.024   2.027   3.589  0.5722  0.7491 -0.3219
 2037SOL    HW217748   0.899   1.966   3.627 -1.4458  1.0774  0.3919
 2038SOL     OW17749   2.770   2.762   3.244 -0.1414  0.1533  0.5929
 2038SOL    HW117750   2.705   2.761   3.314  0.1088 -1.4324  0.8077
 2038SOL    HW217751   2.724   2.816   3.180  3.1201  0.1096 -1.7689
 2039SOL     OW17752   1.295   1.194  12.274  0.2237 -0.3944 -0.3170
 2039SOL    HW117753   1.348   1.272  12.257  1.1643 -0.7397  0.9889
 2039SOL    HW217754   1.285   1.189  12.369  2.0304 -0.1403 -0.1040
 2040SOL     OW17755   2.000   3.175   5.538  0.3169  0.0070 -0.7001
 2040SOL    HW117756   2.006   3.113   5.611 -2.2294  2.0586  1.2863
 2040SOL    HW217757   2.002   3.259   5.585 -0.7183  0.4036 -1.3543
 2041SOL     OW17758   0.438   4.337   2.982  0.1504 -0.0552  0.4457
 2041SOL    HW117759   0.418   4.422   2.945 -1.4799 -0.6670 -0.0616
 2041SOL    HW217760   0.518   4.359   3.030  0.7296  0.0088 -0.5698
 2042SOL     OW17761   1.611   2.317  17.460 -0.4113  0.2250  0.1414
 2042SOL    HW117762   1.701   2.305  17.490 -0.6073  1.0798  1.0656
 2042SOL    HW217763   1.614   2.401  17.413 -0.8531 -0.5913 -1.3368
 2043SOL     OW17764   2.451   3.407   9.612 -0.3242 -0.0970 -0.3032
 2043SOL    HW117765   2.448   3.440   9.522 -0.9941 -1.1985 -0.6788
 2043SOL    HW217766   2.527   3.456   9.642 -1.3098  0.0849  1.8932
 2044SOL     OW17767   4.672   0.231   3.326 -0.0772 -0.3535  0.0902
 2044SOL    HW117768   4.661   0.147   3.282  0.6142 -0.7360  0.6569
 2044SOL    HW217769   4.659   0.294   3.255 -1.3074 -0.1839  0.4639
 2045SOL     OW17770   4.494   1.535   6.255  0.0282 -0.0579 -0.5450
 2045SOL    HW117771   4.563   1.517   6.191 -0.3337 -0.6312 -0.7730
 2045SOL    HW217772   4.448   1.601   6.203 -0.5899  0.0508  0.1430
 2046SOL     OW17773   2.984   1.975  15.978 -0.1381  0.9008 -0.1062
 2046SOL    HW117774   2.994   1.880  15.980 -0.5745  0.8217 -1.7172
 2046SOL    HW217775   2.997   1.985  16.072  0.6015  1.2763 -0.2453
 2047SOL     OW17776   1.070   2.354   2.308  0.4316 -0.2435  0.5548
 2047SOL    HW117777   1.001   2.380   2.247 -1.2984  2.1394  3.5391
 2047SOL    HW217778   1.057   2.259   2.314 -2.4350  0.2053  1.3155
 2048SOL     OW17779   2.902   0.726   6.128 -0.4776 -0.3398  0.0640
 2048SOL    HW117780   2.836   0.727   6.197 -0.3599 -0.1273  0.1740
 2048SOL    HW217781   2.888   0.635   6.103  1.3513 -0.3412 -0.9720
 2049SOL     OW17782   0.646   3.797   7.848  0.3958 -0.5778 -0.0833
 2049SOL    HW117783   0.630   3.886   7.815 -0.1390 -0.8194 -0.4662
 2049SOL    HW217784   0.601   3.737   7.790 -2.8273 -0.5405  2.3794
 2050SOL     OW17785   4.310   2.530   2.939  0.1525  0.1863 -0.2303
 2050SOL    HW117786   4.317   2.455   2.881 -0.1051  1.0702 -1.4238
 2050SOL    HW217787   4.220   2.555   2.917  0.8945  1.6634 -1.5938
 2051SOL     OW17788   4.631   3.203   0.376 -0.0924 -0.6300 -0.2189
 2051SOL    HW117789   4.698   3.162   0.430  1.7447  2.3835 -0.1924
 2051SOL    HW217790   4.670   3.290   0.362  2.1447 -1.6988 -0.5898
 2052SOL     OW17791   3.572   0.492   2.421  0.3971  0.5291  0.0259
 2052SOL    HW117792   3.539   0.570   2.464 -2.3955 -0.0689 -1.0754
 2052SOL    HW217793   3.648   0.519   2.369 -0.6805  3.1497 -0.1836
 2053SOL     OW17794   2.254   0.127   2.199 -0.0808  0.3163 -0.0481
 2053SOL    HW117795   2.343   0.132   2.163  0.4297 -0.3470  1.1319
 2053SOL    HW217796   2.236   0.220   2.215 -1.2162  0.1518 -0.3516
 2054SOL     OW17797   3.995   1.281  11.672  0.0556  0.0448 -0.7006
 2054SOL    HW117798   4.058   1.217  11.703  0.8756  1.5447  0.7192
 2054SOL    HW217799   3.935   1.287  11.746  3.5048 -0.9806  2.1439
 2055SOL     OW17800   1.726   0.876   5.657  0.1365 -0.0126  0.7810
 2055SOL    HW117801   1.818   0.853   5.649 -0.0036 -0.7186  1.2229
 2055SOL    HW217802   1.680   0.817   5.597  0.0699  0.4881  0.3407
 2056SOL     OW17803   3.915   1.787   5.204  0.5095 -0.2749 -0.0399
 2056SOL    HW117804   3.932   1.848   5.276 -0.5628 -1.1023  0.9056
 2056SOL    HW217805   3.848   1.734   5.248  0.5901  0.3502  0.8463
 2057SOL     OW17806   2.671   4.695   7.785  0.1237  0.8294  0.1336
 2057SOL    HW117807   2.644   4.634   7.855 -1.4004  0.4196 -0.8126
 2057SOL    HW217808   2.763   4.673   7.776 -0.1064 -0.2898  0.5080
 2058SOL     OW17809   3.308   0.416   3.804  0.1503 -0.0796  0.1246
 2058SOL    HW117810   3.261   0.500   3.803  1.5286  0.7077  0.7092
 2058SOL    HW217811   3.230   0.360   3.799 -0.0177  0.1581  0.0728
 2059SOL     OW17812   1.978   3.285   2.295  0.1705  0.0724  0.2505
 2059SOL    HW117813   1.963   3.342   2.370  0.0494  1.0174 -0.4862
 2059SOL    HW217814   2.060   3.321   2.261 -0.5373  1.5922  0.1745
 2060SOL     OW17815   0.394   2.867   7.071 -0.1150  0.6560  0.0325
 2060SOL    HW117816   0.459   2.797   7.062  0.3603  1.3519 -1.8554
 2060SOL    HW217817   0.314   2.843   7.024  0.6394 -1.6101 -0.0910
 2061SOL     OW17818   1.866   2.152  16.907 -0.5426  0.4459 -0.0425
 2061SOL    HW117819   1.788   2.184  16.952 -0.8054  1.0265 -0.9153
 2061SOL    HW217820   1.940   2.202  16.941 -0.2200 -0.5378  0.7077
 2062SOL     OW17821   1.631   0.656  14.534  0.1796  0.4525  0.8481
 2062SOL    HW117822   1.576   0.680  14.460  1.2883 -1.6386 -0.6637
 2062SOL    HW217823   1.618   0.728  14.596  0.2530 -0.1578  1.5808
 2063SOL     OW17824   0.937   3.502   8.675  0.3022 -0.3199 -0.0476
 2063SOL    HW117825   0.844   3.520   8.663  0.5098  1.0557  0.4550
 2063SOL    HW217826   0.975   3.587   8.692  1.3322 -0.6757 -0.5597
 2064SOL     OW17827   3.786   1.019   5.045  0.3793  0.0620  0.2040
 2064SOL    HW117828   3.766   1.113   5.046  0.9457  0.1715  0.7618
 2064SOL    HW217829   3.851   1.019   5.115  1.0125  1.2554 -0.3758
 2065SOL     OW17830   0.583   4.319   4.286  0.2096 -0.2483  0.0805
 2065SOL    HW117831   0.503   4.353   4.246 -0.8876 -0.7151  1.8412
 2065SOL    HW217832   0.549   4.236   4.320 -0.8184 -0.4729 -1.4695
 2066SOL     OW17833   3.843   3.249   3.820 -0.0639 -0.1408 -0.3920
 2066SOL    HW117834   3.890   3.315   3.871 -1.1345  0.2140  0.1332
 2066SOL    HW217835   3.822   3.301   3.743  0.4604  0.7538  0.0740
 2067SOL     OW17836   3.604   2.952   1.849  0.1863  0.2959  0.5508
 2067SOL    HW117837   3.686   2.977   1.807 -1.0499 -1.4717 -2.9942
 2067SOL    HW217838   3.598   2.856   1.841 -1.6725  0.5020 -0.6692
 2068SOL     OW17839   0.697   1.613   4.063 -0.4366  0.0287  0.2253
 2068SOL    HW117840   0.640   1.553   4.015  0.4366 -0.6818  0.0827
 2068SOL    HW217841   0.731   1.557   4.132 -0.2999 -1.0840 -0.7456
 2069SOL     OW17842   0.207   0.132   3.372 -0.0516 -0.3148  0.0539
 2069SOL    HW117843   0.114   0.154   3.364  0.0186 -0.0550 -0.0219
 2069SOL    HW217844   0.238   0.175   3.452  2.3773  0.0911 -1.1026
 2070SOL     OW17845   0.870   1.367  10.941 -0.8714  0.4133 -0.4218
 2070SOL    HW117846   0.869   1.454  10.981 -0.2764 -0.4333  1.4440
 2070SOL    HW217847   0.815   1.376  10.863  0.2349 -1.7256 -1.4578
 2071SOL     OW17848   4.274   2.904   4.398  0.0766 -0.2163 -0.2639
 2071SOL    HW117849   4.323   2.829   4.434  0.0137  0.7340  1.8391
 2071SOL    HW217850   4.209   2.846   4.358  1.0545 -0.7175 -1.1423
 2072SOL     OW17851   3.679   1.079   0.590 -0.0104  0.4954  0.2195
 2072SOL    HW117852   3.759   1.131   0.586  0.6230 -0.6768 -1.9179
 2072SOL    HW217853   3.625   1.139   0.538 -0.4253  1.9099  2.2732
 2073SOL     OW17854   0.143   1.026   5.945 -0.2505  0.1989  0.4709
 2073SOL    HW117855   0.152   1.102   6.003  0.0087  0.1895  0.4419
 2073SOL    HW217856   0.237   1.013   5.938 -0.4972 -0.6382 -1.1249
 2074SOL     OW17857   2.905   3.849   4.284 -0.0460  0.2847 -0.7935
 2074SOL    HW117858   2.823   3.897   4.266  0.1506  0.9085 -0.0371
 2074SOL    HW217859   2.921   3.801   4.202 -0.6273 -0.9066 -0.2075
 2075SOL     OW17860   3.626   0.199   3.479  0.1244 -0.0514 -0.0844
 2075SOL    HW117861   3.590   0.143   3.411  1.9610 -0.1745 -0.9355
 2075SOL    HW217862   3.625   0.285   3.438  1.2001  0.7211  1.5017
 2076SOL     OW17863   1.311   2.307  17.053 -0.5086 -0.6833  0.3550
 2076SOL    HW117864   1.379   2.241  17.039 -0.1255 -0.2184  0.0242
 2076SOL    HW217865   1.317   2.351  16.968 -1.6389 -3.2957 -1.0698
 2077SOL     OW17866   4.088   2.957   6.828 -1.3041  0.3612  0.2564
 2077SOL    HW117867   4.085   2.917   6.915 -2.2361  2.1865  1.0750
 2077SOL    HW217868   4.126   2.892   6.770 -1.4443 -0.2034  0.8012
 2078SOL     OW17869   1.642   1.826   5.854 -0.1434  0.2803 -0.2604
 2078SOL    HW117870   1.686   1.836   5.770 -0.0625 -0.4228 -0.3003
 2078SOL    HW217871   1.666   1.909   5.896 -0.9803  0.5632 -0.3383
 2079SOL     OW17872   2.035   4.497  17.582  0.4494 -0.6140 -0.1120
 2079SOL    HW117873   1.946   4.502  17.616  0.6247 -0.7164  0.3572
 2079SOL    HW217874   2.083   4.539  17.653  1.0664 -1.4036 -0.0604
 2080SOL     OW17875   3.630   3.014   3.428  0.0041 -0.3140 -0.0019
 2080SOL    HW117876   3.545   3.026   3.469  1.0209  0.6466  1.7952
 2080SOL    HW217877   3.668   2.951   3.489 -0.4184 -1.8476 -1.3047
 2081SOL     OW17878   1.360   4.416   7.456  0.7213  0.4256 -0.4660
 2081SOL    HW117879   1.345   4.348   7.390  1.6539  0.5250 -0.7860
 2081SOL    HW217880   1.412   4.471   7.398  0.7536 -0.2430 -1.0806
 2082SOL     OW17881   4.022   1.747   3.803 -0.3066  1.0535 -0.0163
 2082SOL    HW117882   3.993   1.689   3.873  1.9909  0.7519  0.6758
 2082SOL    HW217883   3.973   1.704   3.733  0.2079 -0.9110  0.8449
 2083SOL     OW17884   0.091   0.094   6.205 -0.4888 -0.6626  0.9182
 2083SOL    HW117885   4.736   0.111   6.229 -0.0902 -0.4915  2.2993
 2083SOL    HW217886   0.149   0.140   6.266  1.4054 -0.4579 -1.0375
 2084SOL     OW17887   1.856   3.759   7.325  0.4467 -0.1439  0.7013
 2084SOL    HW117888   1.772   3.715   7.317  0.0759  0.5742  0.6700
 2084SOL    HW217889   1.854   3.804   7.240 -1.9305 -2.9226 -0.6721
 2085SOL     OW17890   3.885   2.877  11.614  0.3378 -0.1339  0.6070
 2085SOL    HW117891   3.844   2.839  11.536  1.3108  0.2364 -0.0867
 2085SOL    HW217892   3.845   2.964  11.622 -0.5858 -0.4105 -1.0207
 2086SOL     OW17893   0.778   1.591   8.062  0.3954 -0.1278 -0.7625
 2086SOL    HW117894   0.770   1.630   7.975 -3.6176  2.3639  0.7348
 2086SOL    HW217895   0.754   1.499   8.046  0.3820 -0.0100 -1.3957
 2087SOL     OW17896   2.161   2.044   8.265  0.0762 -0.6302  0.5062
 2087SOL    HW117897   2.226   2.054   8.334  0.4090 -1.0253  0.2484
 2087SOL    HW217898   2.077   2.066   8.305 -0.0059 -0.2369  0.1216
 2088SOL     OW17899   4.201   2.028   7.937  0.0320 -0.1460  0.1332
 2088SOL    HW117900   4.170   2.076   8.014 -1.5607 -1.2000  0.1503
 2088SOL    HW217901   4.279   2.077   7.910 -0.8975  0.3358 -1.6325
 2089SOL     OW17902   0.257   0.177   4.631 -0.0211 -0.0080  0.3178
 2089SOL    HW117903   0.326   0.243   4.634 -1.4443  1.4108  1.4922
 2089SOL    HW217904   0.270   0.116   4.703 -1.7458 -1.3642 -0.5100
 2090SOL     OW17905   2.272   4.569  10.238 -0.0542 -0.0710 -0.6878
 2090SOL    HW117906   2.262   4.547  10.331 -0.3958 -1.6631 -1.0955
 2090SOL    HW217907   2.224   4.495  10.200 -0.1169  0.6661 -2.0474
 2091SOL     OW17908   1.735   0.346  11.882  0.0136  0.2494 -0.3493
 2091SOL    HW117909   1.678   0.286  11.930 -0.6232  0.3496 -0.9814
 2091SOL    HW217910   1.711   0.306  11.798 -0.9186 -0.0051  0.0388
 2092SOL     OW17911   0.106   0.555   4.073 -0.0643 -0.1171  0.2615
 2092SOL    HW117912   0.125   0.515   4.158 -0.6248 -0.7538  0.0886
 2092SOL    HW217913   0.173   0.512   4.019  0.2319  1.7381 -0.8444
 2093SOL     OW17914   0.490   1.628   2.711 -0.1075  0.2768 -0.0198
 2093SOL    HW117915   0.439   1.684   2.652  0.1385  0.9776  0.4278
 2093SOL    HW217916   0.546   1.699   2.744 -2.1564  2.6068 -1.5325
 2094SOL     OW17917   3.441   3.847   5.027  0.0820  0.5084 -0.5758
 2094SOL    HW117918   3.486   3.931   5.031  1.2093 -0.1842  1.5892
 2094SOL    HW217919   3.443   3.813   5.117  0.8396 -0.3085 -0.9018
 2095SOL     OW17920   3.845   0.249  14.392 -0.2337  0.1372  0.0481
 2095SOL    HW117921   3.795   0.308  14.448 -1.9857 -0.7950 -0.5343
 2095SOL    HW217922   3.884   0.315  14.336  1.6909 -1.3166 -0.3219
 2096SOL     OW17923   1.436   2.331   2.748  0.2764  0.1981 -0.0702
 2096SOL    HW117924   1.417   2.396   2.681 -2.0432  1.1743  1.5452
 2096SOL    HW217925   1.345   2.305   2.767  0.3420  0.0480  0.0393
 2097SOL     OW17926   1.346   3.903   5.815 -0.0151  0.6879  0.5426
 2097SOL    HW117927   1.273   3.934   5.762  0.0067 -2.0046 -1.0514
 2097SOL    HW217928   1.421   3.941   5.769 -0.0721 -0.6719 -0.6718
 2098SOL     OW17929   2.752   3.823   8.340 -0.3399  0.0329  0.4125
 2098SOL    HW117930   2.712   3.745   8.301 -0.8882  1.0754 -1.0967
 2098SOL    HW217931   2.835   3.779   8.357 -0.1210 -0.9024 -3.0014
 2099SOL     OW17932   1.101   3.165  16.547  0.2375  0.5978  0.0468
 2099SOL    HW117933   1.048   3.087  16.529  0.8465  0.3025 -0.4758
 2099SOL    HW217934   1.150   3.139  16.625  0.5469 -2.3936 -1.1131
 2100SOL     OW17935   2.250   1.949   8.560  0.4146  0.8391 -0.3009
 2100SOL    HW117936   2.265   2.009   8.634 -1.5705  1.9519 -0.8093
 2100SOL    HW217937   2.162   1.925   8.588  0.6827 -0.4807 -0.5907
 2101SOL     OW17938   1.538   2.999   7.563 -0.5886 -0.3089  0.0275
 2101SOL    HW117939   1.632   2.984   7.553 -0.6389 -1.2007  0.9524
 2101SOL    HW217940   1.546   3.094   7.578 -0.9373 -0.0993 -1.0521
 2102SOL     OW17941   1.638   0.291   4.254  0.5956  0.0611  0.0021
 2102SOL    HW117942   1.655   0.290   4.160 -0.4402 -1.0240 -0.1808
 2102SOL    HW217943   1.562   0.348   4.263  0.1160 -0.1273 -2.9610
 2103SOL     OW17944   2.740   2.128  17.093  0.4695 -0.6438 -0.7329
 2103SOL    HW117945   2.658   2.080  17.094 -0.1592  0.4474  0.2421
 2103SOL    HW217946   2.717   2.202  17.149  4.1094  1.5546 -2.1192
 2104SOL     OW17947   3.438   3.351   9.329 -0.0182  0.5456  0.3046
 2104SOL    HW117948   3.360   3.407   9.335 -0.7293 -0.5863  1.6229
 2104SOL    HW217949   3.401   3.263   9.340  0.9912  0.0630 -0.1364
 2105SOL     OW17950   1.410   1.670   0.657 -0.0168 -0.2691  0.2233
 2105SOL    HW117951   1.371   1.615   0.590 -2.2887  0.7478  0.7376
 2105SOL    HW217952   1.348   1.666   0.729 -0.7884  2.0480 -0.3225
 2106SOL     OW17953   0.286   0.488   7.697 -0.1331  0.1552 -0.1147
 2106SOL    HW117954   0.299   0.576   7.661  0.7236 -0.1112 -0.4578
 2106SOL    HW217955   0.367   0.437   7.706  1.1436  2.0836 -0.5994
 2107SOL     OW17956   4.551   1.584   3.865  0.0069 -0.0445 -0.1609
 2107SOL    HW117957   4.538   1.669   3.908 -0.9433  0.0177 -0.5906
 2107SOL    HW217958   4.630   1.595   3.813  1.3917  1.8315  2.3177
 2108SOL     OW17959   2.457   2.961   8.548 -0.3812 -0.0673 -0.3718
 2108SOL    HW117960   2.492   2.873   8.556 -1.0886 -0.3983 -0.8882
 2108SOL    HW217961   2.529   3.014   8.513 -0.5793  0.1380 -0.4741
 2109SOL     OW17962   0.720   0.417   4.979  0.6855 -0.0256 -0.1067
 2109SOL    HW117963   0.740   0.510   4.980  0.6416 -0.0200  0.1529
 2109SOL    HW217964   0.659   0.408   5.052  1.4564  1.2160  0.6843
 2110SOL     OW17965   2.518   0.889   2.331 -0.1696 -0.7485  0.0182
 2110SOL    HW117966   2.422   0.882   2.336 -0.2821  0.7280 -0.1286
 2110SOL    HW217967   2.531   0.940   2.251  0.0415  2.9932  2.4380
 2111SOL     OW17968   0.683   1.899  15.384  0.1586  0.1843  0.5193
 2111SOL    HW117969   0.749   1.903  15.452 -0.4678  0.1436  1.1300
 2111SOL    HW217970   0.610   1.946  15.423 -0.8741 -1.5747  0.7489
 2112SOL     OW17971   2.478   2.805   8.822  0.5260 -0.2086 -0.0620
 2112SOL    HW117972   2.520   2.750   8.757  1.6112 -1.1271  1.4204
 2112SOL    HW217973   2.399   2.843   8.783  1.2204 -2.6602 -3.8486
 2113SOL     OW17974   1.428   1.680   1.800 -0.5746  0.3472  0.2589
 2113SOL    HW117975   1.430   1.660   1.894  1.8941 -0.4933  0.0275
 2113SOL    HW217976   1.364   1.613   1.777 -1.1025  2.4100 -4.3185
 2114SOL     OW17977   3.717   4.060   5.317  0.2729  0.2853  0.0133
 2114SOL    HW117978   3.654   4.013   5.372 -0.1742  0.3117 -0.4809
 2114SOL    HW217979   3.763   4.118   5.378  0.4762 -1.1096  1.1923
 2115SOL     OW17980   1.302   3.576  17.742 -0.3574  0.3950 -0.1251
 2115SOL    HW117981   1.300   3.643  17.675 -1.2934  0.1066 -0.3868
 2115SOL    HW217982   1.387   3.533  17.736 -0.5405  0.2064 -1.2298
 2116SOL     OW17983   4.594   1.522   2.722 -0.6531  0.3974 -0.0336
 2116SOL    HW117984   4.538   1.451   2.691 -1.4781  0.8097  0.5390
 2116SOL    HW217985   4.564   1.585   2.656 -3.1364  0.8084  1.4990
 2117SOL     OW17986   2.662   1.989   9.324  0.3245  0.0159 -0.6004
 2117SOL    HW117987   2.673   1.976   9.418 -0.9557 -0.7404 -0.5496
 2117SOL    HW217988   2.587   1.933   9.306  0.3279  0.3487 -1.6380
 2118SOL     OW17989   0.791   0.056   3.738  0.2491  0.1581  0.0010
 2118SOL    HW117990   0.882   0.025   3.744  0.2409 -0.2634 -1.7570
 2118SOL    HW217991   0.747   4.710   3.715  0.4574  0.0169  0.0995
 2119SOL     OW17992   3.488   4.604   3.838  0.5610 -0.3658  0.1428
 2119SOL    HW117993   3.484   4.552   3.918 -2.0559 -2.5719 -1.4188
 2119SOL    HW217994   3.520   4.548   3.768 -0.8090  0.2841 -1.0101
 2120SOL     OW17995   1.920   3.878   1.805 -0.1726 -0.3341 -0.2737
 2120SOL    HW117996   1.975   3.801   1.813  0.1538  0.0023  0.6842
 2120SOL    HW217997   1.985   3.944   1.780 -0.5699 -0.5416 -1.8608
 2121SOL     OW17998   0.620   4.716   4.342  0.8066  0.1406 -0.1979
 2121SOL    HW117999   0.669   4.691   4.420  0.3854  1.9016  0.6252
 2121SOL    HW218000   0.683   4.711   4.270 -2.9013  1.0343 -3.5264
 2122SOL     OW18001   1.948   1.244   8.720 -0.4604 -0.1738  0.5841
 2122SOL    HW118002   2.039   1.271   8.731 -0.8212  0.7140  1.3468
 2122SOL    HW218003   1.917   1.325   8.679 -2.8811 -1.5810 -0.3736
 2123SOL     OW18004   3.556   4.388  16.680 -0.8542  0.3313 -0.4076
 2123SOL    HW118005   3.541   4.295  16.696  0.8006  0.0424 -0.4765
 2123SOL    HW218006   3.507   4.425  16.753  0.2206  1.7696 -0.4054
 2124SOL     OW18007   3.346   4.591  13.007 -0.1655  0.1281  0.1121
 2124SOL    HW118008   3.421   4.648  12.991 -1.8393  2.8792  2.0160
 2124SOL    HW218009   3.344   4.554  12.919 -0.7858  1.5933 -0.4862
 2125SOL     OW18010   4.701   0.381   5.058  0.7062  0.4647  0.5031
 2125SOL    HW118011   4.723   0.319   4.988 -1.9456  0.2604 -0.1558
 2125SOL    HW218012   4.675   0.322   5.128  1.7803  0.4210  0.8562
 2126SOL     OW18013   0.702   3.886   2.438  0.5045 -0.6394 -0.5757
 2126SOL    HW118014   0.614   3.909   2.407  0.7257  1.5112  0.4231
 2126SOL    HW218015   0.710   3.961   2.497 -0.1964  0.3361 -1.7165
 2127SOL     OW18016   3.201   0.027   3.459  0.5454  0.6640  0.1667
 2127SOL    HW118017   3.232   0.056   3.545  2.1882  1.5917 -0.7403
 2127SOL    HW218018   3.212   4.670   3.479 -1.6179  0.6407  1.2389
 2128SOL     OW18019   0.759   4.210   9.008 -0.3612 -0.3540  0.5465
 2128SOL    HW118020   0.692   4.259   9.056 -1.1231 -0.2903 -0.5821
 2128SOL    HW218021   0.744   4.231   8.916 -0.5770  1.1935  0.9256
 2129SOL     OW18022   1.485   1.502   2.797 -0.2769 -0.0139  0.1970
 2129SOL    HW118023   1.392   1.507   2.818 -0.7504 -2.6932 -1.2499
 2129SOL    HW218024   1.524   1.475   2.880  3.1882  0.1617 -1.3588
 2130SOL     OW18025   4.589   2.090   2.978  0.1786  0.3387  0.9713
 2130SOL    HW118026   4.617   2.002   3.002  1.0418  0.9191  2.1143
 2130SOL    HW218027   4.652   2.137   3.032 -1.4271  1.2191  2.0738
 2131SOL     OW18028   0.191   1.347   8.820  0.7108  0.4289  0.3052
 2131SOL    HW118029   0.276   1.337   8.779  0.3959  0.7122 -0.4148
 2131SOL    HW218030   0.185   1.255   8.845 -0.1044  0.9029  1.8636
 2132SOL     OW18031   0.429   3.094   4.963 -0.0101  0.0944  0.3855
 2132SOL    HW118032   0.484   3.130   4.894 -1.4631 -2.5032 -2.1674
 2132SOL    HW218033   0.442   3.000   4.950  0.7416  0.1514  0.7564
 2133SOL     OW18034   4.311   4.266  16.517  0.1955  0.0559  0.4600
 2133SOL    HW118035   4.239   4.239  16.461 -0.3434  1.9448  0.2367
 2133SOL    HW218036   4.296   4.209  16.592 -0.9533 -0.2745 -0.0243
 2134SOL     OW18037   1.694   2.605   3.671 -0.0013  0.1543 -0.1132
 2134SOL    HW118038   1.740   2.641   3.595  1.2658 -0.0679  0.5619
 2134SOL    HW218039   1.755   2.621   3.742 -0.0215 -1.6371  0.3049
 2135SOL     OW18040   4.088   0.004   6.180 -0.1555  0.2912 -0.0134
 2135SOL    HW118041   4.024   0.037   6.118 -1.3749  0.7397  1.4863
 2135SOL    HW218042   4.061   0.060   6.253  0.0952 -0.6507  0.8019
 2136SOL     OW18043   0.993   1.638   8.462  0.8160  0.7507  0.1721
 2136SOL    HW118044   0.898   1.628   8.464  0.6646  2.2514  0.4693
 2136SOL    HW218045   1.020   1.614   8.551  1.7376  0.6218 -0.1461
 2137SOL     OW18046   0.589   3.594   8.281 -0.0287  0.5891  0.2095
 2137SOL    HW118047   0.622   3.508   8.254  0.4077  0.7978  0.0810
 2137SOL    HW218048   0.509   3.584   8.229 -0.5476 -0.8862  1.3142
 2138SOL     OW18049   0.310   3.311   1.832  0.3462 -0.3134 -0.3698
 2138SOL    HW118050   0.264   3.227   1.835  0.3832 -0.3030  0.4498
 2138SOL    HW218051   0.237   3.372   1.832  0.0157 -0.7205  3.1074
 2139SOL     OW18052   2.375   1.063   8.538  0.0307  0.7739 -0.3372
 2139SOL    HW118053   2.390   1.141   8.485 -3.0005 -1.1384 -4.0065
 2139SOL    HW218054   2.452   1.008   8.522 -1.8825 -1.5615 -1.5531
 2140SOL     OW18055   4.495   1.504  17.633  0.2537  0.5691 -0.4594
 2140SOL    HW118056   4.452   1.549  17.705  1.1451  1.1800 -0.3106
 2140SOL    HW218057   4.422   1.497  17.572 -0.4754 -2.0693  0.6871
 2141SOL     OW18058   0.586   3.707   2.605 -0.5592 -0.4227  0.0814
 2141SOL    HW118059   0.627   3.750   2.530  0.1992 -3.2595 -1.1356
 2141SOL    HW218060   0.549   3.780   2.655  0.5455  0.0883  0.1400
 2142SOL     OW18061   0.947   2.013   4.873  0.3108  0.0980  0.4396
 2142SOL    HW118062   0.902   2.069   4.936  0.0004  1.1003 -0.6805
 2142SOL    HW218063   0.879   1.967   4.824  0.6770 -0.7863  0.7609
 2143SOL     OW18064   1.589   0.904   2.059  0.2407  0.1079 -0.3797
 2143SOL    HW118065   1.674   0.947   2.059 -0.4683  1.4691  1.1715
 2143SOL    HW218066   1.624   0.821   2.091  1.7239  1.5091  1.6083
 2144SOL     OW18067   2.776   3.974   2.229 -0.5402  0.6577 -0.0198
 2144SOL    HW118068   2.776   3.878   2.227 -0.5050  0.6300  1.2353
 2144SOL    HW218069   2.816   3.992   2.144 -0.9928  0.9450 -0.1709
 2145SOL     OW18070   0.699   3.104  11.210  0.0190  0.3956 -0.1919
 2145SOL    HW118071   0.673   3.156  11.286 -0.9791 -1.1894  0.5196
 2145SOL    HW218072   0.781   3.065  11.240 -0.4130 -2.0247 -2.1391
 2146SOL     OW18073   1.248   0.386   5.372  0.0156  0.2237 -0.5279
 2146SOL    HW118074   1.338   0.411   5.355 -0.0422  0.4042 -0.5640
 2146SOL    HW218075   1.244   0.416   5.463 -0.8565 -4.0107  0.8386
 2147SOL     OW18076   2.238   4.472  15.558 -0.1479 -0.2331 -0.4509
 2147SOL    HW118077   2.254   4.545  15.618  0.1669 -0.3696 -0.3705
 2147SOL    HW218078   2.230   4.403  15.623  0.8114 -0.3391 -0.4568
 2148SOL     OW18079   1.877   4.664   7.990  0.2023  0.3078  0.2340
 2148SOL    HW118080   1.959   4.627   8.022 -0.1630 -0.0190  0.7930
 2148SOL    HW218081   1.810   4.609   8.031  0.4681  0.7143  1.2023
 2149SOL     OW18082   0.080   1.156  16.108 -0.1210  0.0586  0.0210
 2149SOL    HW118083   0.067   1.185  16.017  1.3844 -0.4117 -0.3350
 2149SOL    HW218084   0.091   1.238  16.157  1.7443 -0.8226  1.0275
 2150SOL     OW18085   2.862   1.305   4.528  0.9448 -0.0204 -0.0240
 2150SOL    HW118086   2.864   1.235   4.593  1.1462 -2.2666 -2.4648
 2150SOL    HW218087   2.844   1.381   4.584 -0.8584  0.0105 -0.6410
 2151SOL     OW18088   3.317   3.011   3.369 -0.0370  0.3129  0.3908
 2151SOL    HW118089   3.373   2.936   3.353  0.1370  0.7297 -0.9170
 2151SOL    HW218090   3.290   2.990   3.459 -3.5045 -1.3158 -1.0444
 2152SOL     OW18091   3.959   3.137  15.573  0.1434 -0.3393  0.0984
 2152SOL    HW118092   3.895   3.072  15.602  2.2724 -1.6444  1.7776
 2152SOL    HW218093   3.962   3.127  15.478  0.2783 -0.8328  0.1572
 2153SOL     OW18094   1.134   4.734   8.388  0.2736 -0.1767 -0.2483
 2153SOL    HW118095   1.225   0.027   8.397  0.2171  0.0853 -0.5228
 2153SOL    HW218096   1.116   4.731   8.294  0.6856  2.2032 -0.4179
 2154SOL     OW18097   2.934   1.280   3.942 -0.0648 -0.6185 -0.4577
 2154SOL    HW118098   3.029   1.286   3.936 -0.4333  1.3451 -4.0775
 2154SOL    HW218099   2.929   1.245   4.031 -0.5040  1.1402  0.2106
 2155SOL     OW18100   2.853   2.476   1.176 -0.0777 -0.3999  0.3828
 2155SOL    HW118101   2.764   2.484   1.211 -0.7169 -2.1971 -0.8406
 2155SOL    HW218102   2.861   2.561   1.133 -2.3658  0.2715  1.3234
 2156SOL     OW18103   2.453   1.232   2.822  0.3138  0.0293 -0.1910
 2156SOL    HW118104   2.524   1.193   2.873 -1.2233 -0.7056  1.3459
 2156SOL    HW218105   2.498   1.276   2.750  2.3789  1.0522  1.7225
 2157SOL     OW18106   3.418   4.289  10.102  0.4853 -0.2198  0.1514
 2157SOL    HW118107   3.426   4.260  10.193 -1.0704 -0.5476  0.1826
 2157SOL    HW218108   3.377   4.374  10.120 -0.9899 -0.9487  0.2206
 2158SOL     OW18109   4.375   3.652   4.057 -0.1842  0.3809  0.4905
 2158SOL    HW118110   4.425   3.725   4.092  0.3925  0.3731 -0.3185
 2158SOL    HW218111   4.436   3.610   3.996  0.4669  1.0730  0.6805
 2159SOL     OW18112   3.157   0.540   5.768 -0.0562  0.0529  0.2351
 2159SOL    HW118113   3.166   0.492   5.686 -1.5377  0.6371 -0.2618
 2159SOL    HW218114   3.172   0.630   5.739  0.1747 -0.4520 -1.1867
 2160SOL     OW18115   4.684   0.320  10.294  0.0449  0.4885  0.1627
 2160SOL    HW118116   4.689   0.411  10.324  1.9020  0.7590 -0.9981
 2160SOL    HW218117   0.008   0.328  10.220  1.8858  1.1126  1.7229
 2161SOL     OW18118   3.341   1.146   5.877  0.3329  0.1511  0.2500
 2161SOL    HW118119   3.354   1.154   5.783 -2.5105  0.4128 -0.1211
 2161SOL    HW218120   3.254   1.105   5.871  0.9345 -1.5863  3.0637
 2162SOL     OW18121   0.645   0.247   2.838 -0.1953  0.1178  0.2380
 2162SOL    HW118122   0.592   0.247   2.758 -2.4225  1.5862  1.6933
 2162SOL    HW218123   0.713   0.304   2.801  0.3200  0.0906  1.1548
 2163SOL     OW18124   0.131   0.974   2.318  0.4985  0.5138  0.1218
 2163SOL    HW118125   0.101   1.028   2.391  0.1309 -1.1084  1.1681
 2163SOL    HW218126   0.106   1.026   2.241 -0.4980 -0.6524 -0.3690
 2164SOL     OW18127   1.370   1.678   1.171 -0.1317  0.2462  0.1562
 2164SOL    HW118128   1.453   1.725   1.176 -0.8458  1.3492  1.7993
 2164SOL    HW218129   1.333   1.720   1.094 -0.5605  0.6986  0.6091
 2165SOL     OW18130   4.426   4.658   2.552 -0.1633 -0.0840  0.3002
 2165SOL    HW118131   4.391   4.725   2.610  0.0556  1.0729 -0.9149
 2165SOL    HW218132   4.515   4.643   2.584  0.1848 -1.5877 -1.3566
 2166SOL     OW18133   1.225   0.045   6.786 -0.0394 -0.1659 -0.2023
 2166SOL    HW118134   1.155   0.047   6.720  1.6551 -2.1035 -2.0424
 2166SOL    HW218135   1.297   0.018   6.729  0.1259 -0.7190  0.2799
 2167SOL     OW18136   4.029   4.079   6.896 -0.2500  0.2548 -0.3722
 2167SOL    HW118137   4.029   4.077   6.800  1.6159  1.7319 -0.4177
 2167SOL    HW218138   3.955   4.020   6.909  0.3320 -0.5190 -0.5040
 2168SOL     OW18139   4.199   1.959   3.324 -0.3494 -0.2350 -0.1976
 2168SOL    HW118140   4.288   1.943   3.294 -0.5170 -2.0112  0.2491
 2168SOL    HW218141   4.203   2.054   3.333  1.6330 -0.2456 -1.1459
 2169SOL     OW18142   1.920   1.218  13.854  0.2031  0.6149  0.3336
 2169SOL    HW118143   1.902   1.301  13.810 -1.0759  0.9277  1.4417
 2169SOL    HW218144   1.999   1.241  13.902  1.1117  1.2431 -1.4572
 2170SOL     OW18145   1.548   0.672  16.894  0.3431  0.1475  0.5327
 2170SOL    HW118146   1.546   0.596  16.953  1.5194  0.4843  1.0072
 2170SOL    HW218147   1.467   0.667  16.843  0.8433  0.0420 -0.2671
 2171SOL     OW18148   4.047   0.841   1.977 -0.2370  0.1828 -0.3127
 2171SOL    HW118149   4.019   0.773   1.915 -1.6506 -0.3391  0.8874
 2171SOL    HW218150   4.008   0.797   2.052 -0.2000  1.9629  0.7370
 2172SOL     OW18151   0.647   4.315   2.195  0.4212  0.0466 -0.3150
 2172SOL    HW118152   0.642   4.389   2.134  2.3393  0.1111 -0.3851
 2172SOL    HW218153   0.565   4.327   2.244 -0.2648  0.3931 -1.5439
 2173SOL     OW18154   1.284   4.670  14.923 -0.2923 -0.3606  0.0125
 2173SOL    HW118155   1.192   4.690  14.908 -0.0433  1.2334  0.5766
 2173SOL    HW218156   1.301   0.003  14.987 -1.5367  0.5856 -0.6922
 2174SOL     OW18157   2.852   0.672   2.001  0.3955 -0.3680  0.2783
 2174SOL    HW118158   2.946   0.680   1.984  0.2472 -0.7461 -0.7665
 2174SOL    HW218159   2.850   0.729   2.078  1.1040 -1.8877  1.4166
 2175SOL     OW18160   0.886   4.733   9.949  0.2681 -0.6728  0.2046
 2175SOL    HW118161   0.895   4.725  10.044 -1.8472 -1.0293  0.3830
 2175SOL    HW218162   0.796   0.027   9.941  0.2753 -0.0983  2.2637
 2176SOL     OW18163   1.153   1.117   8.671  0.4096  0.0527  0.3709
 2176SOL    HW118164   1.188   1.064   8.743  2.2076 -0.2936 -0.7524
 2176SOL    HW218165   1.223   1.103   8.607 -0.2675  0.9604 -0.5712
 2177SOL     OW18166   2.883   3.014   7.450  0.0831  0.0019  0.4068
 2177SOL    HW118167   2.915   2.943   7.507 -0.0386  1.1010  1.8204
 2177SOL    HW218168   2.920   2.991   7.364  1.9486 -0.1396  1.2366
 2178SOL     OW18169   3.224   3.390   1.474  0.3750  0.1316 -0.1558
 2178SOL    HW118170   3.316   3.365   1.487  0.1496  0.5510  2.3328
 2178SOL    HW218171   3.212   3.470   1.526 -1.0029 -1.2740  1.6822
 2179SOL     OW18172   1.024   4.726  14.949 -0.3305  0.5381  0.2477
 2179SOL    HW118173   0.986   0.076  14.933 -2.0321  0.3386  3.2074
 2179SOL    HW218174   1.024   4.733  15.045 -0.5366  1.6502  0.1667
 2180SOL     OW18175   0.453   1.349   9.130  0.0101  0.5768  0.5360
 2180SOL    HW118176   0.527   1.289   9.125 -1.6449 -1.4298  0.1249
 2180SOL    HW218177   0.400   1.308   9.198 -0.0954  0.6296  0.4858
 2181SOL     OW18178   0.380   0.824   7.112 -0.0770 -0.4769 -0.0903
 2181SOL    HW118179   0.447   0.760   7.088  0.1935 -0.0038 -0.5662
 2181SOL    HW218180   0.379   0.817   7.208 -0.3918 -1.1881 -0.1441
 2182SOL     OW18181   1.082   4.008   3.847 -0.2162 -0.0378 -0.0271
 2182SOL    HW118182   1.072   4.013   3.942 -2.6167 -0.7293 -0.2541
 2182SOL    HW218183   1.006   3.952   3.829  0.2798 -1.4979  2.3301
 2183SOL     OW18184   2.849   2.225   2.482  0.1530  0.4544  0.8963
 2183SOL    HW118185   2.760   2.201   2.458  0.2865  0.1407  0.7179
 2183SOL    HW218186   2.852   2.209   2.577 -0.0594  2.2441  1.2065
 2184SOL     OW18187   3.547   0.596   5.852  0.1763 -0.0838  0.3041
 2184SOL    HW118188   3.598   0.529   5.897 -0.2538 -0.2064  0.6069
 2184SOL    HW218189   3.581   0.585   5.763 -2.0282 -0.0763 -0.5598
 2185SOL     OW18190   0.788   4.023  10.888  0.9716 -0.0552 -0.4911
 2185SOL    HW118191   0.693   4.014  10.894  0.9562  0.4015 -0.0441
 2185SOL    HW218192   0.817   4.000  10.799  0.2710 -1.4704 -0.3643
 2186SOL     OW18193   0.635   0.234   5.705  0.6220  0.6127  0.6284
 2186SOL    HW118194   0.583   0.274   5.635 -1.4220 -1.4142  1.0312
 2186SOL    HW218195   0.567   0.187   5.752  0.6789 -1.1832 -1.1037
 2187SOL     OW18196   2.967   0.897   8.210  0.1567  0.5236 -0.0506
 2187SOL    HW118197   2.998   0.943   8.132  0.3648  0.7736  0.1777
 2187SOL    HW218198   3.049   0.884   8.257 -0.9037 -0.3742  1.5519
 2188SOL     OW18199   2.117   3.376   5.207  0.1684 -0.4112  0.7262
 2188SOL    HW118200   2.090   3.365   5.116 -1.2473  0.2562  1.0702
 2188SOL    HW218201   2.152   3.288   5.224  4.5706  1.2361  0.0878
 2189SOL     OW18202   2.087   0.413   1.977  0.1874 -0.3329 -0.4778
 2189SOL    HW118203   2.123   0.405   2.066 -0.7720 -2.2110 -0.2682
 2189SOL    HW218204   2.166   0.393   1.927 -0.0281  0.4613 -1.1339
 2190SOL     OW18205   4.052   4.228   8.120 -0.0126  0.1481  0.4622
 2190SOL    HW118206   4.137   4.261   8.147 -0.4134  1.8151 -0.3253
 2190SOL    HW218207   4.057   4.146   8.169  1.8763 -0.3429 -0.5465
 2191SOL     OW18208   2.800   2.572  10.554  0.4624 -0.1033 -0.0650
 2191SOL    HW118209   2.876   2.577  10.613  3.0600 -1.0531 -3.2888
 2191SOL    HW218210   2.775   2.480  10.557 -0.7494  0.2783  1.4742
 2192SOL     OW18211   3.353   2.861   2.036  0.2045 -0.2669  0.7320
 2192SOL    HW118212   3.311   2.916   2.102  0.8880  0.0549  0.8965
 2192SOL    HW218213   3.411   2.914   1.981  1.7472 -1.9388  0.7609
 2193SOL     OW18214   3.341   4.097   1.741  0.5058  0.2687  0.0229
 2193SOL    HW118215   3.274   4.158   1.771 -1.3088 -1.7414  0.0301
 2193SOL    HW218216   3.294   4.073   1.661  1.6750 -1.2492 -0.2136
 2194SOL     OW18217   2.750   0.553  17.435 -0.3925 -0.4629 -0.3259
 2194SOL    HW118218   2.694   0.613  17.485 -0.7738  1.2591 -2.8249
 2194SOL    HW218219   2.740   0.473  17.488  0.5892 -0.4162 -0.0701
 2195SOL     OW18220   1.212   0.063   7.727  0.7582  0.5469 -0.2462
 2195SOL    HW118221   1.216   0.094   7.637 -0.5893  0.0455 -0.4702
 2195SOL    HW218222   1.221   4.705   7.714 -1.9175 -0.0732  2.3408
 2196SOL     OW18223   3.069   4.282   6.579  0.9583  0.1597  0.3914
 2196SOL    HW118224   3.106   4.226   6.647 -0.8956 -1.1322  0.3419
 2196SOL    HW218225   3.020   4.343   6.635 -0.0095 -0.2249 -0.0344
 2197SOL     OW18226   2.839   2.791   9.474  0.5578 -0.3302  0.3140
 2197SOL    HW118227   2.881   2.868   9.435 -1.2257  0.7993  0.6096
 2197SOL    HW218228   2.814   2.824   9.560 -0.8788 -0.0577 -0.1973
 2198SOL     OW18229   1.687   4.129   3.492 -0.7179  0.4473 -0.1337
 2198SOL    HW118230   1.652   4.074   3.422  0.6394 -1.4574  0.6656
 2198SOL    HW218231   1.747   4.066   3.533 -1.2973 -0.0918 -0.1177
 2199SOL     OW18232   2.941   4.017   9.396 -0.0903  0.4229 -0.0641
 2199SOL    HW118233   2.976   3.966   9.323 -0.7959 -1.2664  0.7721
 2199SOL    HW218234   2.938   3.946   9.460 -1.8581  0.7187  0.1706
 2200SOL     OW18235   1.021   1.046   7.348  0.4077 -0.1414 -0.1978
 2200SOL    HW118236   1.053   1.096   7.423  0.0597 -0.9902  0.5221
 2200SOL    HW218237   1.033   1.109   7.277 -0.9473  2.8375  2.1943
 2201SOL     OW18238   3.328   0.949   7.849 -0.0261 -0.0340  0.2021
 2201SOL    HW118239   3.296   0.939   7.939  2.7836  0.3776  1.2655
 2201SOL    HW218240   3.272   0.895   7.793 -2.5073  1.6760  1.0286
 2202SOL     OW18241   0.406   4.044   8.237 -0.3500 -0.0464 -0.3676
 2202SOL    HW118242   0.461   4.113   8.200 -1.1352  0.0064 -1.4372
 2202SOL    HW218243   0.464   3.968   8.233  1.1338  1.1148 -1.0288
 2203SOL     OW18244   1.566   0.942  13.280 -0.1095 -0.5291 -0.3480
 2203SOL    HW118245   1.596   0.857  13.313  0.7592  0.0111  0.2370
 2203SOL    HW218246   1.473   0.942  13.304 -0.8636  1.1836 -3.3443
 2204SOL     OW18247   2.993   3.912  17.339  0.1426  0.1433  0.5652
 2204SOL    HW118248   3.015   3.823  17.366 -2.7046 -0.5336  0.6524
 2204SOL    HW218249   2.930   3.895  17.270  0.3805 -1.0755  0.6457
 2205SOL     OW18250   2.966   1.223   8.804  0.0823  0.3311  0.1838
 2205SOL    HW118251   3.002   1.155   8.748 -0.5663  0.2982 -0.1984
 2205SOL    HW218252   2.949   1.298   8.746 -0.2249 -0.3277 -0.5821
 2206SOL     OW18253   2.997   1.055  13.103  0.1297 -0.0037 -0.0765
 2206SOL    HW118254   2.909   1.035  13.069  1.4512  0.5670 -3.8853
 2206SOL    HW218255   3.053   1.009  13.041 -1.1992 -0.3487 -1.0320
 2207SOL     OW18256   2.926   1.655   5.474  0.5739 -0.1504  0.1022
 2207SOL    HW118257   2.999   1.717   5.468 -0.0936  0.4905 -1.2401
 2207SOL    HW218258   2.862   1.721   5.499  0.1660 -0.4557 -0.1477
 2208SOL     OW18259   2.130   1.425   0.131  0.1356 -0.6710  0.1720
 2208SOL    HW118260   2.204   1.473   0.093  0.2237 -0.2865  0.8405
 2208SOL    HW218261   2.096   1.489   0.193 -1.6657 -1.0746 -0.3931
 2209SOL     OW18262   3.680   1.254  14.536  0.0187 -0.0104  0.6741
 2209SOL    HW118263   3.655   1.232  14.626 -1.1728 -1.4239 -0.0050
 2209SOL    HW218264   3.762   1.299  14.556  1.0508 -1.4727 -0.3083
 2210SOL     OW18265   2.072   1.909  14.719 -0.3560 -0.1997 -0.4614
 2210SOL    HW118266   2.148   1.851  14.727  0.0839  0.1657 -1.9404
 2210SOL    HW218267   2.012   1.865  14.659 -1.8389  0.1926  0.7524
 2211SOL     OW18268   0.423   0.886  12.520  0.1728  0.6659 -0.6534
 2211SOL    HW118269   0.373   0.929  12.451  1.1576  1.1138 -1.0914
 2211SOL    HW218270   0.476   0.965  12.535 -1.0658  1.1566  1.1675
 2212SOL     OW18271   0.223   3.169   3.494  0.2891  0.3258 -0.2928
 2212SOL    HW118272   0.158   3.205   3.433  0.1022 -0.6537 -0.6720
 2212SOL    HW218273   0.181   3.088   3.523  0.2288  0.2747 -0.5248
 2213SOL     OW18274   2.022   0.474   5.502 -0.2679 -1.1744  0.6953
 2213SOL    HW118275   2.083   0.406   5.530  1.7136 -1.1493 -3.4456
 2213SOL    HW218276   2.047   0.497   5.412 -0.9826  0.4222  0.9105
 2214SOL     OW18277   1.040   0.422   5.212  1.6008 -0.3170  0.5148
 2214SOL    HW118278   1.090   0.436   5.131  0.1787 -0.5784 -0.4134
 2214SOL    HW218279   1.105   0.403   5.279 -0.6015 -1.0829  2.4264
 2215SOL     OW18280   4.241   4.508   7.129 -0.5568  0.0177 -0.3006
 2215SOL    HW118281   4.173   4.453   7.167 -3.7945  4.5301  0.4213
 2215SOL    HW218282   4.215   4.515   7.037  0.0009  1.5942 -0.3386
 2216SOL     OW18283   1.126   0.003   1.503  0.7373  0.3636  0.5916
 2216SOL    HW118284   1.179   4.670   1.542  1.6457  0.7638  0.0568
 2216SOL    HW218285   1.179   0.081   1.519  0.2670  0.9242 -0.5111
 2217SOL     OW18286   3.322   3.616   2.657 -0.1177 -0.5496 -0.1922
 2217SOL    HW118287   3.331   3.710   2.668  0.4483 -0.3730 -2.2889
 2217SOL    HW218288   3.290   3.590   2.744 -1.7538 -0.5715 -0.8071
 2218SOL     OW18289   1.888   0.450  14.766  0.0576 -0.3047  0.0081
 2218SOL    HW118290   1.917   0.499  14.689 -3.2688  0.0665 -0.9857
 2218SOL    HW218291   1.952   0.475  14.833  0.3775 -0.4762 -0.2283
 2219SOL     OW18292   4.076   0.026  12.919  0.1827  0.6141 -0.4130
 2219SOL    HW118293   4.070   4.667  12.925 -0.7020  0.8515  2.5319
 2219SOL    HW218294   4.058   0.055  12.830 -0.4209  1.6341  0.0434
 2220SOL     OW18295   3.662   3.829  11.086  0.1353 -0.2273 -0.4314
 2220SOL    HW118296   3.569   3.836  11.066 -0.5628 -1.3306  2.4850
 2220SOL    HW218297   3.671   3.735  11.070  0.3055 -0.3133  0.1831
 2221SOL     OW18298   0.962   0.503   7.353  0.1840 -0.6428  0.5292
 2221SOL    HW118299   1.021   0.452   7.298 -0.3733 -2.8051  1.9296
 2221SOL    HW218300   1.019   0.572   7.386 -0.1646 -0.7580  1.3767
 2222SOL     OW18301   1.380   2.030   6.459  0.3175  0.0096 -0.0427
 2222SOL    HW118302   1.290   2.003   6.438 -0.4201  1.1135  1.6459
 2222SOL    HW218303   1.388   2.121   6.430 -0.7376  0.0001 -0.3735
 2223SOL     OW18304   2.843   4.424   5.368 -0.0483 -0.2754  0.0677
 2223SOL    HW118305   2.776   4.400   5.304  0.1826 -1.4978  0.2719
 2223SOL    HW218306   2.886   4.338   5.375  1.0767  0.2025 -0.9180
 2224SOL     OW18307   4.598   0.189   3.584  0.2835  0.0730 -0.3159
 2224SOL    HW118308   4.508   0.210   3.609  0.7829  0.9504  0.7926
 2224SOL    HW218309   4.607   0.221   3.494 -0.7324 -1.5979 -1.0039
 2225SOL     OW18310   4.480   3.448   0.713 -0.2416 -0.6957 -0.6899
 2225SOL    HW118311   4.425   3.523   0.735  1.7056  0.9736 -1.5334
 2225SOL    HW218312   4.427   3.413   0.641  0.8940 -0.6644 -1.5362
 2226SOL     OW18313   3.936   0.258  13.013  0.3959  0.8931  0.0461
 2226SOL    HW118314   3.981   0.212  12.942 -1.5793 -1.9550  0.6467
 2226SOL    HW218315   3.897   0.189  13.066 -0.9505  1.7590  0.1759
 2227SOL     OW18316   2.052   3.030  10.826 -0.1630 -0.4673  0.1475
 2227SOL    HW118317   1.990   3.070  10.765 -0.4705  0.9537  1.3960
 2227SOL    HW218318   2.132   3.081  10.812  0.0207 -0.4103  1.3842
 2228SOL     OW18319   1.692   2.013  16.170 -0.3256  0.2433  0.0305
 2228SOL    HW118320   1.751   2.067  16.221 -0.3791 -0.3601  0.7226
 2228SOL    HW218321   1.715   2.045  16.082  0.1179  1.4225  0.5831
 2229SOL     OW18322   0.946   2.573  15.798  0.1547  0.1313  0.6217
 2229SOL    HW118323   0.999   2.609  15.869  1.5174  0.7093 -0.7027
 2229SOL    HW218324   1.008   2.561  15.727 -1.2786 -0.4488 -0.5300
 2230SOL     OW18325   0.481   1.621   5.942  0.0123 -0.1471 -0.4128
 2230SOL    HW118326   0.543   1.594   5.873  1.6114 -1.6926  1.6255
 2230SOL    HW218327   0.531   1.584   6.015 -0.2980  0.0874 -0.0824
 2231SOL     OW18328   0.396   3.392   7.939 -0.0053  0.1470 -0.1519
 2231SOL    HW118329   0.376   3.328   8.007  2.6883 -1.2977 -0.7071
 2231SOL    HW218330   0.482   3.364   7.907 -0.2885 -1.0461  0.1165
 2232SOL     OW18331   2.005   2.026   8.690  0.7746  0.8281 -0.6049
 2232SOL    HW118332   1.937   2.086   8.719  0.5257 -0.4400  1.4544
 2232SOL    HW218333   2.064   2.055   8.759 -3.0666  2.8521  1.8639
 2233SOL     OW18334   3.592   3.805   5.667 -0.3815 -0.3962  0.6177
 2233SOL    HW118335   3.681   3.778   5.643 -0.8236  1.1815 -2.6766
 2233SOL    HW218336   3.550   3.719   5.671  1.2029 -1.0694  2.8772
 2234SOL     OW18337   4.012   2.954   0.740 -0.3176 -0.1090 -0.5350
 2234SOL    HW118338   3.952   2.887   0.708 -1.1259  0.8271 -0.9849
 2234SOL    HW218339   3.961   3.013   0.795 -0.8177 -0.8044 -0.2533
 2235SOL     OW18340   4.496   2.746   4.940  0.1868  0.4311 -0.2605
 2235SOL    HW118341   4.478   2.830   4.981  1.1565 -0.2357  1.5705
 2235SOL    HW218342   4.591   2.750   4.923  0.2175 -2.6433 -0.8614
 2236SOL     OW18343   2.424   4.614  16.007 -0.3493 -0.2076 -0.0869
 2236SOL    HW118344   2.514   4.590  16.030 -0.0380  2.4899  1.4325
 2236SOL    HW218345   2.389   4.533  16.044  1.2418 -0.2092  1.4052
 2237SOL     OW18346   0.839   0.171   4.370 -0.1934  0.1943 -0.1867
 2237SOL    HW118347   0.795   0.197   4.289  1.6787  1.3066 -0.8424
 2237SOL    HW218348   0.783   0.210   4.437  2.3528  1.4060  1.2501
 2238SOL     OW18349   0.322   4.124   6.689  0.0601  0.3825 -0.5087
 2238SOL    HW118350   0.413   4.109   6.715  1.0488  3.2252 -2.4114
 2238SOL    HW218351   0.293   4.173   6.766  0.9334 -2.6055  1.7321
 2239SOL     OW18352   4.060   0.408   5.779 -0.3354  0.1816  0.2811
 2239SOL    HW118353   3.998   0.372   5.716 -0.0439  0.8858 -0.4092
 2239SOL    HW218354   4.140   0.418   5.726 -1.2905 -1.7317 -1.5108
 2240SOL     OW18355   3.568   4.392   4.723 -0.7196  0.7099 -0.0742
 2240SOL    HW118356   3.611   4.421   4.642  1.5087 -1.3050  0.3771
 2240SOL    HW218357   3.546   4.476   4.763  0.7921  2.1948 -2.2929
 2241SOL     OW18358   4.256   3.706   5.434  0.4342 -0.9981 -0.0942
 2241SOL    HW118359   4.240   3.616   5.464  0.8277 -0.9338  0.3099
 2241SOL    HW218360   4.337   3.719   5.483  1.0233  0.5561 -1.4960
 2242SOL     OW18361   3.122   1.862   8.438  0.3491  0.3115 -0.4126
 2242SOL    HW118362   3.115   1.951   8.472 -3.2093 -0.8372  1.8955
 2242SOL    HW218363   3.206   1.831   8.470  0.1663 -0.4023 -0.6222
 2243SOL     OW18364   1.751   4.429   4.734 -0.2365  0.0411 -0.3871
 2243SOL    HW118365   1.814   4.469   4.674  0.2298 -1.5015 -0.9191
 2243SOL    HW218366   1.694   4.387   4.670 -0.6172  1.0902 -0.7393
 2244SOL     OW18367   4.528   0.496   7.083 -0.1636  0.8065 -0.2321
 2244SOL    HW118368   4.518   0.425   7.146  1.0508  1.2439  0.4388
 2244SOL    HW218369   4.574   0.562   7.134 -2.1791  1.8691  0.2141
 2245SOL     OW18370   0.760   4.108   7.069  0.0421  0.2316  0.6493
 2245SOL    HW118371   0.813   4.029   7.058 -0.0070  0.3417 -0.3644
 2245SOL    HW218372   0.684   4.080   7.120  0.2111  1.1078  1.3812
 2246SOL     OW18373   0.151   1.164  13.829  0.5056  0.3744  0.5157
 2246SOL    HW118374   0.190   1.077  13.826  1.4801  0.8098  0.5324
 2246SOL    HW218375   0.215   1.209  13.885  0.1080  1.3302  0.1858
 2247SOL     OW18376   3.885   3.430  15.558  0.1565 -0.3802 -0.0846
 2247SOL    HW118377   3.806   3.403  15.511 -0.4068 -2.7680  2.2439
 2247SOL    HW218378   3.932   3.346  15.559  0.0952 -0.4064  0.5643
 2248SOL     OW18379   2.960   1.896  16.468 -0.6244  0.1321  0.3547
 2248SOL    HW118380   2.922   1.861  16.550  1.4242 -2.3757  0.2347
 2248SOL    HW218381   2.998   1.815  16.434 -2.1227 -1.2175  1.8203
 2249SOL     OW18382   4.546   1.894  10.634  0.0919 -0.6630 -0.4577
 2249SOL    HW118383   4.455   1.901  10.660  0.4579  0.1663  0.6064
 2249SOL    HW218384   4.586   1.924  10.716 -1.2348 -2.6502  0.8833
 2250SOL     OW18385   3.527   0.971   9.509 -0.6753 -0.1677  0.6214
 2250SOL    HW118386   3.600   0.922   9.472 -0.2240  2.4466 -1.9969
 2250SOL    HW218387   3.555   1.054   9.469 -0.2099 -0.6578 -0.0766
 2251SOL     OW18388   0.450   0.134   7.911  0.4622 -0.0136  0.3067
 2251SOL    HW118389   0.364   0.108   7.878  0.6156 -0.7363  0.4661
 2251SOL    HW218390   0.469   0.192   7.837  2.3845 -1.8318 -0.6480
 2252SOL     OW18391   2.056   3.170   7.059 -0.3184  0.5279 -0.0298
 2252SOL    HW118392   2.135   3.129   7.092 -0.3435 -0.0309 -0.6694
 2252SOL    HW218393   2.015   3.100   7.009 -0.8270  1.3773 -0.8027
 2253SOL     OW18394   1.566   2.935   8.691  0.2621 -0.6374 -0.0937
 2253SOL    HW118395   1.521   2.946   8.607  0.6206 -1.2369 -0.3591
 2253SOL    HW218396   1.657   2.954   8.667 -0.1609  1.1620 -0.2789
 2254SOL     OW18397   3.244   4.553   9.767 -0.1603  0.0042 -0.4826
 2254SOL    HW118398   3.279   4.600   9.843 -1.7859  0.8784 -0.2709
 2254SOL    HW218399   3.257   4.463   9.794  2.1848  0.2947 -0.6571
 2255SOL     OW18400   2.245   2.973  15.488 -0.1414  0.1507 -0.2020
 2255SOL    HW118401   2.211   2.980  15.399 -2.3730 -1.8213  0.5161
 2255SOL    HW218402   2.300   3.052  15.491  1.6706 -1.1014 -0.5354
 2256SOL     OW18403   1.066   3.149   2.925 -0.0396 -0.6208  0.1355
 2256SOL    HW118404   1.112   3.225   2.960 -0.5934  0.0610 -0.6189
 2256SOL    HW218405   0.978   3.148   2.964  1.6762 -0.3061  4.0208
 2257SOL     OW18406   0.949   0.981   9.567 -0.3449 -0.2428 -0.2454
 2257SOL    HW118407   1.004   0.965   9.489  0.4240  4.0664 -0.5690
 2257SOL    HW218408   0.866   0.998   9.523 -0.7642 -0.6326  0.4093
 2258SOL     OW18409   2.075   2.909  17.648 -0.1052  0.0706 -0.3090
 2258SOL    HW118410   2.105   2.975  17.586 -1.0388  1.4322  0.6833
 2258SOL    HW218411   1.993   2.942  17.685 -0.5390 -0.0884 -1.1394
 2259SOL     OW18412   1.171   3.444   0.195 -0.1696  0.1329  0.3693
 2259SOL    HW118413   1.208   3.496   0.123 -0.3557  1.5894  1.3483
 2259SOL    HW218414   1.195   3.491   0.274 -1.7173 -3.7409  3.1679
 2260SOL     OW18415   3.853   0.323   5.032  0.4056 -0.2431 -0.5696
 2260SOL    HW118416   3.869   0.417   5.023  0.7995 -0.4051 -1.5583
 2260SOL    HW218417   3.937   0.279   5.027 -0.4046 -1.8123 -0.3731
 2261SOL     OW18418   0.023   0.386  14.701  0.5236 -0.2633 -0.8102
 2261SOL    HW118419   0.039   0.415  14.791 -3.5039  0.8213 -0.4330
 2261SOL    HW218420   4.714   0.306  14.727 -0.4614  0.5551 -0.0181
 2262SOL     OW18421   0.450   2.935   8.602  0.1023  0.1597 -0.1571
 2262SOL    HW118422   0.390   2.932   8.677 -0.7466  0.1828 -0.8425
 2262SOL    HW218423   0.458   2.840   8.591  1.0534  0.3022 -0.6618
 2263SOL     OW18424   1.623   1.102  15.910 -0.6359  0.6628 -0.0500
 2263SOL    HW118425   1.535   1.132  15.932  0.1092  1.4266  1.9583
 2263SOL    HW218426   1.669   1.184  15.890 -0.8121  0.1909 -2.3407
 2264SOL     OW18427   2.298   2.518   4.248 -0.2039  0.1313 -0.2078
 2264SOL    HW118428   2.373   2.514   4.308 -2.2453  1.1338  2.4243
 2264SOL    HW218429   2.297   2.607   4.215 -0.8840  0.2630  0.1768
 2265SOL     OW18430   3.704   2.813   0.280 -0.0424 -0.3362 -0.5739
 2265SOL    HW118431   3.658   2.893   0.255  0.5787  0.2419  0.1354
 2265SOL    HW218432   3.792   2.848   0.289 -0.4969  1.1099 -1.6309
 2266SOL     OW18433   3.952   1.969  15.625  0.2100 -0.1986  0.0282
 2266SOL    HW118434   3.864   1.995  15.651 -0.9376 -0.5919 -3.5365
 2266SOL    HW218435   3.991   2.049  15.660 -0.3574 -0.4340  1.2109
 2267SOL     OW18436   1.281   4.493  13.174  0.2680  0.6590  0.3109
 2267SOL    HW118437   1.245   4.425  13.117  3.4993  0.1709 -1.1675
 2267SOL    HW218438   1.246   4.573  13.134  2.0356  0.5929 -1.3509
 2268SOL     OW18439   1.195   1.162   7.784  0.5420 -0.5928 -0.5381
 2268SOL    HW118440   1.252   1.088   7.767 -0.8842 -1.5529 -1.1691
 2268SOL    HW218441   1.146   1.133   7.861  1.1682 -2.5100 -0.8780
 2269SOL     OW18442   1.148   2.549  12.901  0.6552 -0.6954  0.2341
 2269SOL    HW118443   1.118   2.472  12.950 -1.2449  0.2747  0.5584
 2269SOL    HW218444   1.091   2.551  12.824  1.8519  0.2746 -0.6287
 2270SOL     OW18445   3.117   0.847   7.399  0.2536 -0.3880 -0.3409
 2270SOL    HW118446   3.026   0.843   7.429  0.0589  0.2820 -0.8427
 2270SOL    HW218447   3.102   0.839   7.305 -3.4134  3.6359 -0.1264
 2271SOL     OW18448   3.023   3.220  15.700  0.3411  0.2912 -0.1366
 2271SOL    HW118449   3.004   3.312  15.684 -2.5477 -0.3885 -0.7346
 2271SOL    HW218450   3.058   3.188  15.617 -0.3128 -0.0453 -0.2894
 2272SOL     OW18451   3.979   2.278   3.589 -0.0985 -0.0511  0.1645
 2272SOL    HW118452   3.969   2.190   3.552  1.0894 -0.3965  0.6561
 2272SOL    HW218453   4.068   2.263   3.623  0.4969 -1.4820 -2.0179
 2273SOL     OW18454   2.211   4.178   3.113 -0.1504 -0.1615  0.7043
 2273SOL    HW118455   2.203   4.091   3.075  1.3881  0.6283 -1.4118
 2273SOL    HW218456   2.306   4.184   3.120 -0.1843  1.5826 -0.4071
 2274SOL     OW18457   0.376   3.207   6.656 -0.4468  0.0170 -0.5688
 2274SOL    HW118458   0.457   3.187   6.704  0.5326  0.6099 -1.9712
 2274SOL    HW218459   0.391   3.220   6.562 -1.5726  0.6183 -0.6629
 2275SOL     OW18460   1.689   0.785   8.011  0.4293 -0.1914 -0.2589
 2275SOL    HW118461   1.637   0.732   7.950 -0.0311 -0.9687  0.8055
 2275SOL    HW218462   1.617   0.800   8.072  0.2193 -1.3622 -0.2191
 2276SOL     OW18463   0.599   1.699   3.329  0.2712  0.3809 -0.2330
 2276SOL    HW118464   0.531   1.728   3.389  0.4329 -0.6019  0.4354
 2276SOL    HW218465   0.612   1.605   3.344 -1.3550  0.4722  1.7167
 2277SOL     OW18466   2.010   2.722   2.478  0.7854  0.0838 -0.2142
 2277SOL    HW118467   1.951   2.794   2.456 -0.1899 -0.5947  0.1340
 2277SOL    HW218468   2.094   2.764   2.464  0.1224  0.7790 -2.1817
 2278SOL     OW18469   0.231   0.106  11.853 -0.1580 -0.7314  0.1979
 2278SOL    HW118470   0.320   0.090  11.821 -1.1072 -2.6369 -1.4183
 2278SOL    HW218471   0.242   0.120  11.947  1.0836 -2.7761  0.3574
 2279SOL     OW18472   0.279   2.236  10.498 -0.6327 -0.3903 -0.0862
 2279SOL    HW118473   0.351   2.249  10.560  0.8524  0.6442 -2.0271
 2279SOL    HW218474   0.331   2.226  10.418  0.2939  1.0128  0.3284
 2280SOL     OW18475   4.727   1.453   8.987 -0.1334 -0.2669  0.4014
 2280SOL    HW118476   4.656   1.462   8.925  1.3834 -0.8351 -1.4237
 2280SOL    HW218477   0.066   1.415   8.941 -1.0885 -2.2382  0.4530
 2281SOL     OW18478   1.276   1.812   5.682 -0.4786 -0.3977 -0.2437
 2281SOL    HW118479   1.312   1.728   5.712  2.7224  0.9098 -0.3726
 2281SOL    HW218480   1.213   1.833   5.750 -0.6352  0.3621 -0.6277
 2282SOL     OW18481   0.820   2.647   4.368  0.1618 -0.4058 -0.2134
 2282SOL    HW118482   0.898   2.613   4.325  0.0650 -0.1855 -0.5583
 2282SOL    HW218483   0.765   2.649   4.290  0.8601 -1.5496 -0.7380
 2283SOL     OW18484   2.972   4.491   2.617 -0.1620  0.5754 -0.3808
 2283SOL    HW118485   2.888   4.470   2.660  0.2634  0.5981  0.4677
 2283SOL    HW218486   2.995   4.575   2.655 -0.4396  0.6018 -0.2657
 2284SOL     OW18487   2.356   0.054   6.767  0.0654  0.2950  0.6831
 2284SOL    HW118488   2.412   0.045   6.690 -1.0785 -1.1185  0.0284
 2284SOL    HW218489   2.423   0.083   6.829  1.1293  0.7988 -0.6958
 2285SOL     OW18490   1.483   2.430   9.916 -0.4860  0.0620  0.4114
 2285SOL    HW118491   1.476   2.461  10.007  0.7348  1.4206  0.0444
 2285SOL    HW218492   1.463   2.337   9.922  3.5297 -0.7724  1.2650
 2286SOL     OW18493   4.514   2.816   7.457 -0.6714  0.4762 -0.3723
 2286SOL    HW118494   4.446   2.822   7.390 -1.7913 -1.9071  0.5439
 2286SOL    HW218495   4.483   2.771   7.536  2.3158  2.4731  1.9676
 2287SOL     OW18496   2.000   3.238  13.291 -0.4627 -0.6991  0.0901
 2287SOL    HW118497   1.956   3.288  13.360  1.1100 -1.4005  1.6084
 2287SOL    HW218498   1.977   3.148  13.313  1.2332 -0.5316  2.5065
 2288SOL     OW18499   2.971   0.854   2.991  0.3739  0.0267  0.5493
 2288SOL    HW118500   2.973   0.890   3.080  0.7187 -1.3939  1.1038
 2288SOL    HW218501   2.883   0.817   2.984  0.8669 -0.9258 -0.6256
 2289SOL     OW18502   2.892   3.492   3.110 -0.2308 -0.3150 -0.3547
 2289SOL    HW118503   2.952   3.565   3.130 -1.8119  0.4523  1.5310
 2289SOL    HW218504   2.938   3.422   3.157 -1.5663 -0.4267  0.7709
 2290SOL     OW18505   3.589   3.144   6.582  0.2226  0.1751  0.3465
 2290SOL    HW118506   3.650   3.088   6.535  1.4217  0.7933  1.1737
 2290SOL    HW218507   3.639   3.150   6.663 -0.4726 -0.5157  0.8244
 2291SOL     OW18508   3.070   2.559  15.284 -0.0708 -0.1160 -0.4249
 2291SOL    HW118509   2.983   2.572  15.246  0.9678  1.4640 -2.2497
 2291SOL    HW218510   3.117   2.618  15.225  0.8365 -0.5931 -0.1759
 2292SOL     OW18511   2.837   2.182   2.754  0.1608 -0.1181  0.1553
 2292SOL    HW118512   2.925   2.171   2.790  1.2852  0.8592 -2.3223
 2292SOL    HW218513   2.784   2.184   2.834 -0.4538  0.0346 -0.2520
 2293SOL     OW18514   2.977   0.787   4.584  0.2132 -0.0338  0.2123
 2293SOL    HW118515   3.027   0.706   4.572 -2.0225 -0.9852 -2.6954
 2293SOL    HW218516   2.903   0.755   4.636 -0.5807  0.3164 -0.6911
 2294SOL     OW18517   1.695   2.714   4.816 -0.7893  0.4219 -0.0371
 2294SOL    HW118518   1.752   2.762   4.876  0.8083  0.0324 -1.2721
 2294SOL    HW218519   1.720   2.758   4.735 -1.5518  0.5539 -0.1992
 2295SOL     OW18520   4.488   1.685   4.904 -0.0671  0.3583 -0.1211
 2295SOL    HW118521   4.579   1.692   4.934  0.1459 -1.2782 -0.3780
 2295SOL    HW218522   4.503   1.614   4.842  0.0444  2.6106 -2.6566
 2296SOL     OW18523   0.722   3.599   2.902  0.4441  0.2920  0.4781
 2296SOL    HW118524   0.779   3.618   2.827  0.4761 -0.4847  0.3049
 2296SOL    HW218525   0.658   3.668   2.885 -2.1107 -2.4571 -1.1627
 2297SOL     OW18526   0.563   2.490  15.202  0.3845 -0.1077 -0.4914
 2297SOL    HW118527   0.598   2.538  15.127  0.9938 -0.0594 -0.1754
 2297SOL    HW218528   0.624   2.518  15.270  1.6386 -1.1751 -1.1746
 2298SOL     OW18529   2.921   0.118   7.981 -0.0499 -0.9772 -0.3890
 2298SOL    HW118530   2.930   0.066   7.902  0.3460  0.9910 -1.6563
 2298SOL    HW218531   3.002   0.087   8.023  1.0080  0.3587 -1.4464
 2299SOL     OW18532   3.148   4.369   2.938  0.3323  0.5632  0.1454
 2299SOL    HW118533   3.192   4.437   2.990  1.9337  0.1128 -0.6259
 2299SOL    HW218534   3.223   4.312   2.923  0.3831  0.8319 -0.6423
 2300SOL     OW18535   2.439   0.923   8.749 -0.0039  0.2049  0.1583
 2300SOL    HW118536   2.398   0.995   8.701 -0.0563 -0.1214 -0.2790
 2300SOL    HW218537   2.439   0.851   8.687 -3.0917 -0.4625  0.9391
 2301SOL     OW18538   2.998   2.696   5.810  0.1476 -0.2410 -0.0017
 2301SOL    HW118539   2.960   2.730   5.729 -1.3195 -2.0094 -0.0471
 2301SOL    HW218540   2.955   2.611   5.814  2.7185 -1.5924 -1.3940
 2302SOL     OW18541   1.225   1.416   1.630  0.4776  0.0706  0.7020
 2302SOL    HW118542   1.142   1.384   1.596 -0.3661  0.9990  1.9150
 2302SOL    HW218543   1.247   1.474   1.557  3.5424 -0.2341  1.3471
 2303SOL     OW18544   2.162   4.729   7.471 -0.1049 -0.1295  0.2061
 2303SOL    HW118545   2.187   4.732   7.563  3.0336 -0.2822 -0.6267
 2303SOL    HW218546   2.206   4.648   7.447  0.4044  0.0742  0.4612
 2304SOL     OW18547   1.827   2.203   8.781  0.5416  0.0345 -0.2185
 2304SOL    HW118548   1.762   2.243   8.724  0.3260 -0.4888 -0.3478
 2304SOL    HW218549   1.857   2.274   8.837  1.4903  0.1648 -0.8787
 2305SOL     OW18550   2.557   1.768  16.051 -0.2948  0.3328 -0.5751
 2305SOL    HW118551   2.499   1.788  16.125  0.9540  0.5990  0.3205
 2305SOL    HW218552   2.575   1.857  16.020 -1.2294  0.1270 -1.7099
 2306SOL     OW18553   4.068   0.558   8.578  0.2136 -0.3101 -0.0204
 2306SOL    HW118554   4.150   0.514   8.556  0.1040 -1.4551  1.8826
 2306SOL    HW218555   4.044   0.590   8.491 -2.4380 -3.0955 -0.2836
 2307SOL     OW18556   3.998   2.131   5.916  0.0025 -0.0232 -0.1880
 2307SOL    HW118557   3.960   2.175   5.840 -0.1509 -1.1983 -0.7936
 2307SOL    HW218558   3.960   2.176   5.991 -0.0493  0.1654 -0.3280
 2308SOL     OW18559   3.090   1.495   6.687 -0.3048 -0.3954  0.0967
 2308SOL    HW118560   3.071   1.405   6.659  0.8061  0.3118 -2.8510
 2308SOL    HW218561   3.122   1.522   6.601  0.4770  0.0645  0.5382
 2309SOL     OW18562   2.402   0.672   6.132  0.5106  0.1135  0.1525
 2309SOL    HW118563   2.333   0.624   6.088  0.6432  0.8948 -0.9011
 2309SOL    HW218564   2.478   0.657   6.075 -1.4125  1.9246 -2.8758
 2310SOL     OW18565   0.194   0.832  12.999  0.1074 -0.2700  0.1936
 2310SOL    HW118566   0.262   0.899  12.996  0.7284 -0.9682 -1.5813
 2310SOL    HW218567   0.207   0.796  13.086 -1.1727  0.5067  0.7044
 2311SOL     OW18568   4.504   3.316  17.625 -0.4048  0.5864 -0.2636
 2311SOL    HW118569   4.570   3.382  17.605  0.8384 -0.1577  1.3823
 2311SOL    HW218570   4.552   3.232  17.620  1.7514  1.8647 -1.2107
 2312SOL     OW18571   3.358   0.205   3.045 -0.7228  0.0291  0.3310
 2312SOL    HW118572   3.267   0.229   3.027 -0.3039  0.7519 -0.7939
 2312SOL    HW218573   3.392   0.294   3.040 -0.8643 -0.0551 -2.0535
 2313SOL     OW18574   2.780   0.647   3.331  0.0078  0.1341  0.0737
 2313SOL    HW118575   2.749   0.737   3.329 -0.5606  0.0242  3.9580
 2313SOL    HW218576   2.811   0.626   3.243  1.2231 -2.2898  1.0532
 2314SOL     OW18577   1.655   2.028   0.614  0.0253 -0.2051 -0.3750
 2314SOL    HW118578   1.674   1.979   0.534 -0.2307 -0.1791 -0.4513
 2314SOL    HW218579   1.590   2.087   0.577 -1.4138  0.0326  2.5264
 2315SOL     OW18580   1.004   1.662   7.319  0.7419 -0.0125 -0.6292
 2315SOL    HW118581   0.981   1.743   7.365  0.9618 -0.1505 -0.2746
 2315SOL    HW218582   1.081   1.688   7.268  0.7077  2.5014  0.5899
 2316SOL     OW18583   2.124   4.502   2.556 -0.3959 -0.3647  0.2938
 2316SOL    HW118584   2.063   4.473   2.488  0.3106  1.8359 -1.2650
 2316SOL    HW218585   2.168   4.574   2.513 -0.0540 -0.6693  0.1366
 2317SOL     OW18586   2.785   2.107  16.104  0.4279 -0.6631  0.8558
 2317SOL    HW118587   2.824   2.067  16.026 -2.5462 -1.3364 -0.2726
 2317SOL    HW218588   2.863   2.097  16.159  1.6292 -1.4602 -0.9836
 2318SOL     OW18589   0.104   1.101   1.555 -0.1098  0.6019 -0.0936
 2318SOL    HW118590   0.117   1.170   1.491 -1.5082 -0.7345 -1.8051
 2318SOL    HW218591   0.014   1.072   1.541 -0.6795  1.6338  1.4394
 2319SOL     OW18592   3.191   4.435  13.165  0.0499  0.6152  0.1745
 2319SOL    HW118593   3.250   4.482  13.107  1.8266 -1.0637  0.6370
 2319SOL    HW218594   3.132   4.494  13.213  0.1678  1.6584 -0.9835
 2320SOL     OW18595   4.473   3.945   5.321 -0.7448 -0.2268  0.2353
 2320SOL    HW118596   4.432   3.931   5.235  0.3495  2.0003 -0.6425
 2320SOL    HW218597   4.535   3.875   5.338 -1.5011 -1.0077 -0.1862
 2321SOL     OW18598   1.663   0.020   1.988 -0.3480 -0.9426 -0.5159
 2321SOL    HW118599   1.756   4.733   1.989  0.1589  1.1821  0.4083
 2321SOL    HW218600   1.625   4.677   2.025 -0.7801 -0.2445  0.4981
 2322SOL     OW18601   1.370   1.232   6.483  0.3171 -0.4758 -0.2712
 2322SOL    HW118602   1.388   1.206   6.573 -1.9381 -2.3041 -0.3621
 2322SOL    HW218603   1.450   1.201   6.440  1.4421  2.0963 -0.0355
 2323SOL     OW18604   0.941   3.222   5.287 -0.3029  0.1167  0.3779
 2323SOL    HW118605   0.949   3.313   5.314 -1.3692  0.6458 -1.0764
 2323SOL    HW218606   0.847   3.218   5.309 -0.3285 -0.1760  0.2142
 2324SOL     OW18607   3.718   2.470  11.295 -0.2111 -0.2679  0.4128
 2324SOL    HW118608   3.686   2.477  11.205 -2.0345 -0.9193  1.0281
 2324SOL    HW218609   3.769   2.389  11.292 -1.4310 -1.0557  0.9312
 2325SOL     OW18610   3.583   1.589   8.838  0.8220 -0.3488  0.4110
 2325SOL    HW118611   3.588   1.523   8.769  2.3001 -2.8639  2.9287
 2325SOL    HW218612   3.490   1.611   8.829  0.1809 -2.6760  1.4970
 2326SOL     OW18613   1.044   0.748  13.039  0.7107 -0.1572  0.2254
 2326SOL    HW118614   1.126   0.761  12.990  1.0437  0.0778  0.8409
 2326SOL    HW218615   0.997   0.698  12.972  0.3751  0.8100 -0.2642
 2327SOL     OW18616   4.379   3.342   7.581 -0.4734  0.6485 -0.3815
 2327SOL    HW118617   4.369   3.335   7.676 -2.5321 -2.0146 -0.7837
 2327SOL    HW218618   4.466   3.308   7.559 -0.3277  0.0455  1.0840
 2328SOL     OW18619   0.056   3.242   5.337  0.1052 -0.0735 -0.7165
 2328SOL    HW118620   4.733   3.287   5.276  0.3495  0.6789 -0.4071
 2328SOL    HW218621   4.734   3.215   5.408  1.2644 -0.3208  0.1345
 2329SOL     OW18622   2.979   4.719   7.403 -0.4216 -0.2749 -0.2096
 2329SOL    HW118623   2.956   4.631   7.432 -1.5152 -1.0629 -3.4201
 2329SOL    HW218624   3.075   4.724   7.409 -0.3749  1.0913 -1.9253
 2330SOL     OW18625   4.618   4.006   5.758 -0.1436  0.2061  0.1871
 2330SOL    HW118626   4.639   3.984   5.849 -1.6706 -0.1166  0.4568
 2330SOL    HW218627   4.621   4.101   5.751 -0.5697  0.4171  3.1147
 2331SOL     OW18628   0.837   1.988   9.711  0.0904 -0.3189 -0.1086
 2331SOL    HW118629   0.901   1.992   9.640  0.0080  0.2558 -0.1525
 2331SOL    HW218630   0.775   1.930   9.667  0.4193  0.0763 -1.1117
 2332SOL     OW18631   4.503   0.261   4.202 -0.4290  0.0409 -0.3793
 2332SOL    HW118632   4.539   0.195   4.261  1.7030  2.2058  0.7129
 2332SOL    HW218633   4.571   0.328   4.198  2.1938 -2.5679  0.4420
 2333SOL     OW18634   3.246   3.042   9.361 -0.5558 -0.2553  0.2283
 2333SOL    HW118635   3.335   3.050   9.327  0.0444  0.0980  1.8661
 2333SOL    HW218636   3.213   2.977   9.298 -0.0746 -1.3336  1.0816
 2334SOL     OW18637   2.058   2.545   3.043  0.0518 -0.7001 -0.6089
 2334SOL    HW118638   2.047   2.607   2.970 -1.8379  0.0475  0.3269
 2334SOL    HW218639   1.969   2.512   3.052  0.9388 -3.5749 -2.3679
 2335SOL     OW18640   1.863   3.150  12.239 -0.4209  0.7704 -0.0818
 2335SOL    HW118641   1.841   3.109  12.156 -1.9187  0.3188  0.5414
 2335SOL    HW218642   1.774   3.170  12.268 -0.5593 -0.8330  0.5772
 2336SOL     OW18643   4.630   2.083  10.465  0.3054  0.9091  0.5300
 2336SOL    HW118644   4.604   2.015  10.527 -2.2015  2.7023  1.4541
 2336SOL    HW218645   4.545   2.109  10.428 -0.2046  2.6471  2.9760
 2337SOL     OW18646   3.284   1.912  12.068 -0.2942  0.1086  0.5421
 2337SOL    HW118647   3.378   1.931  12.068 -0.8582  2.9595  0.3641
 2337SOL    HW218648   3.292   1.834  12.122  2.9964 -0.3231 -0.5532
 2338SOL     OW18649   3.061   4.508   8.924  0.3543  0.0860  0.1753
 2338SOL    HW118650   3.098   4.566   8.857 -1.3487  0.5713 -0.3469
 2338SOL    HW218651   3.100   4.423   8.908  1.9766  0.9367 -0.3611
 2339SOL     OW18652   1.100   2.124   4.645 -0.0741 -0.1317 -0.5584
 2339SOL    HW118653   1.072   2.212   4.667  0.7374 -0.2846  1.1274
 2339SOL    HW218654   1.067   2.083   4.725 -1.1284 -0.1017 -0.9853
 2340SOL     OW18655   1.093   4.147   6.755 -0.1210  0.7421 -0.0063
 2340SOL    HW118656   1.008   4.102   6.761 -0.6466  1.4120 -2.1169
 2340SOL    HW218657   1.146   4.086   6.703  0.6474 -0.5720  2.3682
 2341SOL     OW18658   3.071   2.434   3.483 -0.4848 -0.5868  0.3543
 2341SOL    HW118659   2.998   2.475   3.436 -1.2440 -0.0644  1.9890
 2341SOL    HW218660   3.029   2.350   3.500 -0.0373 -0.6149  1.2895
 2342SOL     OW18661   4.658   3.092  15.608 -0.0021  0.5111  0.2146
 2342SOL    HW118662   4.673   3.103  15.702  0.3024  1.9507 -0.0046
 2342SOL    HW218663   4.576   3.042  15.604  0.5627 -0.2848 -1.5182
 2343SOL     OW18664   2.463   1.284   1.901 -0.5769  0.3968  0.2546
 2343SOL    HW118665   2.459   1.223   1.975 -1.1018  1.0146  0.7316
 2343SOL    HW218666   2.387   1.249   1.855 -1.9769 -1.3916  3.9980
 2344SOL     OW18667   0.619   4.088  10.469  0.0248 -0.1996  0.1798
 2344SOL    HW118668   0.580   4.172  10.446  0.2697  0.1035  0.8472
 2344SOL    HW218669   0.571   4.066  10.549  1.1083 -1.7602  0.4095
 2345SOL     OW18670   1.509   0.832   8.233 -0.2383  0.2528  0.1391
 2345SOL    HW118671   1.596   0.839   8.271 -1.5591  0.7540  3.0850
 2345SOL    HW218672   1.480   0.921   8.215 -1.4744 -0.4863 -1.5137
 2346SOL     OW18673   0.601   2.220   0.340 -0.0454  0.2166 -0.5131
 2346SOL    HW118674   0.544   2.154   0.379  0.7822  0.4657  1.1371
 2346SOL    HW218675   0.539   2.293   0.343 -1.8040 -1.3117 -0.4131
 2347SOL     OW18676   1.311   2.536   9.232 -0.2367  0.1997  0.4203
 2347SOL    HW118677   1.358   2.552   9.314  0.8314  1.3978 -0.4393
 2347SOL    HW218678   1.240   2.594   9.259  0.4975  1.1037  0.3815
 2348SOL     OW18679   4.261   0.148   6.827 -0.1414  0.0792 -1.0466
 2348SOL    HW118680   4.355   0.133   6.830 -0.3850 -1.0076  0.5152
 2348SOL    HW218681   4.229   0.085   6.891 -2.6651  3.3679  0.9155
 2349SOL     OW18682   0.852   0.837  14.437  0.2048 -0.0516 -0.6518
 2349SOL    HW118683   0.805   0.785  14.372 -1.4530  1.9605 -1.0473
 2349SOL    HW218684   0.785   0.868  14.498  1.3354  0.7461  0.1850
 2350SOL     OW18685   0.324   2.339   7.929 -0.1639  0.5240 -0.3093
 2350SOL    HW118686   0.410   2.337   7.887  0.2199  1.8160  0.3911
 2350SOL    HW218687   0.279   2.406   7.877  0.2096  0.9734 -0.0493
 2351SOL     OW18688   3.937   3.436   3.992 -0.0126 -0.2635  0.4602
 2351SOL    HW118689   3.957   3.410   4.082 -2.6152 -0.3765  1.0092
 2351SOL    HW218690   4.020   3.478   3.970  1.4127 -2.6772  1.3041
 2352SOL     OW18691   0.479   0.751   6.112  0.0336  0.5389 -0.2378
 2352SOL    HW118692   0.529   0.716   6.039  1.8759  0.0803  1.2548
 2352SOL    HW218693   0.431   0.672   6.135  0.5083  0.1202 -0.7121
 2353SOL     OW18694   1.774   0.282   9.445  0.4964  0.3065  0.2005
 2353SOL    HW118695   1.744   0.207   9.394 -3.3143  1.0666  1.3513
 2353SOL    HW218696   1.689   0.325   9.455 -1.3492 -3.7588  1.8849
 2354SOL     OW18697   1.034   0.638   3.910  0.6362  0.0134  1.0079
 2354SOL    HW118698   1.059   0.605   3.823 -2.6364 -0.8900  0.4124
 2354SOL    HW218699   0.989   0.567   3.954  0.4346  0.2763  1.2202
 2355SOL     OW18700   2.111   0.905  15.647  0.4462 -0.2659 -0.0196
 2355SOL    HW118701   2.203   0.908  15.673  0.4859 -1.2204 -0.0704
 2355SOL    HW218702   2.073   0.857  15.721  1.9408  1.4901  1.8822
 2356SOL     OW18703   2.071   2.159   5.566  0.4426 -0.4967 -0.0307
 2356SOL    HW118704   2.046   2.077   5.523  0.9083 -1.1623  0.9700
 2356SOL    HW218705   2.155   2.164   5.520  0.8479  2.4829  1.0286
 2357SOL     OW18706   2.779   1.694  10.988  0.2115 -0.2604  0.1341
 2357SOL    HW118707   2.861   1.742  10.996 -0.4343  1.2234 -2.0123
 2357SOL    HW218708   2.795   1.622  11.049  0.9910  1.8287  2.4078
 2358SOL     OW18709   0.213   1.711   1.588  0.0974 -0.2403  0.2871
 2358SOL    HW118710   0.135   1.657   1.598  0.9772 -1.2037  2.0127
 2358SOL    HW218711   0.209   1.748   1.500 -0.4869 -0.9416  0.0219
 2359SOL     OW18712   0.081   2.371   3.327 -0.2767 -0.1457 -0.2362
 2359SOL    HW118713   0.093   2.454   3.373  0.7245 -0.1469 -0.4805
 2359SOL    HW218714   0.150   2.320   3.370 -0.9032  0.2354  1.2085
 2360SOL     OW18715   1.423   1.525  12.636  0.5626 -0.1009 -0.7316
 2360SOL    HW118716   1.480   1.561  12.703 -0.1936  0.4106 -0.3586
 2360SOL    HW218717   1.355   1.488  12.692 -0.7184 -2.1915 -3.6765
 2361SOL     OW18718   1.318   1.112   2.647 -0.1983 -0.0164  0.2616
 2361SOL    HW118719   1.227   1.087   2.633  0.0986 -1.4694  0.8901
 2361SOL    HW218720   1.328   1.196   2.603  0.0514 -0.8351 -1.2690
 2362SOL     OW18721   1.486   1.467  15.801  0.0983 -0.4452 -0.3235
 2362SOL    HW118722   1.424   1.520  15.851  0.0660 -0.2429 -0.5784
 2362SOL    HW218723   1.434   1.391  15.775 -0.6615 -0.1939  0.4468
 2363SOL     OW18724   3.647   0.354   5.758 -0.5045 -0.2261 -0.4728
 2363SOL    HW118725   3.670   0.267   5.790 -0.9759 -0.4970 -0.8769
 2363SOL    HW218726   3.669   0.341   5.666 -0.8136 -0.1896 -0.5533
 2364SOL     OW18727   2.917   1.152   3.530  0.1169  0.3223 -0.2027
 2364SOL    HW118728   2.850   1.196   3.581 -0.1000 -2.3908  1.8616
 2364SOL    HW218729   2.969   1.229   3.508 -0.4708  0.5217 -0.9120
 2365SOL     OW18730   1.841   1.379   2.321 -0.0363  0.2587  0.6139
 2365SOL    HW118731   1.871   1.333   2.400 -1.3341 -1.4968  0.0883
 2365SOL    HW218732   1.748   1.354   2.319 -0.3996  1.6300  0.1405
 2366SOL     OW18733   1.404   2.205   5.841  0.0933  0.1956  0.1171
 2366SOL    HW118734   1.313   2.209   5.871  0.2242 -1.4316  0.7274
 2366SOL    HW218735   1.428   2.113   5.851 -0.0622  0.1307 -0.1167
 2367SOL     OW18736   1.938   0.245   9.643  0.2464 -1.0906 -0.6487
 2367SOL    HW118737   1.898   0.173   9.693  0.3839  0.3599  1.5469
 2367SOL    HW218738   1.874   0.261   9.574 -0.2686 -0.1081  0.0692
 2368SOL     OW18739   1.053   2.763   8.240  0.3371 -0.4996  0.3169
 2368SOL    HW118740   1.105   2.728   8.312  1.1440  0.4965  0.2242
 2368SOL    HW218741   1.023   2.848   8.273  0.9329  0.0933 -0.6413
 2369SOL     OW18742   2.222   2.878   2.438 -0.2707  0.5054 -0.0379
 2369SOL    HW118743   2.231   2.946   2.505  1.6152 -1.0538  1.2822
 2369SOL    HW218744   2.216   2.940   2.365  0.4316  0.3066 -0.2656
 2370SOL     OW18745   2.623   2.830  15.963  0.4647 -0.6808  0.0339
 2370SOL    HW118746   2.529   2.836  15.978  0.2101 -1.3897 -1.2114
 2370SOL    HW218747   2.636   2.745  15.920 -2.2533 -1.6453  1.1280
 2371SOL     OW18748   0.368   4.605   2.892 -0.4067 -0.6800 -0.1837
 2371SOL    HW118749   0.390   4.659   2.968 -0.0216  0.0549 -0.8169
 2371SOL    HW218750   0.372   4.676   2.828  1.3889 -2.8167 -2.4378
 2372SOL     OW18751   1.441   3.878   4.586  0.4910  0.0823  0.7167
 2372SOL    HW118752   1.484   3.960   4.564  0.7933 -0.1898  0.2865
 2372SOL    HW218753   1.368   3.908   4.639 -1.0985 -0.5854 -1.1062
 2373SOL     OW18754   3.882   3.762   4.074 -0.5280 -0.2324  1.0734
 2373SOL    HW118755   3.959   3.729   4.029 -2.0062 -3.1199  0.6625
 2373SOL    HW218756   3.920   3.850   4.076 -2.8863  0.8929 -2.4697
 2374SOL     OW18757   0.728   3.526  11.914  0.1082  0.0138 -0.0325
 2374SOL    HW118758   0.692   3.611  11.939  0.0179 -0.7515  2.3911
 2374SOL    HW218759   0.783   3.508  11.990 -1.2734 -0.3942  0.8631
 2375SOL     OW18760   4.630   2.778   5.823  0.2965 -0.3695  0.1335
 2375SOL    HW118761   4.626   2.702   5.882  2.2322  0.0347  0.7899
 2375SOL    HW218762   4.543   2.815   5.832  1.0925  0.5476  4.2111
 2376SOL     OW18763   1.824   4.488  15.282  0.0029  0.0200  0.7334
 2376SOL    HW118764   1.874   4.539  15.347 -0.1308  0.8908  0.1511
 2376SOL    HW218765   1.810   4.555  15.215  1.4889 -1.3675 -0.9671
 2377SOL     OW18766   1.555   1.884  13.535  0.3405 -0.2457  0.0090
 2377SOL    HW118767   1.619   1.844  13.475 -0.1979 -1.5061  0.2605
 2377SOL    HW218768   1.612   1.945  13.582 -1.2104  0.9096  0.3742
 2378SOL     OW18769   0.596   1.529  12.259  0.0144  0.6803  0.1930
 2378SOL    HW118770   0.607   1.434  12.259  1.7348  0.8693  0.3912
 2378SOL    HW218771   0.542   1.534  12.181  0.3244  1.7954  0.0514
 2379SOL     OW18772   4.296   0.521  14.044  0.4856  0.0362 -0.0398
 2379SOL    HW118773   4.272   0.525  13.951  1.0460 -1.6205 -0.2600
 2379SOL    HW218774   4.370   0.582  14.035 -0.0125  0.4752 -1.1279
 2380SOL     OW18775   2.929   0.193   9.509  0.1956 -0.1055 -0.1567
 2380SOL    HW118776   3.011   0.148   9.529  0.8006  1.7089  1.4884
 2380SOL    HW218777   2.870   0.131   9.466 -1.3277  1.3397 -0.1509
 2381SOL     OW18778   1.229   0.455   5.647 -0.3405 -0.9012 -0.3087
 2381SOL    HW118779   1.277   0.442   5.729  2.7089 -0.7547 -2.0614
 2381SOL    HW218780   1.143   0.434   5.683 -0.6898  0.7475 -0.1663
 2382SOL     OW18781   2.451   4.315   7.911 -0.0370 -0.9457 -0.2544
 2382SOL    HW118782   2.459   4.397   7.862 -0.5214 -1.2140 -0.7749
 2382SOL    HW218783   2.466   4.345   8.001  1.0624  0.5411 -0.9245
 2383SOL     OW18784   0.482   4.458   7.309 -0.8548  0.5849  0.0633
 2383SOL    HW118785   0.530   4.526   7.356  0.2249 -1.1626  1.4961
 2383SOL    HW218786   0.552   4.399   7.281 -0.5466  0.8561  0.2618
 2384SOL     OW18787   0.708   0.484   7.649  0.5213 -0.4343 -0.3850
 2384SOL    HW118788   0.681   0.572   7.625 -1.5629 -0.6830  1.0179
 2384SOL    HW218789   0.725   0.449   7.562  0.0425 -2.0339  0.1624
 2385SOL     OW18790   4.109   2.623   5.945 -0.5858 -0.5818  0.0689
 2385SOL    HW118791   4.058   2.579   5.877  0.2201  0.3584 -1.1540
 2385SOL    HW218792   4.113   2.554   6.011 -1.3374  1.2730  2.0657
 2386SOL     OW18793   3.753   2.695   2.331 -0.5299 -0.1315 -0.3554
 2386SOL    HW118794   3.688   2.708   2.400 -0.0330 -2.3240  0.5097
 2386SOL    HW218795   3.752   2.781   2.288  1.3838  1.4366  2.7315
 2387SOL     OW18796   2.334   0.630   4.352  0.6633 -0.1139  0.5656
 2387SOL    HW118797   2.399   0.695   4.325 -0.7409  1.0404 -0.0528
 2387SOL    HW218798   2.381   0.546   4.356  0.9804 -0.0404 -1.4159
 2388SOL     OW18799   3.370   3.737   7.604  0.5166  0.1165  0.2015
 2388SOL    HW118800   3.293   3.681   7.607  1.2056 -0.7623  1.3102
 2388SOL    HW218801   3.337   3.827   7.607 -2.7088 -1.0327 -1.3424
 2389SOL     OW18802   2.155   4.078   4.653 -0.8054  0.0907  0.4190
 2389SOL    HW118803   2.132   4.014   4.586  1.5730  0.0344 -0.3285
 2389SOL    HW218804   2.165   4.162   4.608 -0.9980 -1.6187 -2.8216
 2390SOL     OW18805   0.786   4.659   8.215  0.3278  0.1005  0.1043
 2390SOL    HW118806   0.740   4.585   8.255 -1.4924  2.1381  1.7338
 2390SOL    HW218807   0.722   4.709   8.166  1.1401  1.7969  0.7911
 2391SOL     OW18808   2.397   2.493   5.879 -1.1454  0.0540  0.0374
 2391SOL    HW118809   2.347   2.412   5.868 -0.5562 -0.1261 -1.3460
 2391SOL    HW218810   2.423   2.507   5.788  1.6419 -0.7962  0.7228
 2392SOL     OW18811   0.058   0.927   4.127  0.6750  0.1323  0.7979
 2392SOL    HW118812   0.003   1.004   4.119  2.1690  0.7193 -3.6706
 2392SOL    HW218813   0.081   0.931   4.220  1.7143  0.3781  0.5368
 2393SOL     OW18814   2.842   3.892   2.823 -0.2045 -0.1557  0.3896
 2393SOL    HW118815   2.825   3.937   2.906 -2.3616 -1.2344  0.5092
 2393SOL    HW218816   2.917   3.942   2.791  0.2442 -0.5815  0.7717
 2394SOL     OW18817   3.586   1.510   6.048  0.7620  0.0058  0.2429
 2394SOL    HW118818   3.600   1.543   5.959  1.2158 -0.9440 -0.0381
 2394SOL    HW218819   3.567   1.578   6.113 -0.8553  0.6690 -0.9451
 2395SOL     OW18820   4.197   1.391   8.128 -0.3834  0.0167  0.9183
 2395SOL    HW118821   4.273   1.432   8.087 -0.4223  0.5685  1.3965
 2395SOL    HW218822   4.149   1.463   8.168  1.2785  1.4258  0.3792
 2396SOL     OW18823   4.056   1.759   0.213  0.1748 -0.1506 -0.1714
 2396SOL    HW118824   3.963   1.767   0.231  0.3107  2.2575 -0.5905
 2396SOL    HW218825   4.092   1.734   0.298 -0.2824 -2.8913 -0.7969
 2397SOL     OW18826   1.007   4.435   1.994 -0.0876  0.1990  0.8322
 2397SOL    HW118827   1.024   4.410   1.903 -0.8907 -0.1311  0.7765
 2397SOL    HW218828   0.916   4.462   1.982  0.8807  3.2352  0.2589
 2398SOL     OW18829   4.038   2.122   6.967  0.0502  0.3778 -0.0540
 2398SOL    HW118830   4.092   2.136   7.045 -2.3663  0.5847  1.5951
 2398SOL    HW218831   4.109   2.069   6.932  0.9707 -0.0407  2.4254
 2399SOL     OW18832   3.897   2.221  11.921  0.2740  0.4974 -0.6305
 2399SOL    HW118833   3.837   2.211  11.995  2.0301  1.5126  0.9682
 2399SOL    HW218834   3.849   2.272  11.856  0.2945  0.1100 -0.9438
 2400SOL     OW18835   3.495   2.626  12.240 -0.3617  0.3895  0.3521
 2400SOL    HW118836   3.486   2.705  12.294 -1.1423 -1.0971  2.3944
 2400SOL    HW218837   3.426   2.649  12.177 -0.2172  0.7903  0.3376
 2401SOL     OW18838   2.366   2.269   1.815 -0.4458  0.9360  0.4823
 2401SOL    HW118839   2.343   2.257   1.907  0.0826 -0.8798  0.3690
 2401SOL    HW218840   2.420   2.194   1.790 -0.8679  0.0993  2.0841
 2402SOL     OW18841   0.751   4.425   4.670 -0.0322  0.2168 -0.3453
 2402SOL    HW118842   0.741   4.520   4.680 -0.9027  0.3042 -1.9624
 2402SOL    HW218843   0.732   4.384   4.754  3.0337 -1.0670 -0.3131
 2403SOL     OW18844   2.753   1.971   5.984 -0.1006 -0.9226 -0.2727
 2403SOL    HW118845   2.660   1.989   5.980  0.2503  0.5662 -1.4029
 2403SOL    HW218846   2.762   1.903   5.917 -0.1542 -1.2736  0.0753
 2404SOL     OW18847   1.237   2.569   2.352 -0.0617  0.0401  0.1177
 2404SOL    HW118848   1.154   2.609   2.376 -0.1847  0.4402 -0.9898
 2404SOL    HW218849   1.203   2.480   2.341  1.4278 -0.3388 -1.4291
 2405SOL     OW18850   4.293   3.286   7.258 -0.0023  0.0618 -0.4904
 2405SOL    HW118851   4.385   3.274   7.282  0.6462  0.9579 -2.5338
 2405SOL    HW218852   4.282   3.381   7.263 -2.2456 -0.3622  2.2404
 2406SOL     OW18853   3.316   0.305   6.112  0.3832  0.0468  0.0973
 2406SOL    HW118854   3.248   0.238   6.120  1.1710 -0.9094 -1.2343
 2406SOL    HW218855   3.264   0.369   6.065  0.9914 -1.4328 -2.5870
 2407SOL     OW18856   3.175   4.176  13.067  0.7268  0.3749  0.4922
 2407SOL    HW118857   3.103   4.174  13.004  0.9081  1.7840  0.2538
 2407SOL    HW218858   3.164   4.260  13.111  1.1681 -0.0257  1.3584
 2408SOL     OW18859   1.181   0.735   9.966  0.2220 -0.2093 -0.3388
 2408SOL    HW118860   1.120   0.661   9.969 -0.8640  0.7128  0.2667
 2408SOL    HW218861   1.120   0.801   9.935  0.8001 -0.5422 -2.1675
 2409SOL     OW18862   2.307   1.569  14.655 -0.4396 -0.6521  0.0904
 2409SOL    HW118863   2.311   1.637  14.723  0.7090 -0.5303 -0.1112
 2409SOL    HW218864   2.269   1.495  14.704  3.7896 -0.8676  3.0485
 2410SOL     OW18865   0.092   1.186   7.278 -0.0467  0.4782  0.6000
 2410SOL    HW118866   0.013   1.138   7.255  2.6732 -2.2054 -3.0956
 2410SOL    HW218867   0.066   1.279   7.283 -1.0154  0.2659 -0.3354
 2411SOL     OW18868   4.368   3.869   5.073  0.6310 -0.0586  0.5927
 2411SOL    HW118869   4.298   3.819   5.031 -0.0169  0.7887  0.6606
 2411SOL    HW218870   4.441   3.818   5.038 -0.8428 -1.8198  0.0789
 2412SOL     OW18871   2.407   2.722   5.710  0.8155 -0.4698  0.3918
 2412SOL    HW118872   2.450   2.726   5.625 -0.6675  0.5933 -0.3006
 2412SOL    HW218873   2.328   2.676   5.683  0.2171  1.5080 -1.2055
 2413SOL     OW18874   4.062   4.480   4.666  0.3291 -0.5779 -0.9420
 2413SOL    HW118875   4.016   4.563   4.676  1.4900 -0.2001  1.2564
 2413SOL    HW218876   3.998   4.438   4.609 -1.1300 -0.8460  0.9201
 2414SOL     OW18877   4.178   4.096   1.724 -0.3025  0.4686 -0.3088
 2414SOL    HW118878   4.207   4.012   1.689 -2.3798  0.7655 -2.7804
 2414SOL    HW218879   4.084   4.079   1.726 -0.5318  1.6979 -0.6600
 2415SOL     OW18880   4.505   3.072  13.019  0.1229 -0.1718 -0.0037
 2415SOL    HW118881   4.555   2.997  12.987 -2.0649 -2.1346  1.0925
 2415SOL    HW218882   4.564   3.104  13.087  2.5276 -0.5634 -1.9110
 2416SOL     OW18883   3.317   0.327   9.763  0.2357 -0.0643  0.1732
 2416SOL    HW118884   3.340   0.419   9.774  2.2596 -0.3165 -1.9059
 2416SOL    HW218885   3.396   0.274   9.753 -0.2873 -0.8061 -0.0253
 2417SOL     OW18886   0.116   2.594   7.973  0.1632 -0.2866 -0.3378
 2417SOL    HW118887   0.181   2.560   8.035 -0.3754 -1.0716 -0.2011
 2417SOL    HW218888   0.101   2.683   8.004 -0.0611 -0.3387 -0.2999
 2418SOL     OW18889   2.455   2.380   4.980 -0.1916  0.2351 -0.2095
 2418SOL    HW118890   2.450   2.421   4.893 -0.8313  0.9078  0.1476
 2418SOL    HW218891   2.550   2.379   4.988 -0.4221 -2.7579  1.7689
 2419SOL     OW18892   4.466   2.325   1.481 -0.3455 -0.0761 -0.0023
 2419SOL    HW118893   4.387   2.373   1.458  0.1413  1.4130  1.4138
 2419SOL    HW218894   4.425   2.242   1.505  2.9458 -1.5709  0.3937
 2420SOL     OW18895   2.507   2.834  11.187 -0.1503 -0.0515 -0.1656
 2420SOL    HW118896   2.442   2.905  11.185  1.0906  0.9966 -2.8282
 2420SOL    HW218897   2.557   2.847  11.107  1.8718 -2.7887  0.6703
 2421SOL     OW18898   2.008   1.008  17.113  0.3579 -0.4511  0.1645
 2421SOL    HW118899   1.974   1.086  17.157  2.1420 -0.9843  2.5297
 2421SOL    HW218900   2.038   1.052  17.034 -0.8590 -0.2704 -0.1947
 2422SOL     OW18901   0.139   0.882   6.273  0.1920  0.4245  0.6993
 2422SOL    HW118902   0.120   0.826   6.198  0.6323  1.2659 -0.0410
 2422SOL    HW218903   0.062   0.872   6.330 -1.0179 -2.6553 -1.4685
 2423SOL     OW18904   0.229   2.089   5.176  0.0705 -0.0399  0.0204
 2423SOL    HW118905   0.284   2.038   5.235 -2.0535 -3.1280 -0.6244
 2423SOL    HW218906   0.288   2.143   5.124  0.6531 -1.5258 -0.8726
 2424SOL     OW18907   2.051   2.628   7.247 -0.3461  0.0748 -0.6527
 2424SOL    HW118908   2.111   2.554   7.255 -0.3596  0.3847  2.2258
 2424SOL    HW218909   1.967   2.583   7.247 -1.0651  1.4032 -0.7258
 2425SOL     OW18910   2.048   4.140   1.810  0.5789 -0.7056 -0.8049
 2425SOL    HW118911   2.101   4.106   1.739  0.6405 -1.3792 -0.4399
 2425SOL    HW218912   2.102   4.217   1.826  1.5177 -1.5099 -0.0896
 2426SOL     OW18913   0.722   2.495   4.003  0.0908  0.0035  0.1680
 2426SOL    HW118914   0.643   2.442   4.001 -0.3240  0.5922  0.9179
 2426SOL    HW218915   0.773   2.447   4.068 -0.0890  0.2078  0.4590
 2427SOL     OW18916   0.091   0.702   3.392 -0.0023  0.3854 -0.0456
 2427SOL    HW118917   0.065   0.711   3.300 -1.8467 -0.7102  0.3737
 2427SOL    HW218918   0.187   0.698   3.387 -0.0138  1.2185 -0.9021
 2428SOL     OW18919   3.254   4.441   7.735 -0.1505  0.3110  1.1682
 2428SOL    HW118920   3.311   4.478   7.669 -0.4726  0.8309  1.1828
 2428SOL    HW218921   3.209   4.378   7.678  1.4887 -0.0977  0.3320
 2429SOL     OW18922   2.584   4.692   7.265 -0.1440  0.3342  0.4462
 2429SOL    HW118923   2.546   4.680   7.352 -1.6226  0.4272 -0.1796
 2429SOL    HW218924   2.623   0.042   7.266 -1.2172  0.8045  2.8494
 2430SOL     OW18925   3.282   1.510  15.912 -0.3343 -0.0432 -0.1261
 2430SOL    HW118926   3.223   1.500  15.837  0.2434 -1.9944 -0.2981
 2430SOL    HW218927   3.364   1.515  15.864 -2.0708  0.2293 -3.1163
 2431SOL     OW18928   0.458   3.904   6.943 -0.4482 -0.2480 -0.4026
 2431SOL    HW118929   0.391   3.889   7.010 -2.9707  1.3435 -2.5503
 2431SOL    HW218930   0.506   3.821   6.947 -1.1606 -0.6641 -0.5646
 2432SOL     OW18931   3.062   4.533   5.479  0.1083 -0.3601  0.5209
 2432SOL    HW118932   2.975   4.516   5.445  0.5933  0.1475 -0.9669
 2432SOL    HW218933   3.045   4.612   5.530  0.3056 -0.9565  1.5196
 2433SOL     OW18934   0.436   4.569   4.953 -0.0262 -0.4202 -0.1540
 2433SOL    HW118935   0.379   4.542   4.880 -0.3709  1.4743 -0.6131
 2433SOL    HW218936   0.374   4.569   5.026 -0.8396 -1.6863 -0.8491
 2434SOL     OW18937   4.279   1.106   4.679  0.2934  0.3099 -0.4984
 2434SOL    HW118938   4.272   1.026   4.731  0.1899  0.0182 -0.9562
 2434SOL    HW218939   4.218   1.087   4.607  1.2158 -1.5230 -0.7888
 2435SOL     OW18940   2.796   2.732  11.647  0.3116  0.4062 -0.1875
 2435SOL    HW118941   2.724   2.737  11.710  0.1480 -0.1033 -0.3408
 2435SOL    HW218942   2.864   2.753  11.711  0.5374 -1.8141  0.2998
 2436SOL     OW18943   1.676   4.397   3.428 -0.0070  0.5881  0.2463
 2436SOL    HW118944   1.684   4.302   3.431  3.2390  0.8537 -0.8276
 2436SOL    HW218945   1.748   4.422   3.370  1.4519  1.2933  2.3818
 2437SOL     OW18946   4.611   2.543   6.625 -0.2450 -0.2859  0.0758
 2437SOL    HW118947   4.547   2.508   6.563 -1.6698  0.1789  1.2871
 2437SOL    HW218948   4.577   2.631   6.642  1.1640  0.2877 -0.0157
 2438SOL     OW18949   2.295   3.860  16.644 -0.1463 -0.5506 -0.3531
 2438SOL    HW118950   2.315   3.812  16.725 -1.7160 -1.4658 -0.5139
 2438SOL    HW218951   2.381   3.895  16.620  0.9132 -2.4179  0.7121
 2439SOL     OW18952   2.700   0.960   3.030  0.0128 -0.1058 -0.1009
 2439SOL    HW118953   2.755   1.017   2.976  1.9746 -1.4022  0.5229
 2439SOL    HW218954   2.659   1.025   3.087  4.8205 -0.0107  3.1684
 2440SOL     OW18955   0.176   0.024   4.417 -0.0977 -0.3061 -0.3892
 2440SOL    HW118956   0.183   4.665   4.426  0.7092 -0.0262  1.8439
 2440SOL    HW218957   0.213   0.064   4.496 -0.3366  1.1840 -1.0240
 2441SOL     OW18958   1.100   0.881   5.525  0.4869 -0.3620  0.2657
 2441SOL    HW118959   1.007   0.904   5.514  0.1403 -2.2857 -0.7623
 2441SOL    HW218960   1.132   0.962   5.564 -2.2327  0.1099  1.5546
 2442SOL     OW18961   3.857   1.383   6.806  0.5036 -0.4041 -0.0128
 2442SOL    HW118962   3.849   1.287   6.807 -1.4020 -0.2573 -0.6568
 2442SOL    HW218963   3.777   1.407   6.854  0.6489 -1.0793  0.5753
 2443SOL     OW18964   1.251   1.409   2.821  0.1796  0.5425  0.1717
 2443SOL    HW118965   1.256   1.357   2.902  1.3868 -1.0668 -0.9160
 2443SOL    HW218966   1.175   1.382   2.771 -0.3847  0.1845  1.2146
 2444SOL     OW18967   1.586   3.039   4.002 -0.0716  0.6153 -0.4147
 2444SOL    HW118968   1.567   2.955   3.961 -1.5296  0.3614  0.7671
 2444SOL    HW218969   1.562   3.101   3.933  1.1978 -0.5287 -1.8873
 2445SOL     OW18970   1.731   0.444   5.129  0.3748 -0.2924  0.2608
 2445SOL    HW118971   1.675   0.445   5.051 -1.8900 -3.4624  1.8608
 2445SOL    HW218972   1.752   0.537   5.132  0.2842 -0.1740 -2.4523
 2446SOL     OW18973   3.524   2.819   4.997  0.2807  0.3970 -0.8166
 2446SOL    HW118974   3.449   2.774   4.956 -0.5028 -0.3857  1.4806
 2446SOL    HW218975   3.477   2.885   5.047 -0.2159  0.5879 -1.5397
 2447SOL     OW18976   2.341   2.644   7.399 -0.5373  0.2060 -0.1649
 2447SOL    HW118977   2.347   2.580   7.329 -0.4085  1.8329 -1.6305
 2447SOL    HW218978   2.430   2.647   7.433 -0.1392 -1.5008 -1.1088
 2448SOL     OW18979   3.719   2.035   5.015  0.2455  0.5861 -0.0395
 2448SOL    HW118980   3.774   1.959   4.995 -1.3126 -0.0023 -2.0708
 2448SOL    HW218981   3.755   2.058   5.101 -1.5838  0.5792  0.7326
 2449SOL     OW18982   3.079   0.942  11.960  0.1948 -0.8066  0.2005
 2449SOL    HW118983   3.118   0.986  12.035 -0.6835  1.2035 -0.5357
 2449SOL    HW218984   3.064   0.853  11.992 -1.5589  0.1094  1.9000
 2450SOL     OW18985   3.295   1.297   7.623  0.5572 -0.2704 -0.1638
 2450SOL    HW118986   3.249   1.213   7.615 -0.1943  0.1905 -0.6734
 2450SOL    HW218987   3.258   1.335   7.544 -0.4786  0.0027  0.4505
 2451SOL     OW18988   4.539   4.043  16.597  0.1165 -0.2613  0.6234
 2451SOL    HW118989   4.458   4.031  16.645 -0.5732  0.5287 -0.3262
 2451SOL    HW218990   4.541   4.139  16.602 -1.0825 -0.1207 -1.4424
 2452SOL     OW18991   0.676   3.513   0.171  0.1894 -1.0685 -0.3752
 2452SOL    HW118992   0.764   3.479   0.162  0.5992 -0.5382  1.7273
 2452SOL    HW218993   0.640   3.529   0.084  1.6526  0.7094 -0.6671
 2453SOL     OW18994   3.768   2.686   4.007 -0.4893 -0.4486  0.1471
 2453SOL    HW118995   3.674   2.687   4.025 -0.6387  1.6756 -0.7449
 2453SOL    HW218996   3.787   2.766   4.056 -1.8086 -1.2212  1.9152
 2454SOL     OW18997   3.436   2.385   4.412  0.1040 -0.4246  0.5662
 2454SOL    HW118998   3.476   2.357   4.494 -0.2109 -2.1201  0.1299
 2454SOL    HW218999   3.513   2.405   4.358 -0.0016  1.0875  0.9604
 2455SOL     OW19000   4.412   2.960   5.888 -0.7985 -0.5537  0.4750
 2455SOL    HW119001   4.451   3.048   5.882  1.3761 -1.5532  0.0719
 2455SOL    HW219002   4.349   2.964   5.816 -1.7506 -0.6357  1.3028
 2456SOL     OW19003   3.654   3.984  11.331  0.0190 -0.2068  0.0040
 2456SOL    HW119004   3.716   4.054  11.315  1.0260 -1.1406 -0.1937
 2456SOL    HW219005   3.685   3.929  11.259 -2.3444 -0.2148 -1.0045
 2457SOL     OW19006   2.915   1.231   6.525  0.2429 -0.5806 -0.6993
 2457SOL    HW119007   2.924   1.213   6.619 -1.8444 -1.6688 -0.7241
 2457SOL    HW219008   2.854   1.305   6.523  0.6714 -0.1551  1.4368
 2458SOL     OW19009   2.482   1.035   7.600  0.0701  0.3350 -0.0985
 2458SOL    HW119010   2.395   0.997   7.586  0.3743 -0.3641 -0.0924
 2458SOL    HW219011   2.541   0.962   7.583  0.3380  0.3335  0.8546
 2459SOL     OW19012   1.545   3.913  13.640  0.6847 -0.1127 -0.1844
 2459SOL    HW119013   1.534   3.920  13.735  1.0497  0.4815 -0.1851
 2459SOL    HW219014   1.576   4.000  13.613 -0.4590  0.4980  0.4619
 2460SOL     OW19015   3.290   2.127   2.017 -0.0211 -0.2530 -0.4826
 2460SOL    HW119016   3.316   2.199   1.959  3.6487 -2.1805 -1.2426
 2460SOL    HW219017   3.276   2.056   1.955  0.2038 -0.2489 -0.5373
 2461SOL     OW19018   2.642   3.875   9.938 -0.5416  0.1873  0.1939
 2461SOL    HW119019   2.698   3.800   9.959  0.5196  1.4740  1.9824
 2461SOL    HW219020   2.714   3.937   9.934 -1.4839  1.0323 -3.3270
 2462SOL     OW19021   2.813   0.836  11.281  0.5314 -0.1375 -0.3148
 2462SOL    HW119022   2.769   0.886  11.349  1.2552  1.2682 -0.8815
 2462SOL    HW219023   2.904   0.854  11.302  0.4073 -1.0152  0.9939
 2463SOL     OW19024   3.313   3.973   7.415  0.3937 -0.0579  0.0825
 2463SOL    HW119025   3.274   4.000   7.498  1.5271 -0.0370  0.6027
 2463SOL    HW219026   3.259   3.901   7.381  1.8520 -0.6924 -0.9013
 2464SOL     OW19027   1.705   0.835   6.259  0.0526 -1.0006 -0.3514
 2464SOL    HW119028   1.672   0.791   6.180 -1.6648 -2.2081  1.0307
 2464SOL    HW219029   1.784   0.880   6.231 -1.1135  1.5315  0.4293
 2465SOL     OW19030   3.335   4.078  16.125  0.0819 -0.0545 -0.2247
 2465SOL    HW119031   3.288   3.994  16.127  0.2924 -0.1781 -0.5797
 2465SOL    HW219032   3.324   4.117  16.212  2.0947 -0.7983  0.3871
 2466SOL     OW19033   0.083   0.133   8.847  0.2455  0.0648  0.1958
 2466SOL    HW119034   0.098   0.048   8.889 -0.1043  0.6399  1.4937
 2466SOL    HW219035   4.733   0.169   8.869  1.0940  2.1005  0.1069
 2467SOL     OW19036   0.343   0.069   2.729 -0.1010 -0.6069 -0.1460
 2467SOL    HW119037   0.250   0.090   2.736  0.2613  0.6314  0.7438
 2467SOL    HW219038   0.370   0.161   2.734  2.2093 -1.3937  1.8526
 2468SOL     OW19039   0.814   1.288  14.938 -0.2560 -0.0262  0.2143
 2468SOL    HW119040   0.837   1.362  14.882 -2.4532 -1.7620 -2.9202
 2468SOL    HW219041   0.886   1.305  14.999  0.3291  2.2632 -1.1161
 2469SOL     OW19042   1.932   3.044   0.093  0.3394 -0.2369 -0.5866
 2469SOL    HW119043   1.954   3.042   0.187  2.8670 -0.7792 -1.1863
 2469SOL    HW219044   1.919   3.138   0.082 -1.3644 -0.3026  0.8138
 2470SOL     OW19045   4.559   2.796  16.279 -0.4455 -0.3779  0.2272
 2470SOL    HW119046   4.504   2.797  16.356  0.0575  2.9503  0.5409
 2470SOL    HW219047   4.579   2.703  16.283 -0.2595 -0.3675 -0.3043
 2471SOL     OW19048   2.597   3.209  14.496  0.1934  0.0294  0.1688
 2471SOL    HW119049   2.515   3.172  14.528 -0.7518 -1.4570 -3.9264
 2471SOL    HW219050   2.572   3.266  14.423 -1.3206 -1.4281 -0.4381
 2472SOL     OW19051   0.074   2.775   4.035 -0.2365 -0.0103 -0.0293
 2472SOL    HW119052   0.106   2.685   4.044 -3.2568 -1.5214 -4.7160
 2472SOL    HW219053   0.085   2.812   4.123  0.4357 -1.3347  0.4480
 2473SOL     OW19054   2.027   3.675   4.442  0.0633  0.0076  0.1694
 2473SOL    HW119055   2.067   3.750   4.398 -1.1733 -0.1521 -1.2023
 2473SOL    HW219056   1.993   3.708   4.526  0.8854  0.8026  0.1926
 2474SOL     OW19057   2.005   0.521  14.046 -0.2479 -0.3313  0.5117
 2474SOL    HW119058   1.926   0.522  14.100 -0.4266  0.4670  0.2296
 2474SOL    HW219059   2.040   0.606  14.070 -1.5196  0.1220  0.7689
 2475SOL     OW19060   0.087   3.196   9.082 -0.2953  0.1476 -0.1189
 2475SOL    HW119061   0.111   3.104   9.069 -0.7933  0.1043 -0.7234
 2475SOL    HW219062   0.010   3.188   9.138  0.4248  0.5440  0.9415
 2476SOL     OW19063   3.659   0.214   8.988  0.1234 -0.3163  0.2253
 2476SOL    HW119064   3.611   0.167   8.919 -1.6681  1.4420  0.2616
 2476SOL    HW219065   3.723   0.149   9.016  0.8154 -0.5802 -1.9689
 2477SOL     OW19066   0.810   2.679   6.662 -0.1638 -0.2535 -0.0141
 2477SOL    HW119067   0.872   2.607   6.654 -0.0906 -0.5418  3.0700
 2477SOL    HW219068   0.797   2.704   6.571  0.0992 -3.7659 -1.0051
 2478SOL     OW19069   1.292   0.829   7.155  0.1023  0.0246  0.2284
 2478SOL    HW119070   1.220   0.848   7.095  0.7118  2.8580  0.3861
 2478SOL    HW219071   1.248   0.779   7.224 -0.1796  0.3055  0.2529
 2479SOL     OW19072   0.146   0.917   6.946 -0.4634 -0.0680  0.5265
 2479SOL    HW119073   0.174   1.009   6.947  2.1566 -0.8572 -1.2434
 2479SOL    HW219074   0.085   0.919   6.873  0.0218  2.6650  0.1946
 2480SOL     OW19075   3.181   0.127   9.896  0.3384  0.2941 -0.1267
 2480SOL    HW119076   3.165   0.207   9.846  1.1155 -0.0355 -0.9131
 2480SOL    HW219077   3.263   0.097   9.856 -0.0969 -0.9962 -0.0645
 2481SOL     OW19078   4.000   1.872  15.290  0.4173  0.2212 -0.0223
 2481SOL    HW119079   3.923   1.817  15.278  1.3157 -0.3281 -3.1609
 2481SOL    HW219080   4.011   1.919  15.208 -0.7536 -1.1546 -0.9707
 2482SOL     OW19081   0.096   3.270   4.766  0.4267 -0.4888 -0.0716
 2482SOL    HW119082   0.009   3.236   4.748 -0.0111  0.5965 -0.0043
 2482SOL    HW219083   0.122   3.227   4.847  0.3269 -2.0143 -0.8514
 2483SOL     OW19084   1.384   2.622   3.685 -0.2025  0.0243 -0.6923
 2483SOL    HW119085   1.381   2.681   3.609 -2.1519  0.5342 -0.2319
 2483SOL    HW219086   1.471   2.586   3.672 -0.7043 -1.0445 -1.1449
 2484SOL     OW19087   2.371   2.066   4.999  0.1758 -0.1366 -0.5948
 2484SOL    HW119088   2.377   2.153   4.960  2.0337 -0.4087 -0.9290
 2484SOL    HW219089   2.441   2.077   5.064  1.3411  0.2882 -1.9143
 2485SOL     OW19090   2.142   4.623  13.633 -0.0423  0.1554  0.1256
 2485SOL    HW119091   2.205   4.555  13.609  1.5721  0.6857  2.8544
 2485SOL    HW219092   2.171   4.702  13.587 -1.2731  0.6495  0.2120
 2486SOL     OW19093   4.260   2.593   7.994 -0.3499 -0.0253 -0.0824
 2486SOL    HW119094   4.312   2.672   7.976  2.1811 -1.9110 -0.9689
 2486SOL    HW219095   4.194   2.621   8.058  0.8938  0.6087  0.9359
 2487SOL     OW19096   2.995   1.696  15.954  0.0216 -0.0748 -0.2603
 2487SOL    HW119097   2.908   1.681  15.917  0.6985  0.0669 -1.9156
 2487SOL    HW219098   3.045   1.633  15.903  0.4559  1.8073 -2.1767
 2488SOL     OW19099   2.772   4.428   6.124  0.0051  0.1106  0.3718
 2488SOL    HW119100   2.750   4.508   6.170  3.0121  1.5195 -0.6886
 2488SOL    HW219101   2.824   4.393   6.196  0.1296  0.2055  0.3271
 2489SOL     OW19102   2.414   3.678  16.875 -0.4081 -0.6369 -0.4202
 2489SOL    HW119103   2.328   3.707  16.905  0.4371  2.2985 -0.8879
 2489SOL    HW219104   2.435   3.609  16.938 -2.1089  0.1118  0.9652
 2490SOL     OW19105   2.124   1.279   7.892  0.1812 -0.2091  0.1654
 2490SOL    HW119106   2.120   1.287   7.797  0.2463 -2.5732 -0.0465
 2490SOL    HW219107   2.133   1.185   7.907  0.9480 -0.4721 -2.0040
 2491SOL     OW19108   2.814   1.434   8.672 -0.0998 -0.2119  0.6556
 2491SOL    HW119109   2.773   1.436   8.585 -1.1369  2.1298  1.2016
 2491SOL    HW219110   2.754   1.389   8.732 -2.8457  1.2516 -1.0151
 2492SOL     OW19111   3.982   1.265   1.843 -0.0009 -0.1564 -0.2754
 2492SOL    HW119112   3.964   1.357   1.824  1.9160  0.1715 -0.4925
 2492SOL    HW219113   3.901   1.229   1.807 -0.2558 -0.0499  0.1879
 2493SOL     OW19114   3.204   2.338  16.673 -0.4588  0.4652  0.3865
 2493SOL    HW119115   3.260   2.413  16.649  1.6937 -1.7047 -1.3807
 2493SOL    HW219116   3.135   2.335  16.607  0.2417  2.5255 -0.4493
 2494SOL     OW19117   3.573   4.705   7.469 -0.0504 -0.6917  0.4601
 2494SOL    HW119118   3.546   0.055   7.501 -2.2545 -1.4858  0.7659
 2494SOL    HW219119   3.654   4.694   7.519  0.5253 -0.4535 -0.4342
 2495SOL     OW19120   0.196   0.094  10.935  0.2976 -0.0759 -0.3284
 2495SOL    HW119121   0.289   0.112  10.922  0.5064 -0.1493  1.1049
 2495SOL    HW219122   0.194   4.735  10.947 -1.3465 -0.1096 -0.9287
 2496SOL     OW19123   2.112   2.995   8.044  0.1496 -1.0666  0.4829
 2496SOL    HW119124   2.165   2.926   8.005  1.1121  1.4465 -2.6546
 2496SOL    HW219125   2.091   2.952   8.127 -2.0834 -1.9548 -0.5403
 2497SOL     OW19126   2.285   0.058   8.683 -0.6335  0.1194  0.5861
 2497SOL    HW119127   2.232   0.136   8.697  0.2197  0.9081 -0.5532
 2497SOL    HW219128   2.290   0.062   8.587 -1.8496 -2.1322  0.4096
 2498SOL     OW19129   1.247   3.071   3.405 -0.6401 -0.7426  0.2525
 2498SOL    HW119130   1.268   3.017   3.329 -0.1408  1.4768 -1.1803
 2498SOL    HW219131   1.324   3.118   3.437  1.0975 -3.0027 -0.6408
 2499SOL     OW19132   4.339   0.247   3.592 -0.1191  0.5944  0.2320
 2499SOL    HW119133   4.285   0.182   3.547  0.1025  1.7263 -1.6618
 2499SOL    HW219134   4.296   0.261   3.677 -0.4852 -2.7655  0.6309
 2500SOL     OW19135   2.856   2.095  16.723  0.6151  0.3060 -0.1951
 2500SOL    HW119136   2.923   2.148  16.679 -0.1880 -0.1455 -1.9676
 2500SOL    HW219137   2.876   2.011  16.683  0.2313  0.1045  0.0299
 2501SOL     OW19138   0.911   0.069  10.550 -0.0512  0.6576 -0.6357
 2501SOL    HW119139   0.911   0.063  10.646 -0.1856  0.5829 -0.6414
 2501SOL    HW219140   0.878   0.158  10.536  0.4357  0.8239 -0.7464
 2502SOL     OW19141   0.304   2.119   0.943 -0.3414 -0.3267 -0.1657
 2502SOL    HW119142   0.281   2.148   1.031  1.2679  1.9154 -0.4845
 2502SOL    HW219143   0.385   2.072   0.965  0.1608 -0.6292 -2.6465
 2503SOL     OW19144   4.629   1.422   3.625 -0.1466  0.1721 -0.1083
 2503SOL    HW119145   4.661   1.362   3.692 -0.4298 -2.8025 -2.6240
 2503SOL    HW219146   4.541   1.448   3.653  0.3270 -1.1234  2.4962
 2504SOL     OW19147   3.959   2.949   0.276 -0.7980 -0.4289 -0.7971
 2504SOL    HW119148   4.049   2.925   0.300 -1.5017 -1.4465  0.7880
 2504SOL    HW219149   3.974   3.029   0.226 -1.8420  0.9236  1.0573
 2505SOL     OW19150   2.020   0.416   5.222  0.5932  0.5230 -0.0300
 2505SOL    HW119151   2.022   0.332   5.268 -0.6196 -0.1868 -1.2623
 2505SOL    HW219152   1.934   0.419   5.180  0.4816  1.1078  0.2441
 2506SOL     OW19153   2.677   0.004  12.481  0.4552 -0.1059 -0.4064
 2506SOL    HW119154   2.704   0.091  12.511 -0.7249  0.0830  0.1336
 2506SOL    HW219155   2.602   4.719  12.537  0.0409 -1.6878 -1.5504
 2507SOL     OW19156   1.684   0.157   9.214 -0.3346  0.3390 -0.3322
 2507SOL    HW119157   1.760   0.188   9.164  0.1721  2.1975  1.6038
 2507SOL    HW219158   1.692   0.061   9.214 -0.0899  0.3535 -1.4846
 2508SOL     OW19159   4.245   1.269   6.136 -0.5996 -0.0659  0.0082
 2508SOL    HW119160   4.325   1.275   6.083 -0.8880 -1.9703 -0.6195
 2508SOL    HW219161   4.268   1.295   6.225 -0.1620 -0.4050 -0.0105
 2509SOL     OW19162   4.496   1.363   8.347  0.2120  0.2515  0.1446
 2509SOL    HW119163   4.487   1.373   8.252 -1.5136 -0.4644  0.2403
 2509SOL    HW219164   4.543   1.441   8.376 -0.3707  0.4303  0.5983
 2510SOL     OW19165   4.632   2.697  17.151  0.2548 -0.6602  0.0585
 2510SOL    HW119166   4.652   2.617  17.101  1.2978 -0.8922  0.8384
 2510SOL    HW219167   4.550   2.712  17.104 -1.3672 -0.0792  3.0272
 2511SOL     OW19168   0.810   0.595   8.053 -0.1601  0.3154 -0.2651
 2511SOL    HW119169   0.816   0.560   8.142  0.3112  0.3046 -0.3029
 2511SOL    HW219170   0.729   0.554   8.020 -0.6601  1.7992 -0.8669
 2512SOL     OW19171   2.503   2.352   8.020 -0.2228  0.6683 -0.4578
 2512SOL    HW119172   2.510   2.256   8.029 -0.2349  0.9069  2.2161
 2512SOL    HW219173   2.596   2.373   8.011  0.0424 -0.2941 -0.0832
 2513SOL     OW19174   0.186   1.225   3.646 -0.0516  0.0905 -0.1358
 2513SOL    HW119175   0.118   1.216   3.579  0.3678  2.3334 -0.8631
 2513SOL    HW219176   0.144   1.206   3.730 -0.0203  1.3932  0.1826
 2514SOL     OW19177   2.520   4.289  12.492 -0.0656 -0.4436  0.1513
 2514SOL    HW119178   2.436   4.246  12.473 -0.2322  0.5808 -1.4414
 2514SOL    HW219179   2.566   4.270  12.410 -0.6271 -4.1565  0.6925
 2515SOL     OW19180   3.879   1.458   8.279 -0.3028 -0.7938  0.2774
 2515SOL    HW119181   3.938   1.534   8.288 -0.5609 -0.5741  0.1076
 2515SOL    HW219182   3.873   1.432   8.371 -2.0319  1.0140  0.6723
 2516SOL     OW19183   1.461   1.240  16.080  0.1142 -0.2376  0.1802
 2516SOL    HW119184   1.399   1.282  16.020  0.0534 -0.1271  0.3207
 2516SOL    HW219185   1.449   1.308  16.146 -0.2428  0.0734 -0.2009
 2517SOL     OW19186   3.619   1.812   3.900 -0.1157 -0.0282 -0.1777
 2517SOL    HW119187   3.569   1.795   3.980 -2.4013  1.4630 -1.2715
 2517SOL    HW219188   3.700   1.765   3.918 -0.0541 -0.0788 -0.5731
 2518SOL     OW19189   1.396   2.367   0.213 -0.1491  0.1786 -0.1503
 2518SOL    HW119190   1.306   2.388   0.190  0.5267  1.3337 -1.7699
 2518SOL    HW219191   1.438   2.409   0.138 -0.6959 -1.4508 -1.3730
 2519SOL     OW19192   2.913   4.437   6.722 -0.0023  0.2349  0.2075
 2519SOL    HW119193   2.879   4.466   6.807  0.6146  3.1572 -0.5437
 2519SOL    HW219194   2.905   4.519   6.673  3.5639  1.3528  1.5555
 2520SOL     OW19195   3.877   2.774  14.998  0.1357 -0.0412  0.0259
 2520SOL    HW119196   3.961   2.797  14.959 -0.7901 -0.1904 -2.0679
 2520SOL    HW219197   3.816   2.823  14.942  1.0033  3.1592  1.8745
 2521SOL     OW19198   0.194   3.943   8.933 -0.1535  0.2883 -0.1532
 2521SOL    HW119199   0.178   3.896   9.015  2.4016 -1.9635 -0.9217
 2521SOL    HW219200   0.106   3.975   8.913 -0.6252 -0.7562  0.2482
 2522SOL     OW19201   0.145   1.652   8.821 -0.2797  0.0671  0.3146
 2522SOL    HW119202   0.162   1.564   8.854 -2.0128 -0.1033  0.7585
 2522SOL    HW219203   0.140   1.639   8.726  1.5753  0.5737  0.1378
 2523SOL     OW19204   0.495   2.408   3.541  0.6556 -0.4138 -0.9531
 2523SOL    HW119205   0.512   2.317   3.566 -0.7925 -0.5992 -0.6451
 2523SOL    HW219206   0.490   2.434   3.633 -0.7220  0.0181 -1.1492
 2524SOL     OW19207   3.791   3.518   2.788  0.4627  0.0425  0.5124
 2524SOL    HW119208   3.728   3.476   2.731  0.7767 -1.1193  1.0322
 2524SOL    HW219209   3.817   3.447   2.847  3.2946 -1.6680 -2.8536
 2525SOL     OW19210   3.134   0.190  10.297 -0.2130 -0.0969 -0.0830
 2525SOL    HW119211   3.165   0.103  10.273 -1.2431 -0.3351 -0.5491
 2525SOL    HW219212   3.134   0.185  10.393  2.7062  1.8825  0.0181
 2526SOL     OW19213   4.226   4.573   9.331  0.0620  0.4436  0.2569
 2526SOL    HW119214   4.288   4.586   9.403  0.9528  2.2475 -0.8367
 2526SOL    HW219215   4.212   4.657   9.287 -0.0922 -0.1191 -0.7602
 2527SOL     OW19216   2.197   3.995   3.889  0.1776  1.0035 -0.4241
 2527SOL    HW119217   2.186   3.978   3.982 -2.2508  1.8809 -0.5397
 2527SOL    HW219218   2.143   4.071   3.867  0.6523  1.5232  0.1984
 2528SOL     OW19219   3.812   2.695  10.911 -0.4639  0.0991  0.4828
 2528SOL    HW119220   3.782   2.786  10.911  1.6359  0.7985  0.6556
 2528SOL    HW219221   3.879   2.702  10.979 -2.6958  1.6643  2.5482
 2529SOL     OW19222   1.736   0.049   4.309 -0.0606  0.3424  0.6495
 2529SOL    HW119223   1.695   0.134   4.292  0.2205  0.1237 -1.1560
 2529SOL    HW219224   1.828   0.069   4.293 -0.1579 -1.6505 -2.3056
 2530SOL     OW19225   0.657   3.410   4.411 -0.7579 -0.0540  0.1078
 2530SOL    HW119226   0.684   3.370   4.328  1.3725  0.2672  0.6337
 2530SOL    HW219227   0.685   3.500   4.393 -0.1246 -0.0316  1.2138
 2531SOL     OW19228   0.680   0.651  16.056 -0.8647  0.1782  0.0675
 2531SOL    HW119229   0.742   0.602  16.111 -1.6260 -0.5840  0.2363
 2531SOL    HW219230   0.705   0.615  15.970  0.8052  0.5794  0.3833
 2532SOL     OW19231   2.010   1.928   2.994  0.1488 -0.1898 -0.4078
 2532SOL    HW119232   1.947   1.903   3.061 -0.3405  0.4329 -0.6292
 2532SOL    HW219233   1.974   1.889   2.914  2.0102 -1.7557 -0.4804
 2533SOL     OW19234   1.622   1.275   7.515 -0.1053 -0.2355  0.4885
 2533SOL    HW119235   1.659   1.199   7.470 -2.0396 -1.6967  1.3240
 2533SOL    HW219236   1.693   1.338   7.518  0.6298 -1.0784  0.6763
 2534SOL     OW19237   1.728   2.522   6.186 -0.1145  0.6790  0.3716
 2534SOL    HW119238   1.792   2.487   6.249  0.6133  3.5522  1.2336
 2534SOL    HW219239   1.667   2.558   6.249  0.7433  0.0730  1.5573
 2535SOL     OW19240   2.471   0.127   4.591 -0.4167 -0.1706  0.0971
 2535SOL    HW119241   2.527   0.097   4.519 -0.2472 -0.1231  0.2107
 2535SOL    HW219242   2.533   0.138   4.663  2.1831  1.3819 -2.3169
 2536SOL     OW19243   2.505   3.153   5.491 -0.2437 -0.2414  0.3024
 2536SOL    HW119244   2.453   3.205   5.430 -1.6386 -1.1947  0.6863
 2536SOL    HW219245   2.541   3.091   5.428  0.9006  0.0452  0.6700
 2537SOL     OW19246   3.323   4.429   4.090  0.6553 -0.4040 -0.2364
 2537SOL    HW119247   3.362   4.388   4.167  2.2642  1.0118 -0.3127
 2537SOL    HW219248   3.268   4.356   4.062  0.0830 -0.8084  1.9073
 2538SOL     OW19249   1.917   4.677  10.367  0.9155 -0.5117  0.1880
 2538SOL    HW119250   1.854   4.636  10.426  0.1652 -0.0035 -0.2553
 2538SOL    HW219251   1.985   4.609  10.367  1.3629 -0.0641  1.7239
 2539SOL     OW19252   1.952   4.408  14.496 -0.7855 -0.4768  0.3974
 2539SOL    HW119253   1.922   4.452  14.417  0.9585  2.0682  1.1562
 2539SOL    HW219254   2.003   4.478  14.537  0.4790 -1.7382  0.9586
 2540SOL     OW19255   3.956   1.378   7.496 -0.2656  0.2031 -0.1075
 2540SOL    HW119256   3.950   1.295   7.448  0.3565 -0.4141  0.8686
 2540SOL    HW219257   3.897   1.437   7.450  0.8108 -0.0720 -1.8276
 2541SOL     OW19258   0.995   1.251   9.545 -0.4070 -0.0337  0.8682
 2541SOL    HW119259   1.085   1.241   9.514 -0.5655 -0.0470  0.4153
 2541SOL    HW219260   0.976   1.176   9.602 -0.5483 -0.6921 -0.0536
 2542SOL     OW19261   2.055   1.895   9.883  0.6299 -0.1823 -0.7700
 2542SOL    HW119262   2.013   1.980   9.869 -0.4000 -0.3119  1.5365
 2542SOL    HW219263   1.980   1.836   9.890  1.0285 -0.9454 -2.9668
 2543SOL     OW19264   2.754   1.079   5.073  0.8070  0.3033  0.3442
 2543SOL    HW119265   2.834   1.046   5.113  0.0256 -1.0309  0.8183
 2543SOL    HW219266   2.763   1.173   5.055 -0.6730  0.3131 -0.4000
 2544SOL     OW19267   3.593   1.200   9.398 -0.1337 -0.2598  0.6646
 2544SOL    HW119268   3.647   1.217   9.320 -0.1751 -1.1861  0.4237
 2544SOL    HW219269   3.581   1.285   9.440 -1.4540 -1.0482  1.8710
 2545SOL     OW19270   1.892   2.543  10.065 -0.5695 -0.2660 -0.6430
 2545SOL    HW119271   1.961   2.545  10.131  0.4327  0.9788 -1.7373
 2545SOL    HW219272   1.830   2.477  10.098  0.4706 -1.2964 -0.7482
 2546SOL     OW19273   4.066   2.008  11.854  0.3707 -0.7743 -0.5445
 2546SOL    HW119274   4.050   2.093  11.895 -0.6685 -0.8871 -0.7126
 2546SOL    HW219275   4.161   2.018  11.842  0.3315 -2.0941 -1.9575
 2547SOL     OW19276   0.628   1.096   7.947 -0.8046 -0.2013  0.2425
 2547SOL    HW119277   0.594   1.021   7.996 -1.0322  1.2630  2.3298
 2547SOL    HW219278   0.610   1.074   7.856 -0.2456 -0.2046  0.1339
 2548SOL     OW19279   2.770   0.313   7.080 -0.7469  0.3687 -0.1894
 2548SOL    HW119280   2.732   0.388   7.126 -1.0835 -0.2206  0.5072
 2548SOL    HW219281   2.760   0.255   7.156  0.3480  0.0857 -0.2614
 2549SOL     OW19282   0.308   3.828   6.651  0.7136  0.4330  0.2666
 2549SOL    HW119283   0.293   3.919   6.677 -1.2209 -0.1409  1.1842
 2549SOL    HW219284   0.218   3.797   6.638  0.9406  1.1287 -2.8586
 2550SOL     OW19285   1.001   3.647   0.695  0.0910  0.4934 -0.3137
 2550SOL    HW119286   1.043   3.564   0.676 -2.0818 -0.3461 -1.4032
 2550SOL    HW219287   1.038   3.682   0.776 -2.5472 -1.4030  1.7597
 2551SOL     OW19288   2.690   4.506   2.350  0.6769 -0.8197  0.5882
 2551SOL    HW119289   2.763   4.463   2.306  1.5392  1.2822 -0.0428
 2551SOL    HW219290   2.626   4.435   2.354  0.5863 -0.7051  1.2246
 2552SOL     OW19291   0.418   3.116   3.732 -0.3291  0.1583  0.6284
 2552SOL    HW119292   0.393   3.028   3.759 -0.9104  0.2821  0.4943
 2552SOL    HW219293   0.415   3.101   3.637  0.1551  0.2744  0.5972
 2553SOL     OW19294   1.357   1.941   3.124 -0.3679  0.6698  0.2485
 2553SOL    HW119295   1.403   1.857   3.116  1.3905  1.6246  0.1885
 2553SOL    HW219296   1.267   1.911   3.133  0.2065 -1.1517 -0.0251
 2554SOL     OW19297   4.470   2.845  15.633 -0.1623 -0.1533  0.2899
 2554SOL    HW119298   4.536   2.783  15.601  1.6102  0.9930  1.7377
 2554SOL    HW219299   4.412   2.854  15.557 -0.1179  0.7057  0.3548
 2555SOL     OW19300   4.035   4.093   6.633  0.2093 -0.4414 -0.4038
 2555SOL    HW119301   3.952   4.138   6.614  0.0882 -0.3899  0.2504
 2555SOL    HW219302   4.082   4.113   6.553 -0.1926 -1.3438 -0.8597
 2556SOL     OW19303   2.802   0.985   2.408  0.3330  0.3870  0.2500
 2556SOL    HW119304   2.720   0.966   2.364  0.9644 -1.7592  0.0011
 2556SOL    HW219305   2.862   0.946   2.345 -0.5796 -0.3750 -0.1371
 2557SOL     OW19306   1.697   2.985  14.922  0.3545  0.6127 -0.1689
 2557SOL    HW119307   1.650   2.973  15.004  0.6106  1.2283  0.0629
 2557SOL    HW219308   1.632   2.980  14.852  1.8882  0.8035 -1.6118
 2558SOL     OW19309   0.891   4.648  14.356  0.5273 -0.0184 -0.0148
 2558SOL    HW119310   0.802   4.664  14.389  1.1555  1.0086  1.1848
 2558SOL    HW219311   0.933   4.675  14.438 -0.1460 -1.6774  0.8728
 2559SOL     OW19312   0.672   3.071   8.664  0.7888 -0.1876  0.4837
 2559SOL    HW119313   0.634   3.159   8.657  0.9617 -0.0436  1.3497
 2559SOL    HW219314   0.596   3.025   8.629  0.0908  1.2413  0.1065
 2560SOL     OW19315   1.476   3.146   3.529  0.2086 -0.0801 -0.2344
 2560SOL    HW119316   1.511   3.185   3.609 -0.8946 -1.9672  1.1987
 2560SOL    HW219317   1.521   3.063   3.516  0.1502 -0.0514 -0.6174
 2561SOL     OW19318   0.131   0.720  13.556  0.7766 -0.2730 -0.4519
 2561SOL    HW119319   0.217   0.727  13.597  1.1309  0.9366 -1.4248
 2561SOL    HW219320   0.074   0.684  13.624  0.1182  0.3642 -0.6693
 2562SOL     OW19321   2.302   3.440   8.748  0.0578  0.3184  0.4620
 2562SOL    HW119322   2.364   3.456   8.820  1.7075 -0.8821 -0.7083
 2562SOL    HW219323   2.228   3.492   8.780 -0.7278 -0.4051 -0.2221
 2563SOL     OW19324   3.205   1.768   6.761  0.2100 -0.1513  0.1431
 2563SOL    HW119325   3.149   1.753   6.685  0.9775 -0.2629 -0.4081
 2563SOL    HW219326   3.254   1.685   6.763 -1.2907 -0.9774  2.1596
 2564SOL     OW19327   3.084   3.152   3.476  0.2098 -0.0230 -0.3067
 2564SOL    HW119328   3.080   3.067   3.433  1.4593 -0.0790 -0.3393
 2564SOL    HW219329   3.078   3.123   3.567 -1.3110  1.4439  0.0617
 2565SOL     OW19330   1.968   2.633   4.127 -0.1275  0.1380 -0.2397
 2565SOL    HW119331   1.927   2.547   4.128 -0.1401  0.1480  0.0328
 2565SOL    HW219332   1.903   2.669   4.066 -0.8532 -0.2247  0.3218
 2566SOL     OW19333   1.961   1.044   6.879 -0.0347 -0.2887  0.4733
 2566SOL    HW119334   1.929   1.122   6.925  3.4866  1.6231 -0.3182
 2566SOL    HW219335   2.017   0.998   6.941 -0.0721  0.8390  1.3545
 2567SOL     OW19336   4.046   3.417   4.626 -0.2835  0.3731  0.0834
 2567SOL    HW119337   3.962   3.440   4.584  0.2880  0.8027 -0.8299
 2567SOL    HW219338   4.120   3.462   4.585  0.8876 -0.7506  0.9945
 2568SOL     OW19339   0.527   1.940   0.957 -0.1495  0.3924 -0.0200
 2568SOL    HW119340   0.564   1.929   0.869 -0.3572 -1.5705  0.1387
 2568SOL    HW219341   0.525   1.847   0.979  0.8448 -0.2011 -2.4745
 2569SOL     OW19342   2.635   3.873   6.080 -0.0832 -0.3153 -0.0024
 2569SOL    HW119343   2.593   3.847   5.998 -0.3206 -1.4495  0.4801
 2569SOL    HW219344   2.710   3.816   6.095  0.5809  0.1438 -1.5656
 2570SOL     OW19345   2.263   0.101   0.250 -0.0883  0.1953  0.2067
 2570SOL    HW119346   2.274   0.154   0.328 -1.1250 -1.7059  1.6451
 2570SOL    HW219347   2.178   0.127   0.214 -0.3687  0.2250  0.9015
 2571SOL     OW19348   3.281   1.587  13.619 -0.1840  0.5733  0.2714
 2571SOL    HW119349   3.240   1.525  13.679 -0.0861 -0.0170 -0.2767
 2571SOL    HW219350   3.330   1.632  13.688 -1.0761  0.2142  1.1446
 2572SOL     OW19351   2.669   4.498  14.048  0.4787 -0.3239  0.0850
 2572SOL    HW119352   2.752   4.487  14.001  0.4272  1.7747 -0.4764
 2572SOL    HW219353   2.697   4.515  14.138  1.1183  0.2184 -0.2179
 2573SOL     OW19354   1.193   3.751   4.968  0.0727 -0.5905  0.2372
 2573SOL    HW119355   1.227   3.671   5.007  0.4882 -0.9209 -0.8010
 2573SOL    HW219356   1.133   3.778   5.038  1.3230  0.6931  0.8272
 2574SOL     OW19357   0.027   3.973  13.415  0.2419  0.8021  0.4015
 2574SOL    HW119358   0.103   3.997  13.470  0.4301 -0.0253  0.4983
 2574SOL    HW219359   0.032   4.021  13.333 -0.7273 -0.5966 -0.4653
 2575SOL     OW19360   0.650   0.600   3.118  0.6821 -0.1925 -0.1608
 2575SOL    HW119361   0.696   0.600   3.033 -0.9389 -0.9144 -1.0298
 2575SOL    HW219362   0.580   0.660   3.093 -0.0056 -0.7061  0.5260
 2576SOL     OW19363   4.663   2.886  12.965  0.3112  0.0513  0.0411
 2576SOL    HW119364   4.736   2.907  12.907  0.1114  2.3277  0.6205
 2576SOL    HW219365   4.693   2.801  12.996  2.1191  0.0610 -1.6858
 2577SOL     OW19366   4.128   0.204   8.060 -0.1495  0.0452 -0.1301
 2577SOL    HW119367   4.156   0.124   8.015 -1.9359 -0.8727  0.3747
 2577SOL    HW219368   4.089   0.173   8.142  1.0204 -2.5368 -0.5371
 2578SOL     OW19369   1.048   1.978   7.752  0.2609 -0.5098  0.3406
 2578SOL    HW119370   1.062   2.002   7.843 -0.0039  0.3940  0.1497
 2578SOL    HW219371   0.978   2.038   7.727  0.9972  0.9755  1.8676
 2579SOL     OW19372   2.198   0.565   4.677 -0.1949  0.1962 -0.4354
 2579SOL    HW119373   2.205   0.493   4.740  0.3974  0.5776 -0.0663
 2579SOL    HW219374   2.106   0.572   4.654 -0.8020 -1.2912  1.5091
 2580SOL     OW19375   0.722   4.079   8.674 -0.1564  0.4978  0.1351
 2580SOL    HW119376   0.785   4.151   8.684 -0.8865  0.6994  3.4408
 2580SOL    HW219377   0.642   4.115   8.712 -0.6721 -0.2677 -0.2389
 2581SOL     OW19378   0.226   1.896   9.111 -0.1731  0.7372  0.7659
 2581SOL    HW119379   0.211   1.991   9.104 -0.4501  0.7678  1.8278
 2581SOL    HW219380   0.239   1.873   9.019 -0.2218 -0.5878  1.0947
 2582SOL     OW19381   2.170   3.592  16.318  1.1534 -0.1356 -0.2573
 2582SOL    HW119382   2.147   3.685  16.329  0.0331 -0.4502  0.1058
 2582SOL    HW219383   2.117   3.582  16.238  1.5965 -0.2397 -0.5380
 2583SOL     OW19384   1.420   2.501   5.523  0.1895  0.2397  0.1155
 2583SOL    HW119385   1.360   2.542   5.586  0.6913  0.0210  0.7305
 2583SOL    HW219386   1.459   2.587   5.507 -1.4612  1.2145  1.3293
 2584SOL     OW19387   1.989   4.678  10.763  0.8423 -0.0803  0.0417
 2584SOL    HW119388   2.014   4.602  10.709  0.8948 -0.4918  0.6423
 2584SOL    HW219389   1.913   4.718  10.721  0.4127 -2.6788 -1.6630
 2585SOL     OW19390   1.944   1.039   3.864  0.3418  0.0134 -0.2751
 2585SOL    HW119391   1.965   0.967   3.924 -0.0104 -0.2842 -0.5025
 2585SOL    HW219392   1.992   1.114   3.898 -1.8620  0.4325  1.9644
 2586SOL     OW19393   2.296   2.592   5.343  0.6949 -0.1502 -0.4778
 2586SOL    HW119394   2.223   2.548   5.387  1.1310 -0.0686  0.3283
 2586SOL    HW219395   2.310   2.530   5.271  0.2494 -1.0454  0.2143
 2587SOL     OW19396   0.736   3.482   6.411  0.3570 -0.0429 -0.3795
 2587SOL    HW119397   0.712   3.541   6.482 -1.4755  0.5534 -1.5187
 2587SOL    HW219398   0.820   3.518   6.385 -0.0555  0.5964 -0.8026
 2588SOL     OW19399   4.587   3.462   5.577  0.2922 -0.6816  0.7928
 2588SOL    HW119400   4.570   3.369   5.565  1.4182 -0.5761 -1.5454
 2588SOL    HW219401   4.658   3.459   5.642  0.2056  0.1549  0.9258
 2589SOL     OW19402   0.962   1.599   2.731  0.7481 -0.5169  0.5125
 2589SOL    HW119403   0.990   1.507   2.726 -0.3986 -0.7271 -2.0610
 2589SOL    HW219404   0.885   1.593   2.674  0.6789  2.4028  0.2946
 2590SOL     OW19405   2.160   4.131   5.332  0.2888  0.2594  0.7024
 2590SOL    HW119406   2.188   4.218   5.359 -0.2517  0.1516  1.5998
 2590SOL    HW219407   2.224   4.084   5.386  1.4615 -1.1488 -1.8633
 2591SOL     OW19408   3.112   1.550   2.790 -0.1149  0.5062  0.6401
 2591SOL    HW119409   3.054   1.538   2.714 -1.3584 -1.9746  1.9954
 2591SOL    HW219410   3.049   1.595   2.846 -0.6159 -0.7540  1.0739
 2592SOL     OW19411   2.772   3.373   4.141 -0.6925 -0.1504  0.5281
 2592SOL    HW119412   2.826   3.364   4.220  0.4708 -0.4582 -0.3170
 2592SOL    HW219413   2.699   3.426   4.174 -0.3484  0.4943  0.2352
 2593SOL     OW19414   3.147   1.486   1.051  0.1989  0.4686 -0.5319
 2593SOL    HW119415   3.065   1.508   1.094  1.0459 -0.6890  1.6956
 2593SOL    HW219416   3.169   1.578   1.034  0.1535  0.5937  0.1069
 2594SOL     OW19417   2.122   3.465   3.519 -0.0063 -0.1171  0.1443
 2594SOL    HW119418   2.179   3.427   3.452  2.4660  0.5215  1.8779
 2594SOL    HW219419   2.036   3.472   3.479  0.0201 -1.0501 -0.0575
 2595SOL     OW19420   2.187   1.552  15.136 -0.0932  0.5017  0.0084
 2595SOL    HW119421   2.136   1.517  15.063 -2.6662  1.1413  1.5174
 2595SOL    HW219422   2.261   1.584  15.086 -1.1626  0.6299 -1.4834
 2596SOL     OW19423   2.687   3.095   0.237 -0.0735  1.1016  0.3294
 2596SOL    HW119424   2.681   3.190   0.243  0.2985  1.2284 -1.3736
 2596SOL    HW219425   2.626   3.084   0.164 -0.1464 -1.6095  0.7961
 2597SOL     OW19426   1.807   3.746   6.003  0.2180  0.2809 -0.0710
 2597SOL    HW119427   1.808   3.784   6.090  0.8630  1.1271 -0.4506
 2597SOL    HW219428   1.717   3.713   5.996  0.4848 -0.6497  0.9211
 2598SOL     OW19429   0.316   3.864   5.781  0.0154 -0.4001 -0.0068
 2598SOL    HW119430   0.315   3.787   5.724 -0.3802 -0.0867 -0.4257
 2598SOL    HW219431   0.383   3.853   5.849 -0.4603  1.0103  0.6968
 2599SOL     OW19432   0.907   0.438   8.588 -0.1424 -0.2087  0.3280
 2599SOL    HW119433   0.839   0.413   8.526 -2.0591  1.7087  1.6564
 2599SOL    HW219434   0.888   0.531   8.598  1.3444  0.2025 -0.7196
 2600SOL     OW19435   4.360   2.992   5.062  0.3333 -0.5630  0.3542
 2600SOL    HW119436   4.344   2.914   5.115 -0.8390 -0.7190 -0.2259
 2600SOL    HW219437   4.268   3.018   5.052  1.1858  2.0517 -0.7823
 2601SOL     OW19438   4.497   2.275   7.087 -0.3304  0.8413 -0.6862
 2601SOL    HW119439   4.475   2.351   7.033 -1.6657  2.1849  1.7668
 2601SOL    HW219440   4.564   2.230   7.035 -0.2826  0.0033  0.1155
 2602SOL     OW19441   4.481   1.899   6.303  0.4562 -0.1046 -0.4970
 2602SOL    HW119442   4.409   1.960   6.289 -0.2211 -0.3636  1.8307
 2602SOL    HW219443   4.436   1.825   6.262 -0.3304 -1.5858  3.0171
 2603SOL     OW19444   0.687   2.237   8.548 -0.8069 -0.1732  0.5523
 2603SOL    HW119445   0.598   2.252   8.579 -0.8344 -0.4747  0.6255
 2603SOL    HW219446   0.738   2.209   8.624  2.6550 -1.1058 -2.1060
 2604SOL     OW19447   0.897   2.716   1.262  0.2833  0.2489  0.7535
 2604SOL    HW119448   0.857   2.789   1.310  2.9947  0.3007  2.8636
 2604SOL    HW219449   0.877   2.740   1.171  1.8996 -0.7400  0.1405
 2605SOL     OW19450   1.598   4.063  13.095 -0.1844  0.0633 -0.4827
 2605SOL    HW119451   1.572   4.151  13.122 -0.0206 -0.3312  0.9498
 2605SOL    HW219452   1.513   4.024  13.075 -1.0112  1.0090  1.2569
 2606SOL     OW19453   3.910   0.375   7.281 -0.6412  0.1132 -0.5799
 2606SOL    HW119454   3.969   0.351   7.352 -0.6459 -2.6240 -1.4888
 2606SOL    HW219455   3.966   0.362   7.204 -1.1771  1.5919 -1.2104
 2607SOL     OW19456   0.611   2.096  13.700  0.1475 -0.3649  0.5969
 2607SOL    HW119457   0.569   2.156  13.761 -1.5686 -0.7134 -0.2374
 2607SOL    HW219458   0.558   2.114  13.622  2.0823  1.1659 -0.3683
 2608SOL     OW19459   0.494   1.829   4.646  0.3707 -0.4097  0.2092
 2608SOL    HW119460   0.409   1.862   4.616  0.4877  0.6412  1.0224
 2608SOL    HW219461   0.463   1.769   4.713  1.8256 -1.7744 -0.3420
 2609SOL     OW19462   2.585   0.415   1.417 -0.0524  0.3639 -0.1927
 2609SOL    HW119463   2.603   0.333   1.462  0.4510  0.0420 -0.9733
 2609SOL    HW219464   2.529   0.462   1.478 -0.1268  0.0905 -0.0510
 2610SOL     OW19465   3.192   0.954   4.440  0.1412 -0.2091 -0.1154
 2610SOL    HW119466   3.104   0.927   4.467 -0.7606  0.5451 -2.3520
 2610SOL    HW219467   3.198   1.042   4.478  1.8623  0.3324 -1.6824
 2611SOL     OW19468   2.849   4.140   1.738 -0.6547 -0.6573 -0.2028
 2611SOL    HW119469   2.760   4.174   1.730  0.0820  0.8514 -1.9019
 2611SOL    HW219470   2.901   4.220   1.737 -0.3568 -0.8459  0.5541
 2612SOL     OW19471   1.504   4.609   7.788 -0.3825 -0.1893 -0.1991
 2612SOL    HW119472   1.585   4.656   7.771 -1.1100  1.0896 -0.1368
 2612SOL    HW219473   1.534   4.520   7.771  0.2381 -0.0256  0.0647
 2613SOL     OW19474   3.028   2.028   2.296  0.4904 -0.2511  0.2943
 2613SOL    HW119475   3.070   2.112   2.275  0.4381 -1.0234 -2.9252
 2613SOL    HW219476   3.070   2.005   2.379  0.3091 -0.5083  0.3152
 2614SOL     OW19477   1.356   2.421  16.780  0.1571  0.0124  0.3915
 2614SOL    HW119478   1.280   2.459  16.735  0.6311 -1.4351 -1.6334
 2614SOL    HW219479   1.330   2.329  16.781 -1.0168  0.3488  0.5790
 2615SOL     OW19480   0.632   2.536   8.033  0.5976 -0.0228 -0.6597
 2615SOL    HW119481   0.579   2.481   8.090  0.1087 -0.7787 -1.8535
 2615SOL    HW219482   0.715   2.536   8.081  0.3248 -0.0214 -0.1842
 2616SOL     OW19483   4.639   1.554   2.223  0.2835  0.0180 -0.2869
 2616SOL    HW119484   4.556   1.592   2.193 -0.0240  2.4550  3.6163
 2616SOL    HW219485   4.647   1.472   2.174 -0.1915  0.2658 -0.7745
 2617SOL     OW19486   2.793   3.227  10.795 -0.2776  0.1240 -0.5580
 2617SOL    HW119487   2.869   3.284  10.796  0.3741 -0.7577  0.4341
 2617SOL    HW219488   2.834   3.145  10.821 -2.2224 -0.1423  1.7064
 2618SOL     OW19489   4.699   3.435   7.827 -0.7339  0.4767 -0.1696
 2618SOL    HW119490   4.652   3.377   7.886  0.2486  0.2376  0.3884
 2618SOL    HW219491   4.657   3.521   7.834  0.2619  1.0258 -0.7484
 2619SOL     OW19492   3.005   3.732   8.268 -0.1896 -0.3165 -0.4622
 2619SOL    HW119493   3.081   3.674   8.271 -0.9044 -1.2315 -0.2711
 2619SOL    HW219494   2.974   3.710   8.181  0.3835  1.4014 -1.1116
 2620SOL     OW19495   3.809   0.356   1.775  0.4377 -0.4611 -0.0903
 2620SOL    HW119496   3.819   0.261   1.772 -1.3076 -0.6681  0.9816
 2620SOL    HW219497   3.720   0.370   1.745  1.1438  1.2427 -1.4132
 2621SOL     OW19498   1.307   1.717   3.754  0.1955  0.3411 -0.0293
 2621SOL    HW119499   1.267   1.791   3.797  0.5383  1.0662 -0.9476
 2621SOL    HW219500   1.281   1.654   3.821  0.8491  1.1708  1.0042
 2622SOL     OW19501   2.815   3.133   2.669 -0.7049 -0.0592  0.4278
 2622SOL    HW119502   2.773   3.098   2.591  0.7362  0.1777 -0.4548
 2622SOL    HW219503   2.762   3.204   2.706 -0.1552  1.8838 -2.5048
 2623SOL     OW19504   3.777   3.528  13.020 -0.4003 -0.3675  0.0783
 2623SOL    HW119505   3.719   3.589  13.066  0.6989  0.9598 -0.3024
 2623SOL    HW219506   3.835   3.586  12.971 -0.7084  1.3547  1.7746
 2624SOL     OW19507   0.055   3.007   0.993 -0.0350  0.1212 -0.0738
 2624SOL    HW119508   0.011   2.967   1.068  0.7660  2.9363  1.9057
 2624SOL    HW219509   4.716   3.053   0.956  0.0033  0.3600  0.1462
 2625SOL     OW19510   0.216   0.843   4.818  0.2841  0.2751  0.1917
 2625SOL    HW119511   0.249   0.932   4.830 -0.3779  0.7723 -1.5718
 2625SOL    HW219512   0.227   0.810   4.907  2.2888  2.1943  0.6421
 2626SOL     OW19513   2.100   2.951   3.835  0.0044 -0.5330  0.7252
 2626SOL    HW119514   2.022   2.988   3.876 -0.1794  0.7321 -0.7811
 2626SOL    HW219515   2.147   3.028   3.804  0.0930 -1.2312 -0.8838
 2627SOL     OW19516   0.053   4.682   9.285  0.4163 -0.3678  0.1246
 2627SOL    HW119517   0.012   4.652   9.366 -1.3190 -2.0559 -1.3632
 2627SOL    HW219518   0.049   4.600   9.236  1.5239 -0.8338  0.8074
 2628SOL     OW19519   1.289   0.071  16.435 -0.7357 -0.0687  0.8668
 2628SOL    HW119520   1.367   0.123  16.453  1.5249 -3.3466  0.5366
 2628SOL    HW219521   1.249   0.060  16.522 -0.2808  2.3692  1.3699
 2629SOL     OW19522   0.040   4.526   6.678  0.4838  0.5811 -0.0871
 2629SOL    HW119523   0.089   4.464   6.731  1.4941  2.0650  0.7149
 2629SOL    HW219524   0.083   4.528   6.592 -2.0558  1.4241 -1.3112
 2630SOL     OW19525   4.448   3.438   2.766  0.2749  0.2085 -0.5204
 2630SOL    HW119526   4.470   3.482   2.683 -0.5148  0.0792 -0.8062
 2630SOL    HW219527   4.536   3.410   2.789  0.2563  0.3471 -0.2799
 2631SOL     OW19528   3.520   3.941   6.043 -0.0462 -0.0038  0.5392
 2631SOL    HW119529   3.541   3.968   6.133  1.1444  0.3112  0.1547
 2631SOL    HW219530   3.537   4.026   6.004  2.4196 -1.0270 -0.5542
 2632SOL     OW19531   4.034   2.443   2.984 -0.1595  0.2468  0.3660
 2632SOL    HW119532   4.106   2.472   3.041  0.3001 -2.5907  1.2211
 2632SOL    HW219533   3.955   2.469   3.032 -1.4533 -0.6501 -1.3015
 2633SOL     OW19534   3.031   3.606  13.574 -0.3045 -0.2233 -0.7599
 2633SOL    HW119535   3.014   3.544  13.644 -0.9823 -1.3523 -1.9209
 2633SOL    HW219536   3.077   3.674  13.624 -0.9555  0.4458 -1.0603
 2634SOL     OW19537   2.408   3.723   2.347 -0.2491 -0.1114  0.1286
 2634SOL    HW119538   2.449   3.642   2.375 -0.3470 -0.2552 -0.1453
 2634SOL    HW219539   2.478   3.783   2.376 -0.8349  0.2799  0.7442
 2635SOL     OW19540   3.733   2.232  10.971 -0.3323 -0.1098  0.6178
 2635SOL    HW119541   3.677   2.177  10.917 -1.4345 -0.1624  1.8304
 2635SOL    HW219542   3.689   2.316  10.971 -3.2207 -1.6322 -1.3966
 2636SOL     OW19543   0.554   2.329   4.264 -0.4423  0.2830  0.1823
 2636SOL    HW119544   0.518   2.349   4.178  0.7620 -1.9688 -0.8448
 2636SOL    HW219545   0.647   2.338   4.242 -0.5178  2.2599  0.7523
 2637SOL     OW19546   2.851   3.018  11.280  0.0010 -0.5395  0.1264
 2637SOL    HW119547   2.863   3.102  11.325 -0.4492 -0.2738 -0.2443
 2637SOL    HW219548   2.942   2.996  11.264 -0.1697 -0.3394 -1.1458
 2638SOL     OW19549   0.257   2.843   3.342 -0.5507 -0.2489 -0.7450
 2638SOL    HW119550   0.311   2.831   3.263 -1.7074  3.1502 -2.0411
 2638SOL    HW219551   0.184   2.893   3.304 -0.1271 -0.2632 -1.5699
 2639SOL     OW19552   1.049   0.943   5.914  0.2086 -0.0231  0.4538
 2639SOL    HW119553   0.975   0.962   5.971  0.5012 -2.0366  1.5251
 2639SOL    HW219554   1.047   0.852   5.884  0.5046  0.0884  0.0985
 2640SOL     OW19555   2.069   3.706   6.528  0.2685 -0.1022 -0.1337
 2640SOL    HW119556   2.075   3.676   6.438  0.7674 -0.9871  0.1868
 2640SOL    HW219557   2.059   3.617   6.564  0.5507 -0.4043 -0.8101
 2641SOL     OW19558   4.349   2.509  12.866 -0.2492  0.0839  0.2571
 2641SOL    HW119559   4.354   2.574  12.796  1.2884  0.6858  0.9114
 2641SOL    HW219560   4.342   2.423  12.825 -0.8439  0.0139  0.5135
 2642SOL     OW19561   1.709   2.905  10.567  0.1993 -0.1755  0.1979
 2642SOL    HW119562   1.682   2.997  10.567 -1.7841 -0.7441 -0.2167
 2642SOL    HW219563   1.779   2.897  10.502 -0.0931 -0.3988 -0.0923
 2643SOL     OW19564   2.671   0.515   4.149  0.0707 -0.6327  0.2061
 2643SOL    HW119565   2.697   0.560   4.229  0.1270 -0.7730  0.2678
 2643SOL    HW219566   2.589   0.562   4.135  0.4543  0.1158  0.4962
 2644SOL     OW19567   0.405   1.799   6.136 -0.1083  0.4918 -0.6240
 2644SOL    HW119568   0.315   1.831   6.144  0.8516  3.1082 -0.3191
 2644SOL    HW219569   0.393   1.728   6.073  1.2513  0.1680 -0.5096
 2645SOL     OW19570   4.038   3.269   1.726  0.9413 -0.0768  0.5164
 2645SOL    HW119571   4.024   3.343   1.666 -1.6652  0.8557  2.2628
 2645SOL    HW219572   4.120   3.237   1.689  0.6781 -3.3747  2.8736
 2646SOL     OW19573   1.572   0.429   7.548  0.1468  0.1698  0.0809
 2646SOL    HW119574   1.491   0.408   7.594  0.1903  0.5190  0.3202
 2646SOL    HW219575   1.630   0.422   7.624  1.1220 -2.4832 -0.8940
 2647SOL     OW19576   0.192   3.969   3.958  0.0303 -0.2171 -0.3455
 2647SOL    HW119577   0.163   3.900   3.899  1.8659  0.7861 -2.4159
 2647SOL    HW219578   0.219   4.046   3.908  2.9244 -1.2044 -0.3058
 2648SOL     OW19579   4.584   1.612   8.472  0.2416  0.3950  0.0288
 2648SOL    HW119580   4.531   1.653   8.541 -1.3600 -0.3303 -0.7822
 2648SOL    HW219581   4.520   1.615   8.401 -1.1578  2.1551  1.3457
 2649SOL     OW19582   0.836   1.325   3.639  0.4716 -0.0108  0.0096
 2649SOL    HW119583   0.785   1.393   3.594  2.0148 -0.0642 -1.8555
 2649SOL    HW219584   0.824   1.255   3.575 -1.1149 -0.0428  0.3497
 2650SOL     OW19585   4.105   2.575   9.882 -0.2830  0.3149 -0.6519
 2650SOL    HW119586   4.138   2.599   9.795  1.5935  0.4608  0.1056
 2650SOL    HW219587   4.081   2.661   9.914 -0.3785  1.2911 -3.3045
 2651SOL     OW19588   0.777   1.766  15.116 -0.3585  0.2612 -0.1658
 2651SOL    HW119589   0.795   1.859  15.127  2.3757 -0.4617  1.3301
 2651SOL    HW219590   0.739   1.754  15.203  2.1991 -1.8205  0.6537
 2652SOL     OW19591   2.127   0.301   9.309 -0.5668  0.1983  0.3600
 2652SOL    HW119592   2.040   0.277   9.340  0.3992 -1.3423  1.8189
 2652SOL    HW219593   2.122   0.363   9.236 -0.3107  1.2903  1.2582
 2653SOL     OW19594   1.576   3.917   6.894 -0.4103  0.3565  0.0531
 2653SOL    HW119595   1.599   3.949   6.807 -0.4906  0.7033  0.1592
 2653SOL    HW219596   1.531   3.833   6.879 -0.9145  0.2545  2.0802
 2654SOL     OW19597   4.327   3.316   1.133  0.1827 -0.6522 -0.5214
 2654SOL    HW119598   4.335   3.305   1.038 -2.8153  0.9281 -0.9645
 2654SOL    HW219599   4.237   3.286   1.142  0.0860 -0.0255  0.5938
 2655SOL     OW19600   4.509   1.145   2.398 -0.0884 -0.2230 -0.0607
 2655SOL    HW119601   4.526   1.061   2.439  1.1890 -0.7824 -1.7483
 2655SOL    HW219602   4.485   1.123   2.308 -1.3352 -0.2546  0.2729
 2656SOL     OW19603   2.640   0.146   3.558 -0.2208 -0.3466 -0.4055
 2656SOL    HW119604   2.596   0.141   3.473  0.3216  1.1494 -0.7743
 2656SOL    HW219605   2.663   0.239   3.565 -0.6062 -0.1149 -2.1184
 2657SOL     OW19606   4.218   2.434   0.231  0.1619  0.1683  0.8312
 2657SOL    HW119607   4.186   2.524   0.243 -1.0555 -0.1724  0.0299
 2657SOL    HW219608   4.151   2.397   0.174  1.0160  0.1059 -0.1323
 2658SOL     OW19609   0.259   2.836   1.732 -0.2470  0.0350  0.0276
 2658SOL    HW119610   0.164   2.830   1.741 -0.4405  1.4054 -1.1317
 2658SOL    HW219611   0.279   2.929   1.742  2.8504 -0.5876 -0.4826
 2659SOL     OW19612   1.577   0.039   7.493  0.3761  0.1823  0.6422
 2659SOL    HW119613   1.547   0.071   7.578 -4.0429  1.0576 -1.2632
 2659SOL    HW219614   1.627   4.695   7.510  1.0223  0.2716 -0.8169
 2660SOL     OW19615   2.408   0.449   3.808 -0.1787  0.3432 -0.1379
 2660SOL    HW119616   2.476   0.402   3.857 -0.9203 -1.5676 -0.9362
 2660SOL    HW219617   2.413   0.540   3.837 -1.7806  0.5073 -0.3775
 2661SOL     OW19618   4.166   2.516  14.897  0.5830 -0.2852 -0.0431
 2661SOL    HW119619   4.197   2.551  14.981 -1.6040 -1.6297  1.3328
 2661SOL    HW219620   4.229   2.445  14.886  1.3703  0.4426 -0.2017
 2662SOL     OW19621   0.918   2.071   9.033  0.5538 -0.1222  0.4303
 2662SOL    HW119622   0.885   2.033   9.114 -0.4283  0.1531  0.1542
 2662SOL    HW219623   0.927   1.990   8.983 -0.5506 -0.1699  0.3165
 2663SOL     OW19624   4.229   2.970   3.624 -0.0409  0.3864 -0.1135
 2663SOL    HW119625   4.298   2.974   3.689  0.2643 -0.8058 -0.3692
 2663SOL    HW219626   4.198   3.060   3.613 -2.7532 -1.0204 -4.2641
 2664SOL     OW19627   4.179   4.353   5.472 -0.0138  0.2690  0.0909
 2664SOL    HW119628   4.116   4.303   5.525  0.6010  0.1361  0.6998
 2664SOL    HW219629   4.243   4.283   5.458  1.7294  1.8751  0.1735
 2665SOL     OW19630   4.108   3.661   9.493 -0.2628  0.0678  0.5434
 2665SOL    HW119631   4.169   3.595   9.525 -0.9033 -1.1021 -0.6083
 2665SOL    HW219632   4.077   3.711   9.568 -1.5746 -0.5838  0.4343
 2666SOL     OW19633   3.128   0.129  11.434 -0.3152 -0.1761  0.5486
 2666SOL    HW119634   3.123   0.120  11.529  3.0315  1.3363  0.8868
 2666SOL    HW219635   3.139   0.040  11.400  1.3060  0.1390  0.2668
 2667SOL     OW19636   4.274   3.225  10.055  0.2351  0.0847 -0.0718
 2667SOL    HW119637   4.241   3.273  10.131  0.1567 -1.0945  0.6413
 2667SOL    HW219638   4.364   3.216  10.087 -0.0946 -0.4959  0.7018
 2668SOL     OW19639   0.783   1.432   4.294  0.1447  0.2081 -0.1940
 2668SOL    HW119640   0.864   1.413   4.342 -1.5247 -0.9756  2.1498
 2668SOL    HW219641   0.766   1.518   4.333  2.2500  0.5184  0.0705
 2669SOL     OW19642   1.873   3.246   8.857 -0.1431  0.3093  0.1577
 2669SOL    HW119643   1.966   3.224   8.869 -0.9456 -3.0945  0.0503
 2669SOL    HW219644   1.876   3.340   8.874  1.5332  0.4793 -1.1477
 2670SOL     OW19645   0.016   2.129   7.664  0.5521 -0.0890  0.0135
 2670SOL    HW119646   0.023   2.175   7.748 -1.0234  0.3026 -0.0524
 2670SOL    HW219647   0.108   2.116   7.641  1.4575  0.9880  3.0081
 2671SOL     OW19648   1.337   4.447  12.780  0.0493  0.0464  0.1229
 2671SOL    HW119649   1.277   4.408  12.844 -0.7464 -0.9121 -1.2095
 2671SOL    HW219650   1.409   4.472  12.838 -0.3060  1.3284  0.0123
 2672SOL     OW19651   0.128   2.468   2.267  0.1383  0.0138  0.5355
 2672SOL    HW119652   0.074   2.461   2.345  0.7017 -2.0410  0.7239
 2672SOL    HW219653   0.206   2.420   2.294 -0.9518 -1.4190  1.1077
 2673SOL     OW19654   4.217   4.297   3.729 -0.0791  0.1027 -0.5951
 2673SOL    HW119655   4.174   4.274   3.646 -0.1962 -2.3782  0.1457
 2673SOL    HW219656   4.250   4.210   3.751 -1.7821 -0.1480  0.9728
 2674SOL     OW19657   3.626   0.410  14.227  0.4536  0.6390  0.3629
 2674SOL    HW119658   3.623   0.422  14.322 -0.0335  0.5728  0.3575
 2674SOL    HW219659   3.609   0.494  14.186 -1.0672  0.3082  0.3036
 2675SOL     OW19660   0.073   3.613   8.114 -0.3124  0.1607 -0.2120
 2675SOL    HW119661   0.040   3.696   8.149 -0.2302  0.0899  0.0310
 2675SOL    HW219662   0.072   3.571   8.200 -0.5148  0.1856 -0.2017
 2676SOL     OW19663   2.710   2.218   4.233 -0.2563 -0.2964 -0.3122
 2676SOL    HW119664   2.695   2.303   4.192  0.0561  0.0198  0.2180
 2676SOL    HW219665   2.769   2.241   4.305 -1.0598  1.4933 -0.2114
 2677SOL     OW19666   0.317   0.807   3.993  0.6910 -0.1168  0.2127
 2677SOL    HW119667   0.287   0.804   4.084  0.4953 -3.6814  0.0185
 2677SOL    HW219668   0.245   0.756   3.955  0.8772 -0.1865 -0.0467
 2678SOL     OW19669   3.945   1.600  11.886  0.0453 -0.0049  0.1118
 2678SOL    HW119670   3.859   1.612  11.845  0.3236 -0.8348 -0.6908
 2678SOL    HW219671   3.990   1.673  11.844  0.1859 -0.7999 -1.1087
 2679SOL     OW19672   3.686   4.484  17.420  0.2660  0.0531  0.2962
 2679SOL    HW119673   3.766   4.521  17.457 -1.3486  2.3326  1.4792
 2679SOL    HW219674   3.666   4.418  17.486 -0.4330  0.3060  0.3418
 2680SOL     OW19675   3.817   0.945   5.465 -0.4670 -0.0235 -0.4197
 2680SOL    HW119676   3.867   1.017   5.426  0.5759  0.9550  2.6578
 2680SOL    HW219677   3.889   0.883   5.453  1.3149  1.9657 -0.0990
 2681SOL     OW19678   4.193   0.624   9.637 -0.3243  0.1049  0.2226
 2681SOL    HW119679   4.230   0.538   9.620  1.6697  0.9639  0.2165
 2681SOL    HW219680   4.172   0.601   9.728 -0.9862  0.2593  0.1119
 2682SOL     OW19681   2.993   4.539   8.012 -0.0980 -0.3981 -0.2721
 2682SOL    HW119682   2.900   4.559   7.997 -0.0599 -0.5058 -0.6458
 2682SOL    HW219683   3.030   4.565   7.928 -1.7214  2.3478 -0.1202
 2683SOL     OW19684   2.968   4.026   6.052 -0.1271  0.0986 -0.0106
 2683SOL    HW119685   3.046   4.052   6.004  0.7258 -1.6351  0.4202
 2683SOL    HW219686   2.999   4.010   6.141 -0.8948 -0.3348  0.1836
 2684SOL     OW19687   2.108   4.383  15.213 -0.3031 -0.5791 -0.1621
 2684SOL    HW119688   2.080   4.441  15.143  0.5025 -1.1994 -0.9937
 2684SOL    HW219689   2.022   4.372  15.253  0.1082  0.4520  1.0004
 2685SOL     OW19690   2.375   2.309   3.869  0.6557 -0.2380 -0.3324
 2685SOL    HW119691   2.373   2.280   3.778 -1.1605 -0.1886 -0.3235
 2685SOL    HW219692   2.465   2.290   3.893  0.9276 -0.7554 -1.7715
 2686SOL     OW19693   2.205   2.441  12.338 -0.4335 -0.7751 -0.4628
 2686SOL    HW119694   2.123   2.393  12.348 -0.3087 -0.7484  0.6693
 2686SOL    HW219695   2.241   2.416  12.253  0.4388 -1.4041  0.0942
 2687SOL     OW19696   1.117   0.627   7.620 -0.3472  0.0422  0.1125
 2687SOL    HW119697   1.036   0.624   7.672 -2.1557  0.1260 -2.6867
 2687SOL    HW219698   1.151   0.714   7.640 -0.1592  0.1485 -0.6796
 2688SOL     OW19699   3.934   2.343   8.532  0.7215 -0.0592  0.0441
 2688SOL    HW119700   4.028   2.352   8.521  0.5687 -0.5562 -1.6400
 2688SOL    HW219701   3.924   2.257   8.573 -0.0524 -0.2325 -0.4963
 2689SOL     OW19702   2.092   0.244   8.621 -0.1112 -0.3659  0.3891
 2689SOL    HW119703   2.054   0.207   8.541 -0.1345 -2.5333  1.3920
 2689SOL    HW219704   2.101   0.335   8.594  0.5646  0.2942  2.8942
 2690SOL     OW19705   0.323   1.912   5.771 -0.4332  0.7519 -0.0735
 2690SOL    HW119706   0.415   1.935   5.785 -0.2775 -0.9091  1.7552
 2690SOL    HW219707   0.297   1.983   5.712  0.8777 -0.0031 -1.5487
 2691SOL     OW19708   0.713   0.949   4.657 -0.0357 -0.0381 -0.3366
 2691SOL    HW119709   0.636   0.912   4.615 -1.1426 -1.1996  2.7261
 2691SOL    HW219710   0.771   0.939   4.581  2.3602 -0.3774  1.5235
 2692SOL     OW19711   4.169   2.748   6.602  0.0404  0.0671  0.5021
 2692SOL    HW119712   4.187   2.725   6.511 -0.0668  2.6809 -0.1748
 2692SOL    HW219713   4.075   2.732   6.613  0.1422 -1.1390 -0.3539
 2693SOL     OW19714   2.382   3.499   7.362 -0.0969  0.8763 -0.1310
 2693SOL    HW119715   2.305   3.450   7.334  0.0100  0.9322 -0.5105
 2693SOL    HW219716   2.383   3.574   7.303 -1.3568  1.6725  0.8778
 2694SOL     OW19717   4.638   3.575   7.512 -0.2851  0.5681 -0.0962
 2694SOL    HW119718   4.671   3.544   7.597 -0.6981 -1.1723 -0.5629
 2694SOL    HW219719   4.679   3.660   7.498 -0.8183  1.2410  2.3665
 2695SOL     OW19720   3.816   4.355   9.118 -0.5376 -0.2109 -0.0522
 2695SOL    HW119721   3.725   4.353   9.148 -0.4843 -0.1477  0.1136
 2695SOL    HW219722   3.802   4.377   9.025 -1.0566 -0.7475 -0.1005
 2696SOL     OW19723   4.608   0.375   2.417 -0.2377 -0.2134 -0.2055
 2696SOL    HW119724   4.693   0.361   2.375 -0.0399 -0.6639  0.3447
 2696SOL    HW219725   4.584   0.463   2.388 -2.0070 -0.3949  0.7141
 2697SOL     OW19726   1.561   3.261   5.476 -0.3382  0.2477 -0.1058
 2697SOL    HW119727   1.507   3.200   5.426  0.2482  0.6939 -1.2840
 2697SOL    HW219728   1.584   3.218   5.558  2.8422 -2.0185 -2.2066
 2698SOL     OW19729   2.576   3.108   4.692  0.2280  0.2840 -0.6221
 2698SOL    HW119730   2.495   3.059   4.704  0.0820  0.5109 -0.6937
 2698SOL    HW219731   2.578   3.178   4.757 -0.8531  0.0234 -0.3104
 2699SOL     OW19732   0.025   4.669   8.183 -0.0339  0.2888 -0.1236
 2699SOL    HW119733   4.671   4.695   8.201 -0.0299  0.2630 -0.0652
 2699SOL    HW219734   0.008   4.624   8.100 -0.3021  1.2028 -0.5546
 2700SOL     OW19735   0.015   2.800   4.991  0.0776 -0.1184 -0.2586
 2700SOL    HW119736   0.074   2.778   5.062  0.0144  1.8998  0.4234
 2700SOL    HW219737   0.005   2.895   4.998 -3.0339 -0.6765  2.4245
 2701SOL     OW19738   0.515   1.846   2.253 -0.1535  0.0720 -0.3514
 2701SOL    HW119739   0.441   1.789   2.231  0.3318 -0.7038  0.0593
 2701SOL    HW219740   0.513   1.899   2.173  0.3509  1.0274  0.2651
 2702SOL     OW19741   1.483   0.908   4.064  0.7678  0.6298 -0.0216
 2702SOL    HW119742   1.478   0.993   4.106  1.6906  1.4237 -1.5300
 2702SOL    HW219743   1.475   0.935   3.972 -1.0423 -0.3633 -0.1677
 2703SOL     OW19744   0.002   1.579   2.936  0.0425  0.2101  0.2006
 2703SOL    HW119745   4.659   1.572   2.882  1.0125 -2.7645 -0.8609
 2703SOL    HW219746   0.066   1.564   2.867  0.0760  2.1687 -0.1801
 2704SOL     OW19747   1.844   1.453   7.191 -0.4203  0.5182  0.3992
 2704SOL    HW119748   1.923   1.458   7.244 -0.6774 -0.4968  0.8976
 2704SOL    HW219749   1.786   1.521   7.226 -1.5632  0.2824 -1.0146
 2705SOL     OW19750   1.120   4.620  15.823  0.1189 -0.2740 -0.1875
 2705SOL    HW119751   1.208   4.637  15.792 -0.1655 -0.4691 -1.0900
 2705SOL    HW219752   1.055   4.651  15.759 -2.3925  1.2793  3.0889
 2706SOL     OW19753   0.515   1.978   1.241  0.0932 -0.2083  0.5427
 2706SOL    HW119754   0.505   1.943   1.153  2.0975  1.1590 -0.2382
 2706SOL    HW219755   0.609   1.997   1.249 -0.3788  0.6124  4.0028
 2707SOL     OW19756   2.816   0.667   5.405  0.5858 -0.0049  0.0808
 2707SOL    HW119757   2.873   0.711   5.468  1.0467 -1.6244  0.7797
 2707SOL    HW219758   2.847   0.580   5.428 -0.1700  0.0358  1.2305
 2708SOL     OW19759   4.593   1.254   7.078  0.4610 -0.6877  0.1343
 2708SOL    HW119760   4.618   1.344   7.100 -1.0797 -0.0422 -0.7297
 2708SOL    HW219761   4.514   1.268   7.025 -0.5451 -0.4206  1.7219
 2709SOL     OW19762   0.287   3.457   4.103  0.3502 -0.1131 -0.0099
 2709SOL    HW119763   0.279   3.384   4.164  1.2380  0.8863  1.2870
 2709SOL    HW219764   0.285   3.537   4.155 -0.1750  0.1473 -0.4177
 2710SOL     OW19765   3.528   4.278   6.491 -0.1933 -0.1608  0.1842
 2710SOL    HW119766   3.522   4.302   6.583 -0.6845 -0.7445  0.3089
 2710SOL    HW219767   3.518   4.366   6.456 -2.1614 -0.2613  0.4446
 2711SOL     OW19768   1.872   0.167   3.505  0.7975  0.0363  0.1487
 2711SOL    HW119769   1.813   0.229   3.464 -0.4957 -2.4207 -1.7005
 2711SOL    HW219770   1.807   0.100   3.528 -0.1252  1.7262  2.5143
 2712SOL     OW19771   0.372   4.347  13.618  0.1420 -0.3523  0.1167
 2712SOL    HW119772   0.361   4.296  13.537 -0.2303  0.6732 -0.4768
 2712SOL    HW219773   0.466   4.339  13.637 -0.2096 -2.0231  1.1301
 2713SOL     OW19774   0.401   0.564   2.422  0.2703  0.1483 -0.0457
 2713SOL    HW119775   0.309   0.580   2.443  1.6280  3.3002  3.3062
 2713SOL    HW219776   0.429   0.648   2.386  1.5900  0.8214  2.6296
 2714SOL     OW19777   3.785   3.017   6.478 -0.6906  0.0140  0.1941
 2714SOL    HW119778   3.843   2.948   6.507  0.1411  1.1234  1.1675
 2714SOL    HW219779   3.827   3.037   6.394 -0.9081 -1.8918 -0.3532
 2715SOL     OW19780   4.678   0.184  13.368  0.3268 -0.2170  0.4626
 2715SOL    HW119781   4.651   0.115  13.428 -2.4836 -0.5808 -1.2063
 2715SOL    HW219782   4.719   0.136  13.297  0.2473  0.2935  0.0712
 2716SOL     OW19783   3.570   0.423   6.099  0.0677 -0.0268 -0.1584
 2716SOL    HW119784   3.630   0.352   6.079  1.4016  1.0073  0.1839
 2716SOL    HW219785   3.489   0.374   6.087 -1.4740  2.3309  0.5122
 2717SOL     OW19786   0.445   3.393   5.834  0.4192  0.0328 -0.1450
 2717SOL    HW119787   0.502   3.466   5.808  1.2806 -1.0150 -1.1843
 2717SOL    HW219788   0.362   3.431   5.807  0.9866  1.9525  0.8188
 2718SOL     OW19789   2.714   0.278   8.013 -0.0265 -1.0342 -0.1759
 2718SOL    HW119790   2.656   0.235   7.950 -1.5138  1.6819 -0.6828
 2718SOL    HW219791   2.785   0.214   8.016  0.7244 -0.1935  0.1029
 2719SOL     OW19792   2.476   4.444   6.418  0.0026  0.5364  0.5829
 2719SOL    HW119793   2.468   4.473   6.327 -1.1019  3.6254  1.6848
 2719SOL    HW219794   2.570   4.431   6.427  0.0273  1.0538  1.0595
 2720SOL     OW19795   0.071   2.673   2.885 -0.6117  0.2837 -0.2137
 2720SOL    HW119796   4.728   2.683   2.937 -0.0047  1.2902  0.5164
 2720SOL    HW219797   0.139   2.669   2.953 -2.5440  0.1122  1.7025
 2721SOL     OW19798   3.591   3.118  14.670 -0.4748  0.0915 -0.1150
 2721SOL    HW119799   3.602   3.206  14.704  0.8868 -0.7074  1.4931
 2721SOL    HW219800   3.495   3.111  14.667 -0.1865 -3.3041 -2.3368
 2722SOL     OW19801   4.730   0.044   3.142  0.3278 -0.3795  0.7586
 2722SOL    HW119802   0.078   0.076   3.110  1.2050 -1.8116  1.6311
 2722SOL    HW219803   4.686   0.015   3.063 -1.1829 -0.4328  1.6223
 2723SOL     OW19804   0.702   0.402  10.711  0.2174  0.6190 -0.1027
 2723SOL    HW119805   0.694   0.472  10.776  1.3258  0.0365  0.6644
 2723SOL    HW219806   0.703   0.322  10.764 -1.9562  0.1758 -0.7558
 2724SOL     OW19807   4.561   0.378  13.650  0.0298  0.1570 -0.0769
 2724SOL    HW119808   4.594   0.338  13.570  1.3991 -0.3256  0.7254
 2724SOL    HW219809   4.489   0.319  13.672 -0.0253 -0.0315 -0.7812
 2725SOL     OW19810   2.468   0.365   5.620  0.6129 -0.5925 -0.3148
 2725SOL    HW119811   2.486   0.439   5.677  0.4716  0.1101 -1.1780
 2725SOL    HW219812   2.448   0.413   5.539  2.2800  0.8924  0.1680
 2726SOL     OW19813   1.164   0.843   0.394  0.2895  0.6177  0.6097
 2726SOL    HW119814   1.235   0.789   0.361  0.2271  0.6267  0.4611
 2726SOL    HW219815   1.161   0.893   0.313  0.4526  3.2273  2.2138
 2727SOL     OW19816   4.078   4.353  14.886  0.4557  0.7736  0.4558
 2727SOL    HW119817   4.016   4.405  14.936 -1.4019 -0.8176 -0.1943
 2727SOL    HW219818   4.077   4.407  14.807 -2.1835 -1.0908 -0.7715
 2728SOL     OW19819   3.763   1.366   4.340  0.4757  0.3406 -0.2224
 2728SOL    HW119820   3.700   1.417   4.389  0.8161  2.1102 -1.6153
 2728SOL    HW219821   3.713   1.286   4.324 -0.9598  1.6969 -2.5221
 2729SOL     OW19822   3.770   4.143   8.033  0.1071  0.6575  0.2733
 2729SOL    HW119823   3.730   4.206   7.974 -1.6291  0.5103  1.2945
 2729SOL    HW219824   3.859   4.178   8.045  1.3297 -2.5111  0.5158
 2730SOL     OW19825   2.680   3.913   8.582  0.7917  0.3634  0.8598
 2730SOL    HW119826   2.755   3.910   8.642 -0.6813 -1.3222  2.5981
 2730SOL    HW219827   2.726   3.877   8.505 -2.4367 -2.6796  0.3625
 2731SOL     OW19828   2.261   1.241   4.890 -0.2306 -0.1309 -0.2015
 2731SOL    HW119829   2.257   1.327   4.848  0.9580  0.2593  0.4914
 2731SOL    HW219830   2.330   1.194   4.844  0.2292  0.0408  0.3065
 2732SOL     OW19831   0.145   4.554  10.932 -0.4291  0.8934 -0.1109
 2732SOL    HW119832   0.217   4.553  10.869 -0.6510  0.6365 -0.3629
 2732SOL    HW219833   0.080   4.539  10.863 -0.6171  0.1552  0.2293
 2733SOL     OW19834   1.791   2.586   1.338  0.1741  1.4502  0.7866
 2733SOL    HW119835   1.832   2.566   1.253  1.4439  2.2047  1.2257
 2733SOL    HW219836   1.735   2.509   1.345  1.2852  0.6229  0.5662
 2734SOL     OW19837   0.203   0.533   7.317 -0.2850  0.5878  0.6364
 2734SOL    HW119838   0.294   0.508   7.335 -0.2945  0.0684 -0.0359
 2734SOL    HW219839   0.164   0.449   7.290 -0.3310  0.1090  2.2276
 2735SOL     OW19840   0.691   1.450   9.348 -0.2611  0.1021 -0.3217
 2735SOL    HW119841   0.639   1.384   9.394  0.1709 -0.2602 -0.3550
 2735SOL    HW219842   0.749   1.388   9.304  0.4378  0.8612 -0.4589
 2736SOL     OW19843   0.804   0.560  17.008 -0.3335 -0.1617 -0.0386
 2736SOL    HW119844   0.793   0.518  16.923 -1.9505  1.1233 -0.4654
 2736SOL    HW219845   0.713   0.588  17.009 -0.0746  0.6477  0.5945
 2737SOL     OW19846   2.882   1.021  10.960 -0.2814 -0.4507  0.4602
 2737SOL    HW119847   2.832   0.958  11.013 -1.0279 -0.3115 -0.0829
 2737SOL    HW219848   2.963   0.976  10.935 -0.9964 -0.0492 -2.5154
 2738SOL     OW19849   2.056   2.587   9.160 -0.3339 -0.0383 -0.6860
 2738SOL    HW119850   2.094   2.669   9.193 -0.3961 -0.2259 -0.1384
 2738SOL    HW219851   2.055   2.538   9.243 -1.3386 -0.9523 -1.2438
 2739SOL     OW19852   0.889   2.325   4.719 -0.1432  0.4269  0.2524
 2739SOL    HW119853   0.810   2.272   4.713  0.2249 -0.1213  0.2801
 2739SOL    HW219854   0.886   2.354   4.628 -2.2207 -0.7640 -0.0560
 2740SOL     OW19855   0.091   3.298   7.354  0.1387 -0.1370  0.3286
 2740SOL    HW119856   0.162   3.235   7.355  1.2309  1.0683 -1.4639
 2740SOL    HW219857   0.043   3.276   7.434  2.3447 -0.4973  1.5347
 2741SOL     OW19858   1.830   2.850   4.607 -1.1329  0.1674 -0.4492
 2741SOL    HW119859   1.795   2.939   4.618  0.6548  0.5706  1.9648
 2741SOL    HW219860   1.856   2.848   4.515  2.7249 -1.6019  0.6814
 2742SOL     OW19861   2.697   1.921   1.597 -0.7616 -0.1126  0.3379
 2742SOL    HW119862   2.769   1.979   1.572 -0.5250 -0.6997 -0.3443
 2742SOL    HW219863   2.647   1.980   1.653  0.1422  2.1668 -1.2237
 2743SOL     OW19864   4.610   2.250   4.094  0.2472 -0.0609  0.0151
 2743SOL    HW119865   4.677   2.198   4.137  2.4287  1.1537 -1.9516
 2743SOL    HW219866   4.552   2.264   4.169 -1.4896 -0.0873 -1.3235
 2744SOL     OW19867   3.331   3.076  12.396 -0.0063 -0.5092  0.0623
 2744SOL    HW119868   3.308   3.115  12.481  0.5586 -1.3529  0.6012
 2744SOL    HW219869   3.376   2.995  12.420 -0.4778 -1.0327 -0.8489
 2745SOL     OW19870   0.601   2.265   8.279 -0.4045  0.3866 -0.3480
 2745SOL    HW119871   0.644   2.228   8.355  2.0627 -1.1702 -2.5125
 2745SOL    HW219872   0.676   2.296   8.229 -1.1347  0.7051 -1.2573
 2746SOL     OW19873   2.695   4.504   9.440 -0.2813 -0.7574  0.2697
 2746SOL    HW119874   2.733   4.427   9.398  1.6507 -0.5384  1.6123
 2746SOL    HW219875   2.605   4.498   9.409  0.0359 -1.9556 -0.3894
 2747SOL     OW19876   1.358   1.606   5.848 -0.2862 -0.3851  0.1843
 2747SOL    HW119877   1.304   1.543   5.896 -0.8069  1.2333  1.7195
 2747SOL    HW219878   1.439   1.600   5.899 -1.5114 -1.6789  1.9834
 2748SOL     OW19879   4.013   3.275  17.460 -0.1877 -0.1345 -0.7276
 2748SOL    HW119880   4.103   3.299  17.436 -0.5556  0.8456 -1.1474
 2748SOL    HW219881   3.966   3.341  17.409 -0.5632  0.1012 -0.0666
 2749SOL     OW19882   0.599   2.570   0.057 -0.0910  0.2759  0.3591
 2749SOL    HW119883   0.626   2.622  17.725 -0.7252 -1.1329 -0.8597
 2749SOL    HW219884   0.506   2.556   0.037 -0.3119  2.7777 -0.4105
 2750SOL     OW19885   0.404   2.405   0.347 -0.5983 -0.0342 -0.1565
 2750SOL    HW119886   0.403   2.469   0.275 -1.2732  0.6072  0.4332
 2750SOL    HW219887   0.324   2.353   0.343 -0.9435  0.4717  0.2423
 2751SOL     OW19888   0.876   2.386   6.887 -0.1828  0.0890 -0.5809
 2751SOL    HW119889   0.917   2.444   6.952 -1.3197  0.6225 -0.3450
 2751SOL    HW219890   0.940   2.402   6.817 -0.9431  0.1997 -1.2436
 2752SOL     OW19891   3.427   3.638  11.077 -0.2680 -0.7898  0.3692
 2752SOL    HW119892   3.477   3.594  11.008  0.9992 -0.8223  1.3060
 2752SOL    HW219893   3.353   3.671  11.026 -0.5183  0.2055  1.3591
 2753SOL     OW19894   0.180   1.778  14.558  0.3377 -0.1306 -0.3123
 2753SOL    HW119895   0.211   1.771  14.468 -0.1748 -4.2047 -0.1991
 2753SOL    HW219896   0.154   1.689  14.581 -0.6948  0.2838  0.1309
 2754SOL     OW19897   2.721   3.403   1.686  0.1106  0.0791 -0.2328
 2754SOL    HW119898   2.786   3.371   1.623 -1.8789 -0.2448 -2.1341
 2754SOL    HW219899   2.761   3.367   1.765  0.1594  0.0507 -0.2706
 2755SOL     OW19900   0.879   0.335   2.699  0.5055  0.6579 -0.0714
 2755SOL    HW119901   0.948   0.334   2.765  3.0682  1.3054 -2.7548
 2755SOL    HW219902   0.889   0.421   2.659 -0.0024  0.6480 -0.2263
 2756SOL     OW19903   2.432   2.602  13.590 -0.6560 -0.3669 -0.6327
 2756SOL    HW119904   2.391   2.655  13.657  1.4580  0.1181  0.2627
 2756SOL    HW219905   2.439   2.661  13.515  0.5840 -1.1320 -1.1305
 2757SOL     OW19906   1.849   3.958   9.578  0.2328  0.2946  0.9795
 2757SOL    HW119907   1.794   3.990   9.506 -1.5298 -2.9557  0.9032
 2757SOL    HW219908   1.826   4.020   9.647  0.5072 -1.8515  2.9873
 2758SOL     OW19909   0.319   3.997  14.239  0.0093  0.1955  0.3463
 2758SOL    HW119910   0.329   4.091  14.222 -0.0917  0.0907 -0.2897
 2758SOL    HW219911   0.248   4.006  14.302 -1.0848  1.9290 -1.1416
 2759SOL     OW19912   3.591   2.223   8.354  0.1028  0.2195 -0.4206
 2759SOL    HW119913   3.630   2.157   8.296 -0.5936 -0.7282  0.1991
 2759SOL    HW219914   3.649   2.298   8.343 -0.2762  0.2289 -2.3420
 2760SOL     OW19915   2.660   4.628   6.288  0.6234 -0.4904 -0.1280
 2760SOL    HW119916   2.577   4.675   6.293  0.5109 -0.6679 -0.3191
 2760SOL    HW219917   2.720   4.703   6.286 -2.0626  1.6619  0.0032
 2761SOL     OW19918   0.673   0.405   0.841  0.2068  0.2719  0.1259
 2761SOL    HW119919   0.725   0.469   0.793 -0.9073  0.3514 -0.9929
 2761SOL    HW219920   0.736   0.350   0.886  1.7975  1.3295 -0.8010
 2762SOL     OW19921   2.558   1.614   2.025 -0.3380 -0.0843 -0.2694
 2762SOL    HW119922   2.606   1.696   2.020 -2.5055  1.2945  1.6802
 2762SOL    HW219923   2.612   1.560   2.083 -1.1351  2.0058  2.3997
 2763SOL     OW19924   2.394   3.024   8.227  0.1498  0.1363 -0.3514
 2763SOL    HW119925   2.361   2.978   8.304 -2.0859  0.5144 -1.0972
 2763SOL    HW219926   2.319   3.076   8.196 -1.0962 -0.4125  1.7569
 2764SOL     OW19927   0.196   4.696   3.809 -0.1872 -0.6370 -0.4100
 2764SOL    HW119928   0.208   4.601   3.816  0.9615 -0.6051 -2.1456
 2764SOL    HW219929   0.143   4.693   3.729  1.5876 -0.1494 -1.5913
 2765SOL     OW19930   1.985   2.767  13.477  0.0283  0.2010 -0.3115
 2765SOL    HW119931   2.044   2.709  13.430  2.1254  1.8683  0.2452
 2765SOL    HW219932   2.026   2.790  13.561 -0.4514 -1.7379  0.4487
 2766SOL     OW19933   2.238   3.197   7.805  0.0704  0.0329  0.3393
 2766SOL    HW119934   2.293   3.124   7.776  0.5042  0.7906 -0.7513
 2766SOL    HW219935   2.198   3.219   7.721  2.9410  1.7264 -0.5916
 2767SOL     OW19936   4.098   1.721   9.955 -0.0520  0.4299  0.0804
 2767SOL    HW119937   4.154   1.726   9.878  0.0739 -0.7478  0.0912
 2767SOL    HW219938   4.063   1.631   9.949  1.7562 -0.3159  0.7963
 2768SOL     OW19939   3.273   1.149   6.208 -0.2753 -0.1104 -0.1092
 2768SOL    HW119940   3.363   1.140   6.237  0.7171  1.5259 -2.6230
 2768SOL    HW219941   3.269   1.064   6.166 -0.1005  1.1623 -2.7312
 2769SOL     OW19942   4.156   3.792   0.421 -0.2837  0.7099  0.1900
 2769SOL    HW119943   4.082   3.737   0.446  0.3780  0.1179  0.8619
 2769SOL    HW219944   4.210   3.724   0.379  1.0578  1.6517  0.3761
 2770SOL     OW19945   2.649   4.146  16.784 -0.1312  0.0119 -0.1904
 2770SOL    HW119946   2.604   4.075  16.738  1.9822  0.2894 -2.6806
 2770SOL    HW219947   2.730   4.107  16.818  0.5986  1.7859  0.1049
 2771SOL     OW19948   4.084   0.501   4.499  0.6560  0.1575 -0.2775
 2771SOL    HW119949   4.130   0.417   4.513 -2.2670 -1.4885 -0.6905
 2771SOL    HW219950   4.051   0.519   4.587 -0.9123 -0.2847 -0.7881
 2772SOL     OW19951   4.036   2.664  15.486  0.3711 -0.0550 -0.3715
 2772SOL    HW119952   4.046   2.702  15.398 -0.3318  1.0331  0.0249
 2772SOL    HW219953   3.949   2.624  15.481 -0.0245  1.0736 -2.7651
 2773SOL     OW19954   1.792   4.221   5.579 -0.1308 -0.1207  0.2893
 2773SOL    HW119955   1.838   4.273   5.513 -1.0289  0.5094  0.1715
 2773SOL    HW219956   1.851   4.231   5.654 -1.1040 -0.2086  1.0604
 2774SOL     OW19957   4.594   2.265   6.256 -0.0634 -0.2846  0.1549
 2774SOL    HW119958   4.656   2.323   6.301 -1.5694  1.0979  0.4274
 2774SOL    HW219959   4.527   2.269   6.324  2.2676  1.2114  2.3721
 2775SOL     OW19960   3.107   2.292   6.022 -0.8388 -0.1842  0.6162
 2775SOL    HW119961   3.030   2.346   6.039 -0.7011  0.2044 -0.0141
 2775SOL    HW219962   3.057   2.215   5.996 -0.4229  0.0262 -0.7850
 2776SOL     OW19963   4.489   2.730   2.663  0.2391  0.3875  0.0587
 2776SOL    HW119964   4.480   2.805   2.722 -0.7909  1.6330 -1.6981
 2776SOL    HW219965   4.542   2.662   2.705 -1.6914  0.2827  2.3590
 2777SOL     OW19966   3.677   2.469   5.463  0.5555 -0.1306 -0.4078
 2777SOL    HW119967   3.724   2.521   5.528  0.1724  0.6983 -0.7988
 2777SOL    HW219968   3.699   2.531   5.394  0.9953 -2.5004 -2.3967
 2778SOL     OW19969   1.844   4.714   9.734 -0.5081  0.0778 -0.4111
 2778SOL    HW119970   1.857   4.629   9.691  0.9891  0.8848 -1.5612
 2778SOL    HW219971   1.846   4.691   9.827  1.3753 -2.7395 -1.1510
 2779SOL     OW19972   0.328   4.144   2.830 -0.3086  0.4894 -0.1880
 2779SOL    HW119973   0.371   4.200   2.895  1.7301 -0.3570 -0.7898
 2779SOL    HW219974   0.287   4.217   2.783 -0.6804  0.5899  0.2875
 2780SOL     OW19975   1.614   4.675   2.651 -0.1724 -0.0479 -0.6479
 2780SOL    HW119976   1.670   0.017   2.647 -1.2332  0.7164 -0.5254
 2780SOL    HW219977   1.573   4.692   2.736  0.7163  1.4325 -0.5033
 2781SOL     OW19978   3.491   0.353   4.597  0.2438  0.0979  0.2612
 2781SOL    HW119979   3.571   0.317   4.635  0.0701 -1.4262 -0.8200
 2781SOL    HW219980   3.437   0.276   4.582 -1.3455  1.4257 -0.8211
 2782SOL     OW19981   0.406   2.646   8.286  0.3041 -0.6295 -0.1862
 2782SOL    HW119982   0.409   2.723   8.229 -0.8942  0.3679  1.0989
 2782SOL    HW219983   0.453   2.685   8.360  0.5530 -1.8794  0.3128
 2783SOL     OW19984   0.051   4.482   3.437 -0.3667  0.3128  0.1369
 2783SOL    HW119985   0.042   4.554   3.499 -2.3023 -0.5085  0.7940
 2783SOL    HW219986   0.069   4.409   3.495 -1.5033 -1.1697 -1.3775
 2784SOL     OW19987   2.276   4.561  14.807  0.2729  0.1931  0.4803
 2784SOL    HW119988   2.235   4.570  14.721 -1.6867 -1.2521  1.2541
 2784SOL    HW219989   2.370   4.546  14.799  0.4189  1.7259 -0.6006
 2785SOL     OW19990   2.658   0.208   5.303 -0.0403  0.1898 -0.2413
 2785SOL    HW119991   2.732   0.148   5.311 -0.4345 -0.3478 -0.6281
 2785SOL    HW219992   2.647   0.184   5.211 -1.0096 -1.7414  0.3839
 2786SOL     OW19993   2.378   2.867   4.695 -0.2725 -0.3765 -0.0086
 2786SOL    HW119994   2.430   2.805   4.643 -2.5538  1.6801 -4.6427
 2786SOL    HW219995   2.293   2.825   4.687 -0.7605  1.2193 -3.1290
 2787SOL     OW19996   1.238   1.814   2.641  0.4564  0.4593  0.2679
 2787SOL    HW119997   1.148   1.793   2.664 -0.3006  1.5053 -1.7166
 2787SOL    HW219998   1.226   1.907   2.623  0.6363  0.5280  0.5058
 2788SOL     OW19999   2.130   2.282   4.223  0.3802 -0.0974 -0.6759
 2788SOL    HW120000   2.180   2.363   4.235  1.5666 -1.0498  0.8023
 2788SOL    HW220001   2.141   2.239   4.308  1.8325  0.0917 -0.7622
 2789SOL     OW20002   0.519   2.302   7.423  0.0311 -1.0959 -0.6400
 2789SOL    HW120003   0.427   2.320   7.441 -0.1034 -2.8602  0.3940
 2789SOL    HW220004   0.565   2.374   7.466  0.6647 -0.1698 -2.8797
 2790SOL     OW20005   1.406   0.447   6.799 -0.5985  0.0254 -0.2458
 2790SOL    HW120006   1.402   0.362   6.844 -2.3318  0.4152  0.3019
 2790SOL    HW220007   1.391   0.506   6.872 -3.8929 -4.2445  2.5066
 2791SOL     OW20008   2.074   0.784  14.359  0.2089  0.2806 -0.1919
 2791SOL    HW120009   2.005   0.847  14.338 -0.4878 -0.6703 -0.7526
 2791SOL    HW220010   2.134   0.837  14.412 -0.1074 -0.0996  0.5465
 2792SOL     OW20011   3.329   2.618   6.503  0.1381  0.1641 -0.0802
 2792SOL    HW120012   3.249   2.667   6.485 -0.8594 -0.4485  2.6417
 2792SOL    HW220013   3.321   2.568   6.584  2.3077  1.9434  1.2635
 2793SOL     OW20014   2.557   4.299   9.647 -0.1887 -0.5043  0.5620
 2793SOL    HW120015   2.595   4.383   9.621 -1.4839 -0.2073 -0.3828
 2793SOL    HW220016   2.541   4.257   9.563 -0.8804  1.0498 -0.0888
 2794SOL     OW20017   0.846   0.754   4.241  0.4614 -0.4714 -0.6133
 2794SOL    HW120018   0.864   0.661   4.256  3.5495 -0.2577 -2.9605
 2794SOL    HW220019   0.751   0.754   4.249  0.3097  0.4152 -2.5996
 2795SOL     OW20020   2.460   0.338   2.148 -0.5028 -0.3053  0.0445
 2795SOL    HW120021   2.515   0.416   2.138  0.1289 -1.0767 -2.5977
 2795SOL    HW220022   2.526   0.279   2.184  0.8193  0.8429 -0.5080
 2796SOL     OW20023   1.863   0.822  15.165  0.3771 -0.0184 -0.1220
 2796SOL    HW120024   1.784   0.787  15.205  1.6494 -1.6213  0.9985
 2796SOL    HW220025   1.892   0.863  15.246  0.0574 -0.2704  0.1177
 2797SOL     OW20026   1.313   0.999   9.200 -0.4471 -0.7266 -0.0243
 2797SOL    HW120027   1.370   1.069   9.233 -1.4899  0.3258 -0.4645
 2797SOL    HW220028   1.371   0.933   9.161  1.9755  0.5463  1.4374
 2798SOL     OW20029   2.900   1.665   2.924  0.3768 -0.4561  0.6565
 2798SOL    HW120030   2.880   1.672   3.018 -4.5633 -0.9892 -0.3561
 2798SOL    HW220031   2.813   1.687   2.890  1.0290  0.4536 -0.4164
 2799SOL     OW20032   0.769   1.365   6.815 -0.8032  0.5725  0.1358
 2799SOL    HW120033   0.852   1.407   6.840  0.1624 -1.6910  0.8135
 2799SOL    HW220034   0.765   1.286   6.870  2.0857 -0.8845 -1.7551
 2800SOL     OW20035   4.314   1.364   6.381 -0.2110 -0.5111 -0.2722
 2800SOL    HW120036   4.392   1.413   6.354  0.1492 -1.3465 -0.7401
 2800SOL    HW220037   4.266   1.428   6.433 -0.9592 -0.1327 -1.4201
 2801SOL     OW20038   3.090   1.732  13.500  0.6623  0.3529  0.2497
 2801SOL    HW120039   3.165   1.684  13.536 -0.4250 -1.6318 -0.1453
 2801SOL    HW220040   3.020   1.667  13.501  0.9641  0.0454  1.7723
 2802SOL     OW20041   2.254   4.427  13.188 -0.0791 -0.0575 -0.0206
 2802SOL    HW120042   2.268   4.432  13.093 -1.7167  0.3033 -0.2430
 2802SOL    HW220043   2.231   4.335  13.197 -0.8403  0.0483 -0.8952
 2803SOL     OW20044   3.582   2.714   2.577 -0.7721 -0.2160  0.6881
 2803SOL    HW120045   3.663   2.758   2.602 -0.4023 -0.7875  0.4775
 2803SOL    HW220046   3.586   2.638   2.635 -0.4792 -0.6124  0.1518
 2804SOL     OW20047   2.713   0.608   1.764 -0.1501  0.0912 -0.1118
 2804SOL    HW120048   2.631   0.574   1.800 -0.5295  0.0567 -1.0025
 2804SOL    HW220049   2.756   0.630   1.846 -2.4137  0.1113  1.0754
 2805SOL     OW20050   0.947   1.822   0.712  0.0274 -0.2512  0.1718
 2805SOL    HW120051   0.921   1.745   0.662  0.8803 -1.2793  1.3132
 2805SOL    HW220052   1.023   1.860   0.670  0.1009 -1.5177 -0.8309
 2806SOL     OW20053   4.112   0.315  15.377  0.3530 -0.3995 -0.6461
 2806SOL    HW120054   4.181   0.263  15.419  1.3156  1.3077 -0.1428
 2806SOL    HW220055   4.102   0.273  15.292  0.8146  0.8045 -1.2806
 2807SOL     OW20056   1.290   3.295   8.484  0.4860  0.0500 -0.2206
 2807SOL    HW120057   1.247   3.380   8.497 -0.2634 -0.3889  0.1357
 2807SOL    HW220058   1.340   3.291   8.565  1.2708  0.3565 -0.6926
 2808SOL     OW20059   2.015   1.316   2.793 -0.3264  0.0562  0.2130
 2808SOL    HW120060   1.947   1.370   2.833  0.5042 -0.4184  2.2783
 2808SOL    HW220061   2.091   1.367   2.820  0.9578 -0.8579 -1.7014
 2809SOL     OW20062   2.892   3.346   4.381 -0.9112  0.6320 -0.4460
 2809SOL    HW120063   2.804   3.355   4.417 -2.0831 -1.0992 -2.9230
 2809SOL    HW220064   2.915   3.438   4.365 -0.0866  0.2043 -1.7126
 2810SOL     OW20065   4.332   3.239   8.213  0.2768 -0.1562 -0.1468
 2810SOL    HW120066   4.296   3.300   8.278  1.1019  2.9386 -2.5876
 2810SOL    HW220067   4.251   3.201   8.177  0.5615  0.4774 -1.4750
 2811SOL     OW20068   3.819   3.345   6.487  0.1331 -0.3789 -0.2154
 2811SOL    HW120069   3.799   3.276   6.424 -0.5079  0.1430 -0.5872
 2811SOL    HW220070   3.813   3.420   6.428 -2.8897 -0.6749 -0.2743
 2812SOL     OW20071   4.661   4.288  17.334  0.5918 -0.6454 -0.1907
 2812SOL    HW120072   4.652   4.301  17.429  2.0790 -1.3591  0.0455
 2812SOL    HW220073   4.584   4.234  17.316 -0.0896  1.0929 -2.4418
 2813SOL     OW20074   3.322   3.762   8.625 -0.1544  0.2286 -0.6442
 2813SOL    HW120075   3.340   3.855   8.639  0.5077  0.0462 -0.3271
 2813SOL    HW220076   3.347   3.743   8.535  1.7104  1.5950 -0.4118
 2814SOL     OW20077   1.669   4.143   2.756 -0.1114  0.5816 -0.0066
 2814SOL    HW120078   1.578   4.135   2.726  0.2522 -1.1452 -0.6198
 2814SOL    HW220079   1.700   4.225   2.717 -1.5674  0.9298 -0.4385
 2815SOL     OW20080   1.582   0.732   4.270  0.5756  0.0705 -0.2874
 2815SOL    HW120081   1.553   0.641   4.278 -0.2038  0.4115  0.7099
 2815SOL    HW220082   1.538   0.760   4.189 -0.6479 -2.0612 -0.3871
 2816SOL     OW20083   1.457   4.166  12.232  0.2612  0.1446 -0.0501
 2816SOL    HW120084   1.427   4.164  12.141  0.5636  1.2534 -0.1726
 2816SOL    HW220085   1.390   4.229  12.259 -0.1125 -0.7602  1.1164
 2817SOL     OW20086   1.771   2.526   6.470  0.3523  0.7579 -0.3448
 2817SOL    HW120087   1.776   2.517   6.565  0.9148  0.0190 -0.4473
 2817SOL    HW220088   1.687   2.566   6.444 -0.3109  0.4203  1.2885
 2818SOL     OW20089   3.019   2.204  11.389 -0.2833 -0.2515 -0.4362
 2818SOL    HW120090   2.954   2.251  11.337  0.2011 -0.7782 -1.5014
 2818SOL    HW220091   2.962   2.163  11.454  0.2554 -0.9466 -0.3987
 2819SOL     OW20092   2.089   0.491   9.142 -0.1534  0.6619 -0.1171
 2819SOL    HW120093   2.062   0.572   9.186 -1.0467 -0.3560  1.1896
 2819SOL    HW220094   2.183   0.499   9.125 -0.3548 -2.3315 -2.5497
 2820SOL     OW20095   1.642   4.530   8.101 -0.3447  0.1439 -0.4534
 2820SOL    HW120096   1.579   4.459   8.116 -0.8078  0.5513 -0.4653
 2820SOL    HW220097   1.590   4.600   8.141  0.9439  0.0576  1.3966
 2821SOL     OW20098   3.223   2.679   7.987  0.3706  0.2540  0.1091
 2821SOL    HW120099   3.135   2.694   8.021 -0.3370 -0.8460 -1.2147
 2821SOL    HW220100   3.223   2.585   7.969 -1.7997  0.0438  1.1600
 2822SOL     OW20101   1.137   4.554   2.621 -0.1335  0.3373 -0.1709
 2822SOL    HW120102   1.157   4.560   2.527  1.4655 -2.4181 -0.0129
 2822SOL    HW220103   1.210   4.505   2.657  0.4827  2.4488  1.4211
 2823SOL     OW20104   1.018   4.035   4.140  0.0816 -0.2489 -0.0054
 2823SOL    HW120105   1.055   4.016   4.227  1.7973 -2.0249 -1.1073
 2823SOL    HW220106   0.930   3.999   4.149 -0.0821  0.5192  1.4367
 2824SOL     OW20107   3.816   3.758   6.715  0.2986 -0.2470 -0.6798
 2824SOL    HW120108   3.855   3.694   6.775 -1.2744  0.4602  1.1011
 2824SOL    HW220109   3.824   3.837   6.769 -0.3575  0.0508 -1.0199
 2825SOL     OW20110   0.176   3.540   3.035 -0.2908 -0.3996  0.1306
 2825SOL    HW120111   0.089   3.507   3.058  0.2137 -0.4623  1.9526
 2825SOL    HW220112   0.143   3.604   2.972  0.6412  0.5724  0.6291
 2826SOL     OW20113   3.465   1.810   2.530 -0.4148 -0.1979 -0.0288
 2826SOL    HW120114   3.462   1.835   2.623 -1.1641  0.5722 -0.2608
 2826SOL    HW220115   3.538   1.864   2.498 -1.6068  0.2352 -1.9483
 2827SOL     OW20116   3.699   4.529   2.821 -0.1347 -0.1061  0.2826
 2827SOL    HW120117   3.607   4.540   2.798  0.1607  0.4071 -0.6628
 2827SOL    HW220118   3.691   4.488   2.907 -1.8136  1.1393  0.7027
 2828SOL     OW20119   3.059   4.594   4.922 -0.2271  0.2303 -0.1935
 2828SOL    HW120120   3.143   4.560   4.891  0.3199 -0.6813  2.2877
 2828SOL    HW220121   3.083   4.590   5.015 -1.0175 -0.3930 -0.0180
 2829SOL     OW20122   2.447   0.652   8.231  0.0264  0.2985  0.0593
 2829SOL    HW120123   2.386   0.622   8.164  2.0691 -0.8187 -1.3028
 2829SOL    HW220124   2.505   0.576   8.239  0.0836  0.6366  3.0459
 2830SOL     OW20125   0.706   4.517   3.697 -0.5681 -0.2143 -0.4600
 2830SOL    HW120126   0.617   4.503   3.666  0.0676 -1.9286 -1.4951
 2830SOL    HW220127   0.713   4.456   3.770  2.5407 -1.4097 -1.7424
 2831SOL     OW20128   0.097   0.252  12.640 -0.5708 -0.1069  0.0635
 2831SOL    HW120129   0.008   0.272  12.609 -1.1928 -0.9959  1.2662
 2831SOL    HW220130   0.114   0.340  12.673  1.2839 -0.6060  0.4401
 2832SOL     OW20131   2.722   3.448   5.520  0.3334  0.1173  0.0136
 2832SOL    HW120132   2.800   3.420   5.473 -0.5301 -0.2552 -1.2119
 2832SOL    HW220133   2.752   3.447   5.611 -0.2709  2.0732  0.2338
 2833SOL     OW20134   4.246   0.446   8.064 -0.1656 -0.1856 -0.6815
 2833SOL    HW120135   4.312   0.472   8.129  0.4769  0.4328 -1.5900
 2833SOL    HW220136   4.225   0.356   8.088  0.7685 -0.2685 -0.1838
 2834SOL     OW20137   4.690   2.339   3.588 -0.3965 -0.6208  0.0214
 2834SOL    HW120138   0.036   2.349   3.636 -0.5263  1.5460 -0.1854
 2834SOL    HW220139   4.710   2.337   3.494  0.0956 -0.9045  0.1358
 2835SOL     OW20140   2.028   3.437  10.067 -0.1055  0.4492 -0.7909
 2835SOL    HW120141   2.042   3.345  10.091 -2.0493  0.2029 -0.5916
 2835SOL    HW220142   1.934   3.442  10.081  0.0689 -0.2936  0.7109
 2836SOL     OW20143   1.493   1.318   3.800 -0.1137 -0.5649  0.0966
 2836SOL    HW120144   1.564   1.254   3.791  0.9948  0.3470  2.3461
 2836SOL    HW220145   1.437   1.288   3.871  1.5683  2.5662  2.7552
 2837SOL     OW20146   0.103   0.059  12.168  0.2001 -0.3897  0.4587
 2837SOL    HW120147   0.196   0.081  12.160 -0.1890  0.6965 -1.0013
 2837SOL    HW220148   0.112   4.714  12.219  1.3616  0.2578  1.2885
 2838SOL     OW20149   4.116   3.193   8.047  0.2535 -0.1204  0.1715
 2838SOL    HW120150   4.064   3.149   7.980  1.5359 -0.6653 -0.4782
 2838SOL    HW220151   4.054   3.172   8.116  0.5359  1.1701  0.8296
 2839SOL     OW20152   1.857   2.314  11.663  0.3825 -0.6312  0.2112
 2839SOL    HW120153   1.903   2.370  11.601 -0.2181 -0.3534  0.0116
 2839SOL    HW220154   1.777   2.365  11.677  0.3563  0.1166 -2.7823
 2840SOL     OW20155   3.601   3.565   8.983 -0.0028  0.2660  0.2159
 2840SOL    HW120156   3.581   3.650   9.020 -0.6969 -0.3672  1.2954
 2840SOL    HW220157   3.634   3.587   8.896  1.2294  0.8931  0.8394
 2841SOL     OW20158   0.294   3.890   7.159 -0.1001  0.0455 -0.5618
 2841SOL    HW120159   0.268   3.965   7.213  1.4804 -0.3417  0.7265
 2841SOL    HW220160   0.208   3.854   7.139 -1.6430  3.1333  0.6064
 2842SOL     OW20161   4.669   1.567   5.620  0.2807  1.0959 -0.1016
 2842SOL    HW120162   4.726   1.518   5.562  0.7303 -0.4342  1.6213
 2842SOL    HW220163   4.696   1.658   5.610 -0.0880  1.2701  0.4578
 2843SOL     OW20164   1.965   4.072  10.086 -0.0160  0.2391  0.4685
 2843SOL    HW120165   1.904   4.114  10.147  0.1790 -0.6877  1.3107
 2843SOL    HW220166   1.974   4.132  10.013 -0.4949 -0.5215 -0.2210
 2844SOL     OW20167   1.805   2.317   5.099  0.0685  0.2071 -0.1540
 2844SOL    HW120168   1.818   2.402   5.142 -1.5208  1.2689 -1.7420
 2844SOL    HW220169   1.769   2.270   5.174 -3.9778  0.7220 -1.7571
 2845SOL     OW20170   2.787   3.451   6.826 -0.0069 -0.7094 -0.0459
 2845SOL    HW120171   2.857   3.491   6.775 -2.0910  1.6203 -1.0710
 2845SOL    HW220172   2.717   3.463   6.762  0.9050  1.9831 -0.5128
 2846SOL     OW20173   0.815   2.247   3.786  0.2927 -0.4134 -0.4468
 2846SOL    HW120174   0.746   2.306   3.816  1.7653  1.2553 -0.3525
 2846SOL    HW220175   0.895   2.276   3.830  1.1102  0.8349 -2.7664
 2847SOL     OW20176   0.875   3.998  15.004  0.6949  0.5721  0.2614
 2847SOL    HW120177   0.849   4.075  14.954 -1.6783 -1.8087 -2.1248
 2847SOL    HW220178   0.795   3.972  15.050  1.9168  0.3177  2.2594
 2848SOL     OW20179   2.423   4.264   4.484  0.2048 -0.2702  0.0191
 2848SOL    HW120180   2.398   4.222   4.402 -0.0193  0.3241 -0.2164
 2848SOL    HW220181   2.370   4.343   4.479  1.2445  0.3697 -0.7286
 2849SOL     OW20182   0.762   0.305   3.401  0.9608 -0.0275  0.2509
 2849SOL    HW120183   0.773   0.398   3.422  1.3892 -0.0175 -0.0185
 2849SOL    HW220184   0.672   0.289   3.431  1.1479  1.2345  1.5198
 2850SOL     OW20185   1.720   2.844   2.967 -0.1486  0.5288  0.2148
 2850SOL    HW120186   1.773   2.779   3.014 -0.7763  0.6668  1.1051
 2850SOL    HW220187   1.741   2.927   3.009  0.6803  0.7550 -0.6307
 2851SOL     OW20188   0.920   1.363   7.789  0.3063 -0.6174  0.2191
 2851SOL    HW120189   1.002   1.317   7.769  0.0219  0.3406 -3.1382
 2851SOL    HW220190   0.950   1.436   7.843  1.7332 -1.2334  0.2702
 2852SOL     OW20191   2.238   4.151   2.744  0.1363 -0.5670  0.5726
 2852SOL    HW120192   2.167   4.116   2.689  1.2829  0.3730 -1.5079
 2852SOL    HW220193   2.191   4.223   2.785 -0.2199  1.1536 -2.8731
 2853SOL     OW20194   4.386   2.798   8.320  0.1354  0.0708 -0.5618
 2853SOL    HW120195   4.401   2.884   8.360 -0.4584  0.9135 -2.1603
 2853SOL    HW220196   4.468   2.788   8.271 -0.0387  2.3842 -1.3234
 2854SOL     OW20197   2.027   3.296   4.663  0.0605  0.1953 -0.3341
 2854SOL    HW120198   2.078   3.223   4.627 -0.9054 -1.0683  0.8747
 2854SOL    HW220199   1.956   3.306   4.600  0.0899 -0.9289 -0.5496
 2855SOL     OW20200   0.797   0.788  10.926 -0.1257 -0.3780 -0.0016
 2855SOL    HW120201   0.797   0.864  10.869 -1.6735 -0.2309  0.1774
 2855SOL    HW220202   0.850   0.825  10.996  0.0652 -2.9857  1.2371
 2856SOL     OW20203   1.295   0.266   6.361 -0.2936 -0.0765 -0.6537
 2856SOL    HW120204   1.205   0.297   6.365  0.8852  3.5238 -1.3852
 2856SOL    HW220205   1.311   0.251   6.268  1.0804  1.5712 -0.6769
 2857SOL     OW20206   2.700   4.720   1.098 -0.3511  0.1275  0.5802
 2857SOL    HW120207   2.681   4.732   1.191  0.1164  2.8204  0.3254
 2857SOL    HW220208   2.608   4.724   1.069  0.3860 -1.0033 -1.9675
 2858SOL     OW20209   4.602   0.488  13.949  0.7490  0.3710  0.6082
 2858SOL    HW120210   4.588   0.463  14.040  0.0669 -0.1367  0.3647
 2858SOL    HW220211   4.539   0.429  13.907 -0.0603  2.5939 -1.2592
 2859SOL     OW20212   0.492   3.075   8.294 -0.2452 -0.4357 -0.3872
 2859SOL    HW120213   0.547   2.997   8.289  0.7233  0.3733 -2.3325
 2859SOL    HW220214   0.449   3.061   8.379  2.2277  0.3294  0.9848
 2860SOL     OW20215   2.674   0.812   9.828  0.0723  0.1080  0.6756
 2860SOL    HW120216   2.721   0.882   9.782 -1.8870  0.3884 -0.8506
 2860SOL    HW220217   2.658   0.756   9.753  2.2763  1.9613 -1.1735
 2861SOL     OW20218   1.286   4.421   1.943 -0.3109 -0.4693 -0.3722
 2861SOL    HW120219   1.335   4.340   1.958  0.1480 -0.2200 -0.5194
 2861SOL    HW220220   1.202   4.398   1.983 -1.2312  0.1134 -1.9678
 2862SOL     OW20221   3.545   1.918   3.109  0.2553 -0.1016 -0.5330
 2862SOL    HW120222   3.500   1.840   3.076 -0.4040  1.3996 -3.2441
 2862SOL    HW220223   3.632   1.883   3.126  0.7923  0.5503 -1.9262
 2863SOL     OW20224   3.876   0.490   6.968 -0.8368  0.3357  0.0833
 2863SOL    HW120225   3.837   0.511   7.052 -2.0505 -0.5269 -0.2760
 2863SOL    HW220226   3.941   0.421   6.981 -0.8217  0.0457 -1.5804
 2864SOL     OW20227   2.746   0.634   5.031 -0.0979  0.7796 -0.0016
 2864SOL    HW120228   2.775   0.564   5.089 -4.0137 -1.1035 -0.3098
 2864SOL    HW220229   2.788   0.704   5.081  0.8526 -0.2033  0.5578
 2865SOL     OW20230   4.474   2.676   1.190 -0.0254  0.0663  0.5164
 2865SOL    HW120231   4.460   2.662   1.284  0.7478 -1.0855  0.4650
 2865SOL    HW220232   4.462   2.589   1.152 -1.5386 -0.5729  2.4372
 2866SOL     OW20233   2.458   1.553   6.215 -0.0781 -1.0266  0.2591
 2866SOL    HW120234   2.379   1.498   6.217 -1.8280  1.4121 -0.9581
 2866SOL    HW220235   2.445   1.585   6.126  0.2107 -0.1250  0.5426
 2867SOL     OW20236   2.604   0.117   5.605  0.2773  0.1121  0.3439
 2867SOL    HW120237   2.690   0.119   5.647 -0.0652  0.9509  1.0134
 2867SOL    HW220238   2.566   0.203   5.624 -0.3240 -0.2335  0.6853
 2868SOL     OW20239   3.579   0.103   7.010 -0.1189 -0.2695 -0.1534
 2868SOL    HW120240   3.598   0.151   7.091  1.1925  0.4967 -0.9147
 2868SOL    HW220241   3.627   0.173   6.967  1.5232 -1.9195 -1.0139
 2869SOL     OW20242   1.228   0.368   1.863 -0.8539 -0.1610  0.2013
 2869SOL    HW120243   1.271   0.374   1.948  0.6971 -1.7915 -0.4706
 2869SOL    HW220244   1.239   0.273   1.854  2.2597 -0.0862  3.2479
 2870SOL     OW20245   1.313   2.520   5.898  0.4422 -0.3826 -0.1720
 2870SOL    HW120246   1.280   2.466   5.969 -0.1254 -1.2178 -1.0761
 2870SOL    HW220247   1.388   2.469   5.866 -0.3630  0.2283 -2.9982
 2871SOL     OW20248   3.790   4.258  11.762 -0.2097  0.3789  0.1066
 2871SOL    HW120249   3.845   4.314  11.708  0.3217 -2.1952 -1.9850
 2871SOL    HW220250   3.808   4.168  11.734 -0.8730 -0.7247  3.2048
 2872SOL     OW20251   1.091   0.701  14.554  0.3483 -0.8420  0.0051
 2872SOL    HW120252   1.024   0.749  14.507 -1.9305 -3.0950  0.9557
 2872SOL    HW220253   1.066   0.609  14.543 -0.2988 -0.3487 -2.4257
 2873SOL     OW20254   3.963   0.188   9.089 -0.2928  0.1406 -0.6682
 2873SOL    HW120255   3.977   0.279   9.117 -1.6226  0.4049 -0.8552
 2873SOL    HW220256   3.987   0.139   9.167 -0.6011 -2.1894 -2.0295
 2874SOL     OW20257   4.186   4.262   1.932 -0.5972 -0.1232 -0.4664
 2874SOL    HW120258   4.103   4.215   1.940  0.1133 -1.2628  0.2474
 2874SOL    HW220259   4.217   4.220   1.852 -1.7873  0.9476 -1.4765
 2875SOL     OW20260   1.576   2.497   2.922  0.3860 -0.4090  0.0816
 2875SOL    HW120261   1.542   2.421   2.876  1.0562  0.3819 -1.7312
 2875SOL    HW220262   1.502   2.531   2.973  0.7167  0.8799 -0.2891
 2876SOL     OW20263   1.081   4.379   6.997  0.0444  0.1584  0.2475
 2876SOL    HW120264   1.078   4.470   6.967 -0.5322  0.2690  0.6553
 2876SOL    HW220265   1.000   4.348   6.956  0.7487  1.1312 -1.8814
 2877SOL     OW20266   2.676   1.238   6.139 -0.2593 -0.1320 -0.4104
 2877SOL    HW120267   2.650   1.153   6.105 -0.7468 -1.3456  3.0216
 2877SOL    HW220268   2.766   1.253   6.112 -0.1485  0.7020  0.4000
 2878SOL     OW20269   1.524   0.105   3.629 -1.0471 -0.3306 -0.0578
 2878SOL    HW120270   1.501   0.123   3.538  2.0359  2.7058 -0.2247
 2878SOL    HW220271   1.572   0.022   3.625  1.6855  1.2429  0.1217
 2879SOL     OW20272   0.192   2.570   8.658  0.5474 -0.7832  0.3983
 2879SOL    HW120273   0.254   2.519   8.605 -0.0606 -0.9438 -0.1497
 2879SOL    HW220274   0.109   2.534   8.628  0.0445  1.1080 -0.4623
 2880SOL     OW20275   0.998   3.233   3.347 -0.2066  0.2548 -0.5017
 2880SOL    HW120276   1.071   3.182   3.311  0.6071  0.9858  0.1053
 2880SOL    HW220277   0.922   3.193   3.307 -0.7077  0.9219 -0.2080
 2881SOL     OW20278   2.925   1.948   7.736  0.2511 -0.1900  0.4073
 2881SOL    HW120279   3.001   2.002   7.761  0.0347  1.4672 -2.4661
 2881SOL    HW220280   2.934   1.890   7.811 -0.9590  0.1805  0.8280
 2882SOL     OW20281   0.348   0.222   8.889  0.4791  0.1186  0.4473
 2882SOL    HW120282   0.402   0.197   8.813  0.5347  2.6255 -0.3591
 2882SOL    HW220283   0.264   0.182   8.869 -0.8039  2.1149  1.9113
 2883SOL     OW20284   1.818   0.411  11.504  0.0291 -0.3220  0.0922
 2883SOL    HW120285   1.758   0.377  11.438  0.6874 -0.8345 -0.2420
 2883SOL    HW220286   1.889   0.445  11.448 -0.5472  2.7484  1.2066
 2884SOL     OW20287   1.502   3.503   3.882  0.3966  0.1864 -0.2751
 2884SOL    HW120288   1.433   3.472   3.941  0.2937  1.7465  0.4329
 2884SOL    HW220289   1.484   3.595   3.899  0.4503 -0.2326  2.1646
 2885SOL     OW20290   1.442   3.637   1.820  0.3646 -0.8438  0.2810
 2885SOL    HW120291   1.520   3.643   1.765 -0.4812 -0.8015 -0.9282
 2885SOL    HW220292   1.431   3.543   1.836  0.4840 -0.4132  2.9552
 2886SOL     OW20293   1.228   3.836   3.513 -0.2286  0.2492 -0.4292
 2886SOL    HW120294   1.140   3.830   3.549 -0.7828  0.4659 -1.7435
 2886SOL    HW220295   1.266   3.909   3.563 -0.6359 -1.4477  2.3444
 2887SOL     OW20296   1.495   0.223  13.780 -0.4623 -0.2960 -0.0994
 2887SOL    HW120297   1.580   0.256  13.750  0.0091  0.5633  2.2102
 2887SOL    HW220298   1.498   0.129  13.765  1.9643  0.1469 -2.3322
 2888SOL     OW20299   3.874   1.638   2.874  0.0102  0.3639  0.2422
 2888SOL    HW120300   3.861   1.552   2.914  0.3663  0.1815 -0.0322
 2888SOL    HW220301   3.839   1.634   2.785 -0.6823 -1.0713  0.5794
 2889SOL     OW20302   0.278   1.325   9.368  0.4291 -0.1484  0.6328
 2889SOL    HW120303   0.274   1.276   9.450  0.0738  2.1061  1.9306
 2889SOL    HW220304   0.248   1.412   9.392  0.1523  0.0604 -0.4677
 2890SOL     OW20305   1.593   4.487   9.393 -0.1865  0.6384  0.5099
 2890SOL    HW120306   1.569   4.404   9.434  0.0115  0.4863  0.3130
 2890SOL    HW220307   1.515   4.539   9.414  0.1042  1.0329  0.6089
 2891SOL     OW20308   4.131   2.419   4.769  0.2450  0.6304 -0.4545
 2891SOL    HW120309   4.112   2.333   4.806  0.5370  0.2599 -1.1718
 2891SOL    HW220310   4.052   2.472   4.782 -1.7755 -2.5862  0.2316
 2892SOL     OW20311   2.703   2.522   6.898 -0.0536  0.6853 -0.8982
 2892SOL    HW120312   2.731   2.514   6.807 -0.7146  1.6088 -1.1841
 2892SOL    HW220313   2.759   2.584   6.943 -0.3331 -1.0639  1.8247
 2893SOL     OW20314   1.846   0.592   4.311  0.1772  0.9934  0.3768
 2893SOL    HW120315   1.838   0.567   4.220 -0.2215  2.0282  0.1259
 2893SOL    HW220316   1.806   0.679   4.317 -0.5410  0.5832  1.6298
 2894SOL     OW20317   4.035   2.229   1.690 -0.1569 -0.5283 -0.0714
 2894SOL    HW120318   3.946   2.203   1.712  0.3165 -1.8727  0.2086
 2894SOL    HW220319   4.058   2.176   1.615  0.8956  1.7302 -1.3580
 2895SOL     OW20320   0.945   4.720   4.713 -0.0366 -0.2792  0.0044
 2895SOL    HW120321   0.938   0.038   4.791  1.0746  0.7696 -0.6207
 2895SOL    HW220322   1.005   4.652   4.743 -1.5781 -0.3279  2.9106
 2896SOL     OW20323   0.818   0.539   6.287 -0.1220  0.3577 -0.3374
 2896SOL    HW120324   0.743   0.481   6.275 -0.5231  0.7377  0.2841
 2896SOL    HW220325   0.844   0.524   6.378  1.0078 -1.1892 -0.9248
 2897SOL     OW20326   2.115   0.053   9.529  0.0096 -0.1656  0.4832
 2897SOL    HW120327   2.057   0.112   9.578  0.6406  1.3347 -0.5632
 2897SOL    HW220328   2.205   0.076   9.551  0.4974 -2.1924  0.5840
 2898SOL     OW20329   3.495   1.574  15.768 -1.3208 -0.1409  0.4419
 2898SOL    HW120330   3.580   1.587  15.810 -0.6609 -1.2421 -0.5654
 2898SOL    HW220331   3.503   1.626  15.689  3.2853  1.0794  1.7233
 2899SOL     OW20332   0.540   2.057   7.538  0.1232  0.0870 -0.3198
 2899SOL    HW120333   0.614   2.061   7.598 -0.4454  1.8706  0.2548
 2899SOL    HW220334   0.542   2.140   7.491 -0.6569  0.2135 -0.1340
 2900SOL     OW20335   2.237   2.675   6.715 -0.4104  0.4085 -0.4279
 2900SOL    HW120336   2.170   2.679   6.784 -0.6680  0.5347 -0.6826
 2900SOL    HW220337   2.288   2.600   6.745  1.1541  1.2822 -0.8939
 2901SOL     OW20338   2.374   4.531   1.958  0.4271  0.0399 -0.3661
 2901SOL    HW120339   2.454   4.500   2.000  0.8501  2.1945  0.3926
 2901SOL    HW220340   2.397   4.622   1.940  0.5310 -0.2891 -1.9110
 2902SOL     OW20341   0.854   1.700   6.920  0.5064 -0.0408  0.0861
 2902SOL    HW120342   0.892   1.612   6.917 -1.3195 -0.7465 -1.9465
 2902SOL    HW220343   0.915   1.752   6.973 -0.7006  0.4611  0.9717
 2903SOL     OW20344   3.280   3.894  15.463 -0.0123  0.3892  0.1939
 2903SOL    HW120345   3.369   3.927  15.453 -0.2023  0.2796 -1.8935
 2903SOL    HW220346   3.276   3.896  15.559  1.6060  2.2504  0.2108
 2904SOL     OW20347   0.822   3.497   7.637  0.1305  0.0030 -0.2175
 2904SOL    HW120348   0.838   3.562   7.569 -2.4625  0.7485 -0.1241
 2904SOL    HW220349   0.908   3.460   7.654 -1.7596 -3.3775  1.9051
 2905SOL     OW20350   1.544   0.659   0.094  0.1092  0.0018  0.6232
 2905SOL    HW120351   1.565   0.715   0.170 -1.5402  0.9029  0.4248
 2905SOL    HW220352   1.624   0.661   0.042 -1.3130  0.9609 -1.4985
 2906SOL     OW20353   3.786   3.182   9.288  0.4033  0.3190  0.5959
 2906SOL    HW120354   3.807   3.273   9.309  0.5179  0.4423 -0.0664
 2906SOL    HW220355   3.691   3.184   9.297  0.1532 -6.2343 -0.1724
 2907SOL     OW20356   3.665   0.173   7.279 -0.3136  0.3406 -0.3819
 2907SOL    HW120357   3.736   0.115   7.305 -0.5539  0.0211 -0.4298
 2907SOL    HW220358   3.589   0.126   7.314  1.0251  2.2412  5.0395
 2908SOL     OW20359   1.244   0.576   8.689 -0.0083 -0.0281  0.3235
 2908SOL    HW120360   1.220   0.496   8.642 -0.0141  0.6175 -0.7691
 2908SOL    HW220361   1.181   0.575   8.761 -1.9535 -2.5558 -1.3938
 2909SOL     OW20362   2.885   4.571   9.132 -0.2121 -0.2384  0.3530
 2909SOL    HW120363   2.824   4.498   9.141 -0.3043 -0.5806 -3.2417
 2909SOL    HW220364   2.943   4.550   9.059  0.6558  0.7454  0.7595
 2910SOL     OW20365   0.185   1.195   8.228  0.0756  0.0450 -0.4550
 2910SOL    HW120366   0.215   1.162   8.143 -2.1715 -2.9669 -0.0887
 2910SOL    HW220367   0.140   1.278   8.213 -0.0294  0.2693  1.1637
 2911SOL     OW20368   3.789   1.261  10.053 -0.0413 -0.5324  0.0315
 2911SOL    HW120369   3.821   1.324   9.988 -3.8559  0.3955 -0.9178
 2911SOL    HW220370   3.765   1.322  10.123 -1.9442 -0.1228 -0.9998
 2912SOL     OW20371   0.046   0.232  14.030 -0.2844 -0.3098  0.0016
 2912SOL    HW120372   0.072   0.151  13.987  2.2804  0.9441 -0.8124
 2912SOL    HW220373   4.686   0.232  14.029 -0.3099 -0.2579  2.4634
 2913SOL     OW20374   0.570   1.808   6.969 -0.4135  0.0512 -0.2532
 2913SOL    HW120375   0.501   1.745   6.988 -1.9482  1.2694 -1.7477
 2913SOL    HW220376   0.641   1.745   6.954  0.0587 -0.0717  2.5785
 2914SOL     OW20377   4.179   1.237  16.021 -0.3264 -0.2175 -0.1163
 2914SOL    HW120378   4.176   1.167  16.086  1.1892  0.3597  0.5955
 2914SOL    HW220379   4.106   1.290  16.052  0.4831  0.2724  0.9953
 2915SOL     OW20380   1.618   1.647   7.688 -0.0155  0.5797  0.4104
 2915SOL    HW120381   1.580   1.707   7.623 -0.3045 -1.0486 -0.9213
 2915SOL    HW220382   1.706   1.677   7.668 -0.0823  0.5615  0.0730
 2916SOL     OW20383   2.322   0.309  12.915 -0.0538  0.2017 -0.5202
 2916SOL    HW120384   2.401   0.284  12.867  0.0716  0.5780 -0.5072
 2916SOL    HW220385   2.362   0.311  13.002  0.1612 -0.3296 -0.6101
 2917SOL     OW20386   2.295   3.849   7.533 -0.0291 -0.4134 -0.0719
 2917SOL    HW120387   2.306   3.858   7.438 -1.0036 -0.5031 -0.1880
 2917SOL    HW220388   2.210   3.805   7.529 -0.0106 -0.3373 -1.4238
 2918SOL     OW20389   2.107   0.119   6.764 -0.1884 -0.6168 -0.4871
 2918SOL    HW120390   2.088   0.110   6.670  1.4433 -1.6388 -0.7121
 2918SOL    HW220391   2.193   0.077   6.761 -0.4335 -1.1719  0.3415
 2919SOL     OW20392   3.710   3.666   3.878 -0.5094  0.4461 -0.3477
 2919SOL    HW120393   3.779   3.694   3.938 -1.4907  0.6131  0.7225
 2919SOL    HW220394   3.679   3.590   3.927 -1.4734  1.7475  1.0814
 2920SOL     OW20395   1.661   2.666   9.335 -0.2708  0.4608  0.1693
 2920SOL    HW120396   1.675   2.622   9.419  0.4539 -0.2094 -0.3123
 2920SOL    HW220397   1.595   2.732   9.357 -0.7657 -0.0602  0.2524
 2921SOL     OW20398   2.147   1.040   2.695 -0.7190 -0.0003 -0.3150
 2921SOL    HW120399   2.125   1.071   2.782  0.3403 -0.3367  0.0696
 2921SOL    HW220400   2.166   1.120   2.645 -0.4120 -0.0584 -0.2924
 2922SOL     OW20401   0.840   1.067   8.157  0.4445  0.4635  0.0683
 2922SOL    HW120402   0.751   1.077   8.123  0.3374  0.3107  0.3109
 2922SOL    HW220403   0.826   1.086   8.249  0.4592 -2.4301  0.6601
 2923SOL     OW20404   0.572   2.061  12.548 -0.4987  0.1911 -0.2880
 2923SOL    HW120405   0.479   2.060  12.524 -1.3922 -1.8259  3.2030
 2923SOL    HW220406   0.610   2.026  12.467 -1.9027 -1.0266 -0.4210
 2924SOL     OW20407   2.509   4.736   0.325  0.0016 -0.5182 -0.2372
 2924SOL    HW120408   2.453   4.726   0.401 -0.9337  0.7721 -0.7542
 2924SOL    HW220409   2.442   0.052   0.279 -0.1317 -1.7630 -1.4795
 2925SOL     OW20410   2.002   1.765   8.633  0.0086  0.5592 -0.3063
 2925SOL    HW120411   1.956   1.705   8.691  0.8937  1.0478  0.9064
 2925SOL    HW220412   1.980   1.852   8.667  0.0254  0.3040  0.3662
 2926SOL     OW20413   0.653   3.867   5.545  0.5474 -0.0846  0.0936
 2926SOL    HW120414   0.646   3.945   5.601  0.4852  0.7046 -1.0040
 2926SOL    HW220415   0.651   3.803   5.616 -1.2212  0.1091  0.2172
 2927SOL     OW20416   4.457   3.058   8.411 -0.1435 -0.5902 -0.1930
 2927SOL    HW120417   4.448   3.121   8.482  0.8502 -0.7418  0.0654
 2927SOL    HW220418   4.451   3.112   8.332  2.4125 -1.9229 -1.3129
 2928SOL     OW20419   4.568   1.798   7.116 -0.4527 -0.4234  0.5292
 2928SOL    HW120420   4.481   1.831   7.137 -1.6206 -4.2354  1.7049
 2928SOL    HW220421   4.584   1.825   7.026 -2.1018 -0.2783  0.2669
 2929SOL     OW20422   2.784   0.425  16.200  0.8506  0.1190  0.1589
 2929SOL    HW120423   2.819   0.372  16.271  0.6880  1.4627  1.2400
 2929SOL    HW220424   2.736   0.499  16.238 -0.2976 -0.5036 -0.0748
 2930SOL     OW20425   1.517   2.785   7.030  0.1079  0.0943 -0.2137
 2930SOL    HW120426   1.567   2.744   7.100  1.3753  1.7255 -0.1554
 2930SOL    HW220427   1.436   2.759   7.074  1.9671 -0.9371  2.5339
 2931SOL     OW20428   2.443   4.165  13.500  0.1109  0.2740 -0.5920
 2931SOL    HW120429   2.450   4.171  13.405  2.8698 -0.8078 -0.4651
 2931SOL    HW220430   2.349   4.146  13.504 -0.3425  2.3047 -1.6474
 2932SOL     OW20431   3.880   1.096   6.600  0.4134  0.4533  0.0298
 2932SOL    HW120432   3.941   1.134   6.537 -0.1405  1.6530  0.2188
 2932SOL    HW220433   3.854   1.016   6.555 -3.3528  0.8405  1.5022
 2933SOL     OW20434   2.901   0.421   5.119  0.3220  0.1146  0.3523
 2933SOL    HW120435   2.905   0.329   5.090  0.0040  0.4490 -0.7481
 2933SOL    HW220436   2.955   0.469   5.057  2.0584  0.1332  1.9029
 2934SOL     OW20437   1.979   1.090  15.231 -0.0434  0.8161  0.2217
 2934SOL    HW120438   2.042   1.050  15.171 -0.8986 -1.5201  0.8823
 2934SOL    HW220439   1.994   1.040  15.311  0.5628 -1.8994 -1.5834
 2935SOL     OW20440   3.257   3.933  15.743 -0.0980  0.2076  0.5740
 2935SOL    HW120441   3.200   3.997  15.786 -1.1630 -0.9920  0.9237
 2935SOL    HW220442   3.269   3.871  15.815  0.2476 -0.2232  0.1479
 2936SOL     OW20443   4.257   1.982   0.585 -0.2210  0.3032 -0.3181
 2936SOL    HW120444   4.227   2.050   0.525  2.5444  0.3843 -1.5801
 2936SOL    HW220445   4.265   1.904   0.529 -0.5338  0.3239 -0.3937
 2937SOL     OW20446   3.387   3.328   5.500 -0.4833 -0.0952 -0.0482
 2937SOL    HW120447   3.424   3.281   5.425 -0.4612 -0.2029  0.0290
 2937SOL    HW220448   3.314   3.381   5.471 -0.8402 -0.4418  0.2142
 2938SOL     OW20449   3.159   3.735   6.172  0.0620  0.3734 -0.5635
 2938SOL    HW120450   3.069   3.730   6.141 -0.9300  1.5785  2.1526
 2938SOL    HW220451   3.165   3.665   6.237  0.3725  0.1104 -0.8767
 2939SOL     OW20452   2.501   2.684   8.584  0.4922  0.7378  0.3011
 2939SOL    HW120453   2.409   2.659   8.590  0.7399 -1.0764 -3.2567
 2939SOL    HW220454   2.526   2.627   8.511 -2.4621  0.0931 -0.1751
 2940SOL     OW20455   4.724   4.060  11.738  0.1832 -0.5696 -0.0028
 2940SOL    HW120456   0.048   3.989  11.719 -0.6668 -1.6333  1.2685
 2940SOL    HW220457   0.033   4.139  11.707 -1.6956  0.4757 -0.1269
 2941SOL     OW20458   0.943   3.101   2.660  0.5706 -0.0884 -0.2039
 2941SOL    HW120459   0.871   3.145   2.705  0.9749 -0.7687  1.1420
 2941SOL    HW220460   1.019   3.128   2.712  0.1709  0.6127  0.0220
 2942SOL     OW20461   3.195   1.369  13.760  0.3608 -0.5331  0.2270
 2942SOL    HW120462   3.244   1.297  13.719  0.4773 -0.7284  0.7137
 2942SOL    HW220463   3.139   1.326  13.825  0.7475 -0.1762  0.7877
 2943SOL     OW20464   0.970   0.223   3.562 -0.0358  0.1646  0.4199
 2943SOL    HW120465   0.910   0.258   3.496 -1.4247 -0.2252  1.4727
 2943SOL    HW220466   0.967   0.130   3.537 -0.5124 -0.2284  1.9655
 2944SOL     OW20467   0.670   2.377  16.529  0.3836 -0.4692 -0.1694
 2944SOL    HW120468   0.589   2.359  16.577 -0.4116 -1.5476 -1.9183
 2944SOL    HW220469   0.683   2.471  16.543 -1.0457  0.0089 -2.0483
 2945SOL     OW20470   1.872   0.784   0.790 -0.0835  0.3779  0.2998
 2945SOL    HW120471   1.840   0.695   0.784 -0.3872  0.6815 -2.6794
 2945SOL    HW220472   1.799   0.831   0.830 -0.1180 -0.5493  1.2980
 2946SOL     OW20473   1.833   1.249   5.063  0.2533  0.2270  0.4952
 2946SOL    HW120474   1.761   1.226   5.122  0.7328  0.0823  1.0315
 2946SOL    HW220475   1.826   1.192   4.986  0.9398  0.8870 -0.0463
 2947SOL     OW20476   2.102   3.426   6.574 -0.1682  0.0880  0.3281
 2947SOL    HW120477   2.057   3.343   6.588  3.0251 -1.6231  0.6535
 2947SOL    HW220478   2.179   3.393   6.527  0.5705 -0.2943  1.8309
 2948SOL     OW20479   2.185   2.587   3.962  0.4180 -0.0258  0.2842
 2948SOL    HW120480   2.164   2.522   4.028  0.4449 -0.0845  0.2348
 2948SOL    HW220481   2.126   2.654   3.997  2.1349  2.8510 -2.3139
 2949SOL     OW20482   3.454   1.964   0.899 -0.3666 -0.8852  0.0390
 2949SOL    HW120483   3.374   2.015   0.886 -0.1069 -1.2889 -3.0978
 2949SOL    HW220484   3.459   1.967   0.995  1.5210  1.5188 -0.1229
 2950SOL     OW20485   3.507   1.640   2.784 -0.3019  0.7579 -0.2299
 2950SOL    HW120486   3.474   1.660   2.871  0.4355 -0.3479  0.2964
 2950SOL    HW220487   3.438   1.588   2.742 -1.8636  0.3627  2.8370
 2951SOL     OW20488   1.820   2.967   7.606 -0.1971  0.4369 -0.1146
 2951SOL    HW120489   1.831   3.049   7.558  0.8188  0.9576  1.0190
 2951SOL    HW220490   1.888   2.980   7.672 -0.0980 -0.0991 -0.1097
 2952SOL     OW20491   0.655   1.100  15.884  0.6156  0.0667  0.2607
 2952SOL    HW120492   0.619   1.144  15.807  1.0106  1.2374  0.7349
 2952SOL    HW220493   0.579   1.052  15.918  0.0718  0.5644 -0.2346
 2953SOL     OW20494   2.418   3.755   4.416  0.0365  0.8157 -0.5335
 2953SOL    HW120495   2.385   3.703   4.489 -1.0994  0.5651 -1.2240
 2953SOL    HW220496   2.511   3.734   4.409  0.0136  0.1355  1.1627
 2954SOL     OW20497   2.318   4.211  15.009  0.0253  0.0305  0.1809
 2954SOL    HW120498   2.229   4.237  14.984 -0.0790 -1.1569 -0.6872
 2954SOL    HW220499   2.353   4.211  14.920 -4.4012  1.0648 -1.5601
 2955SOL     OW20500   3.651   2.935   5.693  0.6264  0.0569  0.3445
 2955SOL    HW120501   3.730   2.933   5.746 -0.1097 -0.3142  1.4268
 2955SOL    HW220502   3.640   3.030   5.691 -0.8330 -0.1035  0.2557
 2956SOL     OW20503   0.411   1.399   8.148 -0.6549  0.0301 -0.0441
 2956SOL    HW120504   0.379   1.378   8.235 -2.8606 -3.0233 -1.5925
 2956SOL    HW220505   0.347   1.463   8.119 -1.3319 -0.5456  0.1734
 2957SOL     OW20506   3.514   0.805  12.632  0.2898 -0.3568 -0.2489
 2957SOL    HW120507   3.562   0.877  12.674 -0.4097  1.8515 -3.2639
 2957SOL    HW220508   3.582   0.745  12.602 -0.9907 -0.6487 -2.5676
 2958SOL     OW20509   3.567   1.287  15.261 -0.1951  0.2616 -0.4533
 2958SOL    HW120510   3.625   1.295  15.336 -3.3899  0.6661  1.9521
 2958SOL    HW220511   3.591   1.199  15.231  0.8873  0.8723 -1.3815
 2959SOL     OW20512   0.432   0.295   5.480 -0.3011 -0.1482  0.2235
 2959SOL    HW120513   0.366   0.227   5.470 -1.9247  1.2494  1.3122
 2959SOL    HW220514   0.473   0.290   5.393  0.1147  0.3505  0.3862
 2960SOL     OW20515   1.511   3.459  16.949 -0.7001 -0.5959  0.6628
 2960SOL    HW120516   1.549   3.546  16.946 -2.0843  0.0902  3.0339
 2960SOL    HW220517   1.573   3.420  16.888 -0.2519 -0.0224  0.7581
 2961SOL     OW20518   0.185   0.246   3.022 -0.3319  0.5188 -0.3450
 2961SOL    HW120519   0.187   0.278   3.113  3.5486  0.2287 -0.3384
 2961SOL    HW220520   0.279   0.239   3.009  0.1695  1.5544  2.5747
 2962SOL     OW20521   3.118   0.804   3.665  0.3006  0.9943 -0.0438
 2962SOL    HW120522   3.078   0.821   3.751 -0.2582  0.6113 -0.2250
 2962SOL    HW220523   3.054   0.751   3.618  1.4050  2.1689 -2.8837
 2963SOL     OW20524   0.458   1.656   8.652  0.3242 -0.1235 -0.4887
 2963SOL    HW120525   0.372   1.695   8.660  0.1218 -0.3066 -1.8182
 2963SOL    HW220526   0.483   1.617   8.736 -0.0693  0.2196 -0.2130
 2964SOL     OW20527   3.880   0.720  10.973  0.0511  0.2746 -0.4058
 2964SOL    HW120528   3.792   0.704  11.006  0.5541  0.1761  0.9124
 2964SOL    HW220529   3.889   0.814  10.985  1.6533 -0.3139  3.2109
 2965SOL     OW20530   2.107   3.847   8.092  0.0803  0.1684  0.0765
 2965SOL    HW120531   2.056   3.788   8.036  1.9527 -3.1673  1.8773
 2965SOL    HW220532   2.197   3.823   8.068  0.7057  1.8846  0.6908
 2966SOL     OW20533   3.395   3.078   1.178  0.1729  0.7208  0.1988
 2966SOL    HW120534   3.393   3.048   1.269  2.7155  2.4887  0.8508
 2966SOL    HW220535   3.303   3.081   1.154  0.2443  0.8118 -0.0651
 2967SOL     OW20536   1.822   4.454  15.738  0.1624 -0.1657  0.0518
 2967SOL    HW120537   1.823   4.413  15.825  2.1735 -1.1993 -0.4785
 2967SOL    HW220538   1.809   4.375  15.685 -0.4360  0.6797 -1.0627
 2968SOL     OW20539   2.176   3.126   5.350  0.0506  0.7140 -0.3106
 2968SOL    HW120540   2.116   3.154   5.420 -1.8231  0.8891 -1.9843
 2968SOL    HW220541   2.165   3.032   5.356 -1.0622  0.7502 -1.9406
 2969SOL     OW20542   4.293   4.062   8.998  1.1185  0.3619  0.0831
 2969SOL    HW120543   4.228   4.132   8.988  1.4692  0.9909  2.3781
 2969SOL    HW220544   4.376   4.104   9.019  0.5658  1.1626  0.6695
 2970SOL     OW20545   3.972   4.529   6.352 -0.1599 -0.0919  0.4623
 2970SOL    HW120546   4.058   4.562   6.380 -0.0364 -1.2953  1.5025
 2970SOL    HW220547   3.997   4.468   6.282 -3.3458 -1.7084  0.7312
 2971SOL     OW20548   2.311   0.989   9.095  0.3835  0.2258 -0.0166
 2971SOL    HW120549   2.250   1.042   9.044  0.9837  2.0510  1.1540
 2971SOL    HW220550   2.274   1.014   9.179 -1.9687  1.2334 -1.3774
 2972SOL     OW20551   4.463   2.003   2.458 -0.7164 -0.1354 -0.5623
 2972SOL    HW120552   4.483   2.086   2.415  0.5278 -0.3582 -0.3958
 2972SOL    HW220553   4.538   1.988   2.515 -0.3164  1.0879 -0.7803
 2973SOL     OW20554   3.940   0.613   7.504  0.1683  0.2196 -0.2943
 2973SOL    HW120555   3.907   0.543   7.449 -2.3190  0.7178  0.5477
 2973SOL    HW220556   3.963   0.673   7.433  0.8717 -1.0210 -1.1096
 2974SOL     OW20557   4.368   1.166   4.048  0.3730  0.0575 -0.1758
 2974SOL    HW120558   4.300   1.214   4.096 -1.2939  0.2605 -2.7413
 2974SOL    HW220559   4.382   1.222   3.971 -2.1018 -0.4057 -0.9833
 2975SOL     OW20560   0.053   1.198   5.000  0.1087 -0.5268  0.3898
 2975SOL    HW120561   0.140   1.172   5.031  0.2675 -0.8378 -0.3218
 2975SOL    HW220562   4.731   1.127   5.028  1.0456 -1.1697  0.7190
 2976SOL     OW20563   3.424   0.454   3.140 -0.3359  0.1759  0.4808
 2976SOL    HW120564   3.415   0.536   3.092  0.8034  0.1654  0.2453
 2976SOL    HW220565   3.519   0.452   3.153 -0.2086 -0.5333 -0.6040
 2977SOL     OW20566   2.430   0.272   7.818  0.5515 -0.5120 -0.1660
 2977SOL    HW120567   2.401   0.210   7.885  0.6248 -0.4709 -0.0959
 2977SOL    HW220568   2.445   0.215   7.742  2.0357 -2.1475  1.3575
 2978SOL     OW20569   4.552   1.659  16.601 -0.3893 -0.0819  0.2851
 2978SOL    HW120570   4.538   1.564  16.593  0.4371 -0.2734  1.0436
 2978SOL    HW220571   4.509   1.689  16.522 -0.5813 -2.0670 -0.3813
 2979SOL     OW20572   3.873   2.280   6.121  0.0253  0.0744  0.4894
 2979SOL    HW120573   3.804   2.215   6.134  1.1318 -0.9542  1.1236
 2979SOL    HW220574   3.813   2.354   6.130 -1.3808 -1.0680  0.4395
 2980SOL     OW20575   3.690   3.388   4.768 -0.5301  0.3441  0.6697
 2980SOL    HW120576   3.748   3.312   4.778 -1.1714 -0.1148  0.9163
 2980SOL    HW220577   3.748   3.464   4.759 -1.3777  0.8087 -0.8103
 2981SOL     OW20578   2.571   2.741   0.247  0.1362 -0.2124 -0.1160
 2981SOL    HW120579   2.521   2.821   0.233  0.5127  0.8864  4.7678
 2981SOL    HW220580   2.531   2.690   0.178 -0.3349 -1.3168  0.9830
 2982SOL     OW20581   0.782   1.433   0.349 -0.4960 -0.6075  0.7065
 2982SOL    HW120582   0.778   1.457   0.256 -0.7832  0.3611  0.9690
 2982SOL    HW220583   0.828   1.349   0.350  1.7610  0.6520  1.6253
 2983SOL     OW20584   4.573   3.255   1.432  0.1727 -0.0034  0.0046
 2983SOL    HW120585   4.589   3.295   1.347 -0.2426  0.2198  0.0362
 2983SOL    HW220586   4.501   3.203   1.398 -1.4296  1.7442  0.7760
 2984SOL     OW20587   3.095   2.369  11.824  0.1911 -0.4487  0.1115
 2984SOL    HW120588   3.079   2.279  11.798  0.3812 -0.7437  1.0111
 2984SOL    HW220589   3.036   2.381  11.899  1.4596 -0.0292  1.0347
 2985SOL     OW20590   2.423   4.165  13.247  0.5579 -0.8858  0.3789
 2985SOL    HW120591   2.339   4.148  13.205  1.1672  0.5210 -1.4107
 2985SOL    HW220592   2.474   4.185  13.168 -0.0567 -0.9934 -0.0410
 2986SOL     OW20593   3.868   3.525   5.298 -0.6125  0.0566  0.1474
 2986SOL    HW120594   3.894   3.600   5.351  0.1322 -0.0999  0.0094
 2986SOL    HW220595   3.867   3.571   5.214 -0.4848  0.8193  0.5694
 2987SOL     OW20596   3.252   0.227   5.523  0.0336 -0.4389 -0.0632
 2987SOL    HW120597   3.201   0.308   5.521  0.4928 -0.1650 -0.5751
 2987SOL    HW220598   3.196   0.177   5.582  0.2274  1.4511  1.7243
 2988SOL     OW20599   1.647   3.098   5.012  0.4890 -0.3300  0.2347
 2988SOL    HW120600   1.651   3.190   5.039 -1.9945 -0.1975  0.2213
 2988SOL    HW220601   1.557   3.078   5.040  0.1928  0.2485 -0.2898
 2989SOL     OW20602   0.237   3.986   2.056 -0.0106 -0.2954  0.2562
 2989SOL    HW120603   0.332   3.976   2.062  0.1243  0.1634 -1.0878
 2989SOL    HW220604   0.207   3.920   2.118 -1.5511  0.3066  0.1713
 2990SOL     OW20605   4.366   0.941   7.032 -0.0670 -0.0843 -0.3815
 2990SOL    HW120606   4.356   1.030   6.999 -2.8950 -0.9666 -1.9492
 2990SOL    HW220607   4.424   0.909   6.962  0.0112  0.9836 -0.7928
 2991SOL     OW20608   3.270   4.253   9.210  0.1117  0.0034  0.0714
 2991SOL    HW120609   3.235   4.237   9.122 -0.4581 -0.6613  0.4230
 2991SOL    HW220610   3.267   4.164   9.245 -2.3188  1.0238  2.3505
 2992SOL     OW20611   2.148   2.212  13.722 -0.0429 -0.0388  0.0777
 2992SOL    HW120612   2.059   2.179  13.705 -0.6249  1.4327  0.2782
 2992SOL    HW220613   2.197   2.130  13.715 -0.7769 -0.3097 -1.9982
 2993SOL     OW20614   3.669   1.278   3.763 -0.0023  0.4191  0.1686
 2993SOL    HW120615   3.743   1.242   3.813  1.7660  2.5082 -0.9770
 2993SOL    HW220616   3.706   1.289   3.676  2.4743 -0.3494  1.1071
 2994SOL     OW20617   3.379   3.698   6.445 -0.1327 -0.4100 -0.4739
 2994SOL    HW120618   3.381   3.769   6.380  2.4363 -2.0373 -2.1527
 2994SOL    HW220619   3.437   3.731   6.513 -0.7204 -1.4127  0.5045
 2995SOL     OW20620   4.273   2.352   7.331  0.0180  0.0093 -0.3942
 2995SOL    HW120621   4.313   2.369   7.416 -2.0612 -1.3627  0.8832
 2995SOL    HW220622   4.317   2.420   7.280 -0.4668  1.1295  0.6678
 2996SOL     OW20623   1.589   3.397  11.612 -0.1785 -0.6942  0.5689
 2996SOL    HW120624   1.547   3.311  11.616 -0.2599 -0.6614  0.4379
 2996SOL    HW220625   1.619   3.402  11.702  0.4359 -0.7380  0.3651
 2997SOL     OW20626   3.000   3.391   6.604  0.3614  0.2253  0.0913
 2997SOL    HW120627   3.078   3.350   6.644  0.9033  0.2840 -0.9089
 2997SOL    HW220628   3.000   3.482   6.632  0.0090  0.2339  0.0525
 2998SOL     OW20629   1.480   4.626  12.923  0.7840 -0.0060 -0.0545
 2998SOL    HW120630   1.404   4.683  12.937 -1.0259 -2.4826  0.2560
 2998SOL    HW220631   1.542   4.681  12.875 -1.2691  0.1436 -2.5907
 2999SOL     OW20632   1.486   1.296   1.708 -0.1526  0.0533  0.2542
 2999SOL    HW120633   1.483   1.252   1.793 -0.6127 -1.4525 -0.5386
 2999SOL    HW220634   1.395   1.313   1.683 -0.7693 -2.0768  1.0573
 3000SOL     OW20635   3.575   3.442  11.857 -0.1506 -0.6490  0.2793
 3000SOL    HW120636   3.494   3.435  11.907  1.0614  0.7460  2.4522
 3000SOL    HW220637   3.560   3.380  11.786 -2.0586  1.0229 -0.7777
 3001SOL     OW20638   2.488   4.566  12.628  0.1155 -0.1332 -0.2402
 3001SOL    HW120639   2.489   4.472  12.609 -1.3798 -0.4698  1.3484
 3001SOL    HW220640   2.416   4.599  12.574  0.5438 -0.7374 -1.1649
 3002SOL     OW20641   0.859   0.103   5.655 -0.2529 -0.1663  0.2583
 3002SOL    HW120642   0.812   0.036   5.704  1.0189  1.2853  3.4035
 3002SOL    HW220643   0.791   0.170   5.646  1.7973  1.8694  0.0553
 3003SOL     OW20644   2.181   4.544   7.259  0.4406 -0.6124  0.7101
 3003SOL    HW120645   2.099   4.588   7.237  0.7288 -0.6710 -0.4912
 3003SOL    HW220646   2.139   4.462   7.287  0.7685 -0.5870  1.2633
 3004SOL     OW20647   1.274   1.879  17.077  0.2561 -0.3231  0.6625
 3004SOL    HW120648   1.339   1.865  17.145  2.2915  1.1438 -0.9821
 3004SOL    HW220649   1.194   1.858  17.126 -0.6203  1.8713  0.2216
 3005SOL     OW20650   0.931   4.625   5.956  0.0613 -0.5153 -0.2592
 3005SOL    HW120651   1.023   4.635   5.930  0.9823 -3.2701  1.9216
 3005SOL    HW220652   0.947   4.633   6.050  0.3876  4.9224 -0.7728
 3006SOL     OW20653   4.096   0.211  13.252 -0.7821 -0.0339 -0.0434
 3006SOL    HW120654   4.054   0.240  13.172  0.5266 -0.8701 -1.0467
 3006SOL    HW220655   4.189   0.222  13.233 -0.4271 -0.4992  1.4061
 3007SOL     OW20656   1.539   1.731   8.746  0.2577  0.0459  0.5483
 3007SOL    HW120657   1.598   1.806   8.738  0.3831  0.1049  2.0927
 3007SOL    HW220658   1.513   1.713   8.655 -0.7441 -2.0075  1.2475
 3008SOL     OW20659   0.431   1.067   0.860  0.1589  0.4704 -0.6462
 3008SOL    HW120660   0.515   1.106   0.835  1.7481 -2.5144  0.0997
 3008SOL    HW220661   0.396   1.015   0.788 -3.8588  2.1215  0.1005
 3009SOL     OW20662   3.611   2.293  14.651  0.1191  0.1581 -0.2336
 3009SOL    HW120663   3.584   2.369  14.598  1.2981  1.7944  1.5110
 3009SOL    HW220664   3.635   2.225  14.589 -2.2192 -1.4219  0.6046
 3010SOL     OW20665   3.689   3.462  14.127 -0.4295  0.0184 -0.0174
 3010SOL    HW120666   3.732   3.378  14.146  0.4166  0.7489  1.3209
 3010SOL    HW220667   3.764   3.512  14.158 -0.5538 -1.3455  2.4897
 3011SOL     OW20668   1.301   0.601  17.533 -0.8888 -0.2988 -0.1370
 3011SOL    HW120669   1.283   0.679  17.480  0.1404 -1.9117 -2.8857
 3011SOL    HW220670   1.222   0.593  17.586 -0.0048 -0.5816  1.1356
 3012SOL     OW20671   3.216   1.198   8.914  0.3445 -0.0010  0.1513
 3012SOL    HW120672   3.230   1.251   8.993  1.5308  0.0712 -0.1099
 3012SOL    HW220673   3.132   1.227   8.880  1.1308 -0.0926 -1.8479
 3013SOL     OW20674   3.225   0.676   7.992 -0.1680 -0.5392 -0.0523
 3013SOL    HW120675   3.250   0.760   8.031  4.1997 -1.4862 -0.7811
 3013SOL    HW220676   3.210   0.700   7.900 -0.3523 -0.3348  0.0314
 3014SOL     OW20677   0.828   0.662   9.715  0.2681  0.3855  0.5248
 3014SOL    HW120678   0.828   0.614   9.632 -2.0694  2.7628 -0.8416
 3014SOL    HW220679   0.856   0.747   9.683  0.3253  0.4963  0.8757
 3015SOL     OW20680   2.342   3.118   2.882 -0.0267 -0.0408 -0.2223
 3015SOL    HW120681   2.337   3.147   2.973 -0.3080 -2.1108  0.4105
 3015SOL    HW220682   2.372   3.201   2.846 -0.3580  0.0745 -0.2310
 3016SOL     OW20683   2.993   1.682   7.572  0.0556  0.6484 -0.3701
 3016SOL    HW120684   2.953   1.595   7.580 -0.8240  0.7958 -3.5334
 3016SOL    HW220685   2.913   1.734   7.581  1.7218  2.9294  1.3218
 3017SOL     OW20686   3.813   1.798   1.027  0.3608  0.2288 -0.3297
 3017SOL    HW120687   3.739   1.750   1.064  0.1670 -0.0422 -1.0625
 3017SOL    HW220688   3.875   1.729   1.005 -1.7892 -2.2378  1.3778
 3018SOL     OW20689   0.951   4.523   6.635  0.1505  0.0756  0.0486
 3018SOL    HW120690   0.978   4.537   6.726 -0.1271 -1.8278  0.4114
 3018SOL    HW220691   1.018   4.459   6.613  0.9669  0.8098  0.3887
 3019SOL     OW20692   4.380   1.478   9.332  0.0919 -0.5801  0.2852
 3019SOL    HW120693   4.391   1.554   9.275  0.0415 -1.3784 -0.7838
 3019SOL    HW220694   4.467   1.440   9.338  0.5077  0.2084 -0.7107
 3020SOL     OW20695   4.339   3.559  10.364 -0.0800  0.2285  0.0965
 3020SOL    HW120696   4.399   3.605  10.305  0.1863  1.6802  1.4850
 3020SOL    HW220697   4.309   3.628  10.424 -1.3050  0.3849 -0.6825
 3021SOL     OW20698   1.363   1.626  16.000 -0.2479 -0.2543  0.0831
 3021SOL    HW120699   1.292   1.669  15.952  1.0684  0.2906 -1.3981
 3021SOL    HW220700   1.438   1.681  15.977  0.4141 -0.3476  2.0647
 3022SOL     OW20701   0.039   1.792   3.830  0.2193  0.2945 -0.2767
 3022SOL    HW120702   4.700   1.811   3.886 -0.0775  2.4170 -1.4077
 3022SOL    HW220703   0.007   1.828   3.747 -1.3090  1.9686  1.0282
 3023SOL     OW20704   0.463   2.911   3.514 -0.4614 -0.1989 -0.0539
 3023SOL    HW120705   0.393   2.875   3.459 -3.1254  1.8552  2.0090
 3023SOL    HW220706   0.507   2.830   3.537  1.3506  0.9499  0.5366
 3024SOL     OW20707   4.350   3.622   8.767  0.3370  0.3841 -0.5755
 3024SOL    HW120708   4.258   3.612   8.791  0.6472 -0.5744  0.2212
 3024SOL    HW220709   4.336   3.658   8.680  0.4691  1.4395 -0.1611
 3025SOL     OW20710   2.252   4.183   8.764 -0.5225 -0.4313  0.2700
 3025SOL    HW120711   2.346   4.164   8.764  0.2566  3.4500  1.2018
 3025SOL    HW220712   2.250   4.270   8.723  2.7860 -0.2978  0.4297
 3026SOL     OW20713   1.564   0.424   1.838  0.1471 -0.5220 -0.2935
 3026SOL    HW120714   1.501   0.457   1.773  0.0763 -0.6758 -0.3028
 3026SOL    HW220715   1.514   0.431   1.919  1.3848 -1.4089  0.5415
 3027SOL     OW20716   0.153   4.211   5.455  0.3453 -0.4130  0.3617
 3027SOL    HW120717   0.196   4.227   5.371 -0.9164 -1.3173 -0.4675
 3027SOL    HW220718   0.065   4.242   5.435  1.1396 -0.1005 -2.5782
 3028SOL     OW20719   3.357   0.871   7.015 -0.1285  0.2946  1.2397
 3028SOL    HW120720   3.359   0.826   6.931  2.2064  1.6740  0.5681
 3028SOL    HW220721   3.424   0.937   6.999  2.6211 -2.5935  0.8807
 3029SOL     OW20722   3.713   3.591   1.739  0.0181 -0.6256  0.3028
 3029SOL    HW120723   3.735   3.661   1.677  1.3005 -2.0047 -0.8114
 3029SOL    HW220724   3.707   3.517   1.678  0.1498  0.1211 -0.6102
 3030SOL     OW20725   3.234   1.595   0.458 -0.0561  0.0434  0.1544
 3030SOL    HW120726   3.238   1.676   0.509  0.3051 -0.9840  1.7698
 3030SOL    HW220727   3.264   1.620   0.370  0.5296  1.9097  0.8798
 3031SOL     OW20728   4.051   4.172  16.088  0.6638 -0.0370 -0.0609
 3031SOL    HW120729   4.128   4.167  16.031 -0.6645 -0.9024 -1.7573
 3031SOL    HW220730   3.974   4.167  16.032 -0.3769  0.6525  1.3103
 3032SOL     OW20731   1.132   3.051   5.213  0.2430  0.2440  0.2986
 3032SOL    HW120732   1.069   3.097   5.269  0.2510  1.9769 -1.1043
 3032SOL    HW220733   1.087   2.971   5.187 -1.2454  1.8540 -2.0413
 3033SOL     OW20734   1.404   3.739   2.181  0.6124  0.5579  0.2798
 3033SOL    HW120735   1.471   3.677   2.209  0.1865 -0.0015  0.0859
 3033SOL    HW220736   1.422   3.814   2.236 -0.8769  1.1422 -0.0346
 3034SOL     OW20737   3.009   3.346   7.681 -0.4776 -0.2140  0.3574
 3034SOL    HW120738   2.978   3.435   7.696  0.6320  0.4354 -1.1574
 3034SOL    HW220739   3.032   3.355   7.588 -2.1783  2.3060  0.1743
 3035SOL     OW20740   3.021   3.014   9.865  0.3907 -0.4211  0.0036
 3035SOL    HW120741   3.103   2.983   9.903  0.0563  0.5789  1.5257
 3035SOL    HW220742   3.028   2.996   9.771 -1.8032 -1.4893  0.0477
 3036SOL     OW20743   2.193   1.722  13.112  0.4342  0.3859  0.1940
 3036SOL    HW120744   2.200   1.689  13.022 -0.4577 -1.4383  0.8033
 3036SOL    HW220745   2.269   1.780  13.109  1.6214 -1.0932  1.2940
 3037SOL     OW20746   4.514   3.500   5.319  1.0425 -0.7839  0.5133
 3037SOL    HW120747   4.551   3.488   5.406  1.4782  0.0574  0.4410
 3037SOL    HW220748   4.494   3.593   5.318  1.5171 -0.6952 -0.4339
 3038SOL     OW20749   3.816   3.498  17.570  0.7080 -0.3714 -0.6754
 3038SOL    HW120750   3.759   3.434  17.529 -1.2708  0.4951  0.7353
 3038SOL    HW220751   3.826   3.564  17.502  0.4185  1.2147  0.8212
 3039SOL     OW20752   3.669   3.738   8.393  0.0243 -0.1431 -0.6040
 3039SOL    HW120753   3.749   3.763   8.439 -0.2479 -1.9824  0.8925
 3039SOL    HW220754   3.710   3.734   8.307 -1.1432  4.1425 -1.3728
 3040SOL     OW20755   3.249   0.825   4.788  0.3333  0.1055  0.5480
 3040SOL    HW120756   3.269   0.747   4.737 -2.8769 -0.7235  0.5633
 3040SOL    HW220757   3.327   0.829   4.844  0.5509  3.1437  0.0493
 3041SOL     OW20758   3.126   1.700  16.206 -0.0113  0.8403 -0.0870
 3041SOL    HW120759   3.062   1.651  16.154  0.9242  0.0718 -0.4943
 3041SOL    HW220760   3.108   1.659  16.290 -1.9407 -1.9120 -1.8559
 3042SOL     OW20761   1.614   0.059   5.848 -0.0481  0.6669  0.1398
 3042SOL    HW120762   1.567   4.715   5.825 -0.5959  1.3644 -1.1567
 3042SOL    HW220763   1.643   0.087   5.762 -1.3433  1.4272 -0.0503
 3043SOL     OW20764   3.626   3.988   9.339 -0.0689  0.1947 -0.0222
 3043SOL    HW120765   3.712   3.972   9.301 -0.3818  0.8062 -0.9877
 3043SOL    HW220766   3.646   4.042   9.416 -1.0998  0.5683 -0.0212
 3044SOL     OW20767   1.432   4.324   6.673 -0.4823 -0.1559 -0.0839
 3044SOL    HW120768   1.500   4.269   6.635 -1.0880 -0.7636 -0.2892
 3044SOL    HW220769   1.486   4.402   6.682 -1.4847  0.6382 -1.0142
 3045SOL     OW20770   1.342   0.447   9.464  0.4001  0.6999  0.8631
 3045SOL    HW120771   1.302   0.516   9.516  0.6252  1.5574 -0.1012
 3045SOL    HW220772   1.432   0.466   9.490  0.7826 -0.1068  0.1396
 3046SOL     OW20773   2.141   4.191   7.102  0.0883 -0.0947 -0.0673
 3046SOL    HW120774   2.061   4.241   7.117  0.7297  1.0799 -0.5781
 3046SOL    HW220775   2.172   4.227   7.019  0.9487 -0.6788 -0.0038
 3047SOL     OW20776   0.202   4.666   6.022  0.5409  0.4672  0.1925
 3047SOL    HW120777   0.278   4.714   6.055  1.8545 -1.8191  0.4745
 3047SOL    HW220778   0.137   4.708   6.077 -1.0259 -0.6830 -0.7871
 3048SOL     OW20779   4.440   1.484  10.845  0.2907 -0.6261 -0.6344
 3048SOL    HW120780   4.461   1.391  10.835 -1.6492 -1.5223  3.2315
 3048SOL    HW220781   4.429   1.509  10.754  2.5610 -0.0148 -0.7255
 3049SOL     OW20782   0.632   1.855   5.228  0.1331  0.5342 -0.2584
 3049SOL    HW120783   0.653   1.783   5.169  0.5236  1.5839 -1.3924
 3049SOL    HW220784   0.712   1.908   5.234  1.0792 -0.8956 -0.1945
 3050SOL     OW20785   2.844   1.087   5.443 -0.1082 -0.0199  0.1317
 3050SOL    HW120786   2.931   1.099   5.480  0.0681 -0.9642  0.0163
 3050SOL    HW220787   2.792   1.052   5.516  0.1790  0.8707  0.7596
 3051SOL     OW20788   3.533   2.674   9.808  0.3498 -0.4414  0.1557
 3051SOL    HW120789   3.556   2.607   9.743  2.9811  1.2219 -0.6537
 3051SOL    HW220790   3.532   2.620   9.887 -2.7538 -0.0470  0.3639
 3052SOL     OW20791   2.564   0.992   6.761  0.3434 -0.0998  0.5884
 3052SOL    HW120792   2.575   1.081   6.796 -1.1217  0.1972  0.2697
 3052SOL    HW220793   2.648   0.975   6.718 -0.1093 -2.8251  0.8069
 3053SOL     OW20794   3.275   1.121   2.561 -0.4750  0.0906 -0.5345
 3053SOL    HW120795   3.256   1.121   2.467 -0.6767  2.0743 -0.5015
 3053SOL    HW220796   3.192   1.096   2.602 -1.2408  2.4107 -0.6591
 3054SOL     OW20797   2.235   3.332  17.713 -0.4087  0.2274  0.3888
 3054SOL    HW120798   2.214   3.348  17.621  1.8912  2.5325  0.2573
 3054SOL    HW220799   2.316   3.383  17.720 -0.1679  0.0379 -1.0396
 3055SOL     OW20800   0.399   3.218   9.101 -0.1144 -0.0813 -0.3480
 3055SOL    HW120801   0.355   3.134   9.094 -0.7616  0.2528 -0.3188
 3055SOL    HW220802   0.454   3.223   9.023  1.5034  1.6842  0.8851
 3056SOL     OW20803   0.927   3.226  11.381  0.2896  0.0834  0.0502
 3056SOL    HW120804   1.003   3.248  11.435  0.7544  0.2405 -0.6640
 3056SOL    HW220805   0.955   3.135  11.369  2.1489  0.2921  2.6671
 3057SOL     OW20806   3.770   2.704  11.936 -0.2287 -0.0632 -0.0074
 3057SOL    HW120807   3.736   2.691  11.847 -3.4915  0.0797  1.2374
 3057SOL    HW220808   3.782   2.799  11.938  2.6378 -0.3999 -0.6759
 3058SOL     OW20809   2.740   2.738   9.019  0.3536  0.0160 -0.2558
 3058SOL    HW120810   2.758   2.809   9.080 -2.6839 -0.7443  1.5078
 3058SOL    HW220811   2.723   2.792   8.942 -0.7754  0.4263  0.2936
 3059SOL     OW20812   0.811   0.085   5.216  0.4600  0.2202  0.3280
 3059SOL    HW120813   0.831   0.158   5.274  0.9569  0.4931 -0.1815
 3059SOL    HW220814   0.719   0.105   5.197  1.2298  0.8635 -2.7268
 3060SOL     OW20815   4.719   2.414   2.477  0.0290  0.4106  0.3253
 3060SOL    HW120816   4.631   2.422   2.441  0.6407  1.9865 -0.8307
 3060SOL    HW220817   4.702   2.440   2.568  0.2573  0.7776  0.2655
 3061SOL     OW20818   4.208   1.293   4.929 -0.2227  0.8373  0.4428
 3061SOL    HW120819   4.112   1.287   4.930 -0.1362 -0.5952  0.5446
 3061SOL    HW220820   4.236   1.218   4.981  0.2435 -0.6925 -2.0067
 3062SOL     OW20821   0.295   0.761   5.522  0.4163  0.1012  0.2436
 3062SOL    HW120822   0.312   0.678   5.566  0.5553  0.9449  1.7784
 3062SOL    HW220823   0.378   0.807   5.535  0.5004  0.0321 -0.0374
 3063SOL     OW20824   3.531   4.476  10.629  0.1246  0.0187 -0.1631
 3063SOL    HW120825   3.444   4.479  10.589 -0.3347  1.2050  0.9324
 3063SOL    HW220826   3.561   4.566  10.636 -1.7264  0.6048  0.2020
 3064SOL     OW20827   3.151   3.851   8.891  0.0827 -0.8354 -0.4622
 3064SOL    HW120828   3.199   3.769   8.899  0.9001 -0.1459  1.7997
 3064SOL    HW220829   3.225   3.897   8.850 -1.5419  0.5994 -1.7874
 3065SOL     OW20830   2.591   4.337   4.002  0.0764  0.0170  0.1915
 3065SOL    HW120831   2.555   4.259   4.044 -0.9315 -0.2620 -1.2200
 3065SOL    HW220832   2.623   4.386   4.078 -0.8687  0.1706  0.4947
 3066SOL     OW20833   3.425   4.094   9.908 -0.1042  0.0687  0.0817
 3066SOL    HW120834   3.415   4.129   9.996  0.4015  0.3883  0.0140
 3066SOL    HW220835   3.370   4.160   9.864 -0.6030 -1.2572 -1.2861
 3067SOL     OW20836   0.878   3.397   8.358  0.2495 -0.0783 -0.4660
 3067SOL    HW120837   0.857   3.442   8.439  0.9230 -1.4028  0.4589
 3067SOL    HW220838   0.936   3.465   8.324 -0.0547  0.6560  0.4835
 3068SOL     OW20839   2.177   2.168   6.724  0.9509  0.3896 -0.2820
 3068SOL    HW120840   2.110   2.225   6.760 -1.3421 -1.7904 -1.1189
 3068SOL    HW220841   2.131   2.121   6.655  1.3369 -0.2075 -0.1362
 3069SOL     OW20842   1.097   2.122  14.088 -0.4069  0.1611  0.5662
 3069SOL    HW120843   1.020   2.165  14.051 -0.4896 -3.3249 -3.3343
 3069SOL    HW220844   1.148   2.201  14.102  0.7252 -0.3190 -0.8336
 3070SOL     OW20845   4.532   2.390   5.787 -0.3082 -0.0636  0.1184
 3070SOL    HW120846   4.502   2.394   5.696  2.2990  0.3278 -0.7257
 3070SOL    HW220847   4.469   2.443   5.835  0.2419  1.1057 -0.4700
 3071SOL     OW20848   1.659   1.242   6.425  0.3287  0.1236 -0.2451
 3071SOL    HW120849   1.638   1.151   6.446 -1.1028  0.8604  1.5689
 3071SOL    HW220850   1.737   1.246   6.479 -0.6459  0.3466  1.1564
 3072SOL     OW20851   4.375   1.252   4.431 -0.1352 -0.0431 -0.1981
 3072SOL    HW120852   4.357   1.272   4.523 -1.5277 -1.3171 -0.2055
 3072SOL    HW220853   4.355   1.158   4.434 -1.2530  0.1604 -1.2962
 3073SOL     OW20854   2.678   0.743   3.630  0.3771 -0.0730  0.0038
 3073SOL    HW120855   2.614   0.697   3.575 -1.9760  0.5873  2.2119
 3073SOL    HW220856   2.688   0.823   3.578  2.3084 -0.4429 -0.1939
 3074SOL     OW20857   1.118   3.604   6.133 -0.1496 -0.0301 -0.9643
 3074SOL    HW120858   1.196   3.637   6.088 -0.4936  1.2247 -0.6246
 3074SOL    HW220859   1.057   3.597   6.060 -0.0823 -0.0326 -1.0204
 3075SOL     OW20860   4.636   0.619   5.738 -0.2135 -0.4722 -0.3704
 3075SOL    HW120861   4.685   0.660   5.809  0.3468  0.8916 -1.5649
 3075SOL    HW220862   4.585   0.558   5.792  1.7727 -1.2281  0.6228
 3076SOL     OW20863   2.500   2.511   7.787 -0.2697  0.0651  0.8583
 3076SOL    HW120864   2.536   2.490   7.873  0.1311 -0.1186  0.6456
 3076SOL    HW220865   2.575   2.489   7.732  1.2147 -0.4015  3.0662
 3077SOL     OW20866   2.848   0.437   9.497  0.4590 -0.0621  0.2082
 3077SOL    HW120867   2.868   0.343   9.501  0.0205 -0.1385  0.6129
 3077SOL    HW220868   2.931   0.480   9.476 -0.4348  2.5192  2.0286
 3078SOL     OW20869   2.968   1.213  14.140  0.4848  0.0771 -0.9004
 3078SOL    HW120870   2.940   1.122  14.143  0.8778 -0.0004  0.2538
 3078SOL    HW220871   2.926   1.245  14.060 -1.0257  0.2864 -0.0315
 3079SOL     OW20872   3.442   0.877   4.984  0.1293  0.4055 -0.1064
 3079SOL    HW120873   3.455   0.955   4.930 -1.1078  0.9266  0.3356
 3079SOL    HW220874   3.488   0.889   5.067 -0.8574 -1.1255  0.6738
 3080SOL     OW20875   0.169   3.093   1.859  0.3277 -0.2674  0.6693
 3080SOL    HW120876   0.096   3.061   1.807 -1.5987 -0.2553  3.3967
 3080SOL    HW220877   0.182   3.031   1.931  2.3512  0.6270  1.0819
 3081SOL     OW20878   3.600   3.322   3.633  0.2726 -0.5476  0.4678
 3081SOL    HW120879   3.583   3.251   3.695 -0.8302 -0.3112  0.4336
 3081SOL    HW220880   3.514   3.338   3.594  0.9679  2.9488  0.4248
 3082SOL     OW20881   1.645   4.531  13.112  0.1359 -0.0638 -0.2106
 3082SOL    HW120882   1.630   4.560  13.202 -2.5264 -0.1382 -0.6374
 3082SOL    HW220883   1.574   4.567  13.058 -0.9781 -0.7309  0.8374
 3083SOL     OW20884   2.061   2.553   3.719  0.0845 -0.1713 -0.0315
 3083SOL    HW120885   2.092   2.513   3.800  2.1690 -0.1188 -0.8029
 3083SOL    HW220886   2.086   2.491   3.651  1.1525  2.1544 -1.7780
 3084SOL     OW20887   2.512   3.051   3.318  0.7226 -0.1127  0.1183
 3084SOL    HW120888   2.500   2.994   3.393  1.5204 -1.5755 -0.8504
 3084SOL    HW220889   2.585   3.109   3.340 -0.9746  1.6748  1.0192
 3085SOL     OW20890   4.015   0.757   7.300  0.0412 -0.4453 -0.3672
 3085SOL    HW120891   3.945   0.799   7.250  0.5233  0.2536 -0.4506
 3085SOL    HW220892   4.070   0.731   7.227 -0.7256 -1.0105 -0.7492
 3086SOL     OW20893   0.932   2.973  11.213 -0.1905  0.0962 -0.0417
 3086SOL    HW120894   1.018   3.016  11.207 -0.0730 -0.4912 -2.5857
 3086SOL    HW220895   0.955   2.881  11.199 -2.8133 -0.4129 -0.8723
 3087SOL     OW20896   4.401   3.505  11.567  0.0407 -0.1068 -0.4364
 3087SOL    HW120897   4.342   3.482  11.638 -0.8773  1.4030 -0.6993
 3087SOL    HW220898   4.485   3.479  11.606 -0.4694 -1.5562 -0.3327
 3088SOL     OW20899   2.950   2.989  10.863  0.2838  0.4331  0.1437
 3088SOL    HW120900   2.978   2.904  10.828 -0.4267 -0.0383  0.7122
 3088SOL    HW220901   3.034   3.033  10.878  1.5317 -1.7659 -0.2352
 3089SOL     OW20902   3.693   2.304   2.292  0.1626  0.1727 -0.0462
 3089SOL    HW120903   3.633   2.375   2.272  1.6739  1.3271 -0.4865
 3089SOL    HW220904   3.679   2.276   2.383  0.6198  0.5450  0.1371
 3090SOL     OW20905   3.075   1.402  14.309  0.1097  0.3701  0.5095
 3090SOL    HW120906   3.049   1.331  14.251 -0.6685  0.2193  1.0376
 3090SOL    HW220907   3.012   1.465  14.273 -0.2945  0.5535  1.5368
 3091SOL     OW20908   2.622   4.062   7.486  0.5902  0.1840 -0.1705
 3091SOL    HW120909   2.548   4.002   7.489 -1.6392  2.7478 -2.9461
 3091SOL    HW220910   2.696   4.020   7.528  0.5568 -0.1649 -0.4598
 3092SOL     OW20911   3.203   4.325   2.605 -0.1792 -0.3647 -0.3869
 3092SOL    HW120912   3.218   4.310   2.511 -2.2898 -0.5747 -0.7019
 3092SOL    HW220913   3.127   4.382   2.587  0.9579  1.6219  1.0964
 3093SOL     OW20914   3.608   2.853  14.056 -0.2471  0.6002 -0.2157
 3093SOL    HW120915   3.674   2.787  14.078  0.2916  1.6892  1.4846
 3093SOL    HW220916   3.620   2.855  13.961  0.1924  1.2379 -0.1439
 3094SOL     OW20917   4.664   1.548   0.505 -0.5022 -0.1616 -0.4962
 3094SOL    HW120918   4.602   1.502   0.449 -1.6572 -0.7347  1.2247
 3094SOL    HW220919   4.639   1.526   0.595  1.1646  0.8616  0.2261
 3095SOL     OW20920   0.736   0.221   2.471  0.2186 -0.8353  0.0364
 3095SOL    HW120921   0.688   0.278   2.412 -0.1146  0.1964  1.3095
 3095SOL    HW220922   0.790   0.274   2.529  0.9688  0.3693 -1.7990
 3096SOL     OW20923   0.960   4.522   5.312  0.0583  0.2938 -0.4383
 3096SOL    HW120924   1.033   4.574   5.278 -2.1843  3.2085 -0.8250
 3096SOL    HW220925   0.941   4.465   5.238  0.7902  1.1791 -1.3195
 3097SOL     OW20926   3.384   4.003   8.708 -0.1810 -0.1643 -0.8030
 3097SOL    HW120927   3.462   4.015   8.761  0.5815 -0.1837 -1.9100
 3097SOL    HW220928   3.370   4.093   8.680 -0.1796  0.2636  0.5920
 3098SOL     OW20929   2.394   1.433   6.654 -0.1730  0.4322  0.5467
 3098SOL    HW120930   2.415   1.392   6.571  0.6794 -0.6025  1.2735
 3098SOL    HW220931   2.481   1.430   6.693  2.0784  0.0481 -4.6354
 3099SOL     OW20932   2.898   2.686   6.993  0.4239 -0.3886 -0.0436
 3099SOL    HW120933   2.964   2.620   6.972  0.7369 -0.6818  1.8832
 3099SOL    HW220934   2.914   2.756   6.929 -0.2084  0.3209  0.5774
 3100SOL     OW20935   4.348   2.343   4.633  0.2376  0.1127  0.3887
 3100SOL    HW120936   4.277   2.390   4.676  0.1037  0.6082 -0.3815
 3100SOL    HW220937   4.311   2.255   4.644 -2.8201  0.9470 -3.2291
 3101SOL     OW20938   4.072   0.377  12.274  0.4844 -0.5086 -0.6700
 3101SOL    HW120939   3.997   0.318  12.284  0.0454  0.1792  0.1152
 3101SOL    HW220940   4.074   0.389  12.179  3.5030  0.9658 -0.3988
 3102SOL     OW20941   1.625   1.984   9.257  0.2139  0.0293 -0.4504
 3102SOL    HW120942   1.585   2.064   9.291 -0.1860 -1.4123  2.4713
 3102SOL    HW220943   1.711   1.996   9.298  0.6504 -1.6570 -0.8782
 3103SOL     OW20944   3.602   2.939   7.888 -0.4864 -0.2794 -0.1505
 3103SOL    HW120945   3.532   2.874   7.895 -1.6639  0.8862 -1.3086
 3103SOL    HW220946   3.583   2.992   7.966 -0.1908 -0.4555  0.0435
 3104SOL     OW20947   3.821   3.272   7.714 -0.2287  0.4435 -0.3251
 3104SOL    HW120948   3.737   3.318   7.713  0.0748  1.0007 -0.0559
 3104SOL    HW220949   3.810   3.223   7.632  0.4772 -0.4899  0.1361
 3105SOL     OW20950   3.215   1.039   9.763 -0.2942  0.0963 -0.2609
 3105SOL    HW120951   3.143   1.001   9.813 -1.8035 -1.4636 -3.6427
 3105SOL    HW220952   3.249   0.982   9.694 -0.5294  0.1560 -0.4248
 3106SOL     OW20953   0.756   0.658   2.841  0.9125  0.7507 -0.1257
 3106SOL    HW120954   0.667   0.633   2.818  1.9466 -1.2367 -1.9916
 3106SOL    HW220955   0.804   0.628   2.764  0.8131 -1.5460  0.7077
 3107SOL     OW20956   4.543   2.545   8.100 -0.1683  0.1130 -0.0404
 3107SOL    HW120957   4.633   2.526   8.073  1.0566  0.6014  3.6803
 3107SOL    HW220958   4.514   2.614   8.041  2.4887 -0.3636 -1.9203
 3108SOL     OW20959   2.236   4.681  12.826  0.4445  0.0650  0.2346
 3108SOL    HW120960   2.219   4.678  12.732 -1.6440  1.1981  0.5801
 3108SOL    HW220961   2.226   0.038  12.844  1.4644  0.0769  0.7300
 3109SOL     OW20962   4.062   1.097   4.457  0.1226 -0.1391 -0.3603
 3109SOL    HW120963   4.059   1.001   4.458  1.3603 -0.1296  2.5166
 3109SOL    HW220964   4.038   1.099   4.364 -1.3469  0.5901  0.0285
 3110SOL     OW20965   1.383   3.592   1.239 -0.2860  0.2123 -0.0148
 3110SOL    HW120966   1.423   3.631   1.316  0.1117  0.6085 -0.4189
 3110SOL    HW220967   1.419   3.503   1.243 -1.2212 -0.1027  1.0590
 3111SOL     OW20968   0.414   0.713   8.742  0.4114  0.1490  0.2268
 3111SOL    HW120969   0.412   0.626   8.702  0.1677  0.7864 -1.1744
 3111SOL    HW220970   0.324   0.739   8.720  0.5319 -1.3345 -2.0327
 3112SOL     OW20971   1.680   2.569   0.014 -0.6349  0.1072  0.0712
 3112SOL    HW120972   1.720   2.536   0.094  2.0284  1.6058 -0.6357
 3112SOL    HW220973   1.644   2.656   0.034 -2.0046 -0.4225 -0.0911
 3113SOL     OW20974   1.429   0.495  15.914  0.1325 -0.1041 -0.7117
 3113SOL    HW120975   1.446   0.461  15.826 -0.1240  1.2400 -1.2792
 3113SOL    HW220976   1.460   0.417  15.961 -0.3935  0.3077  0.3276
 3114SOL     OW20977   2.166   1.650   8.405 -0.3275  0.0083 -0.6080
 3114SOL    HW120978   2.115   1.703   8.466  2.7755  0.8094  1.3116
 3114SOL    HW220979   2.118   1.671   8.325 -0.5326  0.1037 -0.4594
 3115SOL     OW20980   4.337   2.789   3.843  0.0207  0.5684 -0.0308
 3115SOL    HW120981   4.335   2.732   3.766  1.0691  1.7272 -0.8999
 3115SOL    HW220982   4.393   2.856   3.804 -0.4589  1.2058  0.3792
 3116SOL     OW20983   2.506   4.172  11.993  0.0247  0.4678 -0.0831
 3116SOL    HW120984   2.494   4.128  12.077  0.7682 -4.4768 -2.5567
 3116SOL    HW220985   2.598   4.156  11.971 -0.5727 -3.7944  0.4590
 3117SOL     OW20986   1.026   0.264   6.312  0.1655  0.5746 -0.5709
 3117SOL    HW120987   1.020   0.170   6.328  1.0004  0.9497  1.9445
 3117SOL    HW220988   0.947   0.300   6.351 -0.6723 -0.1670 -1.5779
 3118SOL     OW20989   2.377   2.517   7.027 -0.4935  0.2557 -0.0478
 3118SOL    HW120990   2.430   2.482   7.098  1.9229  2.3547 -0.8474
 3118SOL    HW220991   2.365   2.441   6.969 -2.1191 -1.9220  3.1483
 3119SOL     OW20992   1.559   3.476   9.500  0.6250 -0.6938  0.3796
 3119SOL    HW120993   1.566   3.405   9.437  1.6816 -0.4193  0.1928
 3119SOL    HW220994   1.608   3.434   9.570  2.3109  1.1486  0.2926
 3120SOL     OW20995   4.399   0.983  10.673 -0.3970  0.2308 -0.1400
 3120SOL    HW120996   4.378   0.978  10.580 -0.8794 -0.8379  0.0174
 3120SOL    HW220997   4.469   0.917  10.675 -1.3073 -0.7376 -0.0027
 3121SOL     OW20998   0.234   3.263   5.060  0.3581 -0.0078  0.3287
 3121SOL    HW120999   0.227   3.208   5.139  0.5650 -2.4260 -1.3224
 3121SOL    HW221000   0.302   3.209   5.019 -0.1031  0.1551 -0.6436
 3122SOL     OW21001   0.428   0.799   9.016 -0.3669 -0.4041 -0.0824
 3122SOL    HW121002   0.358   0.787   8.952  0.1761 -2.4670 -0.2732
 3122SOL    HW221003   0.480   0.721   8.999  1.8926  0.9629  0.5282
 3123SOL     OW21004   2.902   0.707   7.843  0.0543  0.0007 -0.5260
 3123SOL    HW121005   2.865   0.688   7.930 -0.0413 -3.7502 -1.4077
 3123SOL    HW221006   2.823   0.732   7.795 -0.5643 -1.2145 -0.1476
 3124SOL     OW21007   4.643   1.007   8.891 -0.1569 -0.2927  0.5826
 3124SOL    HW121008   4.547   0.998   8.894 -0.1832 -0.4784 -0.5151
 3124SOL    HW221009   4.660   1.090   8.847 -2.7628  0.3995  0.8460
 3125SOL     OW21010   0.647   1.824   3.922  0.0134 -0.1089  0.0996
 3125SOL    HW121011   0.715   1.798   3.860 -0.5088 -1.8657  0.2678
 3125SOL    HW221012   0.640   1.747   3.979 -1.1113 -1.5487 -1.9801
 3126SOL     OW21013   0.960   1.457  14.737 -0.1351  0.1742 -0.3754
 3126SOL    HW121014   1.027   1.503  14.686 -1.0200  0.8202 -0.9541
 3126SOL    HW221015   0.953   1.518  14.810 -1.6698 -0.8664  0.3408
 3127SOL     OW21016   0.404   4.272  15.295  0.4473 -0.4096 -0.3029
 3127SOL    HW121017   0.375   4.360  15.269  2.0399  0.8916  2.3554
 3127SOL    HW221018   0.390   4.269  15.389 -0.2803 -0.2658 -0.4081
 3128SOL     OW21019   0.892   3.586  13.070 -0.0410  0.2279  0.1012
 3128SOL    HW121020   0.844   3.508  13.041  0.4763  0.5915 -1.6787
 3128SOL    HW221021   0.909   3.630  12.987 -1.0997 -0.1574 -0.3160
 3129SOL     OW21022   2.429   3.897   4.709 -0.5974 -0.2736  0.0914
 3129SOL    HW121023   2.401   3.941   4.789  0.8093  1.5533 -0.4178
 3129SOL    HW221024   2.340   3.875   4.681 -0.8882  0.9382  0.0421
 3130SOL     OW21025   4.403   2.664   3.616  0.1399 -0.1638  0.1721
 3130SOL    HW121026   4.324   2.694   3.571  1.7793 -1.0946 -3.3543
 3130SOL    HW221027   4.389   2.570   3.601  3.5786 -0.5245 -0.8222
 3131SOL     OW21028   1.422   4.460  14.887 -0.0321  0.3403  0.1468
 3131SOL    HW121029   1.418   4.454  14.792  0.6257 -0.9320  0.2008
 3131SOL    HW221030   1.380   4.546  14.895  2.5117  1.5099  0.9551
 3132SOL     OW21031   2.756   0.078   5.959  0.1086  0.6228 -0.4215
 3132SOL    HW121032   2.705   4.734   5.967 -2.6476  2.1012 -3.2218
 3132SOL    HW221033   2.748   0.110   6.049  1.0244  1.5769 -0.6744
 3133SOL     OW21034   4.006   2.773  11.073  0.5755  0.5287  0.3356
 3133SOL    HW121035   4.013   2.801  11.165 -0.7712 -0.8524  0.8593
 3133SOL    HW221036   4.077   2.830  11.043  0.3466 -0.4397 -2.0110
 3134SOL     OW21037   2.053   2.511   8.225 -0.0600 -0.0197 -0.1904
 3134SOL    HW121038   2.024   2.432   8.271 -1.8224  0.5546 -0.2925
 3134SOL    HW221039   2.148   2.504   8.235 -0.1327  1.8809  1.8135
 3135SOL     OW21040   1.187   2.562   5.196 -0.5176  0.2937 -0.0369
 3135SOL    HW121041   1.221   2.648   5.220 -0.9632 -0.7696  4.4176
 3135SOL    HW221042   1.233   2.526   5.120 -0.2211 -0.2609  0.4039
 3136SOL     OW21043   1.719   3.235   2.862 -0.3164 -0.0005  0.4355
 3136SOL    HW121044   1.735   3.150   2.821  0.9850  0.0943  0.7368
 3136SOL    HW221045   1.745   3.220   2.953  2.3673 -0.5883 -0.4234
 3137SOL     OW21046   4.420   3.789   8.043  0.1080  0.1183  0.0443
 3137SOL    HW121047   4.500   3.766   7.996 -0.5105 -0.5735 -0.6664
 3137SOL    HW221048   4.382   3.701   8.049  0.3635  0.0741  1.0265
 3138SOL     OW21049   1.065   3.451  13.252 -0.4608 -0.6050 -0.7455
 3138SOL    HW121050   1.025   3.485  13.172  0.6185 -0.5978 -1.2874
 3138SOL    HW221051   1.051   3.514  13.323 -1.1822 -1.2071 -0.3537
 3139SOL     OW21052   0.644   0.691  12.620 -0.6147 -0.1605 -0.4583
 3139SOL    HW121053   0.709   0.654  12.560 -1.3573  1.3573 -2.2035
 3139SOL    HW221054   0.574   0.718  12.561 -1.2071 -1.2073 -0.2270
 3140SOL     OW21055   3.525   2.539   7.963 -0.2714  0.1849 -0.2128
 3140SOL    HW121056   3.507   2.509   7.874  0.4388  0.9967 -0.6261
 3140SOL    HW221057   3.578   2.470   8.002  0.9234  0.8619 -0.6377
 3141SOL     OW21058   2.892   1.589   6.067  0.7352 -0.3590 -0.2705
 3141SOL    HW121059   2.832   1.560   5.999  1.0096 -1.6807  0.0496
 3141SOL    HW221060   2.840   1.587   6.147  0.4213 -1.2255 -0.5033
 3142SOL     OW21061   1.449   4.354  15.636 -0.4775  0.5556  0.8969
 3142SOL    HW121062   1.438   4.370  15.542  3.5049  0.5322  0.4609
 3142SOL    HW221063   1.369   4.309  15.666 -0.5065  0.7066  1.0447
 3143SOL     OW21064   2.760   2.534   5.855 -0.0562  0.3330  1.0218
 3143SOL    HW121065   2.703   2.590   5.907  0.5455 -0.5434  2.6155
 3143SOL    HW221066   2.700   2.537   5.780  0.1244 -0.7867  0.8265
 3144SOL     OW21067   1.067   3.178   4.767 -0.4980 -0.1362 -0.2855
 3144SOL    HW121068   1.123   3.152   4.694 -0.8258 -1.3936 -0.0965
 3144SOL    HW221069   1.050   3.094   4.809  1.3120  0.4073  1.5716
 3145SOL     OW21070   3.271   2.676  12.049  0.4971  0.4854 -0.1999
 3145SOL    HW121071   3.216   2.610  12.091  0.5898  2.2663  2.7780
 3145SOL    HW221072   3.209   2.737  12.010 -1.9665 -0.8363  1.6559
 3146SOL     OW21073   3.068   3.342   7.155 -0.3368  0.2442 -0.3884
 3146SOL    HW121074   3.157   3.341   7.121  0.9475  0.3279  3.0416
 3146SOL    HW221075   3.035   3.427   7.126 -0.4393  0.7379  1.2132
 3147SOL     OW21076   3.727   0.823  10.109  0.1625 -0.0591 -0.1676
 3147SOL    HW121077   3.709   0.879  10.033 -2.1771 -0.2911  0.2180
 3147SOL    HW221078   3.809   0.866  10.132 -0.3731  1.5689 -1.2351
 3148SOL     OW21079   1.012   0.498   0.800 -0.5299  0.2292  0.5832
 3148SOL    HW121080   0.953   0.478   0.873  0.9507 -2.0983  1.1328
 3148SOL    HW221081   0.943   0.533   0.744 -0.4210  3.3811  2.3836
 3149SOL     OW21082   4.387   4.130   2.737  0.3643  0.6059 -0.2528
 3149SOL    HW121083   4.305   4.119   2.690 -0.0429  2.6323 -0.0439
 3149SOL    HW221084   4.400   4.222   2.712  1.7637  0.6802  0.7341
 3150SOL     OW21085   0.445   4.548  11.509 -0.3648 -0.3850 -0.0322
 3150SOL    HW121086   0.512   4.615  11.522 -0.4903 -0.4843  1.1572
 3150SOL    HW221087   0.365   4.598  11.492  0.1905  0.0933 -1.2669
 3151SOL     OW21088   3.650   1.054   9.949  0.0254  0.0028 -0.4662
 3151SOL    HW121089   3.698   1.132   9.977  1.9441 -1.1555 -0.4822
 3151SOL    HW221090   3.612   1.082   9.866  1.2034  0.3175 -0.9026
 3152SOL     OW21091   4.608   1.615   7.501 -0.7103 -0.0055 -0.3092
 3152SOL    HW121092   4.527   1.666   7.508 -0.3741  0.6017 -0.8541
 3152SOL    HW221093   4.671   1.686   7.490 -0.8681  0.0454 -0.8923
 3153SOL     OW21094   4.138   4.149   2.586 -0.1078  0.0806  0.5665
 3153SOL    HW121095   4.053   4.106   2.598  1.6746 -2.7356  3.2158
 3153SOL    HW221096   4.110   4.231   2.547  0.5425  0.0684  0.0687
 3154SOL     OW21097   1.084   0.074   4.067 -0.3103 -0.1588 -0.1906
 3154SOL    HW121098   1.115   0.017   3.996  0.2718 -1.5579  1.1860
 3154SOL    HW221099   0.990   0.066   4.053 -0.4366 -1.1001  1.2007
 3155SOL     OW21100   2.205   3.224   8.581 -0.3518  0.0831  0.2005
 3155SOL    HW121101   2.260   3.146   8.583 -0.8960 -0.3142 -0.4760
 3155SOL    HW221102   2.244   3.283   8.646 -1.0202  1.0370 -0.2578
 3156SOL     OW21103   4.063   3.814   6.617  0.0621 -0.1480  0.0937
 3156SOL    HW121104   3.988   3.755   6.614  1.6967 -2.1613 -1.0830
 3156SOL    HW221105   4.023   3.901   6.617  0.6508  0.1271  1.4742
 3157SOL     OW21106   0.738   0.172  16.813  0.1162 -0.2127 -0.0613
 3157SOL    HW121107   0.717   0.116  16.737  1.0068 -0.1296 -0.3619
 3157SOL    HW221108   0.817   0.131  16.848  0.8686  0.2745 -1.1818
 3158SOL     OW21109   0.833   4.172  16.514  0.1141  0.5008 -0.0246
 3158SOL    HW121110   0.784   4.097  16.481  2.4092 -0.9726 -0.1086
 3158SOL    HW221111   0.797   4.233  16.450 -0.6122 -1.7107 -1.7210
 3159SOL     OW21112   1.743   1.243   9.259 -0.4618  0.4584 -0.3645
 3159SOL    HW121113   1.758   1.155   9.223  0.6234  0.7892 -0.7211
 3159SOL    HW221114   1.801   1.230   9.334  0.1988 -0.4028 -1.0211
 3160SOL     OW21115   0.171   1.809   4.201 -0.0050 -0.0587 -0.0314
 3160SOL    HW121116   0.196   1.717   4.211 -0.6736  0.0010  2.1183
 3160SOL    HW221117   0.075   1.812   4.202 -0.0416 -1.2939 -0.1267
 3161SOL     OW21118   0.762   1.567   7.405  0.0716  0.1158 -0.6254
 3161SOL    HW121119   0.707   1.643   7.421 -1.1002 -0.9917  0.6322
 3161SOL    HW221120   0.837   1.617   7.372  0.7767 -0.4289  0.1388
 3162SOL     OW21121   0.773   1.581   6.294  0.0157 -0.1542  0.2843
 3162SOL    HW121122   0.695   1.536   6.263  1.0181 -1.4054 -0.3748
 3162SOL    HW221123   0.723   1.644   6.347  2.6859 -0.4890  3.1902
 3163SOL     OW21124   0.279   0.437   8.225 -0.1025 -0.2967  0.6789
 3163SOL    HW121125   0.285   0.350   8.264 -1.3585 -0.7470 -0.1236
 3163SOL    HW221126   0.302   0.412   8.135  1.6318 -0.9823  1.3063
 3164SOL     OW21127   3.892   1.209  11.330 -0.9031  0.2843 -0.5893
 3164SOL    HW121128   3.934   1.288  11.296  0.7313 -0.1132  0.5097
 3164SOL    HW221129   3.821   1.238  11.387  0.1209 -0.8907  1.2534
 3165SOL     OW21130   2.662   3.217   0.598  0.1040 -0.0938  0.1617
 3165SOL    HW121131   2.669   3.306   0.633  1.2649  0.4375 -1.4184
 3165SOL    HW221132   2.755   3.205   0.577 -0.2693  1.1678 -2.2625
 3166SOL     OW21133   0.692   0.794   6.280 -0.8762 -0.6698 -0.1717
 3166SOL    HW121134   0.606   0.814   6.244 -2.4906  0.2863  4.1834
 3166SOL    HW221135   0.693   0.698   6.285 -1.7630 -0.5947  1.3522
 3167SOL     OW21136   1.092   2.930   5.986  0.3856 -0.3635 -0.0028
 3167SOL    HW121137   1.114   3.018   6.016  0.6975 -0.9861  1.6338
 3167SOL    HW221138   1.159   2.879   6.032 -0.5779  0.4151  2.2901
 3168SOL     OW21139   0.212   2.307   7.175 -0.0423  0.1738  0.0733
 3168SOL    HW121140   0.266   2.244   7.127  1.4305 -1.5424  3.9755
 3168SOL    HW221141   0.264   2.320   7.255 -1.5649 -0.2548  1.1315
 3169SOL     OW21142   3.461   3.120  11.049  0.3104  0.0387 -0.0370
 3169SOL    HW121143   3.523   3.075  11.106  0.5141  0.1344 -0.1838
 3169SOL    HW221144   3.381   3.069  11.063  0.9639 -0.9518  0.0955
 3170SOL     OW21145   2.983   3.951   3.587  0.3609  0.3304 -0.0866
 3170SOL    HW121146   2.921   3.996   3.530  1.2302  0.4919 -0.8927
 3170SOL    HW221147   3.043   3.914   3.522  2.2487  1.9907  0.7084
 3171SOL     OW21148   2.518   3.547   7.584 -0.2232 -1.0398 -0.0805
 3171SOL    HW121149   2.546   3.466   7.627  0.6668 -0.0394  1.2405
 3171SOL    HW221150   2.460   3.511   7.517 -0.0867  1.8369 -1.7234
 3172SOL     OW21151   0.710   2.656  15.034  0.1697  1.1629  0.3325
 3172SOL    HW121152   0.636   2.686  14.981  0.1354  1.0501  0.3160
 3172SOL    HW221153   0.780   2.624  14.977  0.4718  0.4672  1.0875
 3173SOL     OW21154   0.533   2.305   5.958  0.2016  0.5168 -0.0848
 3173SOL    HW121155   0.438   2.318   5.954 -0.2941 -2.2890  2.6787
 3173SOL    HW221156   0.538   2.229   5.901 -1.1204 -0.2104  0.7629
 3174SOL     OW21157   1.330   4.012   5.186 -0.2198  0.0768  0.2323
 3174SOL    HW121158   1.406   3.962   5.217  1.7228  1.5121 -2.1650
 3174SOL    HW221159   1.357   4.027   5.095 -1.5138 -0.3656 -0.2283
 3175SOL     OW21160   4.322   4.073   3.000  0.0273 -0.3240 -0.2452
 3175SOL    HW121161   4.332   4.090   2.906 -0.1930 -0.0378 -0.2156
 3175SOL    HW221162   4.258   4.142   3.017 -0.8253 -1.6159  1.7700
 3176SOL     OW21163   3.938   2.509   2.458  0.4283 -0.0698  0.3697
 3176SOL    HW121164   3.856   2.558   2.465 -0.1638 -1.0545  0.3980
 3176SOL    HW221165   3.984   2.550   2.531  1.0686  3.2309 -1.8932
 3177SOL     OW21166   3.006   2.014   1.049 -0.6590 -0.7599  0.3014
 3177SOL    HW121167   2.997   1.986   1.140  0.4080 -2.9637 -0.2716
 3177SOL    HW221168   2.943   2.086   1.041  0.9862  0.8710  1.9262
 3178SOL     OW21169   2.813   4.081   4.956  0.0878 -0.3729 -0.2094
 3178SOL    HW121170   2.808   4.028   4.877 -0.9444  0.6415 -0.8128
 3178SOL    HW221171   2.778   4.165   4.927 -0.9038 -0.9518 -0.6754
 3179SOL     OW21172   4.007   3.080  10.901  0.5876  0.3115  0.0668
 3179SOL    HW121173   4.040   3.124  10.979 -1.1129 -0.1523  1.0539
 3179SOL    HW221174   4.064   3.004  10.898  0.4913  0.2089  0.7994
 3180SOL     OW21175   3.711   2.655   5.690 -0.3906 -0.1555  0.4797
 3180SOL    HW121176   3.681   2.745   5.682  1.8761  0.4132 -1.3661
 3180SOL    HW221177   3.692   2.641   5.783  0.3900  1.6821  0.9196
 3181SOL     OW21178   3.997   1.166   1.488 -0.4760  0.3529  0.3009
 3181SOL    HW121179   3.908   1.135   1.472  0.2499 -3.1911  3.1197
 3181SOL    HW221180   4.042   1.083   1.504 -1.9732 -0.1020  2.1730
 3182SOL     OW21181   3.590   0.465   3.388 -0.0939  0.5763  0.5718
 3182SOL    HW121182   3.575   0.520   3.311 -0.0921 -1.7279 -1.0692
 3182SOL    HW221183   3.601   0.535   3.453  0.5916 -1.1006  2.2650
 3183SOL     OW21184   3.461   3.389   6.587 -0.7548  0.0015 -0.6220
 3183SOL    HW121185   3.461   3.405   6.493 -0.2358 -2.0085 -0.9607
 3183SOL    HW221186   3.508   3.307   6.599  0.7671  1.0354  0.4794
 3184SOL     OW21187   1.452   1.255   9.273  0.4940  0.0639  0.0170
 3184SOL    HW121188   1.547   1.250   9.272  0.4684 -0.7384  1.9716
 3184SOL    HW221189   1.442   1.350   9.267 -0.8917  0.0222  1.6153
 3185SOL     OW21190   1.275   4.109   2.005  0.3450 -0.2018 -0.0396
 3185SOL    HW121191   1.217   4.116   2.081  2.7490 -0.0075  1.7592
 3185SOL    HW221192   1.220   4.046   1.958  0.0796 -1.5470  2.0655
 3186SOL     OW21193   2.532   3.299   3.739 -0.2250  0.0936 -0.5826
 3186SOL    HW121194   2.547   3.316   3.645  0.4926 -0.1100 -0.5051
 3186SOL    HW221195   2.620   3.324   3.768 -0.5153 -1.1939  1.4174
 3187SOL     OW21196   1.793   3.606   5.430 -0.2547 -0.3655 -0.5083
 3187SOL    HW121197   1.798   3.688   5.380  2.4007  0.4784  1.1604
 3187SOL    HW221198   1.730   3.628   5.498  0.6446  0.0086  0.2056
 3188SOL     OW21199   1.935   3.967   7.517 -0.3027  0.2890  0.2513
 3188SOL    HW121200   1.998   3.980   7.445  0.1862 -0.9512  0.4623
 3188SOL    HW221201   1.893   3.888   7.483  2.2338  0.5574 -3.5081
 3189SOL     OW21202   3.130   0.469   5.502  0.3395 -0.0597 -0.0819
 3189SOL    HW121203   3.155   0.545   5.450 -0.6791  0.8303  0.7289
 3189SOL    HW221204   3.046   0.453   5.461  0.0830 -0.8257  0.7518
 3190SOL     OW21205   0.717   0.880   5.742 -0.3306  0.1880  0.3394
 3190SOL    HW121206   0.707   0.944   5.813  0.4788  0.8110 -0.0964
 3190SOL    HW221207   0.711   0.805   5.800 -1.8175  0.7033  0.8369
 3191SOL     OW21208   1.339   4.605   8.018 -0.3105  0.5205  0.1234
 3191SOL    HW121209   1.414   4.649   8.058  0.7716  0.3003 -1.6729
 3191SOL    HW221210   1.344   4.632   7.926  2.1588 -0.9410 -0.1676
 3192SOL     OW21211   4.681   0.391   3.746 -0.1093  0.1101  0.1078
 3192SOL    HW121212   4.692   0.350   3.832  0.4629 -0.7276 -0.3625
 3192SOL    HW221213   4.637   0.324   3.693  1.2727 -0.4983 -0.2752
 3193SOL     OW21214   3.340   0.950  11.508  0.0967 -0.5071  0.0565
 3193SOL    HW121215   3.264   0.901  11.540 -0.6862 -1.0277 -2.6386
 3193SOL    HW221216   3.380   0.895  11.442  1.5469 -1.0432  1.3721
 3194SOL     OW21217   3.092   3.708   3.132 -0.2029  0.1349  0.2853
 3194SOL    HW121218   3.086   3.773   3.202  2.1171 -0.4082  0.9692
 3194SOL    HW221219   3.135   3.762   3.066 -0.5733 -1.1246 -0.9979
 3195SOL     OW21220   3.396   0.216   9.323  0.1390  0.4955  0.7369
 3195SOL    HW121221   3.326   0.256   9.375  0.6971 -0.2083  2.0376
 3195SOL    HW221222   3.377   0.256   9.238  1.7512  1.3338  0.7643
 3196SOL     OW21223   1.620   2.408   9.111 -0.5039  0.3391 -0.4153
 3196SOL    HW121224   1.550   2.406   9.046 -0.6304 -2.0520 -0.1943
 3196SOL    HW221225   1.641   2.501   9.114 -0.1522  0.1989  1.5274
 3197SOL     OW21226   1.689   0.368   8.858  0.5185  0.2296 -0.3392
 3197SOL    HW121227   1.599   0.399   8.853  0.0776 -1.2370 -1.4418
 3197SOL    HW221228   1.676   0.275   8.880  0.6290  0.4162  0.4980
 3198SOL     OW21229   1.528   1.638  11.265  0.0298 -0.0444 -0.2223
 3198SOL    HW121230   1.470   1.565  11.245 -0.8493  0.8179 -0.8666
 3198SOL    HW221231   1.522   1.641  11.360  0.5982 -1.1129 -0.1622
 3199SOL     OW21232   4.690   1.264   6.330  0.2447 -0.4126 -0.5631
 3199SOL    HW121233   4.662   1.181   6.290 -1.1331  0.0357 -0.5368
 3199SOL    HW221234   4.667   1.330   6.264  1.8115  0.5863 -0.1177
 3200SOL     OW21235   0.529   4.386  10.849 -0.2325 -0.1865  0.2907
 3200SOL    HW121236   0.466   4.328  10.890 -0.5722  1.1904  1.7087
 3200SOL    HW221237   0.463   4.454  10.839  0.3255  0.0171 -2.1329
 3201SOL     OW21238   1.096   1.783   0.324  0.2430  0.1058 -0.0365
 3201SOL    HW121239   1.017   1.732   0.343 -0.2069 -0.1795 -2.7107
 3201SOL    HW221240   1.099   1.843   0.398 -0.6506 -0.9464  0.8615
 3202SOL     OW21241   1.701   1.858   4.603 -0.1061 -0.9814 -0.2462
 3202SOL    HW121242   1.705   1.950   4.574  0.5753 -0.4714  1.4799
 3202SOL    HW221243   1.795   1.844   4.604  0.1055  0.1648 -2.0807
 3203SOL     OW21244   2.526   4.164   3.491  0.1819  0.7910  0.4905
 3203SOL    HW121245   2.431   4.167   3.505  0.0481  0.8805 -0.4547
 3203SOL    HW221246   2.542   4.230   3.559 -0.9590  2.3615 -0.7516
 3204SOL     OW21247   4.257   1.640  11.605  0.0248  0.2163 -0.6124
 3204SOL    HW121248   4.225   1.559  11.565 -2.1535  1.7423 -1.9499
 3204SOL    HW221249   4.171   1.670  11.635 -0.7816 -2.1218 -0.6107
 3205SOL     OW21250   2.359   4.174   8.375  0.0942 -0.1847  0.2542
 3205SOL    HW121251   2.371   4.265   8.400 -3.1719  0.8015 -1.7293
 3205SOL    HW221252   2.368   4.169   8.280  0.4600 -1.8787  0.3771
 3206SOL     OW21253   1.799   0.278  15.833 -0.8270  0.1194  0.2527
 3206SOL    HW121254   1.773   0.240  15.917  0.5929 -1.1506  0.1213
 3206SOL    HW221255   1.810   0.372  15.847  0.5774  0.0154 -0.1190
 3207SOL     OW21256   1.173   0.873   4.291 -0.4072 -0.2999  0.3650
 3207SOL    HW121257   1.150   0.795   4.341 -2.0261  1.3957  2.2550
 3207SOL    HW221258   1.126   0.855   4.209  1.5657  0.1279 -0.8480
 3208SOL     OW21259   2.633   3.324   7.760  0.1140 -0.3395  0.0844
 3208SOL    HW121260   2.694   3.307   7.688 -2.1271 -0.8748 -1.7152
 3208SOL    HW221261   2.585   3.241   7.762 -0.6500 -0.0336 -4.6824
 3209SOL     OW21262   1.851   3.483   6.024  0.2537  0.2373 -0.4260
 3209SOL    HW121263   1.935   3.466   6.067  0.6993  0.6592 -1.1199
 3209SOL    HW221264   1.860   3.577   6.006  0.1454  0.5865  1.3026
 3210SOL     OW21265   4.316   3.694   9.081 -0.3784  0.6343 -0.3536
 3210SOL    HW121266   4.226   3.721   9.103 -1.3282 -1.3944 -1.7846
 3210SOL    HW221267   4.304   3.601   9.062 -0.1228  0.7207 -0.9161
 3211SOL     OW21268   1.376   1.248   7.313  0.0574 -0.2145 -0.2596
 3211SOL    HW121269   1.289   1.241   7.352  0.5385 -0.8799  0.7005
 3211SOL    HW221270   1.415   1.323   7.358 -0.2803 -0.2753  0.1358
 3212SOL     OW21271   0.494   2.032   3.519 -0.2476  0.0300  0.0167
 3212SOL    HW121272   0.516   2.046   3.611  2.1953 -1.7774 -0.3082
 3212SOL    HW221273   0.454   1.945   3.523 -0.0853 -0.0670 -0.4888
 3213SOL     OW21274   2.442   1.400   5.926 -0.1547 -0.8470 -0.6604
 3213SOL    HW121275   2.416   1.343   5.998  0.6254  0.6210  0.7927
 3213SOL    HW221276   2.403   1.361   5.849  0.0835  0.8369 -1.6386
 3214SOL     OW21277   3.756   4.371   2.409  0.1825 -0.4161  0.4976
 3214SOL    HW121278   3.663   4.374   2.383 -0.4816 -1.4817  2.8139
 3214SOL    HW221279   3.758   4.447   2.467 -1.6700 -0.4821  0.6581
 3215SOL     OW21280   3.524   2.206   6.490  0.2788  0.1381  0.2109
 3215SOL    HW121281   3.493   2.290   6.523 -3.3202  0.5518 -4.1510
 3215SOL    HW221282   3.594   2.187   6.552  0.8390  0.6227 -0.2715
 3216SOL     OW21283   4.081   2.886   6.040 -0.6569 -0.3256 -0.0509
 3216SOL    HW121284   4.093   2.795   6.012  0.7961 -0.1659  0.0851
 3216SOL    HW221285   4.172   2.910   6.055 -0.3018 -1.4679 -0.3820
 3217SOL     OW21286   0.334   1.700   6.832 -0.0090 -0.1065  0.1264
 3217SOL    HW121287   0.413   1.655   6.804  0.5676  1.4910 -0.7523
 3217SOL    HW221288   0.275   1.624   6.828  0.3080 -0.3345 -0.1201
 3218SOL     OW21289   2.373   0.747  15.423 -0.2127  0.3487 -0.5203
 3218SOL    HW121290   2.363   0.659  15.387 -0.8385  0.3930 -0.4658
 3218SOL    HW221291   2.421   0.723  15.501  1.7336 -0.9616 -2.1135
 3219SOL     OW21292   2.888   3.913   8.812 -0.7153 -0.0794  0.2786
 3219SOL    HW121293   2.888   4.002   8.848 -0.4549  1.0311 -2.5385
 3219SOL    HW221294   2.970   3.873   8.842 -0.7500  0.6827  1.3980
 3220SOL     OW21295   0.951   2.867   9.422  0.2387  0.8458 -0.2202
 3220SOL    HW121296   1.004   2.947   9.428  1.5376  0.0667 -1.3762
 3220SOL    HW221297   0.926   2.856   9.514  1.2796 -0.6002 -0.1094
 3221SOL     OW21298   3.261   2.167  16.332 -0.2709  0.2074 -0.2074
 3221SOL    HW121299   3.301   2.194  16.249 -0.0046  1.1111  0.2198
 3221SOL    HW221300   3.242   2.251  16.373  0.8123  0.3596 -0.0329
 3222SOL     OW21301   0.609   2.558   5.980  0.5268 -0.3069 -0.0465
 3222SOL    HW121302   0.571   2.470   5.987  0.3434 -0.1132  1.4098
 3222SOL    HW221303   0.607   2.552   5.885  2.7472  2.6354 -0.2534
 3223SOL     OW21304   0.834   1.330  16.534  0.2287 -0.0976 -0.0185
 3223SOL    HW121305   0.823   1.236  16.550  1.3887 -0.3741 -0.8254
 3223SOL    HW221306   0.829   1.332  16.439  1.9939 -1.3453 -0.1439
 3224SOL     OW21307   0.222   3.547   8.368 -0.0535 -0.1764 -0.3752
 3224SOL    HW121308   0.305   3.589   8.342  0.0572 -2.0557 -3.0938
 3224SOL    HW221309   0.212   3.590   8.453 -2.1645  0.3117 -0.8686
 3225SOL     OW21310   0.068   2.832  14.569  0.1886  0.4058  0.2426
 3225SOL    HW121311   0.084   2.912  14.518 -1.5807  0.1845 -0.6591
 3225SOL    HW221312   4.710   2.842  14.581 -0.0959 -0.5140 -1.1561
 3226SOL     OW21313   3.823   4.043   7.706 -0.1851 -0.0176 -0.1969
 3226SOL    HW121314   3.916   4.057   7.690 -0.5578 -0.4946 -2.7878
 3226SOL    HW221315   3.787   4.126   7.677  2.0690  0.7506 -0.8065
 3227SOL     OW21316   1.422   0.924  14.652  0.2101 -0.2699 -0.2165
 3227SOL    HW121317   1.377   0.841  14.634  1.0563 -0.2960 -2.1792
 3227SOL    HW221318   1.421   0.927  14.748 -2.9331 -0.2816 -0.2292
 3228SOL     OW21319   0.676   0.582   2.465 -0.5751  0.1610 -0.4755
 3228SOL    HW121320   0.668   0.601   2.371 -0.3336 -0.7091 -0.6804
 3228SOL    HW221321   0.583   0.592   2.484 -0.5019  1.7565 -0.9306
 3229SOL     OW21322   0.402   4.110  12.048  0.7267  0.0402  1.2056
 3229SOL    HW121323   0.340   4.071  12.109 -1.0677 -0.0526 -0.7002
 3229SOL    HW221324   0.338   4.155  11.994  2.4050 -0.1893 -0.9656
 3230SOL     OW21325   0.193   4.117   3.251 -0.2431  0.1872 -0.5921
 3230SOL    HW121326   0.185   4.200   3.204  0.2041  0.7342  0.2778
 3230SOL    HW221327   0.175   4.049   3.186 -0.6841 -0.3859  0.1342
 3231SOL     OW21328   2.084   0.711   0.615  0.1438 -0.1863 -0.1659
 3231SOL    HW121329   2.155   0.672   0.665  1.4437  0.7374 -1.3094
 3231SOL    HW221330   2.063   0.783   0.675  0.4997 -1.1718  1.1403
 3232SOL     OW21331   4.586   2.984   9.097 -0.2411 -0.1701  0.2713
 3232SOL    HW121332   4.587   3.070   9.139 -2.1274 -0.4255  0.8393
 3232SOL    HW221333   4.514   3.005   9.037 -0.7092 -0.3936  0.7514
 3233SOL     OW21334   2.157   3.878   5.588 -0.0088  0.1396 -0.2354
 3233SOL    HW121335   2.085   3.853   5.531  0.6258 -1.3962 -0.3532
 3233SOL    HW221336   2.194   3.957   5.548 -0.3813  0.3238 -0.2152
 3234SOL     OW21337   1.114   3.172   6.126  0.1625  0.3505  0.9301
 3234SOL    HW121338   1.168   3.162   6.204  0.3463 -0.1023  0.7463
 3234SOL    HW221339   1.067   3.254   6.141 -1.4239 -0.3513 -0.1507
 3235SOL     OW21340   0.516   4.218  14.349 -0.2385  0.3990  0.1339
 3235SOL    HW121341   0.444   4.241  14.291 -0.0396 -0.5392 -0.4874
 3235SOL    HW221342   0.586   4.256  14.295  0.4871  0.4364  1.1109
 3236SOL     OW21343   3.336   0.292  15.301  0.5732  0.3436  0.4886
 3236SOL    HW121344   3.422   0.275  15.263  0.0138 -0.5344 -0.3810
 3236SOL    HW221345   3.281   0.290  15.223 -0.1490 -1.0820  1.0275
 3237SOL     OW21346   1.810   3.492   4.482 -0.3899  0.0857 -0.1438
 3237SOL    HW121347   1.785   3.516   4.392 -0.0775  2.6712  0.4493
 3237SOL    HW221348   1.885   3.550   4.491  0.1147 -0.1810 -2.5768
 3238SOL     OW21349   0.305   2.606  11.643 -0.7619 -0.0443  0.2351
 3238SOL    HW121350   0.303   2.698  11.670 -0.6185 -0.0604  0.3057
 3238SOL    HW221351   0.370   2.577  11.708 -2.3474 -2.2787  0.7992
 3239SOL     OW21352   1.131   3.014   3.972  0.1095  0.6425  0.1760
 3239SOL    HW121353   1.130   3.087   4.034 -0.9288  1.1966 -0.4926
 3239SOL    HW221354   1.152   3.061   3.891 -0.3827 -0.8507 -0.8059
 3240SOL     OW21355   0.044   0.551   8.230 -0.4717 -0.9021 -0.9731
 3240SOL    HW121356   0.125   0.509   8.258 -0.0825  0.3996 -0.1738
 3240SOL    HW221357   0.075   0.579   8.144  1.0199 -0.2700 -0.2353
 3241SOL     OW21358   3.432   3.344   7.333 -0.6589  0.6935 -0.2205
 3241SOL    HW121359   3.476   3.365   7.250  3.1384 -1.5074  1.2546
 3241SOL    HW221360   3.450   3.429   7.372  0.6465  0.3043  0.0140
 3242SOL     OW21361   0.327   2.630   7.297 -0.1916  0.1818 -0.3226
 3242SOL    HW121362   0.290   2.682   7.226  1.3888 -0.9119 -1.9523
 3242SOL    HW221363   0.408   2.596   7.259 -0.8683 -1.1773 -0.5450
 3243SOL     OW21364   1.927   2.066  14.067  0.0634 -0.2767 -0.1395
 3243SOL    HW121365   1.845   2.040  14.025 -0.3657 -1.1220  1.2259
 3243SOL    HW221366   1.906   2.053  14.159 -0.6827 -1.4496 -0.4735
 3244SOL     OW21367   0.791   2.471   2.428  0.3143 -0.1905  0.2132
 3244SOL    HW121368   0.758   2.445   2.342  3.1404  2.1667 -1.5924
 3244SOL    HW221369   0.820   2.392   2.473  1.5873  0.1254 -0.0691
 3245SOL     OW21370   3.876   1.494   9.884 -0.3815  0.1538  0.5187
 3245SOL    HW121371   3.857   1.568   9.827  2.0363 -0.2731 -0.8251
 3245SOL    HW221372   3.906   1.434   9.816  1.6496  1.0575  0.6187
 3246SOL     OW21373   3.402   0.791  12.899  0.3291 -0.4462  0.1080
 3246SOL    HW121374   3.425   0.809  12.808 -0.3972  0.5780  0.1350
 3246SOL    HW221375   3.478   0.734  12.911  0.7760  0.4390  1.5013
 3247SOL     OW21376   4.627   2.508   2.751 -0.1899  0.2219  0.2989
 3247SOL    HW121377   4.612   2.414   2.763 -1.3431  0.4484  0.5748
 3247SOL    HW221378   4.711   2.518   2.796 -0.6853 -1.1882  1.5449
 3248SOL     OW21379   3.394   1.895   5.414  0.1254  0.0608  0.6287
 3248SOL    HW121380   3.410   1.958   5.344  0.2029 -0.9024 -0.2169
 3248SOL    HW221381   3.482   1.896   5.451  1.5085 -1.9207 -2.6429
 3249SOL     OW21382   0.988   1.713   6.432 -0.4197  0.3935  0.6565
 3249SOL    HW121383   0.925   1.707   6.503 -2.9157  1.9628 -1.4223
 3249SOL    HW221384   0.945   1.662   6.363  1.2132 -1.8470  1.2971
 3250SOL     OW21385   4.636   3.483   9.749 -0.4036  0.6282  0.2539
 3250SOL    HW121386   4.634   3.413   9.815 -1.8164  0.4425  0.0020
 3250SOL    HW221387   4.600   3.441   9.671  0.7312  0.5911 -0.2456
 3251SOL     OW21388   1.478   2.377   7.887 -0.3377 -1.0765  0.3880
 3251SOL    HW121389   1.565   2.373   7.847 -0.8338  1.5174 -0.8974
 3251SOL    HW221390   1.491   2.400   7.979  0.2935  2.2469 -0.5537
 3252SOL     OW21391   1.457   2.863  17.520  0.0631 -0.1156 -0.3058
 3252SOL    HW121392   1.443   2.885  17.427  0.6599 -0.0654 -0.3832
 3252SOL    HW221393   1.547   2.830  17.518  0.5702  1.2330  0.3349
 3253SOL     OW21394   1.160   1.213   8.158 -0.3382  0.0774 -0.9760
 3253SOL    HW121395   1.105   1.292   8.154 -0.5749 -0.0635 -0.5008
 3253SOL    HW221396   1.110   1.156   8.100 -0.7580 -1.8852  1.3299
 3254SOL     OW21397   1.078   0.787   7.349  0.7273 -0.1250  0.5534
 3254SOL    HW121398   1.127   0.775   7.430 -0.5745 -1.9145  1.0808
 3254SOL    HW221399   1.060   0.881   7.349  1.7913  0.0723 -2.1135
 3255SOL     OW21400   1.365   1.251   4.037 -0.2377 -0.3703  0.2941
 3255SOL    HW121401   1.280   1.211   4.054  0.0517 -0.6858  0.9848
 3255SOL    HW221402   1.425   1.205   4.096  1.1532  1.8929  0.6208
 3256SOL     OW21403   3.285   4.293   7.487  0.2673 -0.6258  0.2151
 3256SOL    HW121404   3.289   4.347   7.407 -0.8821 -2.8875 -1.3518
 3256SOL    HW221405   3.191   4.285   7.500  0.3785 -1.1556  0.6775
 3257SOL     OW21406   3.464   1.512   6.426  0.5935 -0.2081 -0.3661
 3257SOL    HW121407   3.540   1.457   6.410  0.2840 -0.3957 -1.1579
 3257SOL    HW221408   3.396   1.474   6.371  0.3545 -1.4471  0.7981
 3258SOL     OW21409   0.705   2.285   1.558  0.1104  0.6012 -0.4369
 3258SOL    HW121410   0.643   2.212   1.554  1.8494 -0.9011 -0.1793
 3258SOL    HW221411   0.766   2.259   1.488 -1.1788 -0.2422 -1.2489
 3259SOL     OW21412   2.617   3.210   8.277  0.3655  0.0942  0.6357
 3259SOL    HW121413   2.549   3.156   8.237  0.9371 -1.3365  1.6026
 3259SOL    HW221414   2.575   3.295   8.260 -2.0668 -1.1913  0.1823
 3260SOL     OW21415   2.403   3.657   3.494 -0.7677  0.0270 -0.3138
 3260SOL    HW121416   2.397   3.592   3.564  1.3239  1.8987  1.5732
 3260SOL    HW221417   2.329   3.717   3.507 -1.8799 -1.7789  1.8218
 3261SOL     OW21418   4.196   1.096   1.947 -0.0364 -0.3480  0.4491
 3261SOL    HW121419   4.150   1.012   1.954  0.3951 -0.7143 -0.9805
 3261SOL    HW221420   4.122   1.154   1.932  1.0548  1.4668  2.0323
 3262SOL     OW21421   0.564   2.148  11.885  0.4890  0.2732  0.2157
 3262SOL    HW121422   0.583   2.128  11.977  0.2110 -1.0482 -0.0077
 3262SOL    HW221423   0.617   2.227  11.877 -1.4306  1.5237 -0.2347
 3263SOL     OW21424   0.725   4.029  10.204 -0.0951  0.2374  0.2221
 3263SOL    HW121425   0.677   4.030  10.287  2.0444 -0.1323  1.4666
 3263SOL    HW221426   0.650   4.033  10.145 -0.6923 -0.6769  0.9107
 3264SOL     OW21427   1.066   1.147   9.160 -0.0385 -0.3526 -0.0877
 3264SOL    HW121428   1.109   1.066   9.132 -1.5030 -0.9482 -0.6219
 3264SOL    HW221429   1.088   1.213   9.095  3.1147 -0.2750  1.0843
 3265SOL     OW21430   1.084   2.352   7.339  0.3065  0.2527 -0.8401
 3265SOL    HW121431   1.000   2.310   7.320  0.7829 -0.9735 -0.2909
 3265SOL    HW221432   1.154   2.292   7.312 -0.1968 -0.7727  0.1328
 3266SOL     OW21433   3.080   2.449  11.496 -0.1312  0.6184 -0.1220
 3266SOL    HW121434   3.049   2.368  11.456 -1.8781  1.0775  0.2899
 3266SOL    HW221435   3.114   2.425  11.582  1.4994  0.9310 -0.6898
 3267SOL     OW21436   0.434   2.299   6.523  0.0797  0.0645 -0.1688
 3267SOL    HW121437   0.507   2.285   6.462  0.4150  1.4686 -0.0970
 3267SOL    HW221438   0.468   2.236   6.586  0.1132 -2.8325 -3.0544
 3268SOL     OW21439   1.516   2.230   0.422  0.4395 -0.4389 -0.3765
 3268SOL    HW121440   1.476   2.260   0.341  0.1905  0.5509  0.1182
 3268SOL    HW221441   1.607   2.245   0.395  0.3871  1.6574  0.6005
 3269SOL     OW21442   0.738   0.718   8.322 -0.2120 -0.0078 -0.1404
 3269SOL    HW121443   0.723   0.790   8.261 -0.1814 -0.3975 -0.6119
 3269SOL    HW221444   0.653   0.675   8.331  0.3283 -0.4306  2.9184
 3270SOL     OW21445   3.000   3.523   5.836  0.6370 -0.2005  0.1788
 3270SOL    HW121446   2.939   3.455   5.807  0.8531  0.2407 -1.3209
 3270SOL    HW221447   3.073   3.467   5.864  0.1953  0.1435  2.0152
 3271SOL     OW21448   3.402   2.998   1.455  0.8361  0.6070  0.0062
 3271SOL    HW121449   3.344   3.039   1.519  0.7957 -2.3843  1.8658
 3271SOL    HW221450   3.353   2.918   1.435  0.1246  1.5394 -2.0256
 3272SOL     OW21451   3.856   0.422   3.533 -0.2044  0.1254  0.4535
 3272SOL    HW121452   3.868   0.507   3.575  1.7645  1.1416 -2.1243
 3272SOL    HW221453   3.798   0.431   3.458  0.7346 -0.2560 -0.3227
 3273SOL     OW21454   0.008   4.200   4.778 -0.7083 -0.5477 -0.1394
 3273SOL    HW121455   0.083   4.251   4.808 -0.8004 -0.4435 -0.0845
 3273SOL    HW221456   0.045   4.143   4.710  0.7358  0.0844  0.1322
 3274SOL     OW21457   3.013   0.928   9.930 -0.0657 -0.2225  0.3937
 3274SOL    HW121458   2.934   0.976   9.956 -1.5899 -2.7755  0.3936
 3274SOL    HW221459   3.049   0.919  10.018  2.5278 -0.2870 -0.6679
 3275SOL     OW21460   0.018   4.639   8.948 -0.2144  0.1578  0.4814
 3275SOL    HW121461   4.663   4.665   8.947  0.0866  1.2705  2.1668
 3275SOL    HW221462   0.012   4.564   9.007  1.0887 -0.7068 -0.4697
 3276SOL     OW21463   0.513   1.470  11.993 -0.1312  0.1514 -0.3818
 3276SOL    HW121464   0.429   1.490  11.952 -0.1583 -0.8148 -0.7913
 3276SOL    HW221465   0.522   1.377  11.972 -0.9668  0.0221 -0.1578
 3277SOL     OW21466   0.924   1.651  14.932 -0.2688  0.3278  0.1896
 3277SOL    HW121467   0.868   1.683  15.003 -0.0237 -0.7802  0.8929
 3277SOL    HW221468   0.923   1.721  14.867 -0.1221  1.0511  0.9849
 3278SOL     OW21469   3.828   1.365   2.137 -0.3342 -0.4842 -0.1676
 3278SOL    HW121470   3.856   1.414   2.060  2.0591 -0.3653  0.7776
 3278SOL    HW221471   3.781   1.427   2.193  1.1522  0.4934 -0.0034
 3279SOL     OW21472   3.659   4.485  11.875  0.6293  0.2586 -0.5692
 3279SOL    HW121473   3.704   4.411  11.833  0.8666  0.6466 -1.0018
 3279SOL    HW221474   3.673   4.556  11.812 -1.7725  1.4645  0.2665
 3280SOL     OW21475   3.567   4.548   1.403 -0.3567  0.1028  0.5057
 3280SOL    HW121476   3.632   4.485   1.372 -0.2543 -0.1869  1.3172
 3280SOL    HW221477   3.502   4.489   1.441 -1.8194 -0.5401 -2.9654
 3281SOL     OW21478   1.719   1.886   5.608  0.6147 -0.7650 -0.2424
 3281SOL    HW121479   1.730   1.974   5.572 -1.9502  0.1602  1.2770
 3281SOL    HW221480   1.789   1.845   5.557  0.3498  0.4992 -1.6202
 3282SOL     OW21481   1.856   2.320   6.630 -0.0970 -0.8824 -0.2794
 3282SOL    HW121482   1.918   2.358   6.692 -2.4471  0.1935  1.4052
 3282SOL    HW221483   1.854   2.225   6.644  0.2164 -0.9744 -0.8683
 3283SOL     OW21484   1.133   4.379   4.229  0.1306  0.0417  0.0250
 3283SOL    HW121485   1.124   4.390   4.134 -0.7504  0.5574  0.1754
 3283SOL    HW221486   1.051   4.409   4.267  0.8298 -0.1579  1.6686
 3284SOL     OW21487   2.557   1.452   9.296  0.2726  0.1112  0.4429
 3284SOL    HW121488   2.529   1.381   9.239 -0.6644  1.2476 -0.5076
 3284SOL    HW221489   2.534   1.423   9.384  0.2109  1.1272  0.7702
 3285SOL     OW21490   2.873   2.801   5.586  0.3886 -0.3065 -0.9344
 3285SOL    HW121491   2.786   2.790   5.625  0.7405  1.7052  0.3712
 3285SOL    HW221492   2.862   2.771   5.496  0.0263 -0.0480 -0.9734
 3286SOL     OW21493   2.279   0.922   9.536  0.1245  0.0020  0.3087
 3286SOL    HW121494   2.234   0.989   9.485  3.6080  1.9266 -0.2968
 3286SOL    HW221495   2.309   0.984   9.603  0.1060  1.0199 -0.6259
 3287SOL     OW21496   1.500   1.008   9.694 -0.2273  0.0065  0.6906
 3287SOL    HW121497   1.563   0.936   9.688  1.3309  1.5842 -2.2591
 3287SOL    HW221498   1.545   1.076   9.743 -3.3136  1.2799  1.7450
 3288SOL     OW21499   2.689   0.581   2.683 -0.2414  0.4941  0.0939
 3288SOL    HW121500   2.662   0.656   2.736  0.9294  1.6212 -0.8960
 3288SOL    HW221501   2.783   0.577   2.701 -0.0152  0.7173 -1.0064
 3289SOL     OW21502   2.400   2.009  16.885  0.1178  0.5265  0.3873
 3289SOL    HW121503   2.473   2.055  16.843  0.7448 -0.5175  0.3224
 3289SOL    HW221504   2.421   2.013  16.978  0.1492  1.0029  0.3574
 3290SOL     OW21505   0.809   1.928  14.545  0.3196  0.1121  0.3179
 3290SOL    HW121506   0.860   1.953  14.468 -0.6441 -1.1528 -0.7280
 3290SOL    HW221507   0.767   2.012  14.568 -0.9518 -0.5363  0.3975
 3291SOL     OW21508   2.252   4.493   0.265 -0.2644 -0.6489  0.1498
 3291SOL    HW121509   2.269   4.405   0.233  1.6864 -0.0380 -0.5100
 3291SOL    HW221510   2.336   4.512   0.306  0.2374  1.7283 -1.9895
 3292SOL     OW21511   3.427   1.941   8.798  0.4480 -0.3350  0.6678
 3292SOL    HW121512   3.374   1.928   8.877 -1.9313  1.9686 -0.5555
 3292SOL    HW221513   3.391   1.881   8.734  2.5601 -1.8483  0.8989
 3293SOL     OW21514   3.145   2.414   7.903  0.4918 -0.4863 -0.0168
 3293SOL    HW121515   3.069   2.422   7.845 -0.0606  0.5281  0.8657
 3293SOL    HW221516   3.120   2.342   7.961  0.9277 -2.0623 -1.7690
 3294SOL     OW21517   0.088   4.328   4.176 -0.0970 -0.3722  0.1770
 3294SOL    HW121518   0.027   4.286   4.237  0.2777  0.0488  0.8411
 3294SOL    HW221519   0.070   4.281   4.094 -1.0629  0.2194  0.0404
 3295SOL     OW21520   0.515   0.511   4.123  0.1883 -0.3359 -0.4321
 3295SOL    HW121521   0.521   0.421   4.155 -0.7014 -0.8040 -1.5731
 3295SOL    HW221522   0.462   0.489   4.046  0.0514 -2.4677  0.2636
 3296SOL     OW21523   2.869   1.863   7.289  0.3931 -0.0390  0.1852
 3296SOL    HW121524   2.860   1.907   7.204 -0.3837  0.7543  0.6821
 3296SOL    HW221525   2.944   1.807   7.272 -0.1002 -0.7681  0.4098
 3297SOL     OW21526   4.036   1.781  11.713  0.2079  0.2977  0.2338
 3297SOL    HW121527   4.065   1.868  11.740 -0.5408  1.4961 -2.8158
 3297SOL    HW221528   3.949   1.804  11.683 -0.0097 -1.9299 -0.8308
 3298SOL     OW21529   2.808   2.115   0.102 -0.1939  0.3140  0.3509
 3298SOL    HW121530   2.759   2.197   0.099 -3.1930 -1.4500  1.0211
 3298SOL    HW221531   2.780   2.077   0.185  1.1717 -1.4197  0.0106
 3299SOL     OW21532   3.783   0.550  15.347  0.5658 -0.2194 -0.6293
 3299SOL    HW121533   3.700   0.551  15.394  0.3373 -1.1530 -1.0166
 3299SOL    HW221534   3.808   0.458  15.339  1.1609  0.0049 -1.4531
 3300SOL     OW21535   3.940   2.105   8.642  0.0033  0.0101 -0.0886
 3300SOL    HW121536   3.977   2.106   8.730 -0.2670  1.3294  0.0113
 3300SOL    HW221537   3.848   2.083   8.656 -0.4400  1.8275 -0.1583
 3301SOL     OW21538   0.936   4.582   8.527  0.0701  0.6011  0.4742
 3301SOL    HW121539   0.936   4.509   8.466 -1.4225 -0.8801  2.2674
 3301SOL    HW221540   0.996   4.643   8.484 -1.3501  1.5032 -0.2340
 3302SOL     OW21541   1.347   0.771   3.153  0.0479  0.1292 -0.4385
 3302SOL    HW121542   1.324   0.829   3.080  1.4451 -0.4543 -1.3445
 3302SOL    HW221543   1.265   0.743   3.195 -0.4189 -1.1372 -2.1885
 3303SOL     OW21544   1.610   0.324  11.353 -0.5447  0.3919  0.1191
 3303SOL    HW121545   1.590   0.349  11.262  0.8643 -1.2836 -0.6446
 3303SOL    HW221546   1.621   0.229  11.347  0.9357  0.6745 -1.8650
 3304SOL     OW21547   3.479   2.389  10.272 -0.7022 -0.3776 -0.1862
 3304SOL    HW121548   3.537   2.448  10.320 -0.9625  1.3606 -2.0280
 3304SOL    HW221549   3.503   2.305  10.311 -1.5342 -1.1719 -1.3785
 3305SOL     OW21550   0.347   0.243   2.071 -0.3096  0.4166 -0.3499
 3305SOL    HW121551   0.361   0.228   1.977  1.0948 -2.8678  0.3663
 3305SOL    HW221552   0.342   0.149   2.092  0.8344  0.4885  0.2431
 3306SOL     OW21553   2.722   2.679  12.444  0.4892 -0.3068 -0.2437
 3306SOL    HW121554   2.683   2.604  12.400 -1.7059  2.1056 -2.3564
 3306SOL    HW221555   2.644   2.716  12.485 -1.3003 -1.5283 -2.5828
 3307SOL     OW21556   4.167   3.250   2.914  0.1189  0.1247 -0.4252
 3307SOL    HW121557   4.137   3.340   2.919 -2.0796 -0.6022 -0.4046
 3307SOL    HW221558   4.206   3.249   2.827  0.6069 -1.7516 -0.1857
 3308SOL     OW21559   3.377   1.292   6.735  0.7231  0.1077 -0.6296
 3308SOL    HW121560   3.357   1.276   6.643 -0.4673  2.3412 -0.7573
 3308SOL    HW221561   3.471   1.272   6.735  0.0990 -2.7627  0.8144
 3309SOL     OW21562   0.556   3.286   1.670  0.5053  0.2850 -0.0531
 3309SOL    HW121563   0.491   3.270   1.738 -2.0235 -0.4802 -2.6584
 3309SOL    HW221564   0.609   3.351   1.717 -1.2759  1.2492  0.5941
 3310SOL     OW21565   2.602   2.501   2.241  0.0634  0.3089 -0.1301
 3310SOL    HW121566   2.531   2.564   2.256  0.0877  0.3827 -0.3324
 3310SOL    HW221567   2.592   2.442   2.316  0.0384  0.2394 -0.1892
 3311SOL     OW21568   1.914   4.685   1.932  0.3353  0.0474 -0.2582
 3311SOL    HW121569   1.891   4.612   1.875  2.5544 -0.2459 -0.7720
 3311SOL    HW221570   2.003   4.660   1.957 -0.3448 -1.4969  0.6313
 3312SOL     OW21571   3.482   1.486   4.196 -0.0749 -0.2148  0.3238
 3312SOL    HW121572   3.491   1.581   4.182 -0.5577 -0.2852 -0.4534
 3312SOL    HW221573   3.497   1.477   4.290  2.0845  1.0037  0.0931
 3313SOL     OW21574   0.513   4.444  11.893 -0.2393  0.1008 -0.0273
 3313SOL    HW121575   0.542   4.534  11.908  0.0609  0.4636 -2.8229
 3313SOL    HW221576   0.584   4.407  11.840  2.6072  4.3027  0.8396
 3314SOL     OW21577   2.092   1.179   9.052  0.5230 -0.4062 -0.2955
 3314SOL    HW121578   2.088   1.274   9.066  2.4658 -0.7029  2.2481
 3314SOL    HW221579   2.007   1.163   9.012  0.0367  1.3544  0.0118
 3315SOL     OW21580   4.539   4.008   7.586 -0.7503  0.0345 -0.1764
 3315SOL    HW121581   4.493   3.953   7.523 -0.0712 -0.8097  0.0545
 3315SOL    HW221582   4.628   3.973   7.584 -1.7160 -2.5296  1.2237
 3316SOL     OW21583   0.883   3.633   5.217 -0.2726 -0.0239 -0.2144
 3316SOL    HW121584   0.851   3.576   5.148 -0.1407  0.3369 -0.5724
 3316SOL    HW221585   0.921   3.703   5.164 -0.4486 -0.2864 -0.6859
 3317SOL     OW21586   0.862   1.985   5.255 -0.1069 -0.2958 -0.1578
 3317SOL    HW121587   0.952   1.966   5.281  0.6009  0.3763 -2.1219
 3317SOL    HW221588   0.858   2.016   5.165 -0.7149  0.7310  0.2264
 3318SOL     OW21589   3.619   1.814  12.582  0.3626 -0.2063  0.0489
 3318SOL    HW121590   3.562   1.828  12.506 -0.4667  1.9977  1.0593
 3318SOL    HW221591   3.667   1.895  12.601  0.0083  0.5195 -2.1062
 3319SOL     OW21592   3.279   0.608   6.006 -0.5961 -0.6163  0.1344
 3319SOL    HW121593   3.264   0.604   5.911  0.3426 -2.6718  0.0812
 3319SOL    HW221594   3.369   0.640   6.016  0.1510 -2.1414 -1.8080
 3320SOL     OW21595   0.371   0.730   1.481 -0.3560  0.1689 -0.7652
 3320SOL    HW121596   0.386   0.814   1.438 -0.6349  0.6053 -0.0111
 3320SOL    HW221597   0.276   0.741   1.488  0.0278  0.7212  3.7518
 3321SOL     OW21598   3.295   3.041   7.216 -0.0034  0.1591 -0.4171
 3321SOL    HW121599   3.230   3.057   7.284 -1.5182  1.8112 -2.2466
 3321SOL    HW221600   3.371   3.086   7.254  1.3277 -2.4997  0.0432
 3322SOL     OW21601   2.118   3.786   4.069 -0.3107  0.3216 -0.2551
 3322SOL    HW121602   2.124   3.734   3.990 -0.6028 -0.0156 -0.0552
 3322SOL    HW221603   2.039   3.750   4.108 -1.0726  1.0353 -1.1308
 3323SOL     OW21604   2.729   1.493   5.878 -0.4871 -0.3725  0.2939
 3323SOL    HW121605   2.637   1.487   5.904 -0.4532 -1.4915  0.1297
 3323SOL    HW221606   2.736   1.423   5.813  2.5331  1.3348 -1.2229
 3324SOL     OW21607   0.625   2.664  15.826 -0.3532  0.7443 -0.0384
 3324SOL    HW121608   0.578   2.656  15.743  0.0780 -0.0670 -0.2024
 3324SOL    HW221609   0.655   2.575  15.847 -1.1473  0.0424 -1.9562
 3325SOL     OW21610   2.114   4.714  17.170 -0.3865  0.0132 -0.0422
 3325SOL    HW121611   2.210   4.716  17.170 -0.3253 -2.4414  1.5588
 3325SOL    HW221612   2.088   0.065  17.141 -0.2635  0.3634  0.8729
 3326SOL     OW21613   3.417   2.354   5.565 -0.1391 -0.6756 -0.2879
 3326SOL    HW121614   3.465   2.412   5.506 -0.7703  1.1150  0.9619
 3326SOL    HW221615   3.407   2.420   5.634  0.9919 -1.6834  0.8332
 3327SOL     OW21616   2.161   2.873   8.305  0.0334  0.2820  0.1098
 3327SOL    HW121617   2.174   2.778   8.302 -1.5629  0.0399  0.6523
 3327SOL    HW221618   2.129   2.886   8.394 -1.6458  1.2995 -0.6514
 3328SOL     OW21619   3.980   0.810  12.528  0.1917 -0.5614  0.6118
 3328SOL    HW121620   3.899   0.791  12.480  0.8817  1.3728 -1.2913
 3328SOL    HW221621   3.967   0.757  12.607 -0.8601  0.6090  1.2414
 3329SOL     OW21622   0.197   0.089   7.775  0.1942  0.2240  0.0215
 3329SOL    HW121623   0.102   0.076   7.782  0.0963  1.8901  1.6354
 3329SOL    HW221624   0.212   0.152   7.704  1.8275 -0.2375 -0.0394
 3330SOL     OW21625   3.144   0.516   6.233 -0.4988 -0.8513  0.0379
 3330SOL    HW121626   3.153   0.564   6.151 -0.6573 -0.1636  0.4239
 3330SOL    HW221627   3.236   0.523   6.258 -0.5860 -1.3394  0.5039
 3331SOL     OW21628   1.855   3.957   4.295  0.2488  0.1740 -0.1596
 3331SOL    HW121629   1.939   3.976   4.255 -0.7911  1.6519 -1.6165
 3331SOL    HW221630   1.853   4.008   4.376 -0.8808 -0.2440  0.0749
 3332SOL     OW21631   1.735   0.771   8.402 -0.4772 -0.6563  0.2996
 3332SOL    HW121632   1.722   0.770   8.496  1.3896  2.1891  0.5828
 3332SOL    HW221633   1.830   0.756   8.395 -0.2761 -0.2067  2.1039
 3333SOL     OW21634   2.677   1.630   4.477 -0.2116  0.5285  0.1705
 3333SOL    HW121635   2.742   1.648   4.545  0.6520  1.2528 -0.8572
 3333SOL    HW221636   2.617   1.702   4.495  2.5427  2.6229  0.8886
 3334SOL     OW21637   0.009   4.689   3.622  0.0072 -0.5412 -0.3640
 3334SOL    HW121638   4.698   0.036   3.622 -1.4743 -1.3881  0.1194
 3334SOL    HW221639   4.686   4.635   3.674 -2.0286  2.8407  0.8391
 3335SOL     OW21640   3.764   3.246   3.422 -0.0084 -0.2089 -0.4242
 3335SOL    HW121641   3.708   3.309   3.467  0.4820 -0.3289  0.3542
 3335SOL    HW221642   3.722   3.162   3.442 -2.3166  0.6526 -1.5736
 3336SOL     OW21643   2.962   2.303   3.982 -0.1943  0.4166 -0.1240
 3336SOL    HW121644   3.054   2.282   3.995 -0.4778 -0.6886  0.0800
 3336SOL    HW221645   2.952   2.393   3.949  2.2190  0.2211 -1.3858
 3337SOL     OW21646   4.270   0.609   1.418  0.0550 -0.0894  0.3543
 3337SOL    HW121647   4.206   0.605   1.488 -0.7881 -1.8456 -0.5270
 3337SOL    HW221648   4.342   0.659   1.457  0.3204 -1.8133  2.0645
 3338SOL     OW21649   1.601   4.201   8.201  0.2271  0.5897  0.2834
 3338SOL    HW121650   1.628   4.120   8.245  1.5061  1.0235  0.2792
 3338SOL    HW221651   1.658   4.183   8.127  2.0231  0.4190  1.7158
 3339SOL     OW21652   2.499   1.171   7.987 -0.2993 -0.1545  0.1062
 3339SOL    HW121653   2.475   1.081   8.012  0.3969 -0.6370 -0.9943
 3339SOL    HW221654   2.594   1.166   7.982 -0.3998 -1.4587 -0.5903
 3340SOL     OW21655   3.032   3.063   2.002 -0.0204  0.4135 -0.1941
 3340SOL    HW121656   3.123   3.072   2.031 -0.2354  0.8085  0.3634
 3340SOL    HW221657   3.032   2.978   1.959  3.4850  0.3071  0.0186
 3341SOL     OW21658   2.843   1.973   4.388 -0.3728 -0.0603 -0.0364
 3341SOL    HW121659   2.900   1.916   4.336 -0.3804  1.4329 -1.6819
 3341SOL    HW221660   2.902   2.048   4.390  0.1324 -0.4973  1.4238
 3342SOL     OW21661   3.784   2.055   0.918 -0.3108  0.4933  0.1920
 3342SOL    HW121662   3.857   2.067   0.858 -0.6653  0.1425 -0.3014
 3342SOL    HW221663   3.802   1.972   0.962 -0.3748  0.7790  0.7691
 3343SOL     OW21664   0.046   4.054   2.506  0.3857  0.0298 -0.0580
 3343SOL    HW121665   0.058   4.069   2.412  0.5499 -0.2761 -0.0883
 3343SOL    HW221666   0.112   3.991   2.535  0.0215 -0.4062 -0.1612
 3344SOL     OW21667   2.458   1.402   3.564 -0.6650  0.2328  0.4179
 3344SOL    HW121668   2.391   1.456   3.520  1.2044  1.2135 -1.2259
 3344SOL    HW221669   2.482   1.437   3.650  1.4502  0.2143 -0.1620
 3345SOL     OW21670   4.285   2.240  16.222  0.7656  0.0839 -0.1606
 3345SOL    HW121671   4.332   2.234  16.305  0.7905 -0.0066 -0.1807
 3345SOL    HW221672   4.217   2.307  16.232 -0.1847 -0.3985 -3.2877
 3346SOL     OW21673   2.506   2.499  12.029 -0.1227 -0.8927 -0.4659
 3346SOL    HW121674   2.557   2.467  11.954  1.6189 -0.3261  0.4782
 3346SOL    HW221675   2.464   2.580  12.001  0.4407 -0.6021 -0.4773
 3347SOL     OW21676   0.211   4.598   3.245 -0.3632  0.0704 -0.5986
 3347SOL    HW121677   0.168   4.683   3.235  1.1533  0.8454 -0.5388
 3347SOL    HW221678   0.161   4.554   3.315 -1.0767 -0.5652 -1.5065
 3348SOL     OW21679   1.226   1.168   9.451  0.0450  0.0868 -0.7961
 3348SOL    HW121680   1.311   1.199   9.420 -0.0962  0.2115 -1.0653
 3348SOL    HW221681   1.209   1.104   9.381  1.3111  0.3200 -1.3220
 3349SOL     OW21682   2.058   2.002   7.340 -0.0528  0.2181  0.2872
 3349SOL    HW121683   1.972   1.963   7.324  0.4136 -1.0538  0.8111
 3349SOL    HW221684   2.107   1.947   7.401 -2.0402 -0.9783  0.7952
 3350SOL     OW21685   1.417   1.651   3.507 -0.1849 -0.0050 -0.7522
 3350SOL    HW121686   1.397   1.695   3.590  3.2667 -0.1382  0.1310
 3350SOL    HW221687   1.345   1.687   3.455  0.4899  0.5808 -1.2784
 3351SOL     OW21688   4.349   2.920   9.768 -0.1623 -0.6946  0.2439
 3351SOL    HW121689   4.366   2.840   9.719  2.5530 -1.2319  2.1063
 3351SOL    HW221690   4.254   2.920   9.783 -0.0815  1.4417  0.8157
 3352SOL     OW21691   1.209   1.033   3.322 -0.1192 -0.1295 -0.1224
 3352SOL    HW121692   1.242   1.050   3.410 -0.2084  1.0781 -0.3306
 3352SOL    HW221693   1.266   0.964   3.286  0.5548 -0.1517  1.0109
 3353SOL     OW21694   1.223   1.363   8.388  0.0872 -0.6072  0.2603
 3353SOL    HW121695   1.257   1.276   8.371  2.6728  0.7641 -1.6175
 3353SOL    HW221696   1.246   1.401   8.303 -1.8948  0.8711  0.3801
 3354SOL     OW21697   1.993   3.392   2.544 -0.1411 -0.2186 -0.5601
 3354SOL    HW121698   2.016   3.477   2.580 -1.4210  0.7103 -1.9294
 3354SOL    HW221699   1.900   3.410   2.528 -0.3548 -0.9386 -0.1264
 3355SOL     OW21700   0.621   1.703   9.306 -0.0084 -0.6264 -0.1180
 3355SOL    HW121701   0.540   1.657   9.280 -0.5006  2.5127 -4.2634
 3355SOL    HW221702   0.670   1.621   9.309  1.0312  0.0263  0.5073
 3356SOL     OW21703   3.421   1.651  11.933 -0.0456 -0.8860 -0.4261
 3356SOL    HW121704   3.489   1.585  11.940  1.3023  0.2839 -2.3580
 3356SOL    HW221705   3.470   1.732  11.945 -1.0063 -0.4079  0.2562
 3357SOL     OW21706   1.655   2.685   2.424  0.2315 -0.3005  0.5833
 3357SOL    HW121707   1.631   2.611   2.368 -2.0831  0.2495  0.8522
 3357SOL    HW221708   1.675   2.760   2.367 -0.3106  0.3579  1.2571
 3358SOL     OW21709   0.174   1.471   4.221  0.9114 -0.4461 -0.3360
 3358SOL    HW121710   0.110   1.470   4.149  1.7919  1.1296 -1.1663
 3358SOL    HW221711   0.120   1.443   4.294 -0.8115 -0.7212 -1.7213
 3359SOL     OW21712   2.444   2.550   6.148  0.4435 -0.1691  0.3992
 3359SOL    HW121713   2.440   2.525   6.056  0.9821 -0.6881  0.5210
 3359SOL    HW221714   2.493   2.630   6.128 -0.7746  0.3058 -0.6961
 3360SOL     OW21715   1.484   1.325   8.820  0.3588  0.4182 -0.8769
 3360SOL    HW121716   1.498   1.414   8.853  1.9215 -0.6327  1.2883
 3360SOL    HW221717   1.534   1.318   8.739  1.4346 -0.8347 -0.0980
 3361SOL     OW21718   1.427   1.326   5.659 -0.1519  0.6574 -0.0823
 3361SOL    HW121719   1.497   1.386   5.632  0.2975 -0.0499 -0.4730
 3361SOL    HW221720   1.422   1.341   5.753  2.4881  2.4450 -0.2097
 3362SOL     OW21721   2.215   4.307   3.997 -0.1167 -0.3179  0.4055
 3362SOL    HW121722   2.141   4.315   3.937 -1.3886  0.6129  2.0810
 3362SOL    HW221723   2.250   4.396   3.991 -1.1908  0.0799  0.1592
 3363SOL     OW21724   1.690   2.205   4.857 -0.1747 -0.2367 -0.2886
 3363SOL    HW121725   1.725   2.270   4.917 -0.2103 -2.1157  1.7302
 3363SOL    HW221726   1.762   2.151   4.824 -0.6784 -0.6646 -0.6986
 3364SOL     OW21727   4.615   3.791  13.286  0.4414 -0.1341 -0.4356
 3364SOL    HW121728   4.522   3.809  13.291  0.3396 -1.1528  1.6002
 3364SOL    HW221729   4.658   3.867  13.325 -2.2173  1.1399 -0.0424
 3365SOL     OW21730   2.727   2.373   5.283  0.1476 -0.0955 -0.0151
 3365SOL    HW121731   2.683   2.289   5.293  0.5269 -0.2774  0.1303
 3365SOL    HW221732   2.816   2.351   5.311  0.9857  1.3294 -1.5162
 3366SOL     OW21733   2.814   1.412  16.166 -0.1782  1.1278 -0.5137
 3366SOL    HW121734   2.795   1.502  16.192 -2.3119  1.0713 -1.8592
 3366SOL    HW221735   2.902   1.410  16.129 -0.7755  0.1955 -1.8596
 3367SOL     OW21736   3.796   1.912   7.130 -0.1627 -0.3979 -0.1238
 3367SOL    HW121737   3.763   1.961   7.055 -0.2061 -2.2300 -1.2825
 3367SOL    HW221738   3.712   1.893   7.171 -0.1592  1.6317  0.8211
 3368SOL     OW21739   4.732   3.224   6.901 -0.1963  0.2328  0.2642
 3368SOL    HW121740   4.660   3.170   6.868 -0.8989  1.6735 -0.5728
 3368SOL    HW221741   0.011   3.183   6.986  0.9450 -2.3553 -1.1796
 3369SOL     OW21742   3.483   0.299  13.049  0.2384 -0.1510  0.3366
 3369SOL    HW121743   3.481   0.340  12.963  1.0798  0.2027  0.4835
 3369SOL    HW221744   3.408   0.245  13.027  1.4876 -1.2832 -1.1318
 3370SOL     OW21745   2.985   2.057   6.576 -0.1850  0.9128 -0.8224
 3370SOL    HW121746   2.905   2.064   6.628  0.4958  1.6184  0.1277
 3370SOL    HW221747   2.972   1.968   6.542 -1.7768  1.0163 -0.4830
 3371SOL     OW21748   3.389   4.181   4.709 -0.3359  0.3841  0.1411
 3371SOL    HW121749   3.330   4.255   4.694  0.6912  1.0822 -0.5013
 3371SOL    HW221750   3.459   4.229   4.755  2.2283 -2.1427 -1.1508
 3372SOL     OW21751   0.644   2.380   2.731  0.4233  0.4300  0.1179
 3372SOL    HW121752   0.700   2.304   2.746  0.8516  1.3336  3.1212
 3372SOL    HW221753   0.628   2.393   2.825  2.2198 -0.1239  0.5130
 3373SOL     OW21754   0.268   2.864   5.795  0.1389 -0.1608  0.1294
 3373SOL    HW121755   0.301   2.817   5.872 -2.5752 -2.7358 -0.2785
 3373SOL    HW221756   0.266   2.955   5.827 -2.7455  0.5481 -2.1440
 3374SOL     OW21757   4.446   3.667   4.385 -0.1270 -0.2019 -0.3610
 3374SOL    HW121758   4.471   3.759   4.379 -1.9987  0.2474 -1.1571
 3374SOL    HW221759   4.406   3.647   4.301 -1.6187  1.1780  0.0274
 3375SOL     OW21760   3.180   1.789   3.119  0.2362  0.0504  0.0629
 3375SOL    HW121761   3.207   1.848   3.189  0.8231  1.5393 -1.4007
 3375SOL    HW221762   3.131   1.723   3.167 -0.0857 -0.3434 -0.8141
 3376SOL     OW21763   3.129   3.051   3.050  0.6795 -0.5623  0.1651
 3376SOL    HW121764   3.058   3.038   2.986 -2.0148 -0.0548  3.0691
 3376SOL    HW221765   3.136   2.962   3.086 -1.5168 -1.1024 -0.7292
 3377SOL     OW21766   0.060   1.373   4.790  0.8852  0.1481 -0.4241
 3377SOL    HW121767   0.149   1.370   4.756  1.2319  0.3063  0.4626
 3377SOL    HW221768   0.056   1.300   4.852  1.1924  0.7169  0.2725
 3378SOL     OW21769   0.465   3.019   6.235  0.1413 -0.1648  0.4393
 3378SOL    HW121770   0.386   2.965   6.233 -1.0539  1.5643  0.5963
 3378SOL    HW221771   0.485   3.023   6.142  0.5438  0.2524  0.5447
 3379SOL     OW21772   0.541   4.694   5.235  0.4532  0.5694 -0.5183
 3379SOL    HW121773   0.537   4.660   5.324  0.4423 -0.3507 -0.8649
 3379SOL    HW221774   0.563   4.616   5.184 -0.4109  0.1660 -0.2792
 3380SOL     OW21775   3.113   0.107   6.174  0.8834 -0.1796  0.0093
 3380SOL    HW121776   3.107   0.012   6.175 -0.5697 -0.0879  0.7306
 3380SOL    HW221777   3.061   0.131   6.251  3.3317  2.1279  0.9376
 3381SOL     OW21778   4.497   0.440   2.671  0.1769 -0.0047 -0.5898
 3381SOL    HW121779   4.544   0.429   2.588  0.5513  1.7190 -0.6225
 3381SOL    HW221780   4.560   0.408   2.735 -1.3775  1.8837  1.8954
 3382SOL     OW21781   4.668   4.176   7.097 -0.3227  0.2293 -0.0674
 3382SOL    HW121782   4.675   4.164   7.192 -0.1125 -0.3488 -0.1547
 3382SOL    HW221783   4.634   4.265   7.099  2.2647  1.1846  1.4703
 3383SOL     OW21784   2.617   1.590  13.314 -0.0179 -0.8730 -0.1442
 3383SOL    HW121785   2.623   1.534  13.390  0.2373 -0.3933  0.1914
 3383SOL    HW221786   2.526   1.617  13.327  0.3749 -0.7438  2.3381
 3384SOL     OW21787   0.722   0.045   8.605  0.0620 -0.2247 -0.3971
 3384SOL    HW121788   0.641   4.734   8.588 -0.4677  0.2137  0.8529
 3384SOL    HW221789   0.776   4.703   8.609  0.5572  0.0974 -0.7115
 3385SOL     OW21790   4.467   1.591   1.055 -0.2756 -0.2950  0.0129
 3385SOL    HW121791   4.419   1.512   1.029 -0.5873 -0.0235 -0.2273
 3385SOL    HW221792   4.398   1.657   1.056  2.5329  2.6138  1.7161
 3386SOL     OW21793   2.563   2.305   6.149  0.0930  0.1716 -0.0256
 3386SOL    HW121794   2.549   2.398   6.167  0.5894  0.2732 -0.1570
 3386SOL    HW221795   2.488   2.261   6.189  0.2487 -0.1159 -0.0557
 3387SOL     OW21796   1.901   2.166   3.028  0.3494  0.6345 -0.2616
 3387SOL    HW121797   1.951   2.092   2.994 -2.2061 -1.2830  0.1351
 3387SOL    HW221798   1.812   2.133   3.012  1.2794 -1.2539 -1.5586
 3388SOL     OW21799   3.902   1.118   4.663  0.1968  0.0574 -0.2769
 3388SOL    HW121800   3.962   1.131   4.590  1.9527  0.7918  1.3174
 3388SOL    HW221801   3.933   1.190   4.718  2.6412 -1.4490  0.3061
 3389SOL     OW21802   3.450   2.886   0.432  0.0212  0.0921  0.7498
 3389SOL    HW121803   3.407   2.949   0.489  1.1086 -0.0476  1.7064
 3389SOL    HW221804   3.538   2.923   0.435 -0.4490  1.0820  2.3182
 3390SOL     OW21805   1.538   4.418   2.531 -0.1337 -0.6675  0.1993
 3390SOL    HW121806   1.462   4.405   2.589 -0.2847 -1.0340 -0.0806
 3390SOL    HW221807   1.562   4.509   2.548 -0.9141 -0.3680 -0.3343
 3391SOL     OW21808   2.858   0.844   7.195 -0.5338  0.2647  0.2219
 3391SOL    HW121809   2.931   0.850   7.133  0.3715  0.3780  1.2802
 3391SOL    HW221810   2.801   0.806   7.128  1.1502  1.8033 -2.0878
 3392SOL     OW21811   1.219   3.901   2.470 -0.0125  0.5871 -0.2942
 3392SOL    HW121812   1.215   3.806   2.483  0.3386  0.6409  0.2270
 3392SOL    HW221813   1.135   3.923   2.429  0.4630  0.7931 -1.1464
 3393SOL     OW21814   2.590   3.106   9.114  0.1856 -0.2545 -0.0845
 3393SOL    HW121815   2.530   3.111   9.039  1.1352  0.7124 -0.7622
 3393SOL    HW221816   2.573   3.190   9.155 -1.2530  0.3480 -1.9158
 3394SOL     OW21817   1.426   2.116  12.111  0.6465  0.0023  0.0787
 3394SOL    HW121818   1.521   2.109  12.099  0.5688  0.5600 -0.8412
 3394SOL    HW221819   1.405   2.025  12.131 -0.5046  0.8546  2.6577
 3395SOL     OW21820   1.264   4.582  10.879  0.6718  0.1902 -0.2015
 3395SOL    HW121821   1.175   4.550  10.891  0.5250  0.7335  0.1819
 3395SOL    HW221822   1.281   4.599  10.971  3.0887  0.4602 -0.6977
 3396SOL     OW21823   3.229   0.496   0.722 -0.4102  0.0347  0.2248
 3396SOL    HW121824   3.190   0.435   0.784  1.5941 -2.0403 -0.5619
 3396SOL    HW221825   3.180   0.577   0.739 -0.3500  0.4295 -1.4557
 3397SOL     OW21826   3.054   0.924  10.571 -0.4918 -0.2510 -0.1627
 3397SOL    HW121827   2.977   0.974  10.543 -1.5281 -1.7267  0.0385
 3397SOL    HW221828   3.075   0.855  10.508 -1.0453 -1.1219  0.6172
 3398SOL     OW21829   2.970   1.874   2.070  0.0064  0.1824  0.3656
 3398SOL    HW121830   2.997   1.918   2.150  2.3190 -1.1203  0.3206
 3398SOL    HW221831   2.879   1.899   2.081 -0.3375 -0.8176 -0.1394
 3399SOL     OW21832   2.960   4.553   4.601  0.1288  0.1019  0.3959
 3399SOL    HW121833   2.992   4.631   4.555  1.2858 -0.7723 -0.2501
 3399SOL    HW221834   3.033   4.496   4.581  0.0647  0.1932 -0.0873
 3400SOL     OW21835   2.574   4.305   3.711  0.2547 -0.1139 -0.6564
 3400SOL    HW121836   2.595   4.321   3.803  0.5485  2.0655 -1.0872
 3400SOL    HW221837   2.479   4.316   3.719 -0.1061 -2.2840 -2.0364
 3401SOL     OW21838   0.470   1.754  10.334  0.0237 -0.0184 -0.2976
 3401SOL    HW121839   0.474   1.661  10.309  0.2400 -0.4212  1.2617
 3401SOL    HW221840   0.433   1.745  10.422 -1.7556  1.7133 -0.8666
 3402SOL     OW21841   4.113   0.562  13.183 -0.2159 -0.7171 -0.0260
 3402SOL    HW121842   4.157   0.489  13.141 -1.9175 -3.0798  2.2743
 3402SOL    HW221843   4.054   0.509  13.237 -0.3072 -1.3940 -0.7918
 3403SOL     OW21844   2.869   1.490   1.120 -1.0312 -0.2052 -0.0518
 3403SOL    HW121845   2.814   1.511   1.197 -0.8915 -1.7947  0.4811
 3403SOL    HW221846   2.802   1.494   1.052 -1.9223 -0.0344  0.8295
 3404SOL     OW21847   4.716   1.444   4.043  0.1725  0.6733 -0.0541
 3404SOL    HW121848   4.643   1.493   4.003 -1.3462 -1.4226  0.1197
 3404SOL    HW221849   4.711   1.355   4.008  0.8018  0.9477 -0.8380
 3405SOL     OW21850   0.559   2.048  12.822  0.2088  0.3760 -1.0477
 3405SOL    HW121851   0.504   1.970  12.815 -1.0363  1.0513  1.4300
 3405SOL    HW221852   0.586   2.061  12.731 -1.4249  3.3808 -1.0793
 3406SOL     OW21853   2.673   0.336   6.817  0.0906 -0.3556 -0.5781
 3406SOL    HW121854   2.722   0.351   6.898 -0.3079 -0.9713 -0.2271
 3406SOL    HW221855   2.584   0.356   6.844  0.4143  1.8559 -1.1287
 3407SOL     OW21856   1.758   1.362  15.908  0.0393 -0.0636 -0.5837
 3407SOL    HW121857   1.756   1.352  15.813  1.7930 -0.2909 -0.5936
 3407SOL    HW221858   1.695   1.434  15.916 -0.0025 -0.0467 -1.1030
 3408SOL     OW21859   0.036   3.464   6.780 -0.6516 -0.0130 -0.1782
 3408SOL    HW121860   0.031   3.521   6.856  2.2185  1.7015 -1.2320
 3408SOL    HW221861   0.034   3.375   6.815 -2.7093 -0.2644 -0.9359
 3409SOL     OW21862   0.808   0.904  13.049 -0.0437  0.5106 -0.7039
 3409SOL    HW121863   0.828   0.899  13.142  2.4513  1.2403 -1.1949
 3409SOL    HW221864   0.870   0.842  13.011  0.2584  1.8562 -2.4233
 3410SOL     OW21865   2.395   0.144   9.631  0.4440 -0.1955  0.5809
 3410SOL    HW121866   2.396   0.232   9.593  0.7938 -2.0645 -3.6293
 3410SOL    HW221867   2.432   0.171   9.715  1.2237  1.4522 -0.2985
 3411SOL     OW21868   3.094   4.524   0.809  0.2807 -0.3643 -0.0424
 3411SOL    HW121869   3.053   4.456   0.862  1.4554 -0.8116  0.2653
 3411SOL    HW221870   3.066   4.605   0.853  0.3764 -0.7340  0.6970
 3412SOL     OW21871   0.878   2.750   9.661 -0.0042 -0.6757  0.3720
 3412SOL    HW121872   0.865   2.656   9.647 -0.9732 -0.9024  2.8366
 3412SOL    HW221873   0.790   2.777   9.688 -0.7042  0.1013 -2.6917
 3413SOL     OW21874   2.716   0.681   9.099 -0.0527  0.2981  0.5473
 3413SOL    HW121875   2.757   0.755   9.054 -1.9310 -0.5518 -2.5824
 3413SOL    HW221876   2.626   0.712   9.094 -0.5522 -0.5181  4.3913
 3414SOL     OW21877   1.222   2.304   3.147  0.2822  0.0278 -0.5536
 3414SOL    HW121878   1.195   2.256   3.226  0.0895 -0.0967 -0.6977
 3414SOL    HW221879   1.144   2.331   3.099 -0.6041 -0.8407  0.3842
 3415SOL     OW21880   1.372   2.722   3.413 -0.2326  0.1853  0.5642
 3415SOL    HW121881   1.335   2.758   3.333  2.2472 -0.1351 -0.7234
 3415SOL    HW221882   1.383   2.629   3.394  0.7869  0.4960 -0.3523
 3416SOL     OW21883   0.403   0.996  12.775  0.8888  0.6356 -0.4519
 3416SOL    HW121884   0.380   0.944  12.698 -1.3137  0.6532  0.1879
 3416SOL    HW221885   0.486   0.953  12.796  0.1575 -2.3051 -3.4783
 3417SOL     OW21886   4.067   2.765   1.157  0.5763 -0.3030  0.4066
 3417SOL    HW121887   4.019   2.697   1.110  2.8413 -1.7835  0.2786
 3417SOL    HW221888   3.993   2.792   1.212  0.3756  0.8422 -0.4362
 3418SOL     OW21889   3.074   0.435   3.419 -0.0193 -0.1125  0.2810
 3418SOL    HW121890   3.158   0.403   3.450 -0.6720 -1.8555  0.2429
 3418SOL    HW221891   3.033   0.464   3.501 -1.3885  1.5322 -0.9846
 3419SOL     OW21892   2.993   0.189   7.007  0.1979 -0.3664 -0.0989
 3419SOL    HW121893   2.914   0.237   7.033  0.9114  1.7987 -1.8913
 3419SOL    HW221894   2.955   0.102   7.003 -1.9634  0.6197 -0.9881
 3420SOL     OW21895   0.240   3.538   7.440  0.2683  0.0236 -0.3804
 3420SOL    HW121896   0.224   3.541   7.534  0.9373  1.2323 -0.3048
 3420SOL    HW221897   0.166   3.488   7.404  0.9747  0.0467 -1.8604
 3421SOL     OW21898   1.441   1.704   3.111  0.2916 -0.6441  0.2528
 3421SOL    HW121899   1.371   1.638   3.112 -0.9370  0.6566  0.4021
 3421SOL    HW221900   1.495   1.662   3.044  1.2250  0.4632  0.3269
 3422SOL     OW21901   0.838   3.689  10.841 -0.7869 -0.7006 -0.2332
 3422SOL    HW121902   0.795   3.719  10.921  0.0024  0.8827 -0.4082
 3422SOL    HW221903   0.788   3.729  10.770 -2.8666 -3.5448 -0.3751
 3423SOL     OW21904   3.537   0.712   8.096  0.2309 -0.0316 -0.0003
 3423SOL    HW121905   3.534   0.796   8.140  0.3562 -1.9013  3.5706
 3423SOL    HW221906   3.572   0.739   8.011  3.3230  0.6237  1.4905
 3424SOL     OW21907   3.240   0.921   3.247 -0.0874  0.5079 -0.3970
 3424SOL    HW121908   3.160   0.974   3.245  0.0362  0.7288  0.8245
 3424SOL    HW221909   3.193   0.840   3.268 -0.9874  1.5446  1.5275
 3425SOL     OW21910   0.124   1.221   8.508  0.3047  0.3980  0.2493
 3425SOL    HW121911   0.120   1.205   8.414 -2.2850  0.0552  0.4102
 3425SOL    HW221912   0.215   1.250   8.510  1.0310 -1.8169 -1.1264
 3426SOL     OW21913   4.093   2.939   2.085  0.2836  0.3746 -0.1272
 3426SOL    HW121914   4.041   2.881   2.028  0.0437 -0.1896  0.6589
 3426SOL    HW221915   4.037   2.946   2.162  0.9335  0.9934  0.2853
 3427SOL     OW21916   3.496   0.215   7.537  0.0798 -0.2815  0.1106
 3427SOL    HW121917   3.447   0.249   7.612  0.6672  0.8276 -0.0033
 3427SOL    HW221918   3.477   0.282   7.470 -0.5330 -0.1977  0.3633
 3428SOL     OW21919   1.945   2.856  12.335  0.4693  0.6484  0.4462
 3428SOL    HW121920   1.865   2.908  12.343 -1.1401 -1.7644  0.0105
 3428SOL    HW221921   1.989   2.907  12.267 -1.2502 -2.5396 -3.0065
 3429SOL     OW21922   4.291   4.435   2.842  0.2469  0.7110  0.1145
 3429SOL    HW121923   4.279   4.529   2.852  2.8952  0.9923  0.6198
 3429SOL    HW221924   4.294   4.425   2.747  1.0326 -0.6890  0.2845
 3430SOL     OW21925   0.310   0.632   5.837 -0.1386 -0.8390 -0.3698
 3430SOL    HW121926   0.390   0.627   5.784 -0.4219 -0.6060 -0.8154
 3430SOL    HW221927   0.320   0.567   5.906  1.4955 -1.6044 -1.3333
 3431SOL     OW21928   0.892   3.216   8.945 -0.1714 -0.7597 -0.7745
 3431SOL    HW121929   0.972   3.252   8.983 -0.5409 -0.3622 -0.3699
 3431SOL    HW221930   0.917   3.214   8.853 -0.1800 -0.6571 -0.7795
 3432SOL     OW21931   2.485   1.273   9.107 -0.1058 -0.1445 -0.4080
 3432SOL    HW121932   2.414   1.316   9.061 -0.4370 -2.2647 -1.9067
 3432SOL    HW221933   2.511   1.214   9.036 -1.1592 -1.9648  0.7212
 3433SOL     OW21934   2.328   1.474   3.851 -0.5559 -0.2057 -0.2882
 3433SOL    HW121935   2.337   1.388   3.891  2.1030 -0.2173 -0.8825
 3433SOL    HW221936   2.234   1.487   3.844 -1.0450 -2.2806  2.4746
 3434SOL     OW21937   3.140   1.483   6.991  0.1748 -0.0879 -0.1655
 3434SOL    HW121938   3.048   1.462   7.007  0.7533 -1.1505  1.8238
 3434SOL    HW221939   3.133   1.504   6.898  1.2325  0.0338 -0.2181
 3435SOL     OW21940   4.299   4.555   6.794 -0.2819  0.2878 -0.1293
 3435SOL    HW121941   4.388   4.573   6.823 -0.3713 -0.2252  0.4801
 3435SOL    HW221942   4.300   4.460   6.800  0.5172  0.4528  2.3565
 3436SOL     OW21943   3.736   4.007   4.677  0.3094 -0.0540 -0.2389
 3436SOL    HW121944   3.795   3.951   4.727  0.2906  0.7591  0.7111
 3436SOL    HW221945   3.788   3.999   4.597  1.0874  0.4237  0.2147
 3437SOL     OW21946   3.489   1.545  11.621  0.0810  0.1037  0.3353
 3437SOL    HW121947   3.414   1.509  11.668 -0.1070  1.8817  1.3780
 3437SOL    HW221948   3.466   1.622  11.570  0.0192  0.3263  0.7045
 3438SOL     OW21949   2.611   4.191   2.314  0.3632 -0.2076 -0.7495
 3438SOL    HW121950   2.662   4.223   2.388  0.8102 -1.7490 -0.3773
 3438SOL    HW221951   2.672   4.123   2.285 -0.7457 -1.2243 -0.7325
 3439SOL     OW21952   4.702   0.621  13.734 -0.2260 -0.6870 -0.4013
 3439SOL    HW121953   4.648   0.555  13.689 -1.8164  0.4800 -0.1843
 3439SOL    HW221954   4.671   0.591  13.819  0.3144 -0.9847 -0.3071
 3440SOL     OW21955   3.897   4.302   7.036 -0.0313  0.2076  0.3074
 3440SOL    HW121956   3.835   4.233   7.062 -1.8260  1.1137 -1.5556
 3440SOL    HW221957   3.977   4.252   7.019  0.4825  1.0106  0.3933
 3441SOL     OW21958   3.383   0.816   1.138 -0.0465  0.1382 -0.0659
 3441SOL    HW121959   3.404   0.739   1.085  2.6020  1.8569 -1.5579
 3441SOL    HW221960   3.368   0.879   1.068  0.1294 -2.3447 -2.3521
 3442SOL     OW21961   3.740   2.545  14.881  0.0429  0.0279  0.3035
 3442SOL    HW121962   3.782   2.587  14.956  0.2752  0.0594  0.1544
 3442SOL    HW221963   3.794   2.571  14.807 -1.3451 -0.3930 -0.8693
 3443SOL     OW21964   3.344   4.091   6.540  0.0350 -0.7184 -0.2931
 3443SOL    HW121965   3.290   4.081   6.462  0.9656 -0.1825 -1.0142
 3443SOL    HW221966   3.407   4.154   6.505 -0.9449 -1.0714 -2.6898
 3444SOL     OW21967   1.839   1.601   3.962 -0.0380 -0.2606 -0.0744
 3444SOL    HW121968   1.798   1.515   3.957  0.1057 -0.4471  2.0384
 3444SOL    HW221969   1.771   1.655   4.002 -0.5976 -0.3047 -0.9468
 3445SOL     OW21970   0.970   1.618   3.409 -0.1303 -0.0010  0.6902
 3445SOL    HW121971   0.879   1.595   3.393 -0.1715 -0.5627  1.7320
 3445SOL    HW221972   1.009   1.563   3.341 -0.4379 -0.4882  0.9026
 3446SOL     OW21973   1.291   2.351  17.351  0.6696  0.4246 -0.0081
 3446SOL    HW121974   1.294   2.326  17.259  2.6482  1.5472 -0.2409
 3446SOL    HW221975   1.351   2.423  17.371 -0.6968  1.6357 -0.2922
 3447SOL     OW21976   4.245   0.294   0.875  0.0664 -0.3840  0.0296
 3447SOL    HW121977   4.256   0.388   0.860  2.9412 -0.6568  0.4402
 3447SOL    HW221978   4.216   0.283   0.965 -1.7180  2.9174 -0.1358
 3448SOL     OW21979   4.410   3.771   3.355 -0.3313 -0.2213  0.4212
 3448SOL    HW121980   4.453   3.762   3.441 -0.8565 -0.1493  0.6907
 3448SOL    HW221981   4.400   3.678   3.336  0.1585  0.0053 -0.9125
 3449SOL     OW21982   0.115   2.421   4.661  0.6909  0.0524 -0.3777
 3449SOL    HW121983   0.130   2.513   4.683 -2.3772  0.4713 -0.0949
 3449SOL    HW221984   0.036   2.397   4.709 -0.4845 -0.3026 -2.5465
 3450SOL     OW21985   3.847   0.290  15.423  0.0304 -0.2369 -0.3354
 3450SOL    HW121986   3.854   0.202  15.459  3.7151  0.4703  0.6330
 3450SOL    HW221987   3.931   0.296  15.379  1.7892 -1.7398  2.8029
 3451SOL     OW21988   3.599   0.182   9.909 -0.5139 -0.1035  0.5257
 3451SOL    HW121989   3.690   0.172   9.939  0.5670  1.9128 -2.0743
 3451SOL    HW221990   3.593   0.277   9.910 -1.9284 -0.1960  0.1677
 3452SOL     OW21991   4.359   3.352   1.994  0.4866  0.6774 -0.3189
 3452SOL    HW121992   4.361   3.425   1.931  0.2032  0.0094 -1.0949
 3452SOL    HW221993   4.452   3.346   2.016  0.7466  3.1419 -0.6420
 3453SOL     OW21994   0.663   3.809   3.911  0.5540  0.4151  0.6624
 3453SOL    HW121995   0.603   3.837   3.841 -1.7697  0.4886  2.6857
 3453SOL    HW221996   0.621   3.737   3.957  3.1827 -1.8390 -0.5187
 3454SOL     OW21997   3.521   3.466   1.908  0.0057  0.0710  0.4473
 3454SOL    HW121998   3.497   3.400   1.843 -1.9643  0.5680  0.6804
 3454SOL    HW221999   3.579   3.517   1.851  0.2606 -3.0767 -2.0921
 3455SOL     OW22000   3.592   1.630  14.838 -0.4655 -0.4250  0.0500
 3455SOL    HW122001   3.588   1.726  14.833 -1.8566 -0.4125  1.4508
 3455SOL    HW222002   3.614   1.611  14.930  0.1748 -1.1428 -0.2565
 3456SOL     OW22003   3.618   4.358   7.972  0.2710  0.7637  0.0249
 3456SOL    HW122004   3.587   4.353   8.063  1.5144  2.0365  0.5252
 3456SOL    HW222005   3.600   4.451   7.962 -0.2708  0.6238 -0.2532
 3457SOL     OW22006   0.097   4.216  15.003 -0.7271 -0.1363  0.4298
 3457SOL    HW122007   0.186   4.184  15.019 -0.6525  0.5537  1.3452
 3457SOL    HW222008   0.054   4.136  15.031 -2.2213  0.9946  1.3720
 3458SOL     OW22009   2.780   0.151   6.261 -0.0782 -0.0510  0.3187
 3458SOL    HW122010   2.858   0.199   6.287  1.8359 -2.6684 -0.5985
 3458SOL    HW222011   2.713   0.209   6.297 -0.3829  0.5404 -1.2086
 3459SOL     OW22012   4.477   4.461  15.338  0.4946 -0.6356 -0.2624
 3459SOL    HW122013   4.406   4.404  15.308 -0.1057  0.1477 -0.3249
 3459SOL    HW222014   4.452   4.543  15.294 -0.8493 -0.8571  0.0797
 3460SOL     OW22015   0.621   3.202  11.477  0.2133  0.0389 -0.0101
 3460SOL    HW122016   0.704   3.197  11.525 -2.1056 -0.5159  3.9513
 3460SOL    HW222017   0.559   3.158  11.535  0.7793 -1.6664 -0.6814
 3461SOL     OW22018   2.233   1.571   3.483  0.1178 -0.0408  0.4615
 3461SOL    HW122019   2.192   1.642   3.434  1.6382 -0.9302 -2.1006
 3461SOL    HW222020   2.218   1.605   3.571 -1.7461 -0.6805  0.3934
 3462SOL     OW22021   4.662   4.156   7.388  0.2709 -0.5948  0.2943
 3462SOL    HW122022   4.642   4.249   7.393  1.0258 -0.3220 -1.5799
 3462SOL    HW222023   4.621   4.118   7.466  0.5282 -0.3244  0.5595
 3463SOL     OW22024   2.727   0.717  12.440 -0.2432 -0.4293 -0.2988
 3463SOL    HW122025   2.646   0.738  12.394 -1.2555 -0.2579  1.5463
 3463SOL    HW222026   2.696   0.674  12.520  2.2984 -0.5649  0.6021
 3464SOL     OW22027   2.131   2.433  17.428 -0.2126  0.0992  0.7192
 3464SOL    HW122028   2.118   2.512  17.481 -2.5246  1.6485 -2.2068
 3464SOL    HW222029   2.146   2.368  17.496 -1.1521 -1.4847 -0.5927
 3465SOL     OW22030   2.969   4.606   2.104  0.0208 -0.0602  0.0442
 3465SOL    HW122031   2.999   4.581   2.191 -0.5095  0.4382  0.3694
 3465SOL    HW222032   3.052   4.583   2.064  1.9409  0.9131  3.4569
 3466SOL     OW22033   4.268   3.646   6.826  0.3690  0.1991  0.5411
 3466SOL    HW122034   4.330   3.619   6.758  0.2103  0.7974  0.1587
 3466SOL    HW222035   4.277   3.739   6.809 -1.7165 -0.0148 -1.8623
 3467SOL     OW22036   0.561   1.525   4.558  0.7945  0.0917  0.2968
 3467SOL    HW122037   0.522   1.531   4.645 -0.3950  0.3322 -0.2583
 3467SOL    HW222038   0.508   1.452   4.524 -1.7670  2.4532 -0.7548
 3468SOL     OW22039   3.925   0.480  12.575 -0.2845  0.3171  0.1339
 3468SOL    HW122040   4.010   0.453  12.610  0.4275  1.1147 -0.9802
 3468SOL    HW222041   3.894   0.543  12.640 -0.5084  1.2482 -0.8744
 3469SOL     OW22042   4.727   3.766   7.083 -0.4945  0.2149  0.5308
 3469SOL    HW122043   0.017   3.674   7.085  0.4281  0.5108  1.5553
 3469SOL    HW222044   4.631   3.763   7.076 -0.5470 -2.7867  2.5334
 3470SOL     OW22045   1.525   2.673   8.586  0.5259 -0.3667 -0.3318
 3470SOL    HW122046   1.574   2.680   8.668  0.0666  3.1233 -0.3676
 3470SOL    HW222047   1.447   2.712   8.626  0.1042 -0.8488 -0.6867
 3471SOL     OW22048   3.996   0.103   2.586 -0.0718 -0.0233  0.2066
 3471SOL    HW122049   4.031   0.192   2.592 -1.4911  0.5833 -0.4027
 3471SOL    HW222050   3.978   0.073   2.675 -3.1776  2.1319  0.3152
 3472SOL     OW22051   0.985   4.459   5.026 -0.0840  0.7018  0.6149
 3472SOL    HW122052   1.012   4.550   5.032 -0.6856  1.0827 -2.3241
 3472SOL    HW222053   0.990   4.439   4.932  0.6801 -0.1124  0.8311
 3473SOL     OW22054   2.103   0.502   6.904 -0.3047  0.3666 -0.0253
 3473SOL    HW122055   2.045   0.430   6.928 -0.0481 -0.0150 -0.5501
 3473SOL    HW222056   2.185   0.452   6.894 -0.2997  0.6577 -1.4181
 3474SOL     OW22057   2.989   3.756   9.297  0.2978  0.1669 -0.4118
 3474SOL    HW122058   3.074   3.718   9.274 -0.0935 -0.3668 -0.9630
 3474SOL    HW222059   2.989   3.727   9.389 -2.0823  1.1443 -0.1058
 3475SOL     OW22060   0.331   1.533   5.311  0.5097 -0.0553  0.9927
 3475SOL    HW122061   0.348   1.603   5.374 -1.2820  0.9827  0.2995
 3475SOL    HW222062   0.402   1.475   5.341  1.6082  1.3729  1.1403
 3476SOL     OW22063   3.140   3.607  13.999  0.5000 -0.2199  0.3041
 3476SOL    HW122064   3.099   3.686  13.964  1.7361 -0.6561 -2.1781
 3476SOL    HW222065   3.144   3.568  13.911  0.9961  1.8799 -0.6008
 3477SOL     OW22066   2.901   4.351   4.858  0.2735 -0.2918 -0.2601
 3477SOL    HW122067   2.928   4.442   4.870  0.2631 -0.0490 -2.0976
 3477SOL    HW222068   2.806   4.364   4.858 -0.3592 -4.7935 -2.4712
 3478SOL     OW22069   1.670   1.864   0.394  0.2861  0.4248  0.2537
 3478SOL    HW122070   1.679   1.920   0.318 -1.5447  0.1357 -0.1710
 3478SOL    HW222071   1.678   1.778   0.353 -0.3031  0.0934  0.8298
 3479SOL     OW22072   2.515   0.710   6.373 -0.1161 -0.4217  0.2064
 3479SOL    HW122073   2.475   0.683   6.290  3.0313  0.0839 -1.4773
 3479SOL    HW222074   2.497   0.804   6.377  0.4758 -0.2874 -0.2641
 3480SOL     OW22075   3.404   4.549  17.571 -0.5195  0.0062  0.1737
 3480SOL    HW122076   3.335   4.610  17.597 -3.3058 -2.1999 -1.9704
 3480SOL    HW222077   3.482   4.578  17.618 -0.6243  0.1316  0.2716
 3481SOL     OW22078   4.334   1.626   5.368  0.7027 -0.1756 -0.2289
 3481SOL    HW122079   4.340   1.679   5.288 -0.7650 -1.7775 -1.3882
 3481SOL    HW222080   4.398   1.561   5.340  0.5113  0.1656 -1.4537
 3482SOL     OW22081   0.201   4.556   2.499 -0.6400  0.1930 -0.5353
 3482SOL    HW122082   0.288   4.584   2.469 -0.7840  0.8295 -0.3536
 3482SOL    HW222083   0.156   4.538   2.416 -2.2291  0.4000  0.2861
 3483SOL     OW22084   2.691   0.235   8.437 -0.3904 -0.1718  0.1691
 3483SOL    HW122085   2.774   0.265   8.473 -1.1087  2.0735 -0.0382
 3483SOL    HW222086   2.689   0.147   8.475 -0.8858 -0.3864 -0.3666
 3484SOL     OW22087   3.519   3.583   7.438  0.1845 -0.1604  0.0233
 3484SOL    HW122088   3.476   3.646   7.496  1.7447  1.4632 -0.5916
 3484SOL    HW222089   3.597   3.626   7.404  0.4877 -0.4457  0.3626
 3485SOL     OW22090   1.969   0.838   3.611 -0.1551  0.0868 -0.1602
 3485SOL    HW122091   1.977   0.881   3.696 -0.3332  1.7144 -0.9864
 3485SOL    HW222092   1.902   0.893   3.572 -1.8938 -0.0372  2.6642
 3486SOL     OW22093   2.707   2.731   2.476  0.1105 -0.2138  0.3372
 3486SOL    HW122094   2.683   2.640   2.494 -0.1943 -0.2350 -0.1776
 3486SOL    HW222095   2.666   2.764   2.556 -1.5203  0.2590 -0.6995
 3487SOL     OW22096   1.487   2.176   7.120 -0.1598 -0.1082  0.5345
 3487SOL    HW122097   1.474   2.271   7.125 -1.0784 -0.2885  1.6938
 3487SOL    HW222098   1.523   2.167   7.032 -1.3965  2.1354 -0.2003
 3488SOL     OW22099   0.247   3.397   5.502  0.3509  0.0435  0.1124
 3488SOL    HW122100   0.177   3.346   5.462  2.6128 -1.9781 -1.2433
 3488SOL    HW222101   0.295   3.427   5.424  2.1124  2.6054  2.1618
 3489SOL     OW22102   2.685   2.778   4.860  0.1943 -0.3617  0.0862
 3489SOL    HW122103   2.719   2.697   4.821 -2.7595 -0.7063 -1.7365
 3489SOL    HW222104   2.601   2.756   4.901  0.8545  0.0820  1.6670
 3490SOL     OW22105   0.735   2.345   0.020  0.1489 -0.4249  0.2065
 3490SOL    HW122106   0.759   2.362  17.672 -1.5361  1.4704  0.1099
 3490SOL    HW222107   0.687   2.426   0.039  1.3993  0.7012 -1.3964
 3491SOL     OW22108   2.456   3.525   5.048  0.1568  0.2067  0.0322
 3491SOL    HW122109   2.455   3.570   4.963 -0.5005  0.5030  0.1937
 3491SOL    HW222110   2.388   3.577   5.090  1.2708  2.9958 -1.6146
 3492SOL     OW22111   4.587   1.315   1.191 -0.0034  0.8202  0.3382
 3492SOL    HW122112   4.572   1.310   1.286 -0.8156 -0.4669  0.1525
 3492SOL    HW222113   4.580   1.407   1.166 -1.9480  0.1286 -1.7022
 3493SOL     OW22114   1.961   2.984   6.889 -0.6358  0.4623  0.6092
 3493SOL    HW122115   1.959   2.890   6.909  0.2596  0.0831 -1.0274
 3493SOL    HW222116   1.872   2.995   6.857 -0.3896  0.7774  0.0321
 3494SOL     OW22117   1.037   4.181   5.540  0.7843  0.2531  0.6429
 3494SOL    HW122118   1.016   4.114   5.475  3.2363 -0.1798  0.2962
 3494SOL    HW222119   1.094   4.138   5.604 -0.8146 -2.4939  0.2055
 3495SOL     OW22120   2.553   3.905  10.587 -0.7624  0.8156  0.1954
 3495SOL    HW122121   2.620   3.848  10.624 -1.3653  0.7318  1.1456
 3495SOL    HW222122   2.467   3.867  10.601  0.7883 -2.6302  0.4476
 3496SOL     OW22123   2.496   1.084   5.185 -0.0786 -0.1325 -0.0196
 3496SOL    HW122124   2.566   1.018   5.183 -0.2327 -0.2972  0.0511
 3496SOL    HW222125   2.525   1.145   5.118 -0.2315  1.0187  0.9683
 3497SOL     OW22126   1.888   3.489   7.608  0.6047  0.1875  0.3589
 3497SOL    HW122127   1.965   3.540   7.585  1.1699 -1.3064 -1.0398
 3497SOL    HW222128   1.912   3.452   7.693  0.9408  0.0047  0.1825
 3498SOL     OW22129   3.392   2.318   7.794 -0.1317 -0.0797 -0.1403
 3498SOL    HW122130   3.389   2.351   7.705 -1.5358  2.7564  0.9742
 3498SOL    HW222131   3.308   2.351   7.824  0.9252  1.2872  1.3645
 3499SOL     OW22132   1.624   4.436   3.814 -0.0985 -0.6511  0.2453
 3499SOL    HW122133   1.572   4.395   3.883 -2.6417  1.0777 -0.6453
 3499SOL    HW222134   1.715   4.424   3.842 -0.3447  1.6047  2.0566
 3500SOL     OW22135   0.853   4.015   8.139  0.0210 -0.2332 -0.3455
 3500SOL    HW122136   0.767   3.973   8.140 -0.3486  0.5257 -2.0621
 3500SOL    HW222137   0.886   3.978   8.221  0.9629 -0.1752 -0.7015
 3501SOL     OW22138   2.919   3.848   0.833  0.3953 -0.2022  0.1461
 3501SOL    HW122139   2.994   3.890   0.792 -0.1214  0.8765  0.2995
 3501SOL    HW222140   2.843   3.870   0.780 -0.7537  0.2162  1.9524
 3502SOL     OW22141   2.650   1.525  13.019  0.1809  0.2176  0.1063
 3502SOL    HW122142   2.628   1.479  12.938  2.0789 -0.4195 -0.0418
 3502SOL    HW222143   2.583   1.493  13.080  0.4429  0.0286  0.2959
 3503SOL     OW22144   3.019   2.000  11.096  0.4048  0.0410  0.4452
 3503SOL    HW122145   3.068   2.075  11.065 -0.5540  0.7409  0.6235
 3503SOL    HW222146   3.073   1.929  11.062 -2.9323 -1.3568 -1.9561
 3504SOL     OW22147   4.252   0.264   6.583 -0.8169 -0.1887  0.5008
 3504SOL    HW122148   4.258   0.240   6.675 -1.0524 -0.7480  0.3715
 3504SOL    HW222149   4.212   0.350   6.592  2.8497  1.4250  1.5442
 3505SOL     OW22150   3.846   4.216   3.184  0.3999 -0.8301  0.1362
 3505SOL    HW122151   3.905   4.215   3.260  0.4758  1.9908  0.1059
 3505SOL    HW222152   3.896   4.156   3.130 -0.7285 -0.7825 -0.9583
 3506SOL     OW22153   3.445   0.293   6.366  0.2365  0.2443  0.4135
 3506SOL    HW122154   3.377   0.250   6.314  1.2748 -0.1945 -0.5950
 3506SOL    HW222155   3.438   0.244   6.448  1.2035  0.9011  0.8841
 3507SOL     OW22156   4.230   1.651   4.048 -0.0021 -0.2960  0.4562
 3507SOL    HW122157   4.179   1.585   4.000  1.8494 -1.5010  0.1528
 3507SOL    HW222158   4.305   1.601   4.080  0.5660 -0.9278 -1.8447
 3508SOL     OW22159   3.756   2.238   7.327 -0.0597 -0.2642 -0.9794
 3508SOL    HW122160   3.752   2.178   7.402  0.0253 -0.5531 -1.2078
 3508SOL    HW222161   3.847   2.224   7.304  0.3284  2.2677 -1.0466
 3509SOL     OW22162   1.508   2.125  17.040 -0.3117 -0.9978  0.4208
 3509SOL    HW122163   1.593   2.120  17.084  0.0872  1.3571 -0.0352
 3509SOL    HW222164   1.492   2.033  17.021 -1.1273 -0.4517 -1.6040
 3510SOL     OW22165   2.856   1.115  12.786  0.3872  0.1048 -0.0139
 3510SOL    HW122166   2.799   1.095  12.860 -0.4384 -1.6264 -1.1308
 3510SOL    HW222167   2.838   1.207  12.766  0.6476 -0.2250 -1.7525
 3511SOL     OW22168   2.204   3.784   3.722  0.3747  0.7103  0.5446
 3511SOL    HW122169   2.205   3.850   3.652  0.7058 -0.5723 -0.6606
 3511SOL    HW222170   2.199   3.844   3.796  0.5550  1.4648 -0.0506
 3512SOL     OW22171   0.044   1.344   6.589  0.1017  0.0469  0.2816
 3512SOL    HW122172   0.123   1.378   6.632  3.2217 -3.6449 -2.4469
 3512SOL    HW222173   0.077   1.283   6.522 -1.1341  0.1899 -0.4500
 3513SOL     OW22174   4.485   1.129   3.445 -0.2091  0.3361  0.1278
 3513SOL    HW122175   4.410   1.187   3.455 -1.8011 -1.9617  1.7661
 3513SOL    HW222176   4.448   1.064   3.385  0.0651  0.5549 -0.2756
 3514SOL     OW22177   1.470   0.549  16.516 -0.0293 -0.1340  0.0034
 3514SOL    HW122178   1.542   0.582  16.570  1.4011 -2.2543 -0.6091
 3514SOL    HW222179   1.459   0.465  16.562 -1.9340  1.0686  1.7561
 3515SOL     OW22180   3.672   2.272  14.905  0.5866 -0.5362 -0.2596
 3515SOL    HW122181   3.698   2.364  14.915 -0.5033  0.0676 -2.8570
 3515SOL    HW222182   3.649   2.260  14.813 -1.3166 -0.9843  0.2855
 3516SOL     OW22183   1.847   4.687   2.869 -0.9082 -0.3762 -0.4657
 3516SOL    HW122184   1.888   0.032   2.897 -0.9158 -0.8840  1.0638
 3516SOL    HW222185   1.754   4.709   2.879 -0.8815 -0.9022  1.0630
 3517SOL     OW22186   4.643   0.631   6.472 -0.3088  0.0874  0.1616
 3517SOL    HW122187   4.698   0.594   6.403 -2.3854 -2.6562 -0.0506
 3517SOL    HW222188   4.602   0.554   6.512 -0.2182 -0.4273 -0.7436
 3518SOL     OW22189   4.354   2.038   4.557  0.0756  0.0563  0.2904
 3518SOL    HW122190   4.260   2.057   4.555  0.0062 -0.3963 -0.8663
 3518SOL    HW222191   4.380   2.018   4.647 -0.7057  1.2135  0.7672
 3519SOL     OW22192   2.894   4.070   8.135 -0.2651  0.2449 -0.3202
 3519SOL    HW122193   2.978   4.037   8.169 -0.4113 -2.3030 -2.3941
 3519SOL    HW222194   2.848   3.988   8.117  0.9667 -1.1618  2.9055
 3520SOL     OW22195   3.603   2.020  10.829  0.2441 -0.2661  0.0830
 3520SOL    HW122196   3.673   1.956  10.819 -0.0109 -0.8021  1.6041
 3520SOL    HW222197   3.539   1.985  10.767  1.4167 -0.8644 -0.7877
 3521SOL     OW22198   4.374   0.493  11.491  0.8970 -0.2255 -0.0189
 3521SOL    HW122199   4.406   0.402  11.489  0.8746 -0.2023 -1.5721
 3521SOL    HW222200   4.457   0.531  11.521  0.6936 -1.3151  1.9271
 3522SOL     OW22201   1.971   2.493   1.139 -0.2687  0.7424 -0.0714
 3522SOL    HW122202   2.021   2.412   1.150 -1.5148  0.0195  0.3473
 3522SOL    HW222203   1.904   2.468   1.075 -0.1713 -0.3436  0.2458
 3523SOL     OW22204   2.892   4.679   7.018  0.4911 -0.1851 -0.3428
 3523SOL    HW122205   2.812   4.676   6.965 -0.5117  0.0946  1.1554
 3523SOL    HW222206   2.866   4.616   7.086  2.0835 -0.5555 -0.0733
 3524SOL     OW22207   2.907   2.357  10.307 -0.1563 -0.0312 -0.0062
 3524SOL    HW122208   2.910   2.452  10.319 -1.2709  0.1483 -1.1624
 3524SOL    HW222209   2.838   2.342  10.371 -0.3738  0.6211 -0.0894
 3525SOL     OW22210   2.205   0.606   3.011 -0.0672  0.5829 -0.2223
 3525SOL    HW122211   2.197   0.694   3.048  1.8772  1.3035 -1.5484
 3525SOL    HW222212   2.272   0.572   3.069 -0.3376  1.8278  0.8284
 3526SOL     OW22213   1.628   3.833   7.584 -0.2395  0.3412 -0.0878
 3526SOL    HW122214   1.631   3.913   7.532 -1.1448 -0.4677 -1.3661
 3526SOL    HW222215   1.605   3.769   7.516 -0.3390 -0.8513  1.0568
 3527SOL     OW22216   1.447   3.618   0.706 -0.0785  0.6547  0.5612
 3527SOL    HW122217   1.458   3.536   0.754  3.0168 -0.0981 -1.3871
 3527SOL    HW222218   1.359   3.635   0.737 -0.7482 -1.4528 -0.2099
 3528SOL     OW22219   1.271   0.236   8.841 -0.2140 -0.0818  0.3282
 3528SOL    HW122220   1.231   0.304   8.895  0.2941 -0.9664  1.7927
 3528SOL    HW222221   1.361   0.269   8.841 -0.1453 -0.3032  2.2159
 3529SOL     OW22222   2.683   4.337   5.162 -0.0124 -0.1407  0.5630
 3529SOL    HW122223   2.665   4.330   5.068  1.7444  0.8027  0.1670
 3529SOL    HW222224   2.638   4.261   5.198 -1.3226  1.3938  2.1590
 3530SOL     OW22225   4.320   2.941  12.706  0.2070 -0.3728  0.5115
 3530SOL    HW122226   4.294   2.849  12.718 -0.2641 -0.0412  2.1461
 3530SOL    HW222227   4.324   2.949  12.611  3.2108  1.8618  0.8529
 3531SOL     OW22228   1.679   4.530  14.904  0.0749 -0.2746  0.3461
 3531SOL    HW122229   1.734   4.488  14.838  1.4555  2.2160 -0.0897
 3531SOL    HW222230   1.592   4.495  14.885 -0.1293 -1.1702  2.9102
 3532SOL     OW22231   1.646   0.397   7.966  0.2113  0.8053 -0.1406
 3532SOL    HW122232   1.661   0.409   8.060  0.2983  0.1906 -0.0728
 3532SOL    HW222233   1.550   0.389   7.966  0.3510 -0.8666  0.0357
 3533SOL     OW22234   4.054   3.270   1.092 -0.6513 -0.4499 -0.3589
 3533SOL    HW122235   3.994   3.196   1.104 -0.3401 -0.6192  0.1449
 3533SOL    HW222236   4.024   3.344   1.144  0.8550  0.0500 -0.2133
 3534SOL     OW22237   1.335   0.906   2.269 -0.3084  0.7388  0.4793
 3534SOL    HW122238   1.396   0.834   2.288  1.0914  1.5006 -1.0779
 3534SOL    HW222239   1.398   0.960   2.221 -1.4080  1.2883 -0.3381
 3535SOL     OW22240   3.808   4.333   1.915 -0.1482  0.0480  0.2490
 3535SOL    HW122241   3.853   4.251   1.895  0.3725  0.4457 -0.2231
 3535SOL    HW222242   3.720   4.294   1.914 -0.2995  0.4122 -0.8594
 3536SOL     OW22243   0.724   4.456   5.790  0.3524  0.1911  0.4220
 3536SOL    HW122244   0.757   4.419   5.708  2.5430 -2.4488  2.4685
 3536SOL    HW222245   0.794   4.518   5.809  2.4932 -1.4240 -2.1772
 3537SOL     OW22246   2.425   2.573   3.261  0.4869  0.3725  0.4377
 3537SOL    HW122247   2.466   2.489   3.284 -0.1793  0.2255  1.1040
 3537SOL    HW222248   2.465   2.622   3.332  1.1105 -0.0505  0.3857
 3538SOL     OW22249   2.059   3.520   9.388 -0.0974  0.4903 -0.6715
 3538SOL    HW122250   1.979   3.569   9.407  0.2517  0.9405 -0.3718
 3538SOL    HW222251   2.088   3.551   9.302  0.3543  1.9140  0.0018
 3539SOL     OW22252   1.905   1.254   6.598  0.3554 -0.6498 -0.2368
 3539SOL    HW122253   1.997   1.235   6.616  0.3393 -0.1389  0.4140
 3539SOL    HW222254   1.870   1.257   6.687 -2.0821  0.7898 -1.2574
 3540SOL     OW22255   4.724   1.215   3.390 -0.0034  0.3105 -0.0580
 3540SOL    HW122256   4.644   1.181   3.430 -1.0917 -0.4897 -2.9311
 3540SOL    HW222257   4.696   1.302   3.361 -1.7687 -1.0229 -2.3108
 3541SOL     OW22258   1.077   0.922   2.347 -0.1016 -0.2747 -0.2861
 3541SOL    HW122259   1.167   0.920   2.316 -0.2792  0.0547 -0.8190
 3541SOL    HW222260   1.080   0.847   2.406 -0.6475 -0.1155 -0.0558
 3542SOL     OW22261   3.404   0.166   8.675 -0.3704  0.5791 -0.2891
 3542SOL    HW122262   3.452   0.248   8.689  0.2528  0.2301 -0.3835
 3542SOL    HW222263   3.404   0.168   8.579  0.1933  1.0999 -0.2812
 3543SOL     OW22264   3.542   1.070   7.713  0.5160 -0.5122 -0.1699
 3543SOL    HW122265   3.469   1.090   7.654 -0.0480  0.6247  0.9319
 3543SOL    HW222266   3.496   1.016   7.778 -0.3197  2.7660  1.9404
 3544SOL     OW22267   2.395   4.725  15.145  0.4393 -0.1155 -0.0389
 3544SOL    HW122268   2.402   0.061  15.207 -0.0225 -1.3850  1.4709
 3544SOL    HW222269   2.367   4.660  15.208  2.0496  0.3349  1.1524
 3545SOL     OW22270   2.796   3.249   7.241  0.2868  0.0137 -0.2124
 3545SOL    HW122271   2.801   3.334   7.197  1.4671 -0.5873 -1.2353
 3545SOL    HW222272   2.886   3.226   7.218  0.2290  0.0990 -0.5368
 3546SOL     OW22273   3.733   3.586  11.705 -0.2217  0.0637 -0.2234
 3546SOL    HW122274   3.677   3.520  11.747 -1.4822  1.5932  0.5009
 3546SOL    HW222275   3.690   3.668  11.730  0.0094 -0.2487  1.1587
 3547SOL     OW22276   0.270   1.900   8.781  0.5294  0.7122 -0.0106
 3547SOL    HW122277   0.196   1.840   8.776  0.1357  1.4616 -3.3850
 3547SOL    HW222278   0.325   1.848   8.840 -1.2945 -2.1263 -0.8142
 3548SOL     OW22279   3.026   3.713   9.585  0.2832 -0.0671 -0.1645
 3548SOL    HW122280   3.118   3.715   9.611  1.2421 -1.2714 -3.3789
 3548SOL    HW222281   2.990   3.630   9.616 -0.9944  0.1339 -1.1132
 3549SOL     OW22282   1.756   3.597   9.860 -0.6503  0.0856 -0.0124
 3549SOL    HW122283   1.676   3.624   9.816  0.2793  0.7881 -1.2804
 3549SOL    HW222284   1.818   3.667   9.840 -0.6037  0.7775  2.4966
 3550SOL     OW22285   2.870   4.383   2.972  0.1829  0.4655 -0.1839
 3550SOL    HW122286   2.829   4.399   2.887  0.2307  0.2001 -0.2559
 3550SOL    HW222287   2.964   4.392   2.954  1.0120 -1.8876  2.9761
 3551SOL     OW22288   0.101   0.290   2.257 -0.6357  0.3956 -0.4651
 3551SOL    HW122289   0.123   0.261   2.169 -0.4748  2.8908 -1.2546
 3551SOL    HW222290   0.064   0.208   2.290 -1.4195  1.6785  1.8353
 3552SOL     OW22291   0.747   1.916   4.688  0.2069  0.1000  0.5691
 3552SOL    HW122292   0.652   1.902   4.695  0.4482 -1.9017 -0.2802
 3552SOL    HW222293   0.779   1.838   4.733 -2.4413 -0.8352  0.8538
 3553SOL     OW22294   4.158   0.086   0.712 -0.2652  0.2989 -0.2974
 3553SOL    HW122295   4.077   0.137   0.715 -1.1801 -1.2033  1.2055
 3553SOL    HW222296   4.208   0.150   0.762  0.7476 -1.2705  0.7037
 3554SOL     OW22297   0.355   4.659   7.035  0.2379 -0.1581 -0.2295
 3554SOL    HW122298   0.342   4.649   6.941  4.1393  0.8015 -0.8796
 3554SOL    HW222299   0.374   4.571   7.066 -0.1844 -0.9263 -2.1407
 3555SOL     OW22300   2.332   2.520   8.390  0.4118 -0.1007 -0.2820
 3555SOL    HW122301   2.333   2.424   8.384 -0.4090 -0.0821 -0.7823
 3555SOL    HW222302   2.346   2.540   8.297  1.7767  0.9192  0.1614
 3556SOL     OW22303   1.339   0.676  16.728  0.1359  0.4921 -0.2479
 3556SOL    HW122304   1.364   0.679  16.635  0.4933  1.1840 -0.1275
 3556SOL    HW222305   1.283   0.754  16.735 -0.5717 -0.0520  0.0609
 3557SOL     OW22306   3.744   2.869   8.198  0.5362 -0.3552  0.4228
 3557SOL    HW122307   3.726   2.819   8.119 -0.0104 -1.0174  0.9734
 3557SOL    HW222308   3.658   2.886   8.237 -0.7294 -1.5356 -1.8892
 3558SOL     OW22309   1.763   4.376   9.046 -1.2453  0.1965 -0.1511
 3558SOL    HW122310   1.835   4.330   9.004 -0.6756  0.9767 -0.0117
 3558SOL    HW222311   1.729   4.306   9.102  2.5145 -1.1726  0.4182
 3559SOL     OW22312   0.024   3.862   8.187 -0.0443  0.3828  0.1612
 3559SOL    HW122313   4.730   3.887   8.275 -1.0818 -1.1937  0.2587
 3559SOL    HW222314   0.028   3.948   8.145 -1.0320  0.8108  0.9113
 3560SOL     OW22315   3.731   2.666   6.798  0.7319  0.4224  0.2295
 3560SOL    HW122316   3.639   2.666   6.824  0.9200  0.0291  0.8980
 3560SOL    HW222317   3.775   2.655   6.882  1.4320 -0.6406 -0.2701
 3561SOL     OW22318   3.447   2.085  16.125  0.2015  0.2079 -0.1810
 3561SOL    HW122319   3.389   2.069  16.051  1.6735  0.8937 -1.4930
 3561SOL    HW222320   3.443   2.002  16.172  0.5669  0.9211  1.1009
 3562SOL     OW22321   3.364   4.196   3.056 -0.1218  0.8658  0.0241
 3562SOL    HW122322   3.452   4.186   3.093 -0.1383 -0.9795 -0.4377
 3562SOL    HW222323   3.389   4.201   2.964 -0.7574  0.7057 -0.1609
 3563SOL     OW22324   3.867   3.142   2.462 -0.3654  0.4517  0.0447
 3563SOL    HW122325   3.773   3.144   2.447 -0.2773  1.9376 -0.3082
 3563SOL    HW222326   3.895   3.147   2.371 -1.7514  1.3400 -0.3330
 3564SOL     OW22327   1.210   4.259   5.313  0.2268 -0.1750  0.5698
 3564SOL    HW122328   1.120   4.235   5.291  0.3387 -0.6215  0.6130
 3564SOL    HW222329   1.258   4.196   5.260  0.0116 -0.3051  0.5284
 3565SOL     OW22330   1.472   2.361  10.932 -0.0852 -0.4464  0.0182
 3565SOL    HW122331   1.385   2.341  10.966 -1.3482  4.3328 -0.3650
 3565SOL    HW222332   1.467   2.456  10.939 -3.0098 -0.7066  1.2854
 3566SOL     OW22333   0.578   1.690  17.598  0.5339 -0.8159 -0.0838
 3566SOL    HW122334   0.652   1.747  17.621  0.5918 -0.6448 -0.6871
 3566SOL    HW222335   0.507   1.752  17.580  2.7439  2.0188  0.9963
 3567SOL     OW22336   3.820   1.149   3.928  0.7106  0.0115  0.0257
 3567SOL    HW122337   3.873   1.069   3.917  1.2119  0.3091  0.2744
 3567SOL    HW222338   3.880   1.214   3.964  1.3078 -0.4735 -0.0879
 3568SOL     OW22339   3.791   3.461  16.961  0.0414 -0.1236  0.2072
 3568SOL    HW122340   3.751   3.426  16.881 -0.6109  0.5399  0.2445
 3568SOL    HW222341   3.807   3.554  16.941  1.7929 -0.6186 -0.7559
 3569SOL     OW22342   0.772   1.336  17.381 -0.0169 -0.0873 -0.4542
 3569SOL    HW122343   0.755   1.330  17.287  1.3228  1.3761 -0.7904
 3569SOL    HW222344   0.681   1.345  17.408  0.4062  1.1187  0.5822
 3570SOL     OW22345   3.946   4.108   1.929 -0.2695 -0.2149  0.7068
 3570SOL    HW122346   3.992   4.074   2.006  2.1982  0.6153 -0.3841
 3570SOL    HW222347   3.873   4.046   1.921 -0.4134 -0.1923  1.9661
 3571SOL     OW22348   1.938   4.575   2.256  0.0547  0.2687  0.1229
 3571SOL    HW122349   1.897   4.623   2.328  0.1281 -1.8422  1.5602
 3571SOL    HW222350   2.006   4.633   2.222 -0.1319 -1.1472 -2.6686
 3572SOL     OW22351   3.133   2.169   7.641 -0.8766 -0.2382  0.1132
 3572SOL    HW122352   3.170   2.117   7.712  0.9092  0.7420 -0.1044
 3572SOL    HW222353   3.137   2.108   7.567 -0.8900 -0.4264  0.2692
 3573SOL     OW22354   1.099   4.023  12.101  0.2036 -0.2141 -0.2100
 3573SOL    HW122355   1.068   4.052  12.186 -0.3438  2.2717 -1.2683
 3573SOL    HW222356   1.015   4.025  12.055 -0.2126 -1.0587  0.5069
 3574SOL     OW22357   2.410   4.403  10.552 -0.4535 -0.3340  0.0297
 3574SOL    HW122358   2.364   4.335  10.502  1.0125 -1.4027  0.1456
 3574SOL    HW222359   2.484   4.345  10.568 -0.7285 -0.6402  0.2000
 3575SOL     OW22360   1.905   4.530   5.871 -0.2162 -1.0808 -0.8234
 3575SOL    HW122361   1.837   4.494   5.813  0.8728  0.3063 -2.9851
 3575SOL    HW222362   1.968   4.557   5.804  2.0594 -1.0353  1.3408
 3576SOL     OW22363   3.421   2.718   3.376  0.5818 -0.0034 -0.6517
 3576SOL    HW122364   3.400   2.670   3.455  2.3568  0.5803  0.1593
 3576SOL    HW222365   3.345   2.708   3.318  0.1963 -0.2015 -0.1119
 3577SOL     OW22366   0.035   2.009   3.394  0.1096 -0.3396 -0.4828
 3577SOL    HW122367   0.118   2.057   3.395 -0.6208  0.9675 -2.1389
 3577SOL    HW222368   0.027   1.973   3.306 -2.1199  1.3506 -0.9658
 3578SOL     OW22369   0.137   3.573  16.724 -0.3249  0.6231  0.3171
 3578SOL    HW122370   0.214   3.594  16.671  0.8067 -1.4772  1.1182
 3578SOL    HW222371   0.121   3.482  16.697 -0.4498  0.9895 -0.8448
 3579SOL     OW22372   4.389   3.367   4.979 -0.3897  0.1607  0.6060
 3579SOL    HW122373   4.311   3.384   4.927 -1.9492 -0.6444  2.6839
 3579SOL    HW222374   4.357   3.294   5.031  0.4672  0.9484  2.2357
 3580SOL     OW22375   0.899   1.363   3.231 -0.4704 -0.3438  0.4501
 3580SOL    HW122376   0.891   1.275   3.268  1.1254  0.2520  2.2000
 3580SOL    HW222377   0.805   1.377   3.216 -0.3134  0.3831  0.1401
 3581SOL     OW22378   1.950   1.041   5.273  0.6128  0.1900 -0.1382
 3581SOL    HW122379   1.879   1.102   5.254  1.0922  0.5519 -0.7641
 3581SOL    HW222380   1.907   0.971   5.323  0.5312 -1.0537 -1.9782
 3582SOL     OW22381   0.393   4.371   7.027  0.0813 -0.0194 -0.1133
 3582SOL    HW122382   0.336   4.293   7.024 -2.7842  2.0859 -0.6046
 3582SOL    HW222383   0.481   4.334   7.026 -0.6605 -1.7352 -1.8342
 3583SOL     OW22384   4.205   3.608   0.985  0.0814  0.1110  0.1414
 3583SOL    HW122385   4.191   3.618   1.079 -0.7551  0.1614  0.0174
 3583SOL    HW222386   4.269   3.678   0.973  0.5509 -0.3410  0.0301
 3584SOL     OW22387   1.555   0.344   6.020 -0.1501  0.6529  0.5922
 3584SOL    HW122388   1.617   0.284   5.978 -1.3091 -0.7965  0.9345
 3584SOL    HW222389   1.630   0.385   6.063 -2.2634  5.2872 -0.2152
 3585SOL     OW22390   2.760   2.393   7.932 -0.0412  0.1461 -0.3533
 3585SOL    HW122391   2.789   2.483   7.920  0.1947 -0.1226 -1.7816
 3585SOL    HW222392   2.809   2.347   7.863 -0.7253 -2.9316  1.1813
 3586SOL     OW22393   4.632   1.169   4.147  0.3694 -0.0270  0.1932
 3586SOL    HW122394   4.614   1.139   4.236 -1.9931 -1.2451 -0.6931
 3586SOL    HW222395   4.556   1.136   4.100 -0.3022  0.5536  0.8550
 3587SOL     OW22396   0.983   0.834  14.150 -0.1677 -0.7644 -0.4115
 3587SOL    HW122397   0.945   0.838  14.238  0.2391 -1.4784 -0.2068
 3587SOL    HW222398   1.015   0.924  14.141  1.0644 -1.2258 -0.6640
 3588SOL     OW22399   4.376   0.836   4.032  0.2936  0.3337  0.5286
 3588SOL    HW122400   4.463   0.802   4.054 -0.2770 -1.6937 -0.3081
 3588SOL    HW222401   4.386   0.931   4.041 -0.5731  0.1262  3.6647
 3589SOL     OW22402   1.048   0.212   2.273  0.6967  0.1123 -0.0107
 3589SOL    HW122403   1.098   0.139   2.310  0.5827 -0.5516 -1.1867
 3589SOL    HW222404   1.061   0.285   2.333  0.1117 -0.4084  0.7504
 3590SOL     OW22405   1.174   3.165   0.185 -0.2692  0.1216  0.0785
 3590SOL    HW122406   1.182   3.260   0.194  3.1159  0.0183 -1.9163
 3590SOL    HW222407   1.125   3.142   0.264  0.8008 -0.4022  0.5824
 3591SOL     OW22408   4.519   2.080   0.284  0.3312  0.4445  0.5437
 3591SOL    HW122409   4.502   1.991   0.253  3.7051  0.0147 -0.0377
 3591SOL    HW222410   4.605   2.101   0.249  0.6826 -0.8357  0.6428
 3592SOL     OW22411   2.557   0.183   9.272 -0.0879 -0.1220 -0.1739
 3592SOL    HW122412   2.633   0.125   9.283 -0.5122 -0.8510 -1.0883
 3592SOL    HW222413   2.485   0.136   9.231 -1.1517  1.1703  0.2350
 3593SOL     OW22414   1.718   3.630   5.711  0.1334 -0.3090  0.5781
 3593SOL    HW122415   1.742   3.553   5.763  0.5339 -0.5912 -0.0217
 3593SOL    HW222416   1.647   3.656   5.770  1.3248  0.9870  1.4390
 3594SOL     OW22417   1.814   0.457  15.429  0.1169 -0.3328 -0.2155
 3594SOL    HW122418   1.780   0.370  15.448 -0.6243 -0.2090 -1.0024
 3594SOL    HW222419   1.794   0.507  15.509  2.5305  1.0452 -0.4554
 3595SOL     OW22420   2.003   1.319   4.601  0.0799  0.4385 -0.2981
 3595SOL    HW122421   2.059   1.359   4.667 -1.7540  2.1830  0.2046
 3595SOL    HW222422   2.040   1.230   4.603  0.9625  0.8336  0.4814
 3596SOL     OW22423   1.408   1.534   6.678  0.2718 -0.6171  0.0301
 3596SOL    HW122424   1.415   1.441   6.699 -0.6970 -0.7984 -0.4267
 3596SOL    HW222425   1.317   1.529   6.650  0.4378  0.6114 -0.7455
 3597SOL     OW22426   1.430   3.678   6.904  0.2343  0.4282 -0.0777
 3597SOL    HW122427   1.434   3.691   6.810 -0.7755  1.9367  0.0916
 3597SOL    HW222428   1.362   3.611   6.899  0.5334  0.1463 -0.3450
 3598SOL     OW22429   3.565   3.432   4.321 -0.3680  0.4386 -0.0522
 3598SOL    HW122430   3.490   3.376   4.342  0.7261 -1.2224 -0.5830
 3598SOL    HW222431   3.541   3.510   4.371 -1.4906 -0.2179  0.4516
 3599SOL     OW22432   2.667   1.337   5.012 -0.2897  0.0059  0.2326
 3599SOL    HW122433   2.625   1.333   4.926  3.5028 -0.3309 -1.6254
 3599SOL    HW222434   2.669   1.429   5.036  2.1246  0.6129 -2.2134
 3600SOL     OW22435   0.703   0.640  14.247  0.3233 -0.6870 -0.3343
 3600SOL    HW122436   0.759   0.575  14.204 -0.0703 -1.0021 -0.3685
 3600SOL    HW222437   0.651   0.666  14.171  2.0361 -1.3015 -1.7084
 3601SOL     OW22438   1.957   4.301   3.552  0.1985  0.2502 -0.3773
 3601SOL    HW122439   1.939   4.222   3.502  1.4098  0.3602 -1.0000
 3601SOL    HW222440   1.952   4.371   3.487 -1.9953 -1.3185 -1.9096
 3602SOL     OW22441   1.921   1.344   6.925 -0.0138  0.1363 -0.4236
 3602SOL    HW122442   1.976   1.414   6.888  1.5062 -1.2644 -0.8096
 3602SOL    HW222443   1.885   1.391   7.000  0.5849  1.6715 -1.0879
 3603SOL     OW22444   3.282   0.844   4.219 -0.1593 -0.0511  0.0509
 3603SOL    HW122445   3.314   0.920   4.171  1.0670 -0.9137 -0.4894
 3603SOL    HW222446   3.250   0.892   4.296  0.1322  0.7432 -0.3308
 3604SOL     OW22447   4.660   0.903   1.867  0.4148  0.0400  0.0982
 3604SOL    HW122448   4.576   0.943   1.892 -0.3454 -0.7639 -1.1984
 3604SOL    HW222449   4.678   0.848   1.943 -0.2388 -1.1781 -0.6405
 3605SOL     OW22450   3.774   0.603   9.501  0.1245  0.0026  0.0340
 3605SOL    HW122451   3.842   0.662   9.468 -0.9991  1.0370 -0.3762
 3605SOL    HW222452   3.701   0.660   9.479 -0.4146 -0.5115  0.4961
 3606SOL     OW22453   2.141   3.394   4.071  0.5529 -0.0946  0.2574
 3606SOL    HW122454   2.215   3.353   4.116 -1.1588 -0.2936  2.9503
 3606SOL    HW222455   2.190   3.415   3.992  0.0267 -0.5890 -0.2034
 3607SOL     OW22456   1.478   0.353   7.180  0.4891 -0.1920 -0.2327
 3607SOL    HW122457   1.566   0.345   7.142 -0.1607 -1.6420 -1.4151
 3607SOL    HW222458   1.423   0.332   7.104 -0.8546  4.7775 -0.6605
 3608SOL     OW22459   1.820   2.872   9.284  0.1369  0.3821 -0.1441
 3608SOL    HW122460   1.759   2.814   9.331  2.2860  0.8423  3.1858
 3608SOL    HW222461   1.892   2.883   9.346 -0.8425 -0.4148  1.1581
 3609SOL     OW22462   1.054   1.899  17.244 -0.5469 -0.1526 -0.3536
 3609SOL    HW122463   0.967   1.862  17.260 -1.1263  0.5014 -2.0299
 3609SOL    HW222464   1.047   1.983  17.290 -1.1668 -0.8651  0.8743
 3610SOL     OW22465   0.271   0.801   8.038 -0.6150 -0.0444  0.1203
 3610SOL    HW122466   0.195   0.858   8.032 -1.9321 -1.6129  1.9700
 3610SOL    HW222467   0.258   0.745   7.962 -0.2765  0.0387 -0.0007
 3611SOL     OW22468   3.423   4.649   9.568  0.5961 -0.2236 -0.1876
 3611SOL    HW122469   3.395   4.600   9.645 -0.7387  1.6282  0.5180
 3611SOL    HW222470   3.479   4.585   9.525  2.6220 -0.2202  2.4609
 3612SOL     OW22471   0.321   1.648   2.172  0.4446  0.9130 -0.2141
 3612SOL    HW122472   0.348   1.650   2.080  0.2357 -2.3377 -0.3736
 3612SOL    HW222473   0.380   1.577   2.199  1.0809  2.1686  1.6169
 3613SOL     OW22474   1.137   3.276   4.147  0.3735  0.7142 -0.1484
 3613SOL    HW122475   1.088   3.218   4.205 -0.8228  1.2619 -0.5919
 3613SOL    HW222476   1.068   3.304   4.086  1.0777  3.1734  0.1630
 3614SOL     OW22477   4.155   2.680   5.382  0.1306 -0.6137  0.1735
 3614SOL    HW122478   4.072   2.643   5.350  1.0253 -1.9304 -0.6358
 3614SOL    HW222479   4.202   2.612   5.431  1.0792 -1.4977 -1.9764
 3615SOL     OW22480   3.089   4.021  12.238  0.5225  0.1398 -0.0911
 3615SOL    HW122481   3.011   3.969  12.257  0.7271  0.5142  1.7628
 3615SOL    HW222482   3.145   3.944  12.250  1.5880  1.1587  1.5254
 3616SOL     OW22483   4.346   2.180   5.989 -0.6995 -0.0377 -0.4304
 3616SOL    HW122484   4.380   2.204   6.075 -1.2815 -2.7405  0.5396
 3616SOL    HW222485   4.253   2.186   6.011 -1.1089  1.5163 -2.5627
 3617SOL     OW22486   4.308   4.270   7.505 -0.9460 -0.8549 -0.2306
 3617SOL    HW122487   4.250   4.337   7.470 -1.2062 -0.8716  0.1688
 3617SOL    HW222488   4.329   4.226   7.423  1.5005 -1.5056  0.7374
 3618SOL     OW22489   0.931   0.103  10.839 -0.1189  0.2267  0.3559
 3618SOL    HW122490   0.930   0.196  10.861 -1.8025  0.0035  1.2108
 3618SOL    HW222491   1.009   0.072  10.885 -0.8365  0.5533  1.7974
 3619SOL     OW22492   0.206   1.272   7.915  0.0731  0.4110 -0.0964
 3619SOL    HW122493   0.202   1.216   7.838  1.0857 -1.0190  0.8986
 3619SOL    HW222494   0.299   1.289   7.929 -0.4686  2.4931  0.9503
 3620SOL     OW22495   1.251   3.331  12.425  0.1922 -0.3148  0.3412
 3620SOL    HW122496   1.318   3.392  12.456 -0.7873  1.2130 -0.5604
 3620SOL    HW222497   1.225   3.282  12.503 -1.3271  1.5481  1.0345
 3621SOL     OW22498   0.458   4.143   8.838 -0.8447  0.6472 -0.5180
 3621SOL    HW122499   0.389   4.078   8.830  0.0515 -0.4392  0.6487
 3621SOL    HW222500   0.464   4.152   8.933 -2.0182 -0.7406 -0.3255
 3622SOL     OW22501   0.529   4.090   5.902 -0.0492  0.3205  0.9161
 3622SOL    HW122502   0.607   4.093   5.958  1.1546 -0.0228 -0.7618
 3622SOL    HW222503   0.571   4.110   5.819 -0.7131  0.7995  0.6952
 3623SOL     OW22504   4.080   0.315   1.698  0.4514 -0.0744 -0.5183
 3623SOL    HW122505   3.986   0.301   1.714  0.3228 -0.1075 -1.3037
 3623SOL    HW222506   4.110   0.286   1.784  0.2290  0.7573 -0.1579
 3624SOL     OW22507   3.533   3.209  10.800  0.3232  0.1568 -0.0817
 3624SOL    HW122508   3.513   3.202  10.894 -0.1209  0.2415 -0.1703
 3624SOL    HW222509   3.625   3.181  10.798  0.3267  0.2893 -1.6607
 3625SOL     OW22510   2.307   2.853  15.741  0.2127  0.4359  0.0476
 3625SOL    HW122511   2.375   2.803  15.695 -1.8414 -2.4082  0.1120
 3625SOL    HW222512   2.266   2.890  15.663 -2.0289 -0.7867  0.6383
 3626SOL     OW22513   2.673   1.883   8.494 -0.0910 -0.1038 -0.0443
 3626SOL    HW122514   2.674   1.935   8.575  0.6198 -1.0929  0.5883
 3626SOL    HW222515   2.600   1.825   8.512 -0.0439 -0.6386 -1.6043
 3627SOL     OW22516   2.741   3.829   3.325 -0.0434 -0.1570 -0.6693
 3627SOL    HW122517   2.771   3.915   3.354 -0.0306 -0.8804  1.4765
 3627SOL    HW222518   2.669   3.830   3.388 -0.2459  1.3235 -0.9200
 3628SOL     OW22519   3.260   2.221   6.903 -0.3888 -0.3924  0.2202
 3628SOL    HW122520   3.304   2.136   6.909 -1.6679 -0.9524  1.7656
 3628SOL    HW222521   3.219   2.212   6.817  0.0538  0.1160 -0.0386
 3629SOL     OW22522   4.352   4.272   6.582  0.3544  0.6133 -0.1916
 3629SOL    HW122523   4.348   4.280   6.677  1.0781 -0.6569 -0.0536
 3629SOL    HW222524   4.437   4.234   6.560 -0.0480 -0.7349  0.6160
 3630SOL     OW22525   1.186   2.081   5.572  0.2598  0.1536 -0.4927
 3630SOL    HW122526   1.150   2.024   5.640  2.7324 -0.0330  0.6253
 3630SOL    HW222527   1.205   2.031   5.492  2.1974 -1.0859  0.7520
 3631SOL     OW22528   0.708   3.581   4.697 -0.2024 -0.1360 -0.3218
 3631SOL    HW122529   0.792   3.597   4.740 -0.4204  0.5500 -0.1614
 3631SOL    HW222530   0.739   3.517   4.632  1.1291  1.6654 -1.4797
 3632SOL     OW22531   4.422   4.623   8.481  0.0843  0.1957 -0.4851
 3632SOL    HW122532   4.492   4.649   8.541 -0.8425  1.4387  0.0453
 3632SOL    HW222533   4.424   4.529   8.501  0.5024  0.4922  0.9053
 3633SOL     OW22534   2.806   1.002   9.693 -0.4189  0.5498  0.3876
 3633SOL    HW122535   2.900   0.988   9.706 -0.3941 -0.3056 -0.6331
 3633SOL    HW222536   2.806   1.005   9.597  1.6229 -1.7942  0.3076
 3634SOL     OW22537   2.851   4.083  13.046  0.7132  0.2677  0.4059
 3634SOL    HW122538   2.791   4.145  13.004  1.2208  0.2621 -0.3125
 3634SOL    HW222539   2.919   4.072  12.979  0.5940  0.4330  0.2568
 3635SOL     OW22540   1.185   0.287   7.904  0.2288 -0.2647 -0.5885
 3635SOL    HW122541   1.099   0.310   7.868  0.4429  2.2720  0.5027
 3635SOL    HW222542   1.195   0.210   7.848 -1.2244 -0.4521 -0.6062
 3636SOL     OW22543   3.395   3.073   5.884 -0.3599 -0.0790  0.0321
 3636SOL    HW122544   3.450   3.111   5.953  0.1436 -0.7609 -0.0018
 3636SOL    HW222545   3.384   2.983   5.914  1.3502 -0.0589  0.7113
 3637SOL     OW22546   1.177   1.277   0.080  0.3663 -0.4634 -0.4039
 3637SOL    HW122547   1.099   1.304   0.031 -1.8028 -3.1682  1.5555
 3637SOL    HW222548   1.235   1.268   0.005  3.0689 -1.7530  1.8205
 3638SOL     OW22549   2.349   3.744   5.458 -0.3360 -0.1046  0.1247
 3638SOL    HW122550   2.285   3.781   5.519  0.5977  0.7378  0.5905
 3638SOL    HW222551   2.301   3.662   5.447  0.8493 -0.9242  0.9460
 3639SOL     OW22552   2.966   1.542   1.756  0.8399 -0.1999  0.9472
 3639SOL    HW122553   2.908   1.469   1.778  0.6407 -0.4732 -0.5078
 3639SOL    HW222554   2.905   1.603   1.716  1.0119  0.1156  1.1632
 3640SOL     OW22555   3.836   0.467   2.333  0.2140  0.1516 -0.2425
 3640SOL    HW122556   3.865   0.462   2.242 -1.2082 -3.6408 -0.4682
 3640SOL    HW222557   3.843   0.375   2.358  1.4665  1.1631  3.1609
 3641SOL     OW22558   1.404   1.864  17.343  0.7881 -0.1733 -0.4772
 3641SOL    HW122559   1.341   1.822  17.402  0.1794  1.9502  0.3590
 3641SOL    HW222560   1.381   1.954  17.364 -2.7990 -1.3276  0.6070
 3642SOL     OW22561   0.596   3.171   2.901  0.4266 -0.3107  0.2234
 3642SOL    HW122562   0.530   3.241   2.896  0.2565 -0.5171 -0.3337
 3642SOL    HW222563   0.564   3.108   2.837 -1.2776 -0.6048  1.3365
 3643SOL     OW22564   3.699   2.257   2.607 -0.9268 -0.2363 -0.4228
 3643SOL    HW122565   3.672   2.332   2.660  1.4709  1.3528 -1.4160
 3643SOL    HW222566   3.793   2.239   2.607 -1.0289 -0.7730 -0.8604
 3644SOL     OW22567   1.204   4.229   4.773 -0.4017 -0.3767  0.1905
 3644SOL    HW122568   1.268   4.204   4.840 -0.5329  1.8643  1.1561
 3644SOL    HW222569   1.250   4.224   4.689 -1.6405  1.3759 -0.5919
 3645SOL     OW22570   0.649   2.481   3.006 -0.2626  0.2700 -0.3772
 3645SOL    HW122571   0.615   2.521   3.086  0.1125  0.3982 -0.2834
 3645SOL    HW222572   0.705   2.551   2.972  1.5689 -0.2920  1.4672
 3646SOL     OW22573   4.609   1.521   4.703  0.2570  0.4054 -0.3393
 3646SOL    HW122574   4.593   1.463   4.629  0.5496  0.6621 -0.6006
 3646SOL    HW222575   4.680   1.471   4.743 -1.4165 -0.6283  1.3609
 3647SOL     OW22576   4.045   2.601   0.507 -0.0886  0.6099  0.2610
 3647SOL    HW122577   4.019   2.582   0.417 -0.2585  2.0696 -0.0029
 3647SOL    HW222578   4.137   2.626   0.500  0.5545 -1.5526  1.0781
 3648SOL     OW22579   2.940   3.234   0.505  0.2178 -0.7368 -0.2557
 3648SOL    HW122580   3.017   3.212   0.557  0.2018  0.0330  0.0943
 3648SOL    HW222581   2.987   3.234   0.421  0.7585  0.6118  0.0449
 3649SOL     OW22582   3.489   0.512   6.662  0.2361 -0.0166 -0.0717
 3649SOL    HW122583   3.421   0.508   6.595 -0.8015 -0.0600  0.9772
 3649SOL    HW222584   3.484   0.421   6.689  1.1293 -0.3822 -1.1392
 3650SOL     OW22585   2.673   0.016   8.899 -0.2445 -0.1471 -0.1458
 3650SOL    HW122586   2.599   0.051   8.949 -0.4283 -0.6930 -0.0396
 3650SOL    HW222587   2.673   4.657   8.910 -0.4612  0.0645  1.6626
 3651SOL     OW22588   2.142   1.201   7.382 -0.6381 -0.5879  0.3065
 3651SOL    HW122589   2.095   1.128   7.341  1.0428 -1.0450 -0.8354
 3651SOL    HW222590   2.219   1.186   7.326  0.9901  1.7252  1.8747
 3652SOL     OW22591   0.908   3.517  12.691 -0.8837 -0.2291 -0.0642
 3652SOL    HW122592   0.856   3.589  12.727 -1.2254 -0.2130 -0.5901
 3652SOL    HW222593   0.948   3.565  12.618 -2.0189 -1.7898 -1.6840
 3653SOL     OW22594   3.588   2.523   2.165 -0.0948  0.3980  0.0103
 3653SOL    HW122595   3.581   2.502   2.071 -1.2552 -2.6258  0.7489
 3653SOL    HW222596   3.667   2.573   2.180 -0.7035  1.6488 -0.9721
 3654SOL     OW22597   1.796   2.287  11.937  0.9983  0.2507  0.3913
 3654SOL    HW122598   1.709   2.298  11.900  0.4260 -2.2496  0.9872
 3654SOL    HW222599   1.846   2.302  11.857  0.5423  1.6753  0.3670
 3655SOL     OW22600   1.348   0.789   1.738 -0.2182  0.3954 -0.3097
 3655SOL    HW122601   1.337   0.786   1.833  0.5908 -1.8291 -0.2784
 3655SOL    HW222602   1.377   0.700   1.719  0.6630  0.7299 -0.5598
 3656SOL     OW22603   0.841   1.213   9.297  0.3322  0.5688  0.0849
 3656SOL    HW122604   0.920   1.209   9.244 -1.3369  0.7238 -2.4140
 3656SOL    HW222605   0.873   1.213   9.387 -1.7191 -2.3506  0.8535
 3657SOL     OW22606   0.941   3.438  10.934 -0.2363 -0.0552 -0.4227
 3657SOL    HW122607   0.856   3.394  10.937  0.4237 -1.3686 -1.0304
 3657SOL    HW222608   0.917   3.525  10.900 -0.2148 -0.0498 -0.4237
 3658SOL     OW22609   3.776   3.262   5.980  0.3550 -0.3858 -0.0256
 3658SOL    HW122610   3.682   3.275   5.971  0.2627  0.3727  1.9510
 3658SOL    HW222611   3.800   3.322   5.910 -2.5557 -0.6369 -1.2497
 3659SOL     OW22612   4.100   0.288   7.474 -0.0491  0.1506 -0.1442
 3659SOL    HW122613   4.154   0.347   7.422 -1.9496  0.7242 -1.4533
 3659SOL    HW222614   4.106   0.332   7.558 -1.8152  0.2099 -0.0512
 3660SOL     OW22615   1.323   4.662   4.949  0.5641 -0.0578  0.1352
 3660SOL    HW122616   1.287   0.007   4.983 -1.7956 -0.4550 -1.4230
 3660SOL    HW222617   1.317   4.674   4.855 -1.4954  0.4484  0.3387
 3661SOL     OW22618   2.625   4.303   1.865  0.0921 -0.3963 -0.0255
 3661SOL    HW122619   2.570   4.296   1.943 -0.5677 -0.9843 -0.5377
 3661SOL    HW222620   2.706   4.322   1.912 -0.1240  0.4237  0.0141
 3662SOL     OW22621   1.849   3.044  10.015 -0.2257  0.1373  0.5427
 3662SOL    HW122622   1.781   3.108   9.993 -1.9976 -1.3599  1.6538
 3662SOL    HW222623   1.927   3.099  10.026 -0.6240  0.0778  3.5737
 3663SOL     OW22624   0.675   0.606  15.089 -0.0948 -0.4225 -0.3651
 3663SOL    HW122625   0.582   0.592  15.104 -0.5107  3.0139  0.4336
 3663SOL    HW222626   0.682   0.556  15.007 -0.1789 -1.3397  0.1895
 3664SOL     OW22627   4.662   0.430   9.606  0.0537 -0.5033 -0.7153
 3664SOL    HW122628   4.599   0.500   9.623 -1.8774 -2.3731 -0.1282
 3664SOL    HW222629   4.710   0.470   9.534  0.9361  1.6596  1.0781
 3665SOL     OW22630   0.694   4.412   4.949  0.3482  0.2363  0.8160
 3665SOL    HW122631   0.756   4.439   5.017  1.7605  2.4117 -1.3488
 3665SOL    HW222632   0.620   4.471   4.963 -0.1279 -0.0807 -0.3826
 3666SOL     OW22633   1.563   4.398  15.345  0.2206  0.1649  0.1125
 3666SOL    HW122634   1.656   4.414  15.334  0.1511  1.7081  1.7579
 3666SOL    HW222635   1.541   4.362  15.259  0.4269  1.1926 -0.3675
 3667SOL     OW22636   4.590   3.718   4.955 -0.3719  0.2662 -0.4894
 3667SOL    HW122637   4.636   3.640   4.985  0.5641 -0.0447 -2.7131
 3667SOL    HW222638   4.655   3.785   4.978 -0.4203 -0.3340  1.3809
 3668SOL     OW22639   3.538   4.474   6.123  0.2874 -0.4738  0.4013
 3668SOL    HW122640   3.515   4.567   6.123 -0.2412 -0.6073 -0.8494
 3668SOL    HW222641   3.555   4.458   6.215 -2.2093 -1.8619  0.6149
 3669SOL     OW22642   3.000   2.620   4.920  0.1737  0.4568 -0.4754
 3669SOL    HW122643   3.008   2.550   4.985  0.6597  1.1741  0.2402
 3669SOL    HW222644   3.051   2.695   4.952 -1.2088 -0.0415  2.8918
 3670SOL     OW22645   4.120   3.699   5.184 -0.0231  0.3806 -0.0574
 3670SOL    HW122646   4.058   3.772   5.184  0.1479  0.5246 -0.4686
 3670SOL    HW222647   4.174   3.709   5.263 -0.5267  1.0008  0.2059
 3671SOL     OW22648   0.123   0.492   8.569  0.3721  0.5601 -1.0433
 3671SOL    HW122649   0.216   0.472   8.558  1.1748  1.8574  3.3982
 3671SOL    HW222650   0.099   0.568   8.516  1.7275 -0.5898 -3.2978
 3672SOL     OW22651   2.288   1.686   6.451  0.1792 -0.1114  0.6076
 3672SOL    HW122652   2.220   1.619   6.458 -1.6774  1.8313  1.0204
 3672SOL    HW222653   2.352   1.644   6.394 -0.3693 -1.1225  0.7432
 3673SOL     OW22654   2.592   1.151   3.511 -0.1828  0.6080  0.5699
 3673SOL    HW122655   2.615   1.166   3.603  3.0070 -0.6190 -0.0016
 3673SOL    HW222656   2.540   1.230   3.497  0.4191  0.5039 -2.1552
 3674SOL     OW22657   4.596   4.129   6.486 -0.5029  0.2772  0.1421
 3674SOL    HW122658   4.587   4.080   6.567  2.0318 -0.4010 -0.0011
 3674SOL    HW222659   4.679   4.174   6.498 -0.6707  0.6081  0.0807
 3675SOL     OW22660   3.650   1.559   2.238 -0.3995 -0.7085 -0.3993
 3675SOL    HW122661   3.712   1.617   2.283 -0.5492  0.4358 -1.6421
 3675SOL    HW222662   3.569   1.580   2.284  0.9740 -0.0533  1.7571
 3676SOL     OW22663   0.911   1.144   4.304 -0.8256  0.6913  0.1238
 3676SOL    HW122664   0.830   1.118   4.261 -1.2360 -1.3726  2.1588
 3676SOL    HW222665   0.978   1.159   4.237 -1.2795 -3.2854 -1.2149
 3677SOL     OW22666   2.210   3.453   2.218  0.4136 -0.4920 -0.8609
 3677SOL    HW122667   2.154   3.515   2.171  0.0644 -0.0551  0.1436
 3677SOL    HW222668   2.296   3.470   2.179  0.6486  0.8577  0.2700
 3678SOL     OW22669   1.878   0.913   0.538  0.0918  0.1090 -0.0290
 3678SOL    HW122670   1.790   0.874   0.536 -0.1626  0.7817 -2.3085
 3678SOL    HW222671   1.923   0.842   0.583  1.2877  1.4459  0.8890
 3679SOL     OW22672   3.867   0.068  15.228 -0.5741  0.5409  0.0204
 3679SOL    HW122673   3.806   0.031  15.293  2.9180 -0.6964  2.5886
 3679SOL    HW222674   3.805   0.083  15.157 -0.0055 -2.1586 -1.0431
 3680SOL     OW22675   2.839   0.178   1.278 -0.2005 -0.1279  0.4174
 3680SOL    HW122676   2.865   0.269   1.265 -1.3138 -0.0874 -1.5187
 3680SOL    HW222677   2.771   0.176   1.211 -0.0181  1.6112  0.1694
 3681SOL     OW22678   2.933   1.084  11.794 -0.0945  0.0849  0.3423
 3681SOL    HW122679   2.989   1.030  11.849  0.9038  0.1869 -0.5837
 3681SOL    HW222680   2.925   1.161  11.849 -2.5849  0.4893 -0.5638
 3682SOL     OW22681   3.757   0.496   2.795 -0.1759 -0.2148  0.1136
 3682SOL    HW122682   3.849   0.513   2.778 -0.5676  0.3442 -1.4579
 3682SOL    HW222683   3.712   0.568   2.750 -0.7832 -0.8561 -0.3072
 3683SOL     OW22684   3.228   2.209   6.619 -0.6896  0.1195 -0.5727
 3683SOL    HW122685   3.290   2.144   6.584  0.4818  1.7661 -1.5126
 3683SOL    HW222686   3.148   2.161   6.597  1.4650 -3.4876 -0.5567
 3684SOL     OW22687   3.933   1.844   0.610  0.6875  0.2277 -0.7603
 3684SOL    HW122688   3.962   1.886   0.691 -2.6990  0.2541  0.4361
 3684SOL    HW222689   3.866   1.904   0.577 -0.4405 -0.9659 -0.6563
 3685SOL     OW22690   0.760   2.949  14.327 -0.4914 -0.4928  0.4105
 3685SOL    HW122691   0.690   2.980  14.270  1.4959 -0.2192 -1.8801
 3685SOL    HW222692   0.760   2.854  14.325  2.5944 -0.4849  0.3622
 3686SOL     OW22693   0.110   0.865   7.230  0.4811 -0.1322  0.1538
 3686SOL    HW122694   0.138   0.902   7.146  0.7198 -2.6990 -0.8920
 3686SOL    HW222695   0.153   0.931   7.284 -0.3460  0.3036  0.2905
 3687SOL     OW22696   0.608   3.369   7.758  0.1428 -0.7117  0.0159
 3687SOL    HW122697   0.696   3.394   7.732  0.2136  0.5397  1.4110
 3687SOL    HW222698   0.573   3.457   7.741 -1.3947 -1.3505 -0.1939
 3688SOL     OW22699   1.810   2.053  11.737  0.6208  0.2951  0.0966
 3688SOL    HW122700   1.814   2.148  11.740  0.8363  0.3714 -2.4790
 3688SOL    HW222701   1.839   2.051  11.646 -1.2934  2.1843 -0.5368
 3689SOL     OW22702   3.194   2.834   7.532  0.4574  0.2862 -0.6748
 3689SOL    HW122703   3.222   2.924   7.517 -0.5389  0.8675  0.9525
 3689SOL    HW222704   3.280   2.791   7.529  0.7191  0.7151  0.4597
 3690SOL     OW22705   3.096   1.622   9.804  0.3131  0.1192  0.5727
 3690SOL    HW122706   3.069   1.594   9.717 -1.8029 -1.2249  1.6810
 3690SOL    HW222707   3.158   1.554   9.831 -0.9053 -2.4052 -3.0309
 3691SOL     OW22708   0.117   4.033   0.058  0.0364  0.0523 -0.4936
 3691SOL    HW122709   0.208   4.009   0.037  0.1586 -0.2317  0.3834
 3691SOL    HW222710   0.100   3.993   0.142 -0.4099 -0.7368 -0.9617
 3692SOL     OW22711   4.409   2.324   7.564 -0.0965  0.2756 -0.1238
 3692SOL    HW122712   4.367   2.351   7.645 -0.9834  0.5823 -0.6854
 3692SOL    HW222713   4.352   2.250   7.545 -0.3093  0.3063  0.4130
 3693SOL     OW22714   0.405   3.578   6.131 -0.6898 -0.0316 -0.3380
 3693SOL    HW122715   0.414   3.670   6.106 -0.4434 -0.7885 -3.1009
 3693SOL    HW222716   0.413   3.582   6.226  0.3982 -1.0255 -0.3893
 3694SOL     OW22717   1.096   0.334  10.689 -0.2258 -0.5657 -0.6619
 3694SOL    HW122718   1.143   0.251  10.678  1.4634 -0.0001  2.2327
 3694SOL    HW222719   1.147   0.381  10.624 -0.4074  0.7872  0.1900
 3695SOL     OW22720   1.286   4.724   8.724  0.4395  0.3749 -0.0400
 3695SOL    HW122721   1.253   0.075   8.743  0.1377  0.2595 -0.0429
 3695SOL    HW222722   1.349   4.704   8.794 -1.1907 -0.9350  1.0642
 3696SOL     OW22723   2.163   1.097   9.313 -0.2949 -0.2701  0.4815
 3696SOL    HW122724   2.225   1.156   9.356 -0.3655  0.3212 -0.2212
 3696SOL    HW222725   2.123   1.159   9.251 -1.3621 -2.5011 -1.0677
 3697SOL     OW22726   1.449   2.269   3.488  0.3070 -0.2455  0.0718
 3697SOL    HW122727   1.510   2.273   3.563  0.3928 -1.3124  0.0682
 3697SOL    HW222728   1.418   2.178   3.488 -1.2486  0.3053 -3.0480
 3698SOL     OW22729   2.056   0.507   8.565  0.2445  0.2017 -0.1689
 3698SOL    HW122730   1.984   0.531   8.624  0.0839  1.2330 -0.7920
 3698SOL    HW222731   2.009   0.486   8.484 -1.8750  1.5324  0.7169
 3699SOL     OW22732   1.367   2.785  14.397  0.2223 -0.3045 -0.4969
 3699SOL    HW122733   1.331   2.817  14.314 -0.9639  0.4555  0.3162
 3699SOL    HW222734   1.300   2.738  14.447 -0.4720  0.4836 -0.6893
 3700SOL     OW22735   0.207   2.606  14.502 -0.1748 -0.1335 -0.1684
 3700SOL    HW122736   0.267   2.655  14.446 -0.9417  1.5766  0.5226
 3700SOL    HW222737   0.155   2.681  14.532  0.6450 -0.1166  1.2240
 3701SOL     OW22738   1.249   3.072  13.374  0.6203 -0.2985  1.0977
 3701SOL    HW122739   1.306   3.020  13.316 -0.4722  1.5706 -1.6653
 3701SOL    HW222740   1.276   3.159  13.345  0.1742  0.2678  2.4295
 3702SOL     OW22741   4.541   2.782  10.468 -0.6431  0.0654  0.0821
 3702SOL    HW122742   4.500   2.697  10.487 -0.8987 -0.3090 -2.2088
 3702SOL    HW222743   4.605   2.780  10.539  1.0384 -0.5190 -1.4726
 3703SOL     OW22744   1.649   3.454   1.042 -0.4979  0.7202 -0.0684
 3703SOL    HW122745   1.721   3.419   1.094 -0.3716 -1.3446 -1.6244
 3703SOL    HW222746   1.637   3.542   1.077  4.2021  1.1273  0.4690
 3704SOL     OW22747   2.709   0.784   8.698 -0.7260 -0.5998  0.1261
 3704SOL    HW122748   2.761   0.807   8.621  0.8474 -1.8075  0.8280
 3704SOL    HW222749   2.688   0.691   8.695 -1.0236 -0.4512 -2.3212
 3705SOL     OW22750   4.377   3.208  17.234  0.2597  0.0387 -0.1367
 3705SOL    HW122751   4.470   3.199  17.252 -0.0161  0.3957  1.4288
 3705SOL    HW222752   4.348   3.119  17.251  0.0710  0.0201 -0.5355
 3706SOL     OW22753   3.906   1.794   7.876 -0.3947 -0.0558 -0.3698
 3706SOL    HW122754   3.955   1.712   7.867 -0.8803 -0.2375 -1.3306
 3706SOL    HW222755   3.822   1.772   7.834 -0.1645 -1.8266  0.0788
 3707SOL     OW22756   1.543   1.951  10.222 -0.2902  0.3070  0.3223
 3707SOL    HW122757   1.542   2.008  10.145  2.9085  0.7424  0.5852
 3707SOL    HW222758   1.470   1.972  10.280 -0.8035  0.8915 -0.5502
 3708SOL     OW22759   3.821   1.445   0.767 -0.1048 -0.4315 -0.2846
 3708SOL    HW122760   3.845   1.439   0.675 -1.0652 -0.4864 -0.5293
 3708SOL    HW222761   3.738   1.492   0.768 -0.8629 -1.7975 -0.2378
 3709SOL     OW22762   2.072   0.643   5.715  0.1477  0.0484 -0.2870
 3709SOL    HW122763   2.027   0.722   5.684 -1.5693 -1.4054 -1.4623
 3709SOL    HW222764   2.044   0.578   5.651 -0.8936  1.8116 -1.6316
 3710SOL     OW22765   3.987   0.765  16.997  0.1372  0.4363 -0.1373
 3710SOL    HW122766   4.076   0.799  16.996 -0.2025  1.3587  0.5496
 3710SOL    HW222767   3.995   0.673  16.975  0.0816  0.2013  0.8197
 3711SOL     OW22768   2.751   3.628   7.434 -0.9206  0.1078  0.1528
 3711SOL    HW122769   2.669   3.614   7.481 -1.3988  0.8182 -0.4742
 3711SOL    HW222770   2.780   3.710   7.474 -3.5066  1.8104 -1.4678
 3712SOL     OW22771   1.591   4.025  15.039  0.0563 -0.6225  0.5477
 3712SOL    HW122772   1.549   4.110  15.050  1.4276  0.0972  0.2709
 3712SOL    HW222773   1.669   4.055  14.993 -0.1474 -2.1081 -0.7551
 3713SOL     OW22774   4.014   0.734   2.278  0.5995  0.1251  0.4243
 3713SOL    HW122775   4.087   0.754   2.337  0.7816  2.1573 -0.5297
 3713SOL    HW222776   4.040   0.646   2.249 -1.5262 -0.4845  0.3829
 3714SOL     OW22777   3.263   0.590   9.216  0.2423  0.9929  0.3066
 3714SOL    HW122778   3.170   0.615   9.211  0.0652  0.1235 -0.6536
 3714SOL    HW222779   3.275   0.611   9.309 -1.2512  0.2477  0.6796
 3715SOL     OW22780   1.754   2.997   2.710  0.2337 -0.0950 -0.3151
 3715SOL    HW122781   1.765   2.918   2.763 -0.4714 -0.3848 -0.6026
 3715SOL    HW222782   1.834   2.998   2.656  1.3744  0.0963  1.3729
 3716SOL     OW22783   0.790   1.627  17.063 -0.3064  0.1363 -0.4829
 3716SOL    HW122784   0.852   1.603  17.131 -0.9074 -1.1075 -0.3667
 3716SOL    HW222785   0.846   1.618  16.986  0.4275  2.1526 -0.1826
 3717SOL     OW22786   1.404   1.807   7.819  0.6243 -0.0613 -0.2217
 3717SOL    HW122787   1.473   1.771   7.765 -1.8878  0.7849 -3.9653
 3717SOL    HW222788   1.462   1.863   7.872 -0.1578 -0.0843  0.6698
 3718SOL     OW22789   3.984   2.425   7.057 -0.7210 -0.6233  0.0812
 3718SOL    HW122790   3.986   2.391   7.146 -0.9022  0.2087  0.4044
 3718SOL    HW222791   3.979   2.348   7.001  1.1270  1.1355 -2.5085
 3719SOL     OW22792   3.074   0.807   8.641  0.7523 -0.6464 -0.8683
 3719SOL    HW122793   3.142   0.751   8.677 -1.3623 -0.4252  3.4987
 3719SOL    HW222794   3.028   0.745   8.584 -0.0111 -0.0182 -0.9322
 3720SOL     OW22795   2.506   2.175  14.452  0.1180 -0.3055  0.1859
 3720SOL    HW122796   2.555   2.092  14.451  0.8734  0.1326  1.5309
 3720SOL    HW222797   2.455   2.165  14.371  2.3393  1.8987 -1.4759
 3721SOL     OW22798   4.230   2.241   3.688  0.6948 -0.3305  0.2604
 3721SOL    HW122799   4.246   2.310   3.752 -1.0513 -0.8493  1.2415
 3721SOL    HW222800   4.298   2.174   3.701  0.7218 -0.5544 -0.9993
 3722SOL     OW22801   2.246   4.464   3.341 -0.1327 -0.3154 -0.0551
 3722SOL    HW122802   2.175   4.528   3.349  0.7452  0.4005  1.9794
 3722SOL    HW222803   2.200   4.388   3.305  1.2746 -1.5055  0.6839
 3723SOL     OW22804   0.809   0.551   3.635  0.1364  1.0600 -0.4393
 3723SOL    HW122805   0.795   0.596   3.552  2.1671  1.1036 -0.7504
 3723SOL    HW222806   0.904   0.544   3.632 -0.0173 -1.4471  0.0091
 3724SOL     OW22807   0.789   2.625   6.182 -0.0114 -0.0461 -0.0991
 3724SOL    HW122808   0.836   2.546   6.207  0.0940  0.4549  1.3391
 3724SOL    HW222809   0.735   2.605   6.106 -0.4961  1.5636 -0.1888
 3725SOL     OW22810   1.364   3.476   7.638 -0.1257  0.4338  0.0590
 3725SOL    HW122811   1.314   3.469   7.556  0.5210  0.4741 -0.3410
 3725SOL    HW222812   1.454   3.493   7.609 -0.5951  0.7500 -1.2196
 3726SOL     OW22813   3.606   2.504   2.737 -0.3931  0.0368  0.9368
 3726SOL    HW122814   3.529   2.458   2.772 -0.0182 -0.8229  0.6359
 3726SOL    HW222815   3.625   2.553   2.817  1.2103  0.7005  0.1442
 3727SOL     OW22816   4.423   0.615   4.266 -0.2154 -0.0226  0.3582
 3727SOL    HW122817   4.506   0.636   4.224  0.0863  0.2989  1.1181
 3727SOL    HW222818   4.375   0.573   4.194  0.1294 -0.2082  0.2409
 3728SOL     OW22819   3.241   0.923   6.085 -0.0399 -0.1134 -0.1151
 3728SOL    HW122820   3.217   0.836   6.116 -0.7809 -0.0110 -0.4013
 3728SOL    HW222821   3.315   0.905   6.028 -0.2184  1.9979 -1.0432
 3729SOL     OW22822   0.535   1.321   5.919  0.6918 -0.6254 -0.0409
 3729SOL    HW122823   0.443   1.325   5.893  0.1255  0.2137  2.0653
 3729SOL    HW222824   0.528   1.256   5.989  2.7407 -1.7345 -0.8722
 3730SOL     OW22825   3.398   4.554   1.082  0.3893 -0.0352  0.0105
 3730SOL    HW122826   3.388   4.574   0.989 -1.3905  0.7130  0.3685
 3730SOL    HW222827   3.494   4.549   1.090  0.3544  1.6568  1.4509
 3731SOL     OW22828   1.066   3.017   2.440  0.2614  0.7269 -0.7182
 3731SOL    HW122829   1.018   3.031   2.523 -1.8220  0.1910 -1.8372
 3731SOL    HW222830   1.103   2.934   2.469 -0.6542  0.0643 -1.4599
 3732SOL     OW22831   3.329   1.947   3.319  0.3663  0.3421 -0.1865
 3732SOL    HW122832   3.327   1.983   3.231  3.6338  3.6112  1.0435
 3732SOL    HW222833   3.423   1.956   3.333  0.6180 -0.3868 -1.4036
 3733SOL     OW22834   4.264   3.343   7.884 -0.5078 -0.6815 -0.2617
 3733SOL    HW122835   4.339   3.285   7.872  0.5130  0.6967 -0.4394
 3733SOL    HW222836   4.209   3.288   7.941 -1.7934  0.3951 -0.4626
 3734SOL     OW22837   1.622   4.407  14.251  0.4519  0.2392  0.1016
 3734SOL    HW122838   1.665   4.491  14.268  0.9685 -0.5002  2.4108
 3734SOL    HW222839   1.702   4.358  14.229  0.1628 -0.3909  0.4885
 3735SOL     OW22840   1.015   0.172   7.138  0.0175 -0.1168 -0.4468
 3735SOL    HW122841   1.105   0.154   7.165 -0.6847 -0.5199  1.6686
 3735SOL    HW222842   0.980   0.112   7.203 -0.4969 -1.6747 -2.1767
 3736SOL     OW22843   1.989   0.881   5.654  0.5305 -0.0229 -0.4387
 3736SOL    HW122844   2.046   0.954   5.629 -0.4438  0.5600 -0.9428
 3736SOL    HW222845   1.977   0.912   5.744 -0.3256 -1.4556 -0.0575
 3737SOL     OW22846   1.222   3.444  15.034 -0.1397 -0.4699  0.2188
 3737SOL    HW122847   1.259   3.413  14.951 -2.8107  1.4201 -1.7014
 3737SOL    HW222848   1.306   3.475  15.067 -0.7390  1.0264  0.3280
 3738SOL     OW22849   3.604   0.632  12.890 -0.3334  0.8529  0.0005
 3738SOL    HW122850   3.546   0.559  12.907 -0.1856  0.6802 -0.2370
 3738SOL    HW222851   3.680   0.600  12.938 -1.4150 -0.9209  0.5187
 3739SOL     OW22852   2.223   2.816   0.099  0.0136  0.1795  0.2110
 3739SOL    HW122853   2.195   2.868   0.024 -1.6176  2.0856  2.1539
 3739SOL    HW222854   2.146   2.763   0.120  0.0000 -0.1296 -0.6043
 3740SOL     OW22855   2.778   2.853   0.340 -0.4464  0.5014  0.4933
 3740SOL    HW122856   2.754   2.934   0.296 -1.7668 -0.2839 -0.2427
 3740SOL    HW222857   2.706   2.796   0.313 -0.9463  2.3424 -1.9444
 3741SOL     OW22858   1.296   3.961   7.641 -0.4082  0.6737 -0.3151
 3741SOL    HW122859   1.307   3.944   7.734 -1.8225  2.0973  0.1132
 3741SOL    HW222860   1.312   4.055   7.630  1.2545  0.7558  2.8038
 3742SOL     OW22861   0.820   3.898   7.332 -0.4648 -0.3423  0.0591
 3742SOL    HW122862   0.730   3.899   7.300 -0.5742 -1.9586  0.3193
 3742SOL    HW222863   0.811   3.971   7.392 -1.6581  0.8713 -1.6017
 3743SOL     OW22864   3.161   0.192   7.215 -0.7904 -0.4876 -0.5605
 3743SOL    HW122865   3.102   0.204   7.140  1.2697 -0.5087 -2.1916
 3743SOL    HW222866   3.202   0.111   7.185  2.5039  1.2864 -0.8023
 3744SOL     OW22867   2.651   3.544   9.743 -0.2692  0.0927 -0.9182
 3744SOL    HW122868   2.586   3.606   9.777 -0.1970  0.0527 -0.7061
 3744SOL    HW222869   2.701   3.531   9.823 -1.6329  0.7030  0.0347
 3745SOL     OW22870   1.810   1.561   8.191  0.0110 -0.1120  0.2216
 3745SOL    HW122871   1.827   1.482   8.242 -2.3755  0.0504  1.2965
 3745SOL    HW222872   1.889   1.575   8.140 -1.2045 -1.7675 -2.0919
 3746SOL     OW22873   3.529   3.392   7.685 -0.1190 -0.4024  0.0593
 3746SOL    HW122874   3.501   3.422   7.599 -0.9024 -0.5071  0.2811
 3746SOL    HW222875   3.499   3.301   7.690  2.0503 -0.9054  3.5988
 3747SOL     OW22876   1.888   2.815   6.354 -0.0797 -0.1259 -0.3661
 3747SOL    HW122877   1.971   2.791   6.396  0.1696 -1.0781 -1.4108
 3747SOL    HW222878   1.841   2.732   6.359  0.1958 -0.2274  0.7100
 3748SOL     OW22879   1.846   2.436  17.582  0.3652 -0.1531  0.3116
 3748SOL    HW122880   1.915   2.502  17.573 -1.1918  1.4739  0.1833
 3748SOL    HW222881   1.787   2.481  17.642 -0.5624 -2.3411  1.0187
 3749SOL     OW22882   2.395   0.918   2.670 -0.2362  0.0167  0.2446
 3749SOL    HW122883   2.305   0.941   2.646  0.0964  0.2124 -0.8126
 3749SOL    HW222884   2.395   0.839   2.725  0.4521  0.0053  0.2274
 3750SOL     OW22885   0.334   1.554   2.976  0.2648 -0.1532 -0.6042
 3750SOL    HW122886   0.276   1.581   2.905 -0.3098  0.0372 -0.0628
 3750SOL    HW222887   0.353   1.462   2.959  0.9361 -0.2306  0.6030
 3751SOL     OW22888   2.563   3.077  12.485 -0.4591 -0.0081 -0.1586
 3751SOL    HW122889   2.528   2.998  12.526  0.7756 -0.1039  0.6866
 3751SOL    HW222890   2.498   3.079  12.414  0.3052  0.3822 -0.8541
 3752SOL     OW22891   2.880   0.160   5.010  0.2777 -0.0160 -0.2375
 3752SOL    HW122892   2.785   0.170   5.002  0.3530  1.0951  0.2730
 3752SOL    HW222893   2.894   0.104   4.934 -1.1800 -1.7539  0.7617
 3753SOL     OW22894   4.294   3.533   0.356  0.3481  0.4197  0.1490
 3753SOL    HW122895   4.343   3.477   0.417 -0.0034 -1.8134 -1.6368
 3753SOL    HW222896   4.333   3.512   0.271 -1.6695  0.7023 -0.8370
 3754SOL     OW22897   4.731   1.383   0.944 -0.3409 -0.2596 -0.1990
 3754SOL    HW122898   0.053   1.318   0.906  0.7491 -0.9239  2.6393
 3754SOL    HW222899   4.724   1.352   1.034 -1.5729  4.3889  1.3617
 3755SOL     OW22900   2.524   1.236  10.321 -0.0202 -0.2740  0.2244
 3755SOL    HW122901   2.600   1.243  10.263 -0.2324  2.4879  0.2665
 3755SOL    HW222902   2.527   1.318  10.371  0.0295  0.2113 -0.5690
 3756SOL     OW22903   2.407   2.159  10.153 -0.1977 -0.0021  0.1342
 3756SOL    HW122904   2.339   2.096  10.131  1.5292 -0.7593 -3.1097
 3756SOL    HW222905   2.391   2.220  10.080 -2.3869  0.6711  1.1987
 3757SOL     OW22906   2.122   4.618   9.906 -0.1609  0.2674  0.7346
 3757SOL    HW122907   2.089   4.700   9.942  0.0738  2.0787 -3.1112
 3757SOL    HW222908   2.215   4.619   9.930  0.1799 -0.8398 -0.5019
 3758SOL     OW22909   3.004   0.637   9.265  0.0941  0.5690 -0.3917
 3758SOL    HW122910   2.962   0.631   9.180 -0.7743 -1.5832  0.2136
 3758SOL    HW222911   2.935   0.674   9.320  0.6294  1.1182 -0.0766
 3759SOL     OW22912   1.816   3.059   5.264  0.3475 -0.2629  0.3197
 3759SOL    HW122913   1.836   3.076   5.172 -0.2422 -0.0213  0.2364
 3759SOL    HW222914   1.847   3.143   5.298 -1.6658  0.3129  0.7636
 3760SOL     OW22915   1.111   3.404   0.647 -0.3069  0.4568  0.7426
 3760SOL    HW122916   1.041   3.339   0.661  0.3603 -0.2901  0.6307
 3760SOL    HW222917   1.158   3.400   0.730  1.4595  0.9611 -0.2575
 3761SOL     OW22918   1.294   0.688   5.243  0.6230  0.4414  0.5026
 3761SOL    HW122919   1.269   0.686   5.335  0.5698 -0.8211  0.4655
 3761SOL    HW222920   1.373   0.635   5.230  1.8706  2.7883 -1.5854
 3762SOL     OW22921   1.306   0.205   8.173  0.4145 -0.3998  0.2422
 3762SOL    HW122922   1.333   0.288   8.212 -3.8279  0.7539  0.6377
 3762SOL    HW222923   1.271   0.232   8.088  0.3499 -1.3724 -0.0487
 3763SOL     OW22924   0.909   4.618   3.242  0.1367  0.0023 -0.1228
 3763SOL    HW122925   0.918   4.587   3.332  4.4848  2.4074  0.3048
 3763SOL    HW222926   0.820   4.654   3.239  0.5399  0.9905 -0.3703
 3764SOL     OW22927   1.727   0.226  17.153 -0.4458  0.0902 -0.6796
 3764SOL    HW122928   1.764   0.175  17.225  1.9919  1.7557 -0.7512
 3764SOL    HW222929   1.637   0.241  17.181 -0.3525 -0.2129 -0.2212
 3765SOL     OW22930   4.191   3.614   1.694  0.0661 -0.0078 -0.0000
 3765SOL    HW122931   4.236   3.699   1.689  1.1450 -0.4330  3.0709
 3765SOL    HW222932   4.126   3.629   1.762 -0.4389 -2.4278  0.0193
 3766SOL     OW22933   2.275   4.231   4.993  0.1839  0.3152  0.3501
 3766SOL    HW122934   2.343   4.220   4.927 -0.9550  1.5227 -1.0318
 3766SOL    HW222935   2.203   4.271   4.943  1.2286  2.5936  0.6579
 3767SOL     OW22936   1.402   0.440  11.675  0.0811  0.5693 -0.0096
 3767SOL    HW122937   1.432   0.499  11.745 -0.3074  2.0545 -1.1069
 3767SOL    HW222938   1.408   0.494  11.597  0.5811 -1.0462 -1.0996
 3768SOL     OW22939   2.078   4.528   6.464 -0.1229  0.0544 -0.1390
 3768SOL    HW122940   2.060   4.469   6.538 -1.6840 -0.2016 -0.7327
 3768SOL    HW222941   2.169   4.528   6.494 -0.6706  0.4485  1.5459
 3769SOL     OW22942   2.596   0.448   9.360 -0.1792  0.1636 -0.0022
 3769SOL    HW122943   2.585   0.356   9.336  5.0032 -1.2021  2.9347
 3769SOL    HW222944   2.679   0.448   9.408 -0.6327  0.4437  0.7744
 3770SOL     OW22945   0.737   2.313  15.467 -0.2788 -0.7129 -0.0296
 3770SOL    HW122946   0.736   2.404  15.435  1.4436 -0.8732 -0.5044
 3770SOL    HW222947   0.819   2.287  15.426 -0.6746 -0.6167 -0.8883
 3771SOL     OW22948   0.722   1.787   3.560  0.4863  0.3908 -0.1142
 3771SOL    HW122949   0.749   1.780   3.469 -2.7346 -0.1582 -0.9991
 3771SOL    HW222950   0.805   1.793   3.608  1.9431  0.5104 -2.6595
 3772SOL     OW22951   1.285   3.603   5.740 -0.2433  0.0617  0.1834
 3772SOL    HW122952   1.351   3.577   5.676 -0.3449  0.0528  0.0832
 3772SOL    HW222953   1.292   3.698   5.739  0.8854  0.0096  2.2891
 3773SOL     OW22954   2.403   3.323   0.454  0.3354  0.1803  0.3410
 3773SOL    HW122955   2.386   3.359   0.541  0.9611  1.6194 -0.1512
 3773SOL    HW222956   2.487   3.278   0.462  1.8654  3.0452  0.4001
 3774SOL     OW22957   2.910   3.063   5.704 -0.3446  0.2094 -0.1963
 3774SOL    HW122958   2.910   3.123   5.629 -1.3254 -1.3964 -1.5055
 3774SOL    HW222959   2.853   2.994   5.670 -0.2210 -0.7177  1.4661
 3775SOL     OW22960   4.104   4.522  14.655 -1.1606  0.4993  0.4421
 3775SOL    HW122961   4.169   4.534  14.586 -1.4928 -1.4110 -0.2110
 3775SOL    HW222962   4.031   4.559  14.605 -0.2818  1.6152  0.0145
 3776SOL     OW22963   0.356   3.893  13.984  0.0686 -0.0258 -0.0710
 3776SOL    HW122964   0.340   3.906  14.078 -1.7647 -2.0977 -0.0960
 3776SOL    HW222965   0.311   3.965  13.940  0.5057 -0.9506 -2.0291
 3777SOL     OW22966   2.495   1.254   6.888  0.0510  0.2594  0.5826
 3777SOL    HW122967   2.406   1.225   6.867 -0.4572  1.4468  1.0740
 3777SOL    HW222968   2.510   1.318   6.818  1.9700  0.7249  1.4171
 3778SOL     OW22969   1.761   0.625   1.842 -0.8777  0.3596  0.9014
 3778SOL    HW122970   1.768   0.671   1.758 -0.2920 -1.9450 -0.3088
 3778SOL    HW222971   1.700   0.554   1.824 -2.3702  2.3280 -1.7963
 3779SOL     OW22972   2.040   0.089  16.810 -0.5690 -0.2354 -0.1215
 3779SOL    HW122973   2.043   0.004  16.854 -1.5732  0.5670  1.4948
 3779SOL    HW222974   2.098   0.061  16.739  0.7912  0.4324  0.6990
 3780SOL     OW22975   0.233   2.177   4.628 -0.0879 -0.0217  0.0477
 3780SOL    HW122976   0.285   2.233   4.569 -0.9430  0.4284 -0.2835
 3780SOL    HW222977   0.159   2.228   4.661 -2.6568 -2.6048 -1.7234
 3781SOL     OW22978   1.018   4.575   7.515  0.0393 -0.0141 -0.0682
 3781SOL    HW122979   0.966   4.495   7.529 -0.3126  0.1384 -0.5082
 3781SOL    HW222980   1.102   4.559   7.558 -1.3655 -2.2651  1.9126
 3782SOL     OW22981   0.003   4.196  17.623 -0.3366 -0.3314 -0.3236
 3782SOL    HW122982   0.068   4.265  17.622  1.1702 -1.6728  4.0973
 3782SOL    HW222983   0.063   4.129  17.655  0.1598  0.2770  0.0178
 3783SOL     OW22984   0.323   2.857   8.090  0.0022 -0.0196 -0.1191
 3783SOL    HW122985   0.228   2.843   8.093 -0.5429  3.1553 -2.3934
 3783SOL    HW222986   0.336   2.945   8.054 -0.4593  0.1924  0.2351
 3784SOL     OW22987   2.534   0.441   9.706 -0.7660  0.1430  0.0687
 3784SOL    HW122988   2.563   0.360   9.747  0.2480 -0.2382 -1.4007
 3784SOL    HW222989   2.463   0.413   9.648 -0.1198 -2.1478  0.4124
 3785SOL     OW22990   3.472   0.388   1.951 -0.1631 -0.1115  0.2999
 3785SOL    HW122991   3.420   0.466   1.972 -0.6819 -0.7962  1.5800
 3785SOL    HW222992   3.503   0.401   1.862 -1.8389 -0.9600 -0.4135
 3786SOL     OW22993   4.311   1.623   6.962  0.2775  0.0644 -0.1381
 3786SOL    HW122994   4.252   1.655   7.031 -0.3473  0.0059 -0.6430
 3786SOL    HW222995   4.250   1.572   6.908 -0.5085  0.4048  0.4185
 3787SOL     OW22996   4.262   1.868  10.696 -0.2665 -0.1487  0.0343
 3787SOL    HW122997   4.238   1.775  10.704 -3.7224  0.5923 -1.8773
 3787SOL    HW222998   4.189   1.903  10.747 -0.0682 -0.8769  0.8256
 3788SOL     OW22999   2.559   1.799   1.389  0.4668  0.2470 -0.1814
 3788SOL    HW123000   2.611   1.820   1.466  1.7385 -1.5213 -0.5451
 3788SOL    HW223001   2.502   1.729   1.422 -0.1818 -0.0896 -2.0199
 3789SOL     OW23002   3.217   2.105  12.902  0.2345  0.5564  0.0697
 3789SOL    HW123003   3.156   2.073  12.968 -2.5631  2.1854 -1.6880
 3789SOL    HW223004   3.227   2.188  12.949 -1.4038  1.8173 -1.8241
 3790SOL     OW23005   3.330   1.160   8.303 -0.0555  0.2344 -0.5809
 3790SOL    HW123006   3.351   1.233   8.360 -0.2848 -0.1640  0.0180
 3790SOL    HW223007   3.366   1.087   8.354 -1.2012 -0.7688 -1.2034
 3791SOL     OW23008   2.428   0.709  11.414 -0.4470 -0.8767  0.2958
 3791SOL    HW123009   2.453   0.787  11.366 -0.1771  0.0549  1.9687
 3791SOL    HW223010   2.518   0.676  11.415  0.2554  1.0921  1.3428
 3792SOL     OW23011   4.407   0.026   7.527 -0.3223  0.1837 -0.0700
 3792SOL    HW123012   4.399   0.120   7.544  0.4325  0.5356 -1.7356
 3792SOL    HW223013   4.391   0.019   7.433  1.6490  1.5755 -0.5153
 3793SOL     OW23014   2.022   2.600   5.076 -0.2642  0.0547  0.3269
 3793SOL    HW123015   1.960   2.585   5.147 -0.0587  0.7859  0.6685
 3793SOL    HW223016   1.990   2.685   5.045 -0.0323  0.7900  2.0751
 3794SOL     OW23017   2.069   0.091  15.343  0.4723 -0.2069 -0.5438
 3794SOL    HW123018   2.113   0.137  15.415  1.1878 -1.7846  0.0214
 3794SOL    HW223019   2.033   0.020  15.396 -0.0134 -1.9621 -3.2365
 3795SOL     OW23020   1.285   3.620   0.948  0.5075  0.0144  0.5256
 3795SOL    HW123021   1.329   3.650   1.028 -0.4353  1.2603  0.5613
 3795SOL    HW223022   1.208   3.676   0.948 -0.3546 -1.1831  0.2784
 3796SOL     OW23023   0.747   2.089   0.130 -0.0566  0.1046 -0.5240
 3796SOL    HW123024   0.706   2.130   0.206  1.4114  1.1254 -0.2818
 3796SOL    HW223025   0.754   2.167   0.076  2.6466  0.4405  0.3301
 3797SOL     OW23026   0.326   3.306   6.932  0.1252  0.1570  0.1166
 3797SOL    HW123027   0.285   3.391   6.948  0.0007  0.1779 -0.3089
 3797SOL    HW223028   0.298   3.287   6.843 -2.2380 -0.8196  1.0741
 3798SOL     OW23029   2.920   1.926   9.233 -0.1249 -0.1678 -0.0081
 3798SOL    HW123030   2.875   1.867   9.172  0.0301 -0.1730 -0.1180
 3798SOL    HW223031   2.845   1.967   9.278 -0.4531 -0.8263  0.0414
 3799SOL     OW23032   2.840   0.530   8.075 -0.0306 -0.8695  0.2226
 3799SOL    HW123033   2.879   0.478   8.145 -0.3285 -1.4892 -0.0690
 3799SOL    HW223034   2.896   0.490   8.008  0.1574 -0.0960 -0.0785
 3800SOL     OW23035   4.077   0.058  14.846  0.0836  0.1057  0.0605
 3800SOL    HW123036   4.013   0.080  14.779  0.1021 -0.7110 -0.2132
 3800SOL    HW223037   4.157   0.071  14.795  0.5199 -0.4890  0.5928
 3801SOL     OW23038   4.301   0.579  16.926  0.0806 -0.0786 -0.0336
 3801SOL    HW123039   4.284   0.487  16.904  1.3691  0.2945 -2.5779
 3801SOL    HW223040   4.315   0.580  17.021  2.5126 -1.3674 -0.3589
 3802SOL     OW23041   2.022   4.324   7.918 -0.3170  0.4298 -0.3192
 3802SOL    HW123042   1.992   4.305   8.006 -0.6297 -2.6270 -1.0894
 3802SOL    HW223043   2.067   4.244   7.894  0.5948  0.7495  0.3406
 3803SOL     OW23044   0.690   1.032   8.382 -0.4465 -0.2477 -0.2846
 3803SOL    HW123045   0.711   0.960   8.441 -1.3041 -1.1900 -1.1468
 3803SOL    HW223046   0.596   1.016   8.373 -0.3353 -0.0905 -1.7140
 3804SOL     OW23047   1.578   4.517   8.551 -0.3170  0.3924 -0.1112
 3804SOL    HW123048   1.637   4.471   8.491 -0.4257 -1.1896  0.9807
 3804SOL    HW223049   1.605   4.472   8.631 -1.5012  0.5028  0.3516
 3805SOL     OW23050   0.642   4.243   8.159  0.6058  0.0009 -0.8415
 3805SOL    HW123051   0.662   4.178   8.091 -1.3574  0.7504 -2.1098
 3805SOL    HW223052   0.713   4.241   8.224 -0.9472  4.8063  1.0065
 3806SOL     OW23053   1.855   0.293   6.045  0.4752 -0.0166  0.0853
 3806SOL    HW123054   1.807   0.267   6.124 -0.7208  0.3504 -0.5294
 3806SOL    HW223055   1.916   0.355   6.084  0.7822  0.4520 -1.1578
 3807SOL     OW23056   0.321   0.667   6.460 -0.1272  0.3892 -0.0128
 3807SOL    HW123057   0.297   0.665   6.552 -0.7158  0.7516 -0.1590
 3807SOL    HW223058   0.315   0.760   6.436 -0.7251  0.6889  1.3481
 3808SOL     OW23059   4.635   0.165   9.624  0.1690 -0.6056  0.6275
 3808SOL    HW123060   4.652   0.259   9.626  0.2797 -0.6944  3.1345
 3808SOL    HW223061   4.597   0.147   9.710  1.3765  1.2417  1.5208
 3809SOL     OW23062   0.879   2.758   7.764  0.0772  0.6241 -1.1198
 3809SOL    HW123063   0.899   2.691   7.698  0.5321  1.2906 -1.6611
 3809SOL    HW223064   0.966   2.769   7.803 -0.0766 -0.1754 -0.5608
 3810SOL     OW23065   2.842   1.030   6.060  0.3018  0.2711 -0.0085
 3810SOL    HW123066   2.862   1.034   6.154  1.0128 -0.9380 -0.1050
 3810SOL    HW223067   2.864   1.117   6.027 -1.6196  0.8445  0.2395
 3811SOL     OW23068   3.053   3.617   3.703 -0.2630 -0.4056  0.0313
 3811SOL    HW123069   3.077   3.628   3.611 -0.6462 -1.1106 -0.1517
 3811SOL    HW223070   3.074   3.704   3.738  0.8909 -0.2973 -0.9275
 3812SOL     OW23071   3.698   2.337   8.043  0.1822 -0.0579  0.3976
 3812SOL    HW123072   3.681   2.243   8.050 -3.4358  0.6106  0.5320
 3812SOL    HW223073   3.745   2.345   8.126  2.2871 -0.4321 -0.7306
 3813SOL     OW23074   0.667   2.587   4.576  0.3640 -0.0157  0.3221
 3813SOL    HW123075   0.717   2.625   4.504  0.2910 -1.2650 -0.3904
 3813SOL    HW223076   0.650   2.495   4.557  4.4164 -0.7622  0.3032
 3814SOL     OW23077   1.444   0.309   9.169  0.4263  0.6144 -0.0494
 3814SOL    HW123078   1.520   0.252   9.177 -0.1316 -0.1125  0.0725
 3814SOL    HW223079   1.485   0.393   9.146 -1.1698  1.4257  0.0030
 3815SOL     OW23080   2.015   1.027  10.043 -0.9693 -0.6473 -0.3881
 3815SOL    HW123081   1.960   1.039   9.965  0.5507 -0.2525 -1.3972
 3815SOL    HW223082   2.011   1.116  10.079 -3.4537 -2.1703  3.0659
 3816SOL     OW23083   2.900   4.036   1.987 -0.3468 -0.4553 -0.3220
 3816SOL    HW123084   2.959   3.964   1.963  0.2995  0.5433 -1.7345
 3816SOL    HW223085   2.890   4.062   1.896  0.6282  0.3344 -0.2028
 3817SOL     OW23086   1.466   4.505  13.335 -0.2579 -0.0627 -0.5327
 3817SOL    HW123087   1.439   4.577  13.392 -2.4522  0.2247 -1.9466
 3817SOL    HW223088   1.388   4.496  13.280 -0.1266  1.6993 -0.9915
 3818SOL     OW23089   3.266   3.753  15.949  0.3579  1.0211  0.0146
 3818SOL    HW123090   3.203   3.682  15.963  2.4508 -1.2983 -2.2895
 3818SOL    HW223091   3.322   3.741  16.025  0.8998 -0.7758 -0.6489
 3819SOL     OW23092   2.264   2.146   5.386  0.7500  0.2146  0.1797
 3819SOL    HW123093   2.323   2.075   5.359  0.9104  0.5083 -0.2440
 3819SOL    HW223094   2.271   2.205   5.311 -0.9495 -0.5746 -0.5930
 3820SOL     OW23095   0.769   2.025  12.353 -0.1764  0.0623  0.9645
 3820SOL    HW123096   0.843   2.054  12.406 -0.1929  1.4060  0.2524
 3820SOL    HW223097   0.801   1.971  12.280 -0.3376  0.6312  0.4756
 3821SOL     OW23098   0.043   4.430  10.061 -0.2270 -0.0410 -0.7496
 3821SOL    HW123099   4.704   4.487  10.077 -0.7572 -0.4719 -1.7242
 3821SOL    HW223100   0.113   4.480  10.102 -0.6487  1.9292 -2.4327
 3822SOL     OW23101   1.433   2.867   4.842  0.4971 -0.1014  0.8717
 3822SOL    HW123102   1.432   2.855   4.748  1.1839  0.2266  0.8199
 3822SOL    HW223103   1.522   2.839   4.864  0.0604 -0.4577  2.1791
 3823SOL     OW23104   3.550   1.014  17.615  0.3777 -0.4760  0.1836
 3823SOL    HW123105   3.503   0.933  17.635  0.8010 -0.6218  0.5960
 3823SOL    HW223106   3.488   1.040  17.548 -0.7732 -0.5657  1.2081
 3824SOL     OW23107   1.600   1.390   0.822  0.6569 -0.1775 -0.0183
 3824SOL    HW123108   1.522   1.424   0.867  0.1295 -0.0385 -1.0450
 3824SOL    HW223109   1.575   1.419   0.735  2.6895 -0.7808 -0.7890
 3825SOL     OW23110   4.457   4.373   4.990 -0.0216  0.4180 -0.5473
 3825SOL    HW123111   4.465   4.371   4.895 -0.9916  0.0256 -0.6133
 3825SOL    HW223112   4.413   4.292   5.015  1.1043  0.0114  0.1212
 3826SOL     OW23113   2.654   1.411  15.773  0.0564  0.2774  0.1829
 3826SOL    HW123114   2.621   1.385  15.687 -1.4401 -0.7826  1.0685
 3826SOL    HW223115   2.695   1.496  15.761  0.0164  0.1181 -1.0837
 3827SOL     OW23116   3.671   0.918  16.419 -0.0631 -0.0689  0.0310
 3827SOL    HW123117   3.642   0.961  16.500 -0.8965  0.8341 -0.7413
 3827SOL    HW223118   3.593   0.936  16.367 -1.0103  1.2747  1.9304
 3828SOL     OW23119   1.097   0.623   2.975 -0.2383  0.3703 -0.7682
 3828SOL    HW123120   1.106   0.659   2.886  0.3919  0.9146 -0.4907
 3828SOL    HW223121   1.167   0.559   2.983  0.5803  1.4753  1.0150
 3829SOL     OW23122   2.173   1.704   2.527 -0.0206 -0.2039  0.1674
 3829SOL    HW123123   2.245   1.765   2.508  0.2190 -0.7424 -0.6892
 3829SOL    HW223124   2.088   1.739   2.501  0.1943  0.0326 -0.2304
 3830SOL     OW23125   2.540   1.795   3.350 -0.2863 -0.5656  0.7398
 3830SOL    HW123126   2.611   1.745   3.310  1.6846  1.9535  1.1081
 3830SOL    HW223127   2.550   1.775   3.443 -0.4105  1.5239  1.2108
 3831SOL     OW23128   4.235   0.924   2.832 -0.6859 -0.0555  0.6706
 3831SOL    HW123129   4.141   0.903   2.831 -0.3734 -1.4602  0.5643
 3831SOL    HW223130   4.239   1.019   2.835 -1.0144  0.0541 -2.9074
 3832SOL     OW23131   0.950   1.884  14.786 -0.5467 -0.2272  0.0829
 3832SOL    HW123132   0.903   1.871  14.704 -0.5739  1.0897 -0.1116
 3832SOL    HW223133   0.909   1.963  14.821  0.4025  0.2058  0.2198
 3833SOL     OW23134   3.921   0.894   3.926 -0.3396  0.0165 -0.3748
 3833SOL    HW123135   3.983   0.857   3.989 -2.0724 -0.6801  0.9247
 3833SOL    HW223136   3.936   0.846   3.844 -1.7382 -1.6992  0.3888
 3834SOL     OW23137   3.363   2.130   5.983  0.8154 -0.1071 -0.2194
 3834SOL    HW123138   3.308   2.208   5.982 -1.4370 -1.6894  0.6932
 3834SOL    HW223139   3.326   2.092   6.063  1.2790 -1.0550 -0.4566
 3835SOL     OW23140   2.230   0.865   7.561  1.0526  0.3296 -0.1963
 3835SOL    HW123141   2.259   0.821   7.642 -1.8583  0.0821  0.7055
 3835SOL    HW223142   2.153   0.812   7.542  1.5894 -0.8554  0.9621
 3836SOL     OW23143   2.317   3.138  12.327  0.4080  0.0228  0.5880
 3836SOL    HW123144   2.294   3.094  12.245 -1.7185 -2.7001  2.5967
 3836SOL    HW223145   2.230   3.174  12.342 -0.5010 -0.1540 -4.3190
 3837SOL     OW23146   4.115   4.000   8.273 -0.0988  1.4373  0.1020
 3837SOL    HW123147   4.180   3.930   8.269  0.5547  2.0558 -0.1759
 3837SOL    HW223148   4.147   4.054   8.346 -1.6645  2.4810  0.0190
 3838SOL     OW23149   0.576   2.193   5.250  0.0724 -0.1768  0.2714
 3838SOL    HW123150   0.619   2.248   5.316 -2.9806 -0.0320  2.1651
 3838SOL    HW223151   0.541   2.250   5.182  2.0474 -0.0077 -0.5976
 3839SOL     OW23152   2.948   2.363   8.393 -0.5338 -0.6418  0.1922
 3839SOL    HW123153   3.001   2.442   8.384 -2.2179  0.7074  2.0598
 3839SOL    HW223154   2.874   2.391   8.446 -0.5430 -0.0652 -0.1223
 3840SOL     OW23155   0.629   3.044   6.847 -0.2830  0.0725 -0.7717
 3840SOL    HW123156   0.565   2.973   6.848 -0.1348 -0.0636 -1.5210
 3840SOL    HW223157   0.642   3.050   6.753 -2.2333 -0.7091 -1.0960
 3841SOL     OW23158   0.774   1.718   1.840  0.7100  0.2346 -0.2559
 3841SOL    HW123159   0.685   1.716   1.804  1.1445 -0.0443 -1.3417
 3841SOL    HW223160   0.806   1.643   1.789 -0.1930 -1.3432  1.4604
 3842SOL     OW23161   3.902   3.183  11.765  0.5667  0.5754  0.3534
 3842SOL    HW123162   3.908   3.127  11.843  1.8575  0.5309  0.2190
 3842SOL    HW223163   3.959   3.253  11.796 -0.4168  1.3817  0.3762
 3843SOL     OW23164   2.912   1.198   6.804  0.3141 -0.7948 -0.2602
 3843SOL    HW123165   2.909   1.103   6.799 -0.4980 -0.8120  0.6076
 3843SOL    HW223166   3.000   1.217   6.838 -0.8352  1.2165  1.5810
 3844SOL     OW23167   1.911   2.856   9.007  0.0084 -0.0616 -0.2061
 3844SOL    HW123168   1.895   2.875   9.099  0.6176 -2.7122  0.4422
 3844SOL    HW223169   1.870   2.770   8.996 -0.8296 -0.0255  2.7786
 3845SOL     OW23170   0.014   3.972   5.126 -0.2914 -0.8328 -0.0421
 3845SOL    HW123171   0.027   4.065   5.143 -1.0980 -0.3814 -1.8276
 3845SOL    HW223172   0.104   3.939   5.128 -0.1266 -0.2934  0.9771
 3846SOL     OW23173   0.189   1.271   6.155 -0.5180  0.5217  0.5862
 3846SOL    HW123174   0.116   1.332   6.169 -2.6010 -1.4300 -1.7128
 3846SOL    HW223175   0.186   1.218   6.234  0.2724  0.2230  0.4147
 3847SOL     OW23176   4.156   1.022  12.499 -0.0583 -0.0346 -0.6908
 3847SOL    HW123177   4.126   1.059  12.416  1.3483 -2.3909 -2.2294
 3847SOL    HW223178   4.099   0.946  12.505  2.0281 -1.6340 -1.1639
 3848SOL     OW23179   1.854   3.950   8.880 -0.4171 -0.5695  0.2710
 3848SOL    HW123180   1.942   3.986   8.867 -0.7193  0.6081  1.5049
 3848SOL    HW223181   1.861   3.893   8.956 -1.3530 -2.8445 -1.3675
 3849SOL     OW23182   1.958   3.905   2.376 -0.6312 -0.5127 -0.5920
 3849SOL    HW123183   2.013   3.909   2.298  0.4422 -0.6661  0.1565
 3849SOL    HW223184   1.877   3.871   2.339 -2.1924  1.7678  0.6865
 3850SOL     OW23185   0.753   0.720   4.969  0.0322  0.0301 -0.4063
 3850SOL    HW123186   0.709   0.796   4.931 -1.9825 -1.1421 -0.4490
 3850SOL    HW223187   0.844   0.750   4.964 -0.3688  1.2204 -0.4766
 3851SOL     OW23188   1.812   0.142   5.062 -0.4717 -0.2219 -0.4497
 3851SOL    HW123189   1.732   0.097   5.036  0.1405 -1.0729 -0.8562
 3851SOL    HW223190   1.833   0.199   4.987 -0.8916  2.0655  1.1925
 3852SOL     OW23191   3.190   2.997   7.784  0.0699 -0.1374 -0.5754
 3852SOL    HW123192   3.197   2.981   7.878  1.6023 -0.8599 -0.8174
 3852SOL    HW223193   3.240   2.921   7.756  0.2427 -0.6135  1.0223
 3853SOL     OW23194   2.235   1.733  13.554  0.7058  0.2228 -0.0722
 3853SOL    HW123195   2.187   1.668  13.607  0.5929 -0.6671 -1.2642
 3853SOL    HW223196   2.234   1.680  13.474  0.5767  0.4221 -0.2017
 3854SOL     OW23197   3.098   4.603   6.388  0.4583  0.2261  0.4078
 3854SOL    HW123198   3.020   4.551   6.368  0.5378  2.3217 -5.4868
 3854SOL    HW223199   3.072   4.629   6.476 -1.3801 -0.4215  0.0757
 3855SOL     OW23200   0.823   1.336  16.261 -0.5180  0.4592  0.1015
 3855SOL    HW123201   0.742   1.386  16.255 -0.2786  1.0503  1.6287
 3855SOL    HW223202   0.799   1.246  16.239 -3.2109  1.3080 -0.4140
 3856SOL     OW23203   0.113   0.814   1.401  0.5543  0.7984 -0.2560
 3856SOL    HW123204   0.165   0.838   1.324  0.3686 -1.2671 -1.0472
 3856SOL    HW223205   0.030   0.855   1.381 -0.2302 -1.2485 -1.2135
 3857SOL     OW23206   1.251   3.450   6.333  0.2715 -0.2641 -0.1777
 3857SOL    HW123207   1.228   3.516   6.268 -3.5280 -0.0047  1.4116
 3857SOL    HW223208   1.340   3.425   6.308  0.0454 -1.2491  0.0198
 3858SOL     OW23209   0.368   0.955  17.068  0.2330  0.0895 -0.0771
 3858SOL    HW123210   0.377   1.028  17.128  2.6126  0.2796 -0.6458
 3858SOL    HW223211   0.278   0.953  17.036  0.2785  1.7643 -0.2962
 3859SOL     OW23212   1.789   0.063   5.348 -0.7764 -0.1019  0.2487
 3859SOL    HW123213   1.775   0.096   5.259 -2.3027  1.0342  0.9020
 3859SOL    HW223214   1.728   4.725   5.356 -0.2930 -0.1631  3.3832
 3860SOL     OW23215   1.859   2.911  16.268  0.3378  0.1287  0.6368
 3860SOL    HW123216   1.923   2.943  16.332 -0.1453 -0.5319  1.4456
 3860SOL    HW223217   1.895   2.913  16.179  1.7259  0.0405  1.1887
 3861SOL     OW23218   0.424   3.606  16.735  0.1187 -0.2621  0.3940
 3861SOL    HW123219   0.486   3.679  16.733 -1.2291  0.8173 -2.3752
 3861SOL    HW223220   0.410   3.595  16.641 -0.1411  1.7674  0.1895
 3862SOL     OW23221   4.197   1.354   9.088  0.4651 -0.3276  0.1879
 3862SOL    HW123222   4.260   1.292   9.125  2.0069  0.5765 -0.9105
 3862SOL    HW223223   4.188   1.402   9.170 -0.1992 -2.2627  1.2564
 3863SOL     OW23224   3.741   3.579  10.296  0.6246  0.1364 -0.2507
 3863SOL    HW123225   3.754   3.611  10.385  0.2886 -1.0626  0.2319
 3863SOL    HW223226   3.794   3.499  10.294  0.8902  0.3117 -0.1701
 3864SOL     OW23227   1.040   2.521  15.279 -0.0369 -0.1725  0.0630
 3864SOL    HW123228   1.098   2.535  15.354 -1.5291  2.0247  0.8080
 3864SOL    HW223229   1.079   2.574  15.210  0.1162 -2.0055 -1.2503
 3865SOL     OW23230   2.625   2.077  11.752 -0.3617 -0.3634 -0.0874
 3865SOL    HW123231   2.547   2.072  11.807  0.1338  3.3459  0.8912
 3865SOL    HW223232   2.679   2.134  11.807 -2.3914  0.9807  0.4838
 3866SOL     OW23233   3.445   2.742   7.509 -0.5636  0.1551  0.2393
 3866SOL    HW123234   3.403   2.668   7.464 -1.1984 -0.7097  2.2647
 3866SOL    HW223235   3.486   2.783   7.432 -1.1464  0.0121 -0.1524
 3867SOL     OW23236   3.071   1.825   6.118 -0.3971  0.2293 -0.3112
 3867SOL    HW123237   3.006   1.761   6.089 -0.0733 -1.0371  1.7293
 3867SOL    HW223238   3.058   1.818   6.212 -0.4275  1.6062 -0.2078
 3868SOL     OW23239   2.147   0.888   3.380 -0.1249  0.3416  0.4036
 3868SOL    HW123240   2.106   0.884   3.467  0.5056  3.3564  0.8168
 3868SOL    HW223241   2.071   0.902   3.323 -0.2927 -1.6841  0.1198
 3869SOL     OW23242   2.003   2.779  10.008 -0.5370 -0.1663 -0.5746
 3869SOL    HW123243   1.973   2.690  10.026  0.2418 -0.0950  1.0456
 3869SOL    HW223244   1.921   2.827   9.993 -0.2513  0.8647  1.1489
 3870SOL     OW23245   0.905   4.286   4.506  0.3132  0.4031 -0.5996
 3870SOL    HW123246   0.881   4.323   4.421 -0.5099 -0.4160 -0.7351
 3870SOL    HW223247   0.835   4.323   4.560  1.3239  0.8700  0.3843
 3871SOL     OW23248   3.985   3.659   1.865 -0.6746  0.1973  0.0205
 3871SOL    HW123249   3.981   3.621   1.953  0.0537  1.7431  0.7182
 3871SOL    HW223250   3.892   3.654   1.843 -0.5535 -1.1140 -0.1924
 3872SOL     OW23251   4.572   4.578   6.850 -0.5731 -0.1249 -0.9050
 3872SOL    HW123252   4.632   4.543   6.784 -1.2035 -0.3338 -1.3611
 3872SOL    HW223253   4.635   4.638   6.891 -0.8786  0.2893 -1.0517
 3873SOL     OW23254   4.090   3.633   8.142 -0.7790  0.3928  0.0136
 3873SOL    HW123255   4.004   3.596   8.121  0.2257 -2.3970  0.8114
 3873SOL    HW223256   4.070   3.726   8.127  0.6236  0.6470 -0.3170
 3874SOL     OW23257   1.653   0.133  14.626  0.0405 -0.5288  0.4991
 3874SOL    HW123258   1.656   0.228  14.629 -2.7538 -0.4621  1.2661
 3874SOL    HW223259   1.585   0.119  14.560  0.0382  1.7095  0.0387
 3875SOL     OW23260   1.120   0.438   8.939  0.1664 -0.1762 -0.3547
 3875SOL    HW123261   1.161   0.488   9.009  0.2121  0.3805 -0.7808
 3875SOL    HW223262   1.026   0.452   8.943  0.3798  0.5330  2.1758
 3876SOL     OW23263   1.774   1.487   3.611 -0.7130 -0.0472  0.4031
 3876SOL    HW123264   1.780   1.420   3.679 -1.3072 -1.6300 -1.0990
 3876SOL    HW223265   1.717   1.555   3.646  0.6865  0.3851  1.7844
 3877SOL     OW23266   3.054   2.313   7.105 -0.0118 -0.6077  0.1752
 3877SOL    HW123267   3.026   2.319   7.197  2.2312  1.0305  0.7592
 3877SOL    HW223268   3.005   2.235   7.077 -2.4614  0.4408  1.5402
 3878SOL     OW23269   0.223   3.058  13.764 -0.1373 -0.0595 -0.2684
 3878SOL    HW123270   0.139   3.037  13.806 -0.5362 -2.2493 -2.1625
 3878SOL    HW223271   0.248   2.970  13.736 -0.4769 -0.3299  0.2674
 3879SOL     OW23272   2.960   3.640   7.726  0.0584  0.4852  0.3099
 3879SOL    HW123273   2.888   3.657   7.665  3.2916  4.8174 -2.3698
 3879SOL    HW223274   3.032   3.627   7.664  0.4685 -0.2963  0.9444
 3880SOL     OW23275   1.608   3.888   3.322  0.1247  0.1971  0.2284
 3880SOL    HW123276   1.523   3.859   3.291 -0.5216  0.5401  1.6806
 3880SOL    HW223277   1.626   3.928   3.236  2.9773  1.4915  1.4045
 3881SOL     OW23278   4.557   4.532  16.570 -0.2180  0.6408  0.0196
 3881SOL    HW123279   4.556   4.477  16.648  1.3183 -0.7311 -0.9039
 3881SOL    HW223280   4.572   4.619  16.606  0.5659  0.8658 -0.8435
 3882SOL     OW23281   2.826   4.293   2.052  0.6807 -0.2843  0.2963
 3882SOL    HW123282   2.853   4.203   2.033  0.5883  0.3743 -3.0268
 3882SOL    HW223283   2.878   4.315   2.129  0.3648  1.5508 -0.0204
 3883SOL     OW23284   2.262   4.225  10.423  0.8400 -0.2726 -0.6182
 3883SOL    HW123285   2.214   4.159  10.473 -0.9655  1.8467  0.3988
 3883SOL    HW223286   2.328   4.178  10.371  0.8531 -2.3639  1.2822
 3884SOL     OW23287   3.609   1.285   0.450 -0.3793 -0.4253  0.2567
 3884SOL    HW123288   3.646   1.363   0.409 -1.0344  0.2019  0.8554
 3884SOL    HW223289   3.516   1.306   0.444 -0.2817 -0.7587 -2.4205
 3885SOL     OW23290   4.506   1.679   9.216 -0.0026  0.2734  0.2665
 3885SOL    HW123291   4.499   1.753   9.276  0.7263  0.7653 -0.2609
 3885SOL    HW223292   4.599   1.664   9.229  0.3281  0.5338 -1.9643
 3886SOL     OW23293   3.103   0.588   9.541  0.6767  0.8121 -0.5000
 3886SOL    HW123294   3.074   0.623   9.626 -1.4703 -2.8134  0.2727
 3886SOL    HW223295   3.130   0.672   9.505  0.5385  1.2097  0.3124
 3887SOL     OW23296   3.082   4.733   9.645 -0.0059  0.3106 -0.0253
 3887SOL    HW123297   3.157   4.676   9.661  0.8674  1.9656  1.8406
 3887SOL    HW223298   3.065   0.021   9.736 -1.5957  0.0072 -0.2393
 3888SOL     OW23299   1.720   3.985   1.649  0.0699  0.2249 -0.8636
 3888SOL    HW123300   1.782   3.930   1.696 -1.2240  1.7004  2.5933
 3888SOL    HW223301   1.660   4.007   1.721 -1.3168 -0.7048 -1.7226
 3889SOL     OW23302   0.967   0.614   6.853  0.0954  0.4160  0.1685
 3889SOL    HW123303   0.985   0.526   6.886 -2.4360 -1.2480 -2.8648
 3889SOL    HW223304   0.940   0.658   6.933 -0.1748 -1.2389  0.9829
 3890SOL     OW23305   4.088   0.176   7.778  0.3422  0.7132  0.0752
 3890SOL    HW123306   4.058   0.225   7.855 -1.4249 -1.9117  1.0786
 3890SOL    HW223307   4.119   0.098   7.824 -0.1227  0.9212  0.7478
 3891SOL     OW23308   4.387   2.989   8.895 -0.2335 -0.2660 -0.4589
 3891SOL    HW123309   4.302   3.032   8.909  1.6084  2.3924  2.5664
 3891SOL    HW223310   4.374   2.945   8.811 -0.7184 -2.1361  0.6172
 3892SOL     OW23311   4.270   3.318  17.473 -0.7274 -0.1521 -0.0436
 3892SOL    HW123312   4.347   3.284  17.518  0.2198  0.2916 -1.3369
 3892SOL    HW223313   4.294   3.309  17.381  2.3266 -1.1027  0.8602
 3893SOL     OW23314   4.612   2.732  12.170 -0.4663  0.3633  0.2409
 3893SOL    HW123315   4.705   2.736  12.148 -0.7456 -0.3243 -1.0763
 3893SOL    HW223316   4.609   2.799  12.238 -0.6594  2.8703 -2.2600
 3894SOL     OW23317   0.227   3.714   5.583  0.3062  0.1917  0.2029
 3894SOL    HW123318   0.197   3.805   5.577  0.8196  0.3712  0.2929
 3894SOL    HW223319   0.254   3.688   5.495  3.5445  4.9898 -0.2419
 3895SOL     OW23320   4.417   4.449   3.976  0.0112 -0.1915 -0.0186
 3895SOL    HW123321   4.454   4.431   4.062  1.9434 -2.2199 -1.2776
 3895SOL    HW223322   4.323   4.454   3.992 -0.3902  0.1112 -2.4595
 3896SOL     OW23323   2.177   3.782   2.197  0.7087  0.3003 -0.3671
 3896SOL    HW123324   2.227   3.806   2.119  0.2684 -1.4084 -1.1720
 3896SOL    HW223325   2.244   3.783   2.265  1.0031  0.0951 -0.6549
 3897SOL     OW23326   2.577   1.688   5.339 -0.1096 -0.0637 -0.0330
 3897SOL    HW123327   2.580   1.606   5.387  3.0688  0.3046  0.3765
 3897SOL    HW223328   2.658   1.723   5.375 -0.5414  0.7239  0.1748
 3898SOL     OW23329   3.308   4.644  11.329 -0.0212 -0.0290 -0.6312
 3898SOL    HW123330   3.242   4.616  11.392 -1.7369  1.1805 -1.8740
 3898SOL    HW223331   3.335   4.562  11.288 -1.4000 -0.5663 -0.4623
 3899SOL     OW23332   4.476   2.757   3.280  0.0036  0.0201 -0.2593
 3899SOL    HW123333   4.406   2.760   3.345 -1.6250 -1.1277 -1.9413
 3899SOL    HW223334   4.427   2.804   3.212  0.1178  1.1049  0.4222
 3900SOL     OW23335   3.295   3.234  16.255 -0.3358 -0.1555 -0.7434
 3900SOL    HW123336   3.378   3.255  16.297 -0.3498 -0.7062 -0.4406
 3900SOL    HW223337   3.276   3.315  16.208 -1.3162 -0.1057 -0.2649
 3901SOL     OW23338   1.215   0.176   5.005  0.5767  0.4059 -0.2214
 3901SOL    HW123339   1.207   0.159   5.099  0.6420 -1.4594 -0.5558
 3901SOL    HW223340   1.191   0.269   5.000  0.0276  0.3276  1.0205
 3902SOL     OW23341   2.916   3.110   7.822  0.1888 -0.2731 -0.3791
 3902SOL    HW123342   2.947   3.190   7.779  2.4486 -1.0269 -0.1544
 3902SOL    HW223343   3.001   3.066   7.820  0.6903  0.7019 -0.7404
 3903SOL     OW23344   0.614   4.423   6.749  0.1118  0.2552  0.1339
 3903SOL    HW123345   0.566   4.343   6.770 -1.7308  1.3306  0.0430
 3903SOL    HW223346   0.597   4.457   6.837  0.5330  0.6220  0.0700
 3904SOL     OW23347   4.694   3.509  17.020  0.5858 -0.3282  0.1701
 3904SOL    HW123348   4.651   3.528  16.936  1.5603  0.9540 -0.0452
 3904SOL    HW223349   0.001   3.425  17.006  3.5979  0.7677  2.8677
 3905SOL     OW23350   2.582   0.490   7.159  0.0134  0.0570  0.0137
 3905SOL    HW123351   2.487   0.497   7.164  0.1627  1.4484  1.2633
 3905SOL    HW223352   2.610   0.544   7.233  0.5078  1.2009 -1.0088
 3906SOL     OW23353   0.418   0.336   0.842  0.2594  0.2902  0.6304
 3906SOL    HW123354   0.507   0.373   0.839 -0.5737  2.1859 -0.5695
 3906SOL    HW223355   0.436   0.256   0.791  2.9662 -0.0789  2.1454
 3907SOL     OW23356   0.208   1.174   7.016 -0.0310 -0.6295  0.1787
 3907SOL    HW123357   0.169   1.185   7.103 -1.3731  0.3433 -0.5412
 3907SOL    HW223358   0.263   1.253   7.018 -1.9829  0.8419 -5.0123
 3908SOL     OW23359   4.641   0.920   6.456 -0.3603  0.2189  0.2036
 3908SOL    HW123360   4.621   0.832   6.487  1.4584  0.0041  0.8020
 3908SOL    HW223361   4.586   0.978   6.508 -0.2043  0.9819 -0.4787
 3909SOL     OW23362   3.919   3.409   7.073  0.5358  0.0514 -0.1913
 3909SOL    HW123363   3.926   3.480   7.009 -1.0752 -2.3879 -3.1109
 3909SOL    HW223364   3.920   3.334   7.013 -0.8464  0.5204 -0.8020
 3910SOL     OW23365   3.213   3.363  12.824 -0.4184  0.7424  0.0470
 3910SOL    HW123366   3.149   3.373  12.895 -1.2570 -0.9184 -0.4787
 3910SOL    HW223367   3.284   3.420  12.854  1.9625 -2.2790  0.0787
 3911SOL     OW23368   4.710   0.379  11.599  0.2178 -0.0235  0.0153
 3911SOL    HW123369   4.657   0.456  11.617  1.2947  0.8933 -0.7090
 3911SOL    HW223370   0.034   0.405  11.529  1.8413 -2.8506  0.3471
 3912SOL     OW23371   0.649   1.146  14.574 -0.2953 -0.0043  0.5712
 3912SOL    HW123372   0.686   1.230  14.550  2.1025 -1.1949  0.1637
 3912SOL    HW223373   0.730   1.124  14.620  0.1973 -0.3563 -0.4706
 3913SOL     OW23374   4.599   1.383  10.143  0.1828 -0.3115 -0.1530
 3913SOL    HW123375   4.653   1.306  10.160 -0.3795 -0.8030 -0.5488
 3913SOL    HW223376   4.661   1.451  10.168 -2.3666  0.8812  3.0356
 3914SOL     OW23377   4.082   1.718  15.534 -1.1015 -0.3490  0.1819
 3914SOL    HW123378   4.051   1.732  15.445  0.0511  1.5540  0.0788
 3914SOL    HW223379   4.051   1.793  15.585  0.7913  0.6653 -0.1547
 3915SOL     OW23380   1.791   3.539  17.624 -0.2185  0.2495  0.0147
 3915SOL    HW123381   1.724   3.551  17.557  0.0816 -1.0378 -0.5294
 3915SOL    HW223382   1.741   3.532  17.705 -2.0143 -0.2432 -1.1263
 3916SOL     OW23383   4.643   2.907  15.228  0.3067 -0.3136  0.7043
 3916SOL    HW123384   4.599   2.983  15.267  3.1349  0.9075  1.4770
 3916SOL    HW223385   4.587   2.839  15.266 -0.7035  0.0404 -0.1286
 3917SOL     OW23386   3.494   2.138   5.273 -0.6126 -0.0578  0.9652
 3917SOL    HW123387   3.426   2.201   5.251  1.0141  0.9952 -1.0666
 3917SOL    HW223388   3.558   2.204   5.302  1.3613 -0.8001 -1.7376
 3918SOL     OW23389   0.579   0.577   5.942  0.2193  0.4389  0.2482
 3918SOL    HW123390   0.604   0.503   5.998 -0.6287  0.5352  0.7568
 3918SOL    HW223391   0.574   0.538   5.854 -1.6021  1.5040 -0.1121
 3919SOL     OW23392   2.418   1.836   1.856 -0.0385 -0.2629  0.2277
 3919SOL    HW123393   2.445   1.745   1.863 -2.1611 -1.0072 -1.4909
 3919SOL    HW223394   2.331   1.822   1.819 -0.1141  2.9017 -0.7810
 3920SOL     OW23395   0.175   0.743   7.499 -0.0519  0.1205  0.0174
 3920SOL    HW123396   0.093   0.788   7.516  1.1395  1.7199  1.5539
 3920SOL    HW223397   0.160   0.690   7.421 -0.7039  1.7753 -0.9677
 3921SOL     OW23398   2.483   3.253   5.145 -0.4473 -1.1376  0.1475
 3921SOL    HW123399   2.473   3.327   5.205 -0.9892  0.0870 -1.4537
 3921SOL    HW223400   2.513   3.299   5.067  1.1137 -2.0236  0.2395
 3922SOL     OW23401   3.330   2.402  14.522 -0.6661 -0.3184  0.1828
 3922SOL    HW123402   3.401   2.437  14.467  1.5504 -1.8841  2.0344
 3922SOL    HW223403   3.271   2.477  14.520  1.3154  1.2655  0.5609
 3923SOL     OW23404   4.484   4.287   4.700  0.0572 -0.1971 -0.6606
 3923SOL    HW123405   4.540   4.356   4.663  1.0290 -0.6784 -0.1099
 3923SOL    HW223406   4.553   4.239   4.746 -0.9065 -1.7496 -0.8539
 3924SOL     OW23407   4.329   2.403   1.119 -0.1155 -0.1194 -0.2383
 3924SOL    HW123408   4.335   2.307   1.119  1.6809  0.0007  0.2333
 3924SOL    HW223409   4.314   2.425   1.027  0.7048 -2.3895 -0.9091
 3925SOL     OW23410   2.707   2.795  17.283 -0.2661 -0.6019 -0.2860
 3925SOL    HW123411   2.708   2.719  17.341 -1.6741 -1.2342 -1.0795
 3925SOL    HW223412   2.762   2.857  17.330 -1.6232  1.2257 -1.1481
 3926SOL     OW23413   0.194   2.456  10.958 -0.3684  0.4077 -1.0872
 3926SOL    HW123414   0.227   2.501  10.880  1.8554  0.1852 -0.2974
 3926SOL    HW223415   0.162   2.530  11.009 -1.0153  0.1926 -1.1806
 3927SOL     OW23416   0.007   0.813   4.642 -0.1937 -0.7881  0.5692
 3927SOL    HW123417   4.673   0.851   4.694  0.9901  2.5555 -0.2947
 3927SOL    HW223418   0.082   0.820   4.701  0.5855  2.1075 -0.7869
 3928SOL     OW23419   3.776   3.640   0.394  0.0264 -0.1389  1.1815
 3928SOL    HW123420   3.805   3.693   0.467 -0.4823 -1.2086  2.1691
 3928SOL    HW223421   3.856   3.590   0.378 -1.7808 -2.5539 -0.3956
 3929SOL     OW23422   2.667   3.966   4.571 -0.3318  0.3538  0.4385
 3929SOL    HW123423   2.653   3.927   4.484 -0.0264  0.9563  0.1152
 3929SOL    HW223424   2.582   3.961   4.614 -0.8914 -1.0055 -0.8440
 3930SOL     OW23425   2.391   2.281   6.569 -0.0756  0.3570 -0.1354
 3930SOL    HW123426   2.328   2.224   6.612 -0.1347 -1.5588 -2.7731
 3930SOL    HW223427   2.406   2.350   6.634 -1.4343 -0.3189  0.8940
 3931SOL     OW23428   3.948   0.207   5.295 -0.3688  0.3265 -0.5821
 3931SOL    HW123429   3.910   0.275   5.240 -1.0346 -0.2016 -0.7667
 3931SOL    HW223430   3.897   0.131   5.266  0.8308 -1.0694  0.8953
 3932SOL     OW23431   2.981   0.633  10.709  0.1924  0.2313  0.4256
 3932SOL    HW123432   2.934   0.558  10.745  2.6045 -2.5344 -2.2089
 3932SOL    HW223433   2.916   0.693  10.674  2.7092  1.3934 -2.2032
 3933SOL     OW23434   3.605   0.043   4.531 -0.6680  0.2373  0.2075
 3933SOL    HW123435   3.516   0.078   4.534 -0.4568  0.8571 -0.5868
 3933SOL    HW223436   3.645   0.098   4.463  0.7597  0.4754  1.2327
 3934SOL     OW23437   1.664   3.773   2.557  0.3291 -0.4027 -0.2058
 3934SOL    HW123438   1.645   3.739   2.644  0.6976  1.2478  0.5056
 3934SOL    HW223439   1.598   3.843   2.556 -0.5041 -1.1525  2.6081
 3935SOL     OW23440   1.914   1.303   6.215 -0.0400  0.6753 -0.4751
 3935SOL    HW123441   1.868   1.328   6.295  0.2209  1.3876 -0.5497
 3935SOL    HW223442   1.858   1.338   6.146  0.6472  0.5698 -1.0836
 3936SOL     OW23443   3.124   3.933   3.306  0.1502  0.4631  0.2831
 3936SOL    HW123444   3.219   3.929   3.320  0.3530  0.5938 -1.0109
 3936SOL    HW223445   3.115   4.021   3.269  1.1161  0.3394 -0.2412
 3937SOL     OW23446   0.225   4.679  12.622 -0.4928  0.5206 -0.3758
 3937SOL    HW123447   0.295   0.008  12.630  1.9519 -2.3812  2.1622
 3937SOL    HW223448   0.159   0.000  12.584 -0.7239  1.4362  1.3987
 3938SOL     OW23449   2.734   3.285   9.735 -0.8320  0.4362 -0.2351
 3938SOL    HW123450   2.710   3.377   9.742  1.8508  1.0553  0.9498
 3938SOL    HW223451   2.741   3.268   9.829 -2.2838  1.7511  0.1038
 3939SOL     OW23452   1.520   1.342   0.556  0.5889  0.0089  0.0871
 3939SOL    HW123453   1.608   1.334   0.518  1.5670  2.0322  1.8916
 3939SOL    HW223454   1.468   1.327   0.477 -1.5699  4.3126  0.6789
 3940SOL     OW23455   4.677   2.879  11.725 -0.1375 -0.3519 -0.6073
 3940SOL    HW123456   4.690   2.854  11.633 -2.1129 -0.4537 -0.8632
 3940SOL    HW223457   4.627   2.801  11.746  1.2109 -0.7292  1.1819
 3941SOL     OW23458   0.645   4.731  11.632  0.2180  0.2870  0.0055
 3941SOL    HW123459   0.665   0.089  11.634  1.7833 -0.0474 -0.1429
 3941SOL    HW223460   0.697   4.705  11.556  0.7487  1.8474 -0.1756
 3942SOL     OW23461   0.760   3.045   3.652 -0.4827 -0.5081  0.2824
 3942SOL    HW123462   0.671   3.066   3.625 -0.5281 -0.8454  0.1652
 3942SOL    HW223463   0.762   2.954   3.624  1.6777  0.3818 -2.4037
 3943SOL     OW23464   2.000   0.501   6.143  0.1847 -0.1020  0.0876
 3943SOL    HW123465   2.074   0.510   6.083 -0.7280 -0.4731 -1.0752
 3943SOL    HW223466   2.017   0.565   6.213  2.4489 -1.5064  0.8451
 3944SOL     OW23467   4.052   1.682   1.280 -0.4904  0.1742 -0.2060
 3944SOL    HW123468   4.057   1.592   1.313 -0.9259 -0.1245 -0.9655
 3944SOL    HW223469   4.006   1.665   1.198 -1.7818 -1.0092  0.7625
 3945SOL     OW23470   3.555   1.136   4.310 -0.3688  0.5667 -0.0077
 3945SOL    HW123471   3.512   1.109   4.229  3.0486  1.2033 -2.0801
 3945SOL    HW223472   3.499   1.209   4.336  0.1734  1.7021 -1.9729
 3946SOL     OW23473   2.671   0.823   2.792 -0.1675 -0.0157  0.2251
 3946SOL    HW123474   2.674   0.865   2.878 -0.9057  2.6891 -1.0482
 3946SOL    HW223475   2.615   0.889   2.750 -1.5001 -0.8537  0.6972
 3947SOL     OW23476   2.826   2.645   7.913  0.5047  0.0472  0.2290
 3947SOL    HW123477   2.834   2.707   7.840  0.6493 -0.4163 -0.1484
 3947SOL    HW223478   2.893   2.678   7.974 -1.5716 -0.6140  2.8768
 3948SOL     OW23479   2.573   2.737   4.555 -0.0071 -0.3617 -0.7765
 3948SOL    HW123480   2.541   2.681   4.483  1.8777 -1.6037 -0.6404
 3948SOL    HW223481   2.594   2.817   4.506 -3.2647  1.4748  0.8364
 3949SOL     OW23482   0.781   0.284   6.495  0.2124  0.3048  0.6646
 3949SOL    HW123483   0.770   0.367   6.543 -0.5741 -0.4132  1.7408
 3949SOL    HW223484   0.690   0.256   6.504  0.9943 -2.8228 -1.3224
 3950SOL     OW23485   4.487   4.700  10.908 -0.0011  0.3184  0.4950
 3950SOL    HW123486   4.428   0.031  10.875 -2.1300 -1.6681  0.2341
 3950SOL    HW223487   4.447   4.616  10.885 -1.7713  1.4205 -0.4288
 3951SOL     OW23488   4.305   4.614   3.310 -0.0030 -0.3214 -0.3422
 3951SOL    HW123489   4.397   4.598   3.290 -0.7729  0.7059 -4.7499
 3951SOL    HW223490   4.271   4.524   3.312  1.8334 -0.9855  0.6861
 3952SOL     OW23491   0.865   3.793  14.672 -0.0545  0.3221 -0.0412
 3952SOL    HW123492   0.781   3.762  14.638  0.4138 -3.0035  1.9340
 3952SOL    HW223493   0.882   3.782  14.765 -0.1469 -1.5070 -0.2482
 3953SOL     OW23494   4.158   1.020   6.216  0.3843  0.0276  0.0678
 3953SOL    HW123495   4.198   1.103   6.188  0.4025 -0.6584 -1.9665
 3953SOL    HW223496   4.067   1.035   6.188 -0.1417  0.5417  2.0342
 3954SOL     OW23497   1.205   2.627  15.059  0.3847 -0.2887 -0.9305
 3954SOL    HW123498   1.201   2.690  14.987  0.2818  2.3975  1.4207
 3954SOL    HW223499   1.289   2.658  15.094 -0.1530 -1.3154  1.2460
 3955SOL     OW23500   2.527   2.721   5.448  0.0154  0.3285 -0.2175
 3955SOL    HW123501   2.452   2.684   5.401  1.6495 -3.8458  0.4471
 3955SOL    HW223502   2.578   2.722   5.367  3.4035  2.7345  1.9299
 3956SOL     OW23503   1.465   1.644   6.105  0.5522  0.2921  0.3309
 3956SOL    HW123504   1.487   1.706   6.176 -0.7212  0.5805  0.4678
 3956SOL    HW223505   1.444   1.563   6.151 -1.1092 -0.3496 -1.5790
 3957SOL     OW23506   1.548   1.857   7.552 -0.4901 -0.2011 -0.4434
 3957SOL    HW123507   1.530   1.892   7.465  1.4865 -0.8855 -1.1350
 3957SOL    HW223508   1.569   1.939   7.598 -0.9302 -1.2937  1.7102
 3958SOL     OW23509   3.987   2.800   1.516  0.0405  0.3702  0.4673
 3958SOL    HW123510   3.944   2.771   1.435  2.0760  1.2201 -0.9144
 3958SOL    HW223511   3.949   2.887   1.513  0.0792  0.4023  0.9302
 3959SOL     OW23512   0.495   4.096  10.084  0.0862 -0.7364  0.0333
 3959SOL    HW123513   0.403   4.121  10.073 -0.4300 -1.8748  1.7215
 3959SOL    HW223514   0.505   4.033  10.012 -1.7448 -2.2848  1.1248
 3960SOL     OW23515   2.940   2.305   4.927 -0.5332  0.3482  0.1669
 3960SOL    HW123516   2.945   2.270   4.838  0.7140 -0.1171  0.4184
 3960SOL    HW223517   3.025   2.288   4.967 -0.2432 -1.1591 -1.1026
 3961SOL     OW23518   2.072   0.221   6.282  0.3408 -0.6388 -0.0703
 3961SOL    HW123519   2.040   0.308   6.307  1.1590  0.0511 -1.4302
 3961SOL    HW223520   2.153   0.252   6.243 -0.0631  1.7806  1.0630
 3962SOL     OW23521   3.594   1.547   4.470 -0.2740 -0.4882  0.0040
 3962SOL    HW123522   3.639   1.629   4.451 -1.4931 -0.0634 -1.0641
 3962SOL    HW223523   3.552   1.569   4.553  0.5508  1.6640 -0.1612
 3963SOL     OW23524   0.352   3.882   7.962 -0.1111  0.7388  0.1388
 3963SOL    HW123525   0.444   3.872   7.984 -0.1124 -1.1745 -0.7947
 3963SOL    HW223526   0.309   3.883   8.048 -0.3973 -0.7875  0.0069
 3964SOL     OW23527   1.152   4.298   0.199 -0.5862  0.1062 -0.0363
 3964SOL    HW123528   1.229   4.332   0.154 -0.1725  0.3729  0.8883
 3964SOL    HW223529   1.189   4.254   0.275 -1.8777 -0.6348  0.1723
 3965SOL     OW23530   0.200   2.965   5.278  0.3595 -0.2018  0.1467
 3965SOL    HW123531   0.287   3.003   5.291  0.2356 -0.2341  1.0942
 3965SOL    HW223532   0.137   3.028   5.312  0.7543  0.0372  0.4381
 3966SOL     OW23533   2.859   2.378   4.416  0.7418 -0.0214 -0.2005
 3966SOL    HW123534   2.946   2.371   4.378  1.4747 -2.1753  1.8426
 3966SOL    HW223535   2.876   2.441   4.486  0.1155  0.0704 -0.1264
 3967SOL     OW23536   3.840   1.128   7.450 -0.0414 -0.4030  0.1054
 3967SOL    HW123537   3.776   1.186   7.409 -0.0257 -0.7641 -0.4239
 3967SOL    HW223538   3.818   1.137   7.543  0.0204 -1.5117  0.2309
 3968SOL     OW23539   4.572   0.340  10.011 -0.1720  0.1517  0.4014
 3968SOL    HW123540   4.543   0.430   9.994  1.0848  0.3617 -0.5598
 3968SOL    HW223541   4.665   0.354  10.029 -0.6600  3.6028  0.2875
 3969SOL     OW23542   2.881   3.138   2.245  0.2916  0.4712 -0.1733
 3969SOL    HW123543   2.908   3.087   2.168 -0.1551 -1.0077  0.6643
 3969SOL    HW223544   2.961   3.122   2.295  0.6509  0.0490 -0.8814
 3970SOL     OW23545   4.541   4.097  11.509  0.2971 -0.6545 -0.7018
 3970SOL    HW123546   4.473   4.126  11.569 -0.5553 -0.0413 -1.9759
 3970SOL    HW223547   4.610   4.161  11.527 -0.2810 -0.5329  1.0897
 3971SOL     OW23548   3.677   3.783   7.243 -0.7139 -0.3251 -0.4445
 3971SOL    HW123549   3.593   3.766   7.200 -0.4165 -1.6939 -0.4703
 3971SOL    HW223550   3.663   3.830   7.325 -1.2673 -0.3217 -0.5413
 3972SOL     OW23551   0.259   0.244   6.395  0.2853 -0.1090  0.0136
 3972SOL    HW123552   0.344   0.200   6.400  0.0193 -0.9930 -3.0238
 3972SOL    HW223553   0.278   0.325   6.348 -0.1515  1.3482  2.3275
 3973SOL     OW23554   3.856   4.140   2.521 -0.2558  0.2423 -0.0614
 3973SOL    HW123555   3.795   4.080   2.478 -0.1679  1.2528 -1.6245
 3973SOL    HW223556   3.811   4.219   2.491 -0.4364  0.0527 -0.2946
 3974SOL     OW23557   1.274   2.165   7.268 -0.0024 -0.2731 -0.2752
 3974SOL    HW123558   1.348   2.178   7.210  0.6794 -0.9173  0.4417
 3974SOL    HW223559   1.222   2.112   7.208 -1.5972  0.0970  0.7591
 3975SOL     OW23560   2.311   3.947   2.980  0.2717  0.3338  0.3981
 3975SOL    HW123561   2.256   3.933   2.902 -0.7815  0.8231  1.0529
 3975SOL    HW223562   2.388   3.896   2.959  0.8970  1.7245 -0.7311
 3976SOL     OW23563   2.542   2.922   3.612 -0.3533 -0.0888  0.7571
 3976SOL    HW123564   2.629   2.961   3.620  0.5117 -1.2348 -3.3113
 3976SOL    HW223565   2.492   2.954   3.688  0.4458  3.4568 -0.1995
 3977SOL     OW23566   0.750   3.436  11.278 -0.3836 -0.2261 -1.0570
 3977SOL    HW123567   0.821   3.373  11.282 -0.4751 -0.2522  0.2402
 3977SOL    HW223568   0.719   3.434  11.369 -2.0387 -0.6658 -1.6332
 3978SOL     OW23569   3.473   1.328  14.985  0.4455 -0.4725  0.4713
 3978SOL    HW123570   3.546   1.293  14.934 -2.2736 -3.8312 -1.0915
 3978SOL    HW223571   3.488   1.289  15.072 -0.1456  0.7550  1.1277
 3979SOL     OW23572   2.445   1.504   8.303 -0.2588 -0.1721 -0.4000
 3979SOL    HW123573   2.422   1.488   8.211 -1.0798 -0.3613 -0.1528
 3979SOL    HW223574   2.509   1.574   8.290 -1.1952  1.0756  1.7005
 3980SOL     OW23575   0.236   2.098   5.582 -0.0133  0.4501  0.0542
 3980SOL    HW123576   0.241   2.144   5.498  2.4028  0.1888  0.0464
 3980SOL    HW223577   0.142   2.094   5.596  0.3269 -0.5307  2.0188
 3981SOL     OW23578   3.132   1.070   4.719 -0.0483  0.0602  0.3190
 3981SOL    HW123579   3.190   0.999   4.749  0.8912 -0.5160 -2.8682
 3981SOL    HW223580   3.052   1.026   4.748 -1.8399  1.1497 -3.0071
 3982SOL     OW23581   3.428   3.764  11.857 -0.1328  0.1108  0.1550
 3982SOL    HW123582   3.380   3.735  11.779  0.4440 -0.5823  0.0570
 3982SOL    HW223583   3.456   3.851  11.826  0.4144  0.4642  1.6432
 3983SOL     OW23584   1.491   2.048   9.015 -0.4807 -0.5798  0.7228
 3983SOL    HW123585   1.576   2.079   9.048 -1.0462 -0.5324  2.1178
 3983SOL    HW223586   1.510   1.956   8.997  0.7884 -0.2693  0.4298
 3984SOL     OW23587   0.604   0.839  12.860  0.1677  0.8846  0.2495
 3984SOL    HW123588   0.641   0.815  12.945  0.8410 -1.2604 -0.6401
 3984SOL    HW223589   0.597   0.752  12.820  0.1231  0.8265  0.3833
 3985SOL     OW23590   1.955   0.898   2.578 -0.0830 -0.1234  1.5609
 3985SOL    HW123591   2.005   0.960   2.631  1.9099  1.4489 -2.1835
 3985SOL    HW223592   1.960   0.822   2.636  0.0621 -0.9144  0.5144
 3986SOL     OW23593   0.397   2.796  15.345  0.0999 -0.1997  0.0482
 3986SOL    HW123594   0.453   2.845  15.284 -2.4811  0.2709 -1.9598
 3986SOL    HW223595   0.311   2.811  15.307 -0.3384 -1.1710  0.6817
 3987SOL     OW23596   0.657   4.578   1.196  0.2791 -0.5715  0.4374
 3987SOL    HW123597   0.578   4.595   1.145 -0.1864  0.8698  1.6641
 3987SOL    HW223598   0.649   4.484   1.214 -0.9840 -0.6917 -0.7312
 3988SOL     OW23599   1.731   0.602   6.074 -1.0103 -0.8294 -0.2089
 3988SOL    HW123600   1.749   0.593   5.980  0.4770  2.4631 -0.2173
 3988SOL    HW223601   1.810   0.567   6.115 -1.4577 -2.0511 -0.3777
 3989SOL     OW23602   0.498   3.346  16.877  0.1272 -0.5300 -1.1439
 3989SOL    HW123603   0.438   3.400  16.825 -0.5725 -0.7453 -0.5645
 3989SOL    HW223604   0.567   3.338  16.811 -1.2416 -1.2339 -2.4868
 3990SOL     OW23605   2.001   2.279   7.094  0.1933 -0.0893  0.4937
 3990SOL    HW123606   2.073   2.216   7.098 -0.5376 -0.8928  1.1383
 3990SOL    HW223607   1.942   2.218   7.138  1.6135 -0.0833  2.4145
 3991SOL     OW23608   4.632   2.791   3.055 -0.1757 -0.3596  0.1856
 3991SOL    HW123609   4.577   2.771   3.130  0.5794 -0.1405  0.7993
 3991SOL    HW223610   4.697   2.847   3.098 -0.2120  0.1773 -0.4462
 3992SOL     OW23611   2.298   1.319   5.402  0.0136 -0.0304  0.1412
 3992SOL    HW123612   2.284   1.316   5.308  0.3621 -0.3646  0.0977
 3992SOL    HW223613   2.344   1.399   5.428 -4.8117  3.2609 -1.6475
 3993SOL     OW23614   1.377   1.223  17.652  0.4693  0.4808 -0.6653
 3993SOL    HW123615   1.387   1.213  17.557 -1.0099 -4.0607 -0.2990
 3993SOL    HW223616   1.461   1.196  17.690 -0.1662  0.4105  0.6978
 3994SOL     OW23617   2.435   3.053   1.436  0.3977 -0.1572 -0.1328
 3994SOL    HW123618   2.423   3.055   1.531  0.6014  3.6041 -0.1700
 3994SOL    HW223619   2.363   2.992   1.421  1.5033 -1.2511 -0.9383
 3995SOL     OW23620   1.781   1.817   3.119  0.3238 -0.1718 -0.1501
 3995SOL    HW123621   1.737   1.878   3.178 -1.9202 -0.6430 -1.3569
 3995SOL    HW223622   1.793   1.732   3.161 -1.5074 -0.9561 -1.2114
 3996SOL     OW23623   2.495   4.039  13.797 -0.4784  0.5413  0.2648
 3996SOL    HW123624   2.494   4.104  13.867  1.3735 -0.3753  1.1342
 3996SOL    HW223625   2.543   4.082  13.727 -0.5113 -1.1617 -0.7882
 3997SOL     OW23626   3.683   0.081   5.772  0.3037 -0.4539 -0.1453
 3997SOL    HW123627   3.691   0.091   5.677  2.1175  0.6407  0.1247
 3997SOL    HW223628   3.754   0.021   5.792  0.3616 -0.0267  0.9397
 3998SOL     OW23629   1.780   0.893  15.923  0.6784  0.4909 -0.0167
 3998SOL    HW123630   1.717   0.821  15.914  0.6012  0.8584 -2.2592
 3998SOL    HW223631   1.721   0.968  15.925 -0.9289 -0.7151 -1.7101
 3999SOL     OW23632   4.650   3.953   2.740 -0.0232  0.0223 -0.0168
 3999SOL    HW123633   4.681   4.000   2.662  2.7613 -0.1058  1.0057
 3999SOL    HW223634   4.562   3.988   2.752 -0.5380 -0.4765 -2.2575
 4000SOL     OW23635   1.506   0.574   7.343  0.0744 -0.2664 -0.7915
 4000SOL    HW123636   1.488   0.500   7.285  0.1657 -0.9489  0.0500
 4000SOL    HW223637   1.528   0.525   7.422  0.1888 -1.4048 -1.5293
 4001SOL     OW23638   4.079   2.045   7.419 -0.1593  0.1442 -0.1066
 4001SOL    HW123639   4.033   2.044   7.503 -1.7467  1.9083 -0.9515
 4001SOL    HW223640   4.166   2.064   7.454 -0.2965 -1.8851  1.2803
 4002SOL     OW23641   3.170   3.461   9.381  0.2550  0.3218  0.4322
 4002SOL    HW123642   3.084   3.463   9.339 -0.3405  0.7401  1.6508
 4002SOL    HW223643   3.152   3.427   9.469 -0.1903 -1.8744 -0.5118
 4003SOL     OW23644   0.037   3.418   1.802 -0.3664  0.0140 -0.2195
 4003SOL    HW123645   4.711   3.487   1.779 -0.2855  1.0021  2.4527
 4003SOL    HW223646   0.033   3.367   1.722  0.6010  1.7248 -1.3403
 4004SOL     OW23647   4.422   1.664  15.498 -0.2593 -0.4806 -0.2212
 4004SOL    HW123648   4.463   1.645  15.413  0.9191  1.1111 -0.0165
 4004SOL    HW223649   4.327   1.663  15.486 -0.3764  2.2855  0.4623
 4005SOL     OW23650   4.245   0.089   4.591  0.2673  0.1430 -0.6691
 4005SOL    HW123651   4.259   0.000   4.624  1.0557  0.6178  0.2848
 4005SOL    HW223652   4.292   0.086   4.508  0.7017 -1.8963 -0.3351
 4006SOL     OW23653   4.432   1.210  10.408  0.6867  0.3269  0.5708
 4006SOL    HW123654   4.437   1.213  10.313  0.7680 -1.6838  0.4923
 4006SOL    HW223655   4.363   1.144  10.417 -0.1342  1.0589 -0.4560
 4007SOL     OW23656   1.917   2.935   6.108  0.5051  0.7759 -0.3742
 4007SOL    HW123657   1.855   2.885   6.055 -0.4085  1.9332 -0.4034
 4007SOL    HW223658   1.913   2.874   6.182 -0.6315  0.7333 -0.4611
 4008SOL     OW23659   0.513   0.064   1.533  0.5102 -0.2135  0.2651
 4008SOL    HW123660   0.487   0.042   1.444 -0.2586  0.3037  0.3659
 4008SOL    HW223661   0.435   0.044   1.585  1.0077  0.9328  1.4507
 4009SOL     OW23662   2.576   3.882  16.581 -0.2483 -0.0327  0.1697
 4009SOL    HW123663   2.615   3.873  16.668 -2.6147  4.3217  1.6738
 4009SOL    HW223664   2.653   3.875  16.525  0.7700  1.3541  1.4118
 4010SOL     OW23665   2.691   1.220   1.357  0.1160  0.4975  0.5100
 4010SOL    HW123666   2.672   1.279   1.429 -1.1492  1.1724 -0.3802
 4010SOL    HW223667   2.742   1.150   1.397  1.4086  1.4537  0.5102
 4011SOL     OW23668   1.990   0.340  16.712 -0.1142 -0.3645  0.1648
 4011SOL    HW123669   2.019   0.251  16.732  0.2943 -0.4006 -0.5899
 4011SOL    HW223670   1.915   0.351  16.771 -0.5810  3.7007 -1.1751
 4012SOL     OW23671   1.476   4.310   3.614  0.1271  0.1387 -0.6437
 4012SOL    HW123672   1.533   4.289   3.540  1.2205  0.0434  0.2231
 4012SOL    HW223673   1.542   4.356   3.665 -0.2427  0.0979 -0.1372
 4013SOL     OW23674   3.072   3.737   4.650 -0.0475  0.1836 -0.0876
 4013SOL    HW123675   3.064   3.811   4.710  0.0369  1.4177 -1.5954
 4013SOL    HW223676   3.062   3.770   4.561  0.2028  1.1856  0.2426
 4014SOL     OW23677   4.709   2.576   2.084  0.1046 -0.0802  0.1817
 4014SOL    HW123678   0.021   2.548   2.162  1.7440  1.3261 -0.3419
 4014SOL    HW223679   4.693   2.669   2.102  1.0962  0.4225 -1.5264
 4015SOL     OW23680   3.041   1.624  16.458  0.2204 -0.1182 -0.7393
 4015SOL    HW123681   3.052   1.628  16.553  1.0789  0.3373 -0.8629
 4015SOL    HW223682   3.052   1.532  16.437 -1.3342  0.1044 -2.5179
 4016SOL     OW23683   1.853   1.343   1.483  0.7794  0.7049  0.3763
 4016SOL    HW123684   1.855   1.252   1.451 -1.6599  0.3613  1.1989
 4016SOL    HW223685   1.840   1.395   1.404 -0.8202 -0.7137 -0.3043
 4017SOL     OW23686   4.545   2.210   6.557 -0.4334 -0.0075 -0.4788
 4017SOL    HW123687   4.526   2.116   6.560 -2.6207  0.4405 -0.2044
 4017SOL    HW223688   4.639   2.204   6.576 -0.5118  2.5407  0.6811
 4018SOL     OW23689   1.263   1.070   5.244 -0.5876  0.0834 -0.0353
 4018SOL    HW123690   1.280   1.139   5.308 -0.4898  0.5482 -0.5524
 4018SOL    HW223691   1.315   0.996   5.274 -0.4147  0.7363  1.2576
 4019SOL     OW23692   1.070   1.513   5.596  0.0380 -0.0358  0.4723
 4019SOL    HW123693   1.114   1.586   5.641 -1.5030  0.7823  0.6289
 4019SOL    HW223694   1.039   1.459   5.669 -1.8141 -0.1618 -0.4360
 4020SOL     OW23695   0.491   4.658   8.531 -0.5205 -0.1845 -0.0095
 4020SOL    HW123696   0.489   4.711   8.451  0.3335 -1.9197 -1.1824
 4020SOL    HW223697   0.411   4.677   8.579 -0.2128  0.0886  0.3968
 4021SOL     OW23698   3.988   1.364   4.534 -0.2636  0.5129  0.3738
 4021SOL    HW123699   3.911   1.387   4.483  1.6252  0.2307 -2.5888
 4021SOL    HW223700   4.035   1.311   4.470 -1.6978 -2.7674  2.0399
 4022SOL     OW23701   1.751   0.318   7.722 -0.5636  0.5130 -0.2129
 4022SOL    HW123702   1.732   0.337   7.814  1.0426 -1.3399  0.4937
 4022SOL    HW223703   1.726   0.226   7.725  0.6669  0.1393 -1.2809
 4023SOL     OW23704   3.170   1.955   8.144 -0.4574 -0.0735  0.0600
 4023SOL    HW123705   3.128   1.935   8.228 -2.4597  0.0303 -0.9227
 4023SOL    HW223706   3.189   1.870   8.105  1.0345 -0.0863  0.8269
 4024SOL     OW23707   3.833   2.235   4.239 -0.0955 -0.1595 -0.2110
 4024SOL    HW123708   3.913   2.257   4.191  0.8267 -1.6659  0.6339
 4024SOL    HW223709   3.810   2.158   4.188  2.0176 -0.8808 -0.0860
 4025SOL     OW23710   3.240   3.214   3.858 -0.1357 -0.1530 -0.0085
 4025SOL    HW123711   3.219   3.252   3.943 -0.3629  1.2214 -0.6749
 4025SOL    HW223712   3.307   3.153   3.889 -0.8708 -1.0968 -0.2702
 4026SOL     OW23713   2.289   4.475   4.432  0.4011 -0.0880  0.6208
 4026SOL    HW123714   2.267   4.532   4.505 -1.4916 -0.7431  0.5756
 4026SOL    HW223715   2.274   4.539   4.363  1.3365 -0.8090 -0.2479
 4027SOL     OW23716   1.185   3.397   5.369  0.2218 -0.6063 -0.1418
 4027SOL    HW123717   1.245   3.350   5.311 -0.4521 -0.7783 -0.6974
 4027SOL    HW223718   1.139   3.324   5.410 -0.5904  0.5553  1.0079
 4028SOL     OW23719   4.118   2.175   8.879  0.2625  0.5039  0.0090
 4028SOL    HW123720   4.157   2.196   8.963 -1.7183  1.0959  0.7784
 4028SOL    HW223721   4.075   2.259   8.863  0.0328  0.7242  1.8673
 4029SOL     OW23722   4.639   0.024   1.888 -0.4861  1.5261  0.0321
 4029SOL    HW123723   4.547   0.001   1.896 -0.7169  2.3073 -0.3466
 4029SOL    HW223724   4.671   4.720   1.968  1.4463 -0.2440 -1.6587
 4030SOL     OW23725   2.823   1.018   8.403 -0.3027 -0.3971 -0.0981
 4030SOL    HW123726   2.730   1.000   8.389 -0.6849  0.8494  0.8156
 4030SOL    HW223727   2.862   0.971   8.330  1.8452  1.3503 -0.0815
 4031SOL     OW23728   4.220   4.332   3.273  0.3635 -0.1148 -0.3151
 4031SOL    HW123729   4.290   4.312   3.335 -0.5957  0.1093  0.8713
 4031SOL    HW223730   4.141   4.285   3.301  0.4384  1.6164  2.9127
 4032SOL     OW23731   3.591   4.533   6.404 -0.1977 -0.2459 -0.1704
 4032SOL    HW123732   3.658   4.592   6.439 -0.2694 -1.3615  1.8235
 4032SOL    HW223733   3.518   4.592   6.385 -0.7417 -1.0099 -0.4516
 4033SOL     OW23734   0.223   4.411   8.457  0.1756 -0.2236  0.2999
 4033SOL    HW123735   0.214   4.500   8.492 -0.0016 -0.1378  0.0384
 4033SOL    HW223736   0.291   4.377   8.515 -0.6917 -1.7813  0.4040
 4034SOL     OW23737   3.358   2.514  10.889 -0.5871  0.0282  0.1499
 4034SOL    HW123738   3.434   2.556  10.848  0.3546 -2.3740 -0.5572
 4034SOL    HW223739   3.357   2.440  10.828 -0.0243  0.9087 -0.9200
 4035SOL     OW23740   1.845   0.845  11.849 -0.4155  0.0399 -0.1101
 4035SOL    HW123741   1.886   0.792  11.781  2.0314  1.2944  0.3681
 4035SOL    HW223742   1.815   0.772  11.902 -0.5760  1.2165  1.4150
 4036SOL     OW23743   1.804   3.767   6.289  0.0475 -0.2902 -0.5360
 4036SOL    HW123744   1.723   3.729   6.323  0.1882 -1.5843 -1.6372
 4036SOL    HW223745   1.875   3.709   6.319 -0.0707  0.2810  0.8588
 4037SOL     OW23746   2.226   1.385   3.296 -0.1791 -0.4264 -0.3155
 4037SOL    HW123747   2.234   1.459   3.234  0.2690 -2.3859 -2.5938
 4037SOL    HW223748   2.220   1.432   3.379 -0.9359  1.6540 -1.5410
 4038SOL     OW23749   2.729   2.160   6.647  0.3022 -0.3285 -0.1153
 4038SOL    HW123750   2.700   2.241   6.603  1.2842 -0.1577 -0.4346
 4038SOL    HW223751   2.688   2.169   6.733 -2.1136  0.0601 -1.2750
 4039SOL     OW23752   3.867   2.461   3.405  0.2610  0.3803  0.9888
 4039SOL    HW123753   3.809   2.530   3.436  0.4542  1.9978 -2.1828
 4039SOL    HW223754   3.879   2.396   3.474 -2.3989 -0.9461  0.2214
 4040SOL     OW23755   3.253   2.441  16.321 -0.6067 -0.0861  0.4644
 4040SOL    HW123756   3.261   2.523  16.370 -0.1959 -1.8853  3.4381
 4040SOL    HW223757   3.192   2.461  16.250  0.8253  0.6837 -0.5534
 4041SOL     OW23758   0.191   0.024  10.129  0.6721  0.1054 -0.3407
 4041SOL    HW123759   0.097   0.018  10.115  0.6028  1.1451 -0.3077
 4041SOL    HW223760   0.208   4.699  10.201  0.1870  0.7790  0.3428
 4042SOL     OW23761   0.196   2.067  14.573  0.3263 -0.0418  0.1781
 4042SOL    HW123762   0.205   1.972  14.578 -2.3866 -0.3708 -1.0335
 4042SOL    HW223763   0.177   2.094  14.483  0.5936  0.9634  0.4199
 4043SOL     OW23764   1.173   3.959  13.326 -0.6162 -0.7786 -0.1949
 4043SOL    HW123765   1.151   4.051  13.311 -3.5243 -1.2527  1.1786
 4043SOL    HW223766   1.245   3.941  13.266 -0.0275  0.5188  0.1211
 4044SOL     OW23767   0.285   0.758   4.293  0.1692 -0.3599  0.4431
 4044SOL    HW123768   0.239   0.674   4.297 -0.3670 -0.1143 -0.5357
 4044SOL    HW223769   0.211   0.815   4.315  1.0040  0.8101  0.2619
 4045SOL     OW23770   1.460   0.181   7.722  0.4882 -0.2033 -0.2293
 4045SOL    HW123771   1.391   0.230   7.678 -0.1092 -0.5185  0.3501
 4045SOL    HW223772   1.409   0.160   7.801  1.7319 -1.7259  0.1751
 4046SOL     OW23773   3.721   4.464   5.236 -0.4614 -0.1078 -0.0688
 4046SOL    HW123774   3.717   4.558   5.253 -1.0983  0.1740 -1.7831
 4046SOL    HW223775   3.742   4.435   5.325 -2.5990  0.7396  0.7396
 4047SOL     OW23776   1.384   2.103  17.447  0.0761 -0.0434  0.0631
 4047SOL    HW123777   1.323   2.172  17.422  2.5322  2.2603  0.4068
 4047SOL    HW223778   1.462   2.141  17.405 -0.0937  0.0086 -0.2088
 4048SOL     OW23779   3.003   0.691   2.423 -0.2420  0.0030  0.0811
 4048SOL    HW123780   2.943   0.724   2.490 -1.4972  1.0171 -1.5300
 4048SOL    HW223781   3.002   0.598   2.444  0.0702  0.2845  1.3521
 4049SOL     OW23782   4.620   3.064   7.374 -0.0885  0.5806 -0.5587
 4049SOL    HW123783   4.597   3.114   7.453  1.4804 -0.3147  0.4467
 4049SOL    HW223784   4.587   2.978   7.400 -0.9625  1.0648 -0.0573
 4050SOL     OW23785   3.922   1.446   7.103 -0.5610  0.1126  0.0358
 4050SOL    HW123786   3.848   1.409   7.054  1.5464 -1.0377 -2.2624
 4050SOL    HW223787   3.879   1.471   7.185 -1.6768 -0.0922 -0.4818
 4051SOL     OW23788   3.198   4.685   9.410 -0.2242 -0.0188  0.1151
 4051SOL    HW123789   3.287   4.708   9.435 -0.3936 -0.4231  1.1003
 4051SOL    HW223790   3.156   4.720   9.489 -0.3989 -2.0777  0.9465
 4052SOL     OW23791   3.645   4.378   6.933  0.1896 -0.2448  0.2538
 4052SOL    HW123792   3.719   4.439   6.925  0.0112 -0.2317 -1.2603
 4052SOL    HW223793   3.611   4.413   7.016 -0.9504  0.0509 -0.3327
 4053SOL     OW23794   3.068   3.866   2.505  0.2594  0.1350 -0.1324
 4053SOL    HW123795   3.110   3.876   2.591 -2.3829  4.2908  0.6708
 4053SOL    HW223796   2.983   3.829   2.529  0.8060 -0.9913  0.0785
 4054SOL     OW23797   2.909   3.203   8.334 -0.0725  0.2612  0.0988
 4054SOL    HW123798   2.902   3.156   8.417  2.1189 -0.4937 -0.1479
 4054SOL    HW223799   2.825   3.188   8.291  1.1237 -2.7406 -1.1636
 4055SOL     OW23800   4.051   1.759   3.199 -0.6611 -0.7125  0.0168
 4055SOL    HW123801   4.087   1.845   3.218  0.8211 -1.6896  1.7112
 4055SOL    HW223802   4.102   1.711   3.265  0.4529  1.4243  0.7009
 4056SOL     OW23803   2.916   4.016  10.210  0.7920 -0.1436 -0.4968
 4056SOL    HW123804   2.871   4.008  10.294  1.0624 -0.3921 -0.3756
 4056SOL    HW223805   2.844   4.026  10.147 -0.0586  0.9157  0.6543
 4057SOL     OW23806   3.012   0.372   7.955  0.5944 -0.0435  0.4344
 4057SOL    HW123807   3.106   0.370   7.941  0.5948  0.6980  0.3145
 4057SOL    HW223808   2.997   0.280   7.975  1.1693 -0.4300 -0.9093
 4058SOL     OW23809   0.340   2.557   6.571 -0.3747 -0.1709  0.5804
 4058SOL    HW123810   0.387   2.481   6.536 -1.2867  0.0748 -1.1591
 4058SOL    HW223811   0.291   2.507   6.636 -1.6699 -1.3079 -1.2486
 4059SOL     OW23812   3.109   3.770   2.260 -0.2685  0.6702 -1.0053
 4059SOL    HW123813   3.198   3.741   2.241 -0.7135 -1.4804  0.2637
 4059SOL    HW223814   3.117   3.802   2.350  2.5579 -1.1107 -0.6328
 4060SOL     OW23815   1.171   0.183   7.447 -0.2744  0.3937 -0.0205
 4060SOL    HW123816   1.173   0.277   7.429 -0.8525  0.5538  0.7867
 4060SOL    HW223817   1.206   0.149   7.364 -0.9712 -1.1440  0.3068
 4061SOL     OW23818   1.116   0.718   3.289 -0.3314  0.2103 -0.0794
 4061SOL    HW123819   1.071   0.798   3.317 -2.3214 -0.5152 -1.1496
 4061SOL    HW223820   1.050   0.648   3.293 -0.9983  0.8609  0.2901
 4062SOL     OW23821   3.442   2.095  11.052 -0.6106 -0.0142 -0.4524
 4062SOL    HW123822   3.517   2.049  11.015 -0.7947  1.2600 -2.4212
 4062SOL    HW223823   3.401   2.028  11.106 -1.3698 -0.7096 -1.8964
 4063SOL     OW23824   3.641   4.136   2.870 -0.3402  0.5011  0.1413
 4063SOL    HW123825   3.598   4.159   2.788  1.0654 -0.8397 -0.9654
 4063SOL    HW223826   3.676   4.220   2.900  1.8983 -0.9052  1.4027
 4064SOL     OW23827   0.478   0.059  14.805 -0.2844 -0.0475  0.0250
 4064SOL    HW123828   0.452   0.095  14.890  0.6077 -0.9243  0.6668
 4064SOL    HW223829   0.559   0.102  14.780  0.0232 -0.1388  0.8735
 4065SOL     OW23830   2.336   2.944  13.230  0.2703  0.1434  0.1808
 4065SOL    HW123831   2.360   2.997  13.155  0.9938 -0.2839  0.1073
 4065SOL    HW223832   2.299   3.009  13.290 -0.7211 -0.6099  0.3946
 4066SOL     OW23833   2.680   4.577   3.310  0.7962 -0.1477 -0.3250
 4066SOL    HW123834   2.651   4.668   3.315 -0.0759 -0.3972 -0.8079
 4066SOL    HW223835   2.617   4.535   3.251  0.7599 -0.5921  0.0322
 4067SOL     OW23836   1.248   1.296   3.094  0.5962 -0.5235  0.8004
 4067SOL    HW123837   1.253   1.278   3.188 -0.5517 -1.5526  0.6627
 4067SOL    HW223838   1.211   1.217   3.055  1.7775 -0.0991 -1.1853
 4068SOL     OW23839   0.900   3.395   4.637 -0.2366  0.3055  0.3037
 4068SOL    HW123840   0.952   3.428   4.564  0.8337  0.4784  1.1518
 4068SOL    HW223841   0.931   3.305   4.649  0.7056  0.9001  2.2125
 4069SOL     OW23842   0.847   0.890   3.324  0.2407  0.1214  0.5522
 4069SOL    HW123843   0.800   0.833   3.383  0.2575 -1.1703 -0.6891
 4069SOL    HW223844   0.837   0.858   3.234 -1.5447  0.7291  0.5509
 4070SOL     OW23845   3.214   2.698   4.539  0.1234  0.4248  0.2169
 4070SOL    HW123846   3.140   2.759   4.542 -0.5496 -0.3095 -1.2471
 4070SOL    HW223847   3.216   2.675   4.446  0.5769 -0.5217  0.4515
 4071SOL     OW23848   0.983   2.347   5.009  0.4955  0.1265  0.7461
 4071SOL    HW123849   1.064   2.297   5.010  0.8299  0.6362 -1.3055
 4071SOL    HW223850   0.947   2.345   4.921  0.0763  0.1511  0.9171
 4072SOL     OW23851   1.903   1.844  14.955  0.2149 -0.3572  0.2082
 4072SOL    HW123852   1.895   1.788  14.878  1.2110  0.5552 -0.5656
 4072SOL    HW223853   1.999   1.842  14.965  0.0319 -1.5485  1.7988
 4073SOL     OW23854   1.377   1.950   8.379 -0.1852  0.2694 -0.6686
 4073SOL    HW123855   1.317   1.875   8.382 -0.1025  0.2846  2.0458
 4073SOL    HW223856   1.374   1.993   8.465  1.8940  0.9877 -0.9513
 4074SOL     OW23857   3.956   0.041   3.454 -0.1050 -0.2080  0.0442
 4074SOL    HW123858   4.052   0.049   3.457 -0.1655  1.2554 -1.7609
 4074SOL    HW223859   3.921   0.094   3.526 -2.9519 -0.5813 -1.0958
 4075SOL     OW23860   0.245   2.940   3.877 -0.0944  0.1358  0.3212
 4075SOL    HW123861   0.234   3.020   3.928  0.7711 -0.0433  0.7959
 4075SOL    HW223862   0.169   2.891   3.908 -0.2520 -0.2530 -0.6764
 4076SOL     OW23863   0.512   4.581  10.295 -0.3434  0.8241  0.2362
 4076SOL    HW123864   0.512   4.528  10.215  3.1417 -0.8367  1.3510
 4076SOL    HW223865   0.591   4.632  10.276 -0.2742 -0.7244 -3.6958
 4077SOL     OW23866   2.615   0.404   8.231 -0.2875 -0.1523 -0.2063
 4077SOL    HW123867   2.649   0.341   8.295  0.8294  1.1764  0.5063
 4077SOL    HW223868   2.656   0.390   8.146 -0.9804  1.2135 -0.7584
 4078SOL     OW23869   0.950   1.446   0.014  0.1331  0.0913 -0.5670
 4078SOL    HW123870   0.973   1.473  17.669  0.5269 -0.5080 -0.6495
 4078SOL    HW223871   0.866   1.491   0.014 -0.8965 -1.8259 -0.0433
 4079SOL     OW23872   1.799   4.380  15.989 -0.0424 -0.0742 -0.5082
 4079SOL    HW123873   1.765   4.466  16.014 -1.1240 -0.0168 -2.1854
 4079SOL    HW223874   1.725   4.326  16.016  0.1369  0.3074  0.7624
 4080SOL     OW23875   1.735   2.812   6.898  0.1220  0.3816  0.1161
 4080SOL    HW123876   1.765   2.733   6.942 -0.1681 -0.4239 -1.1169
 4080SOL    HW223877   1.646   2.817   6.934 -0.2322  3.8406 -1.3182
 4081SOL     OW23878   2.612   1.202   4.102 -0.3798 -0.3756  0.8907
 4081SOL    HW123879   2.604   1.182   4.195 -0.7315 -0.4196  0.8505
 4081SOL    HW223880   2.670   1.278   4.114  0.1139 -0.2032 -2.5142
 4082SOL     OW23881   1.427   2.265   8.439  0.1826  0.2576  0.1552
 4082SOL    HW123882   1.445   2.228   8.525  0.4646  0.7647  0.3183
 4082SOL    HW223883   1.507   2.236   8.394  0.6329 -0.9550  1.7594
 4083SOL     OW23884   1.530   0.725   2.318 -0.6643  0.3025  0.1504
 4083SOL    HW123885   1.582   0.744   2.396  0.6897  2.4961 -1.3114
 4083SOL    HW223886   1.592   0.708   2.247 -2.6620  0.1989 -1.5662
 4084SOL     OW23887   0.476   2.058   2.765  0.2431  0.1175 -0.1295
 4084SOL    HW123888   0.548   2.056   2.827  1.2721 -0.8222 -1.3549
 4084SOL    HW223889   0.476   1.971   2.724 -1.6008  0.1610 -0.2362
 4085SOL     OW23890   3.298   2.847  13.477 -0.9699 -0.0928  0.5132
 4085SOL    HW123891   3.283   2.753  13.464 -0.3680 -0.2421  0.8692
 4085SOL    HW223892   3.272   2.874  13.389 -3.1240 -2.1808  0.5079
 4086SOL     OW23893   0.749   2.999   5.360  0.9976  0.1315  0.1265
 4086SOL    HW123894   0.821   2.970   5.416  2.2257  1.0245 -0.9872
 4086SOL    HW223895   0.720   3.068   5.418 -3.1413 -0.8247 -0.8334
 4087SOL     OW23896   3.176   3.859  13.104  0.1990 -0.7673  0.1396
 4087SOL    HW123897   3.136   3.934  13.060 -1.9256 -1.4156  0.9341
 4087SOL    HW223898   3.222   3.900  13.178  0.7748 -1.0338 -0.0701
 4088SOL     OW23899   2.563   4.019   9.699 -0.5089  0.2751 -0.1312
 4088SOL    HW123900   2.566   4.113   9.713  1.9400  0.1881 -0.1043
 4088SOL    HW223901   2.542   3.979   9.784 -0.0478  1.1640  0.3935
 4089SOL     OW23902   0.473   3.610   6.704 -0.1032 -0.2534  0.3403
 4089SOL    HW123903   0.397   3.557   6.680  1.7666 -1.5115 -2.7904
 4089SOL    HW223904   0.437   3.699   6.695 -0.7570 -0.5097  0.4592
 4090SOL     OW23905   0.937   3.885   5.502  0.4271 -0.1078  0.7442
 4090SOL    HW123906   0.841   3.888   5.504  0.4668  0.8135  1.5416
 4090SOL    HW223907   0.958   3.794   5.523 -1.1045 -0.5039  0.5513
 4091SOL     OW23908   2.997   2.905   4.542 -0.7077 -0.0606 -0.1707
 4091SOL    HW123909   3.019   2.996   4.523  3.4079 -1.1584 -0.5607
 4091SOL    HW223910   2.925   2.912   4.605 -1.0052  1.1408 -0.6649
 4092SOL     OW23911   2.105   4.377   0.920  0.3207  0.2686 -0.1437
 4092SOL    HW123912   2.056   4.295   0.907 -0.0325  0.1931  1.6309
 4092SOL    HW223913   2.145   4.375   1.007 -2.7875  1.0073  1.3286
 4093SOL     OW23914   4.112   3.741   5.906 -0.1357 -0.5023  0.7830
 4093SOL    HW123915   4.203   3.733   5.877 -0.7309  2.0975 -1.7681
 4093SOL    HW223916   4.117   3.827   5.949  1.4109  0.8411 -2.1281
 4094SOL     OW23917   3.524   3.050   9.296  0.0502  0.3199  0.4562
 4094SOL    HW123918   3.512   3.033   9.203  1.7602 -1.0299  0.4614
 4094SOL    HW223919   3.593   2.985   9.314  1.1775  1.3811 -0.0963
 4095SOL     OW23920   3.086   3.353   8.504  1.0603 -0.2731 -0.2239
 4095SOL    HW123921   3.104   3.440   8.470  1.4182  0.6745  2.3516
 4095SOL    HW223922   3.017   3.323   8.446  1.8791  0.3432 -1.5016
 4096SOL     OW23923   1.891   4.126  13.046  0.2447 -0.1292 -0.3060
 4096SOL    HW123924   1.802   4.100  13.070  0.2300 -1.5566 -1.9680
 4096SOL    HW223925   1.882   4.220  13.064 -1.2310 -0.3881  0.3160
 4097SOL     OW23926   1.086   1.051  14.542 -0.4262 -0.2629 -0.0492
 4097SOL    HW123927   1.054   1.090  14.460  3.5026  2.0071 -0.5030
 4097SOL    HW223928   1.092   0.962  14.506 -1.3032 -0.2644 -0.2070
 4098SOL     OW23929   2.217   1.445   6.216  0.3144 -0.7757 -0.1389
 4098SOL    HW123930   2.139   1.444   6.273  1.1995  1.0462  1.0827
 4098SOL    HW223931   2.182   1.501   6.147  0.3257 -1.5552 -0.7816
 4099SOL     OW23932   4.225   0.941  12.083 -0.1316 -0.2645 -0.0506
 4099SOL    HW123933   4.254   1.025  12.119 -0.7052  1.4669 -3.7026
 4099SOL    HW223934   4.233   0.891  12.164  0.2330  0.1657  0.1799
 4100SOL     OW23935   1.982   2.280  12.352 -0.1093 -0.2039  0.0409
 4100SOL    HW123936   1.953   2.234  12.431 -1.7300 -1.3951 -1.2311
 4100SOL    HW223937   1.927   2.239  12.285  0.6121  2.0939 -1.9598
 4101SOL     OW23938   2.565   0.948   8.312 -0.1783  0.5589  0.2541
 4101SOL    HW123939   2.555   0.857   8.282 -1.5319  1.0896 -0.9279
 4101SOL    HW223940   2.492   0.983   8.260 -0.3513 -0.6107 -0.2949
 4102SOL     OW23941   0.177   0.780   8.617 -0.0567 -0.0283 -0.0850
 4102SOL    HW123942   0.168   0.839   8.542  3.1016  0.6659  0.0965
 4102SOL    HW223943   0.085   0.786   8.643  0.2123 -2.8575  1.5455
 4103SOL     OW23944   3.930   0.695   3.454  0.0055 -0.2947  0.1696
 4103SOL    HW123945   3.946   0.656   3.368 -0.4160 -1.2672  0.5360
 4103SOL    HW223946   4.015   0.739   3.459 -1.5254  2.4476  1.6633
 4104SOL     OW23947   0.061   2.207   7.944  0.1229  0.4437  0.2181
 4104SOL    HW123948   0.061   2.242   8.034  1.3838  1.3875 -0.1461
 4104SOL    HW223949   0.060   2.289   7.894 -1.0448 -0.7019 -1.6142
 4105SOL     OW23950   4.101   4.414   9.160 -0.0946 -0.0987 -0.3497
 4105SOL    HW123951   4.149   4.477   9.213  0.5705  0.4544 -1.5972
 4105SOL    HW223952   4.013   4.430   9.193 -1.0577 -1.3986 -2.2303
 4106SOL     OW23953   1.150   3.861   2.843 -0.3374 -0.3398  0.2318
 4106SOL    HW123954   1.142   3.860   2.938  0.6986  2.9108  0.3537
 4106SOL    HW223955   1.119   3.948   2.816 -1.4469 -0.9990 -0.6256
 4107SOL     OW23956   2.574   3.488   5.893  0.3400 -0.1736  0.4706
 4107SOL    HW123957   2.605   3.563   5.843  0.1009 -0.3703  0.0233
 4107SOL    HW223958   2.631   3.424   5.850  1.9650  1.0411  0.8259
 4108SOL     OW23959   3.587   3.118   6.932 -0.2511 -0.2987 -0.2986
 4108SOL    HW123960   3.632   3.154   6.855  1.9422  0.3085  1.2745
 4108SOL    HW223961   3.656   3.130   6.997  0.0131  0.6449 -0.7584
 4109SOL     OW23962   0.371   0.853  16.269  0.3063 -0.1066 -0.3059
 4109SOL    HW123963   0.421   0.872  16.348 -0.5708 -0.3638  0.3076
 4109SOL    HW223964   0.281   0.858  16.302  0.8551 -1.2928  1.3738
 4110SOL     OW23965   2.040   3.596   6.288  0.1356 -0.1263 -0.0769
 4110SOL    HW123966   2.129   3.580   6.257 -0.0694 -0.0302 -0.7157
 4110SOL    HW223967   2.004   3.508   6.278  1.7266 -0.7281 -0.4264
 4111SOL     OW23968   0.416   1.206  11.424 -0.4754  0.0319 -0.8345
 4111SOL    HW123969   0.363   1.132  11.397 -2.5144  0.7005  1.2860
 4111SOL    HW223970   0.487   1.208  11.360 -0.9016 -0.4170 -1.3147
 4112SOL     OW23971   1.979   3.011  13.030 -0.3654  0.5577 -0.3310
 4112SOL    HW123972   2.032   2.999  13.109 -1.5777 -0.4070  0.3246
 4112SOL    HW223973   2.021   2.960  12.961 -4.5911  0.7043 -3.0122
 4113SOL     OW23974   1.533   2.749   5.554 -0.1064  0.3719 -0.4945
 4113SOL    HW123975   1.545   2.830   5.505  0.3365  0.3110 -0.4842
 4113SOL    HW223976   1.624   2.743   5.581 -0.2061 -0.8827 -0.4509
 4114SOL     OW23977   4.150   1.585   7.511  0.3865 -0.0155 -0.3178
 4114SOL    HW123978   4.222   1.553   7.457 -0.7524 -0.4356 -1.5921
 4114SOL    HW223979   4.084   1.518   7.494  0.1220 -0.0215  0.7097
 4115SOL     OW23980   2.432   0.643   0.612 -0.2027  0.3198  0.2220
 4115SOL    HW123981   2.361   0.686   0.659 -1.2043 -2.4233  1.2184
 4115SOL    HW223982   2.412   0.550   0.625 -3.8304  1.0010 -0.4395
 4116SOL     OW23983   4.082   0.776  13.347  0.1000  0.0707  0.6531
 4116SOL    HW123984   4.175   0.796  13.356  0.0437  1.2265 -1.3844
 4116SOL    HW223985   4.086   0.720  13.269 -0.5415  0.4908  0.3171
 4117SOL     OW23986   1.482   0.686   3.736  0.2395  0.3762  0.5046
 4117SOL    HW123987   1.494   0.777   3.764  3.4555  0.7118 -2.0226
 4117SOL    HW223988   1.410   0.695   3.673 -0.1115  1.2895  1.0453
 4118SOL     OW23989   3.518   1.162   6.428 -0.1276  0.0369 -0.3679
 4118SOL    HW123990   3.544   1.078   6.390 -0.2346  0.2413 -0.8918
 4118SOL    HW223991   3.574   1.233   6.395 -2.1321  0.7768 -2.1203
 4119SOL     OW23992   1.240   1.465  17.138  0.5565  1.2249 -0.0588
 4119SOL    HW123993   1.333   1.458  17.118  1.0354 -1.1869  3.1435
 4119SOL    HW223994   1.203   1.402  17.075  0.3130  0.0335  1.2716
 4120SOL     OW23995   3.555   0.117   2.396 -0.0281  0.7911 -0.2325
 4120SOL    HW123996   3.644   0.152   2.409  1.2413 -2.7438  0.5794
 4120SOL    HW223997   3.534   0.176   2.324  2.6487 -0.2165 -1.8234
 4121SOL     OW23998   4.498   4.299   7.966 -0.2070 -0.1682 -0.0616
 4121SOL    HW123999   4.494   4.284   7.872 -0.6231 -1.0334  0.0958
 4121SOL    HW224000   4.442   4.224   7.982 -1.8260  0.6026 -2.1625
 4122SOL     OW24001   0.346   1.673   7.453  0.2737 -0.0580 -0.4595
 4122SOL    HW124002   0.275   1.676   7.388 -0.4918 -0.9603  0.3396
 4122SOL    HW224003   0.296   1.690   7.532  2.7528  1.2245  0.8325
 4123SOL     OW24004   1.665   4.466   6.590 -0.2077 -0.5996 -0.0706
 4123SOL    HW124005   1.716   4.548   6.594 -1.4692  0.1678  0.1351
 4123SOL    HW224006   1.633   4.472   6.501  0.1274  0.4661 -0.1205
 4124SOL     OW24007   3.527   0.752   2.301  0.2770  0.5185  0.7547
 4124SOL    HW124008   3.545   0.799   2.382  0.4245  1.5282  0.1385
 4124SOL    HW224009   3.593   0.786   2.240 -0.9058  0.7720 -0.3823
 4125SOL     OW24010   4.152   3.382   4.861 -0.5828  0.3843  0.1178
 4125SOL    HW124011   4.106   3.405   4.780  0.3045 -0.5113 -0.6423
 4125SOL    HW224012   4.149   3.287   4.853 -1.2260  0.2456  1.9820
 4126SOL     OW24013   2.551   2.984  14.303 -0.4490 -0.5385 -0.0049
 4126SOL    HW124014   2.479   3.044  14.322  0.4102  0.8607 -1.1302
 4126SOL    HW224015   2.576   2.975  14.395 -0.0299  0.7846  0.0180
 4127SOL     OW24016   4.139   2.593   3.758  0.3260 -0.1669 -0.4630
 4127SOL    HW124017   4.216   2.547   3.791  0.1350  0.4178  0.8001
 4127SOL    HW224018   4.081   2.521   3.783 -1.1344  1.2605  0.2519
 4128SOL     OW24019   2.030   4.585   8.596  0.0940  0.0078  0.3055
 4128SOL    HW124020   1.941   4.580   8.630 -0.0569 -0.6011 -0.1782
 4128SOL    HW224021   2.046   4.671   8.558 -0.5122  1.0592  2.4204
 4129SOL     OW24022   2.463   0.360  11.399  0.3557 -0.0439 -0.5777
 4129SOL    HW124023   2.433   0.273  11.373  0.5473 -0.5181  0.7441
 4129SOL    HW224024   2.378   0.403  11.399 -0.3307 -1.3823 -0.2204
 4130SOL     OW24025   1.244   0.375   3.022  0.4759  0.0880 -0.1134
 4130SOL    HW124026   1.181   0.323   2.972 -1.0875  3.0323 -1.1923
 4130SOL    HW224027   1.247   0.311   3.093 -0.0281 -0.6320 -0.7413
 4131SOL     OW24028   2.994   2.924   3.374 -0.0009 -0.2305  0.0779
 4131SOL    HW124029   2.907   2.889   3.353  1.5838 -3.6588 -0.7548
 4131SOL    HW224030   3.042   2.886   3.300  0.7928  2.4536 -0.8093
 4132SOL     OW24031   1.832   0.859   7.151  0.3747  0.4617 -0.4133
 4132SOL    HW124032   1.764   0.811   7.198  0.6252 -0.9334 -1.5013
 4132SOL    HW224033   1.891   0.791   7.120  0.7244  0.9834 -0.8983
 4133SOL     OW24034   3.621   3.796   3.180  0.4092 -0.3726 -0.0549
 4133SOL    HW124035   3.685   3.806   3.250 -0.4000 -0.5882  0.7161
 4133SOL    HW224036   3.680   3.788   3.105 -0.3853  1.2137 -0.8450
 4134SOL     OW24037   1.341   3.020   7.396 -0.2839  0.1401 -0.6141
 4134SOL    HW124038   1.393   3.013   7.316  0.3446 -0.7364 -0.1370
 4134SOL    HW224039   1.411   3.010   7.460  0.1419 -1.9045 -1.3754
 4135SOL     OW24040   0.126   1.426   1.925 -0.1718  0.4502  0.2968
 4135SOL    HW124041   0.119   1.401   2.017  0.1718 -0.2587  0.1296
 4135SOL    HW224042   0.089   1.347   1.886 -1.6110  1.3982 -0.2399
 4136SOL     OW24043   2.856   3.116   5.418  0.2698  0.9516  0.0603
 4136SOL    HW124044   2.844   3.211   5.412 -1.6689  0.5754 -1.9315
 4136SOL    HW224045   2.784   3.082   5.365  1.3979 -2.5330  0.7991
 4137SOL     OW24046   0.452   2.701   7.893  0.3225 -0.1429  0.1031
 4137SOL    HW124047   0.399   2.744   7.959  1.0859  0.7832  0.1095
 4137SOL    HW224048   0.522   2.662   7.946  0.8526 -0.3243 -0.7143
 4138SOL     OW24049   4.202   2.739  12.915  0.5314 -0.1363 -0.4748
 4138SOL    HW124050   4.229   2.780  12.997 -2.8540  0.1113  0.5168
 4138SOL    HW224051   4.249   2.656  12.924  2.4360  0.8303 -1.2715
 4139SOL     OW24052   0.320   1.399   8.521  0.1503 -0.0992 -0.5337
 4139SOL    HW124053   0.257   1.470   8.506 -0.4291 -0.5643 -0.3125
 4139SOL    HW224054   0.408   1.436   8.521 -0.2530  0.8871  2.3288
 4140SOL     OW24055   0.149   4.128   8.098 -0.0776 -0.1032 -0.3269
 4140SOL    HW124056   0.110   4.184   8.165 -1.6413  0.2741 -1.5272
 4140SOL    HW224057   0.217   4.083   8.147  0.2840  0.3365 -0.4240
 4141SOL     OW24058   0.443   4.152   3.379  0.7370 -0.0503 -0.1141
 4141SOL    HW124059   0.371   4.130   3.320  0.9971  0.6251 -0.6792
 4141SOL    HW224060   0.486   4.066   3.373  1.9466  0.6471 -1.5548
 4142SOL     OW24061   4.435   1.438   0.419  0.5743  0.0651  0.0906
 4142SOL    HW124062   4.389   1.421   0.501  0.8589 -0.9898  0.0378
 4142SOL    HW224063   4.408   1.367   0.361 -1.0262 -0.2093  1.1777
 4143SOL     OW24064   1.215   3.373   0.900  0.2217 -0.5544  0.6291
 4143SOL    HW124065   1.236   3.464   0.925  0.2399  0.1878 -2.1599
 4143SOL    HW224066   1.232   3.325   0.982  1.2679 -5.0472 -2.2455
 4144SOL     OW24067   2.661   3.907  10.326 -0.4098 -0.3706 -0.2795
 4144SOL    HW124068   2.614   3.875  10.403  1.7800 -0.0245  1.2125
 4144SOL    HW224069   2.588   3.956  10.289  0.8593  2.2785  0.7743
 4145SOL     OW24070   4.625   0.270  15.990 -0.9532  0.6362 -0.3562
 4145SOL    HW124071   4.624   0.332  15.917  0.7547  0.3808 -0.5981
 4145SOL    HW224072   4.671   0.203  15.940 -0.7388 -0.0026  0.7047
 4146SOL     OW24073   3.855   3.351   8.344  0.1645 -0.4066 -0.1830
 4146SOL    HW124074   3.775   3.304   8.322 -0.5520  0.4787  0.5053
 4146SOL    HW224075   3.873   3.381   8.255 -0.7681 -1.0296 -0.5853
 4147SOL     OW24076   2.492   3.693   8.489 -0.3378 -0.6483  0.6109
 4147SOL    HW124077   2.563   3.756   8.479  0.7242 -1.6887  1.5353
 4147SOL    HW224078   2.426   3.730   8.548  0.4769 -1.6376  2.1569
 4148SOL     OW24079   1.198   2.472   6.805 -0.1550 -0.3831  0.3964
 4148SOL    HW124080   1.292   2.469   6.824 -0.5486  2.2371  2.7806
 4148SOL    HW224081   1.163   2.484   6.893 -0.3624  0.8508  0.1428
 4149SOL     OW24082   1.127   0.935   2.866 -0.2741  0.4714  0.1127
 4149SOL    HW124083   1.103   1.007   2.925 -1.4541 -1.1966  1.6841
 4149SOL    HW224084   1.049   0.926   2.813  0.1426  0.7852 -0.5512
 4150SOL     OW24085   3.729   2.273  12.131 -0.2229 -0.6877 -0.1104
 4150SOL    HW124086   3.643   2.289  12.091 -1.0924 -1.0340  1.5847
 4150SOL    HW224087   3.753   2.362  12.159 -1.9494  0.4861 -2.3477
 4151SOL     OW24088   2.600   3.292   8.587  0.4131  0.7050  0.1534
 4151SOL    HW124089   2.685   3.336   8.582  0.7450  0.0823  0.3469
 4151SOL    HW224090   2.582   3.286   8.493  0.1726 -2.2606  0.4110
 4152SOL     OW24091   3.292   4.634   4.632  0.0046 -0.8940  0.3360
 4152SOL    HW124092   3.294   4.573   4.706 -0.3161 -2.0969 -0.6409
 4152SOL    HW224093   3.327   4.582   4.560 -2.5214  0.0028 -1.5256
 4153SOL     OW24094   3.464   0.073   3.301  0.5140  0.3431  0.6150
 4153SOL    HW124095   3.378   0.068   3.341  0.2960 -1.1239 -0.0415
 4153SOL    HW224096   3.451   0.113   3.214  1.0643  1.1710  0.9052
 4154SOL     OW24097   1.421   4.078   6.464  0.4945 -0.1891 -0.4152
 4154SOL    HW124098   1.349   4.059   6.524 -0.3461  0.9476 -1.0654
 4154SOL    HW224099   1.495   4.058   6.522  1.1974  3.6193 -0.0055
 4155SOL     OW24100   1.541   1.759   4.835 -0.7504  0.7327 -0.4003
 4155SOL    HW124101   1.608   1.772   4.767 -0.2763  0.1663 -0.0450
 4155SOL    HW224102   1.581   1.806   4.907  2.1054 -0.4098 -1.2405
 4156SOL     OW24103   1.790   4.718   6.612  0.3102 -0.3098  0.1513
 4156SOL    HW124104   1.883   4.716   6.590 -0.0220  1.1153 -1.3973
 4156SOL    HW224105   1.749   0.026   6.538 -0.3350 -0.6557  0.3030
 4157SOL     OW24106   1.549   3.855   1.953  0.7134 -0.1834 -0.1678
 4157SOL    HW124107   1.495   3.786   1.914  1.7786 -0.4872 -1.1048
 4157SOL    HW224108   1.533   3.837   2.045 -2.1597  0.0891 -0.5923
 4158SOL     OW24109   3.711   2.233   6.721  0.2211 -0.1739  0.1027
 4158SOL    HW124110   3.644   2.258   6.785 -0.4995 -0.6906 -0.4510
 4158SOL    HW224111   3.716   2.317   6.676 -0.5574 -0.7667 -1.0880
 4159SOL     OW24112   4.442   0.129   0.247 -0.2772  0.0246  0.4468
 4159SOL    HW124113   4.467   0.037   0.243 -0.8015 -0.1408  1.0462
 4159SOL    HW224114   4.521   0.169   0.284 -1.1270  0.6583  1.5761
 4160SOL     OW24115   0.700   2.642  16.518  0.8511 -0.2786  0.0653
 4160SOL    HW124116   0.670   2.718  16.468 -1.5463 -0.5909  1.0280
 4160SOL    HW224117   0.659   2.658  16.603  0.0436  1.1950 -0.6086
 4161SOL     OW24118   3.203   2.209  10.986 -0.1486 -0.4162  0.0446
 4161SOL    HW124119   3.291   2.195  11.020  0.3279 -2.6320 -2.1153
 4161SOL    HW224120   3.199   2.153  10.909 -0.1145  0.1666 -0.3797
 4162SOL     OW24121   1.890   3.765   9.076  0.1732  0.1633  0.1746
 4162SOL    HW124122   1.840   3.686   9.059  1.2014 -1.4482  4.5288
 4162SOL    HW224123   1.975   3.730   9.105  0.5182  0.9387  0.1216
 4163SOL     OW24124   1.485   1.186   0.996  0.5830 -0.3951  0.4258
 4163SOL    HW124125   1.408   1.140   0.963  0.0946  0.5625  0.2306
 4163SOL    HW224126   1.519   1.227   0.916 -0.2800  0.7990  0.6734
 4164SOL     OW24127   0.389   4.616   9.147  0.2122 -0.1504 -0.2065
 4164SOL    HW124128   0.334   4.632   9.223 -0.6428 -0.4715 -0.7662
 4164SOL    HW224129   0.452   4.686   9.164  0.9463 -0.9983  0.5920
 4165SOL     OW24130   1.362   0.404   3.908  0.7412 -0.1008 -0.2367
 4165SOL    HW124131   1.385   0.370   3.995 -4.0823 -4.1145 -0.5172
 4165SOL    HW224132   1.347   0.494   3.938  0.0266 -0.7094  1.2567
 4166SOL     OW24133   0.840   1.353   5.006 -0.3350  0.8415 -0.2555
 4166SOL    HW124134   0.836   1.258   5.001  3.2391  0.6219  1.2811
 4166SOL    HW224135   0.871   1.370   4.916  2.3512  1.5781  0.8165
 4167SOL     OW24136   1.895   3.550   3.413 -0.4637 -0.3344 -0.7630
 4167SOL    HW124137   1.845   3.621   3.453 -2.5251 -2.5654  0.6608
 4167SOL    HW224138   1.827   3.485   3.390 -2.9808  1.1304  2.5419
 4168SOL     OW24139   2.780   1.779   6.692  0.4765 -0.3787 -0.2014
 4168SOL    HW124140   2.848   1.758   6.628 -0.0491 -3.2330  0.1655
 4168SOL    HW224141   2.813   1.739   6.773  1.9411  0.6523 -0.2966
 4169SOL     OW24142   4.551   4.170   8.465 -0.4610  0.2228 -0.1554
 4169SOL    HW124143   4.521   4.122   8.542  2.2723  0.1918  0.9024
 4169SOL    HW224144   4.514   4.257   8.481  1.3623  1.1323 -0.8585
 4170SOL     OW24145   2.270   0.610   9.759  0.6683 -0.1158 -0.9419
 4170SOL    HW124146   2.212   0.534   9.764  0.2374  0.3717  1.3778
 4170SOL    HW224147   2.357   0.574   9.774 -0.3698 -0.9507  3.0474
 4171SOL     OW24148   1.458   3.273   8.242  0.1133  0.1343 -0.7672
 4171SOL    HW124149   1.512   3.352   8.239 -1.2105  1.1300  1.7504
 4171SOL    HW224150   1.439   3.282   8.335  0.0831 -0.1137 -0.7513
 4172SOL     OW24151   3.600   4.549  16.979 -0.3500 -0.0951 -0.4828
 4172SOL    HW124152   3.516   4.533  16.936 -0.0793  3.0172 -2.2108
 4172SOL    HW224153   3.573   4.548  17.071 -1.0412 -0.1464 -0.6815
 4173SOL     OW24154   4.331   4.460  10.852 -0.1363  0.4297 -0.0599
 4173SOL    HW124155   4.327   4.366  10.837  1.2460  0.2920  0.4903
 4173SOL    HW224156   4.254   4.482  10.905  1.1592  1.0535  1.5716
 4174SOL     OW24157   2.046   4.660   0.373  0.4684  0.0186 -0.1412
 4174SOL    HW124158   1.982   4.611   0.426  0.2004 -2.8314 -3.0743
 4174SOL    HW224159   2.116   4.601   0.347  2.2252  1.8191  0.5546
 4175SOL     OW24160   0.543   2.722  10.352  0.4118  0.3575  0.7961
 4175SOL    HW124161   0.616   2.673  10.316  0.0913 -0.1462  0.8308
 4175SOL    HW224162   0.522   2.670  10.430 -1.7025 -0.4402 -0.3050
 4176SOL     OW24163   0.056   3.896   7.588 -0.4822  0.0514 -0.6335
 4176SOL    HW124164   0.076   3.947   7.666 -1.9839  1.6398 -1.2835
 4176SOL    HW224165   0.145   3.884   7.553  0.4666 -0.9978  2.1996
 4177SOL     OW24166   4.098   3.929   7.391 -0.5449  0.2960  0.3165
 4177SOL    HW124167   4.033   3.860   7.375 -0.5894  0.2504  0.6974
 4177SOL    HW224168   4.047   4.010   7.390 -3.1500 -1.3569  0.2231
 4178SOL     OW24169   4.161   1.760   8.026 -0.0567  0.5731 -0.7017
 4178SOL    HW124170   4.165   1.851   7.996 -0.2053  1.6975  2.7372
 4178SOL    HW224171   4.149   1.714   7.943 -1.6443  1.3242 -0.8815
 4179SOL     OW24172   3.305   1.751   8.078  0.4154 -0.2214  0.0814
 4179SOL    HW124173   3.390   1.742   8.120 -1.0763 -0.2545  3.1269
 4179SOL    HW224174   3.306   1.674   8.021 -1.0517  0.5204 -0.9574
 4180SOL     OW24175   0.943   4.402  15.614 -0.5606  0.1970  0.1599
 4180SOL    HW124176   0.885   4.453  15.671 -0.3103 -1.0734  1.5480
 4180SOL    HW224177   0.890   4.322  15.610  0.0651 -0.2497  0.9581
 4181SOL     OW24178   2.082   2.288   7.669 -0.2345 -0.1740 -0.6642
 4181SOL    HW124179   2.122   2.206   7.697 -0.2771 -0.2950 -0.9584
 4181SOL    HW224180   2.158   2.337   7.638  0.3440 -1.1392 -0.7653
 4182SOL     OW24181   0.129   4.268  13.753 -0.6419  0.2666 -0.1061
 4182SOL    HW124182   0.198   4.315  13.706 -0.9523  0.4016 -0.4277
 4182SOL    HW224183   0.060   4.330  13.732 -1.1639 -0.1813  0.2934
 4183SOL     OW24184   2.484   1.794   9.329  0.0723  0.0159  0.0668
 4183SOL    HW124185   2.497   1.720   9.270 -0.1418 -0.2635  0.3641
 4183SOL    HW224186   2.395   1.826   9.313 -0.3242  0.1194  2.5101
 4184SOL     OW24187   1.758   0.124   5.614  0.2769  0.3854  0.0459
 4184SOL    HW124188   1.759   0.140   5.520  0.1704  0.8839  0.1320
 4184SOL    HW224189   1.754   0.028   5.609  2.1557  0.3758 -1.2496
 4185SOL     OW24190   1.363   3.183  11.712 -0.1055  0.2393 -0.4262
 4185SOL    HW124191   1.421   3.107  11.722 -2.8935 -1.6643  1.3197
 4185SOL    HW224192   1.331   3.205  11.800  0.3776  0.8219 -0.3996
 4186SOL     OW24193   3.608   1.303  17.288 -0.1260  0.1259 -0.0936
 4186SOL    HW124194   3.698   1.332  17.278 -0.2257  0.2504 -0.6257
 4186SOL    HW224195   3.618   1.212  17.261  2.5056 -0.3581  2.5128
 4187SOL     OW24196   1.937   2.597   4.669  0.1169 -0.0920 -0.1203
 4187SOL    HW124197   1.872   2.549   4.719 -1.4230  2.2174  0.1205
 4187SOL    HW224198   1.885   2.676   4.652  2.1508  1.2185 -0.3219
 4188SOL     OW24199   1.881   4.079   8.446  0.7699  0.1887  0.2164
 4188SOL    HW124200   1.878   4.012   8.377  0.6001 -1.2067  1.5756
 4188SOL    HW224201   1.834   4.028   8.512 -0.6630 -1.0224 -1.6961
 4189SOL     OW24202   3.311   3.327   7.022 -0.0357 -0.3551 -0.1348
 4189SOL    HW124203   3.379   3.366   6.967 -2.0162  0.1433 -2.2652
 4189SOL    HW224204   3.337   3.236   7.034  0.7503 -0.2532 -1.0936
 4190SOL     OW24205   1.945   0.866   2.302  0.2151 -0.4497 -0.3947
 4190SOL    HW124206   1.956   0.871   2.397  1.0059 -2.8125 -0.3686
 4190SOL    HW224207   1.881   0.937   2.297  0.0861 -0.4338  1.6411
 4191SOL     OW24208   1.799   4.464   2.665 -0.2238 -0.0824  0.6599
 4191SOL    HW124209   1.817   4.546   2.712  3.3258  0.9646 -2.4829
 4191SOL    HW224210   1.717   4.476   2.618  0.1912  0.7493  0.1438
 4192SOL     OW24211   4.357   3.004   2.018  0.4950  0.3185  0.5796
 4192SOL    HW124212   4.263   3.005   2.033  0.6251  2.1529  1.3393
 4192SOL    HW224213   4.354   2.979   1.926 -2.5393  0.3024  0.6826
 4193SOL     OW24214   3.471   3.133   8.056  0.2996 -0.2830  0.0056
 4193SOL    HW124215   3.389   3.147   8.104 -0.4433 -0.0862 -1.3060
 4193SOL    HW224216   3.511   3.218   8.076  1.4411 -1.1577  1.4426
 4194SOL     OW24217   2.740   1.898   3.669 -0.8801  0.4226  0.0142
 4194SOL    HW124218   2.742   1.830   3.737  1.9032 -1.3225 -1.8526
 4194SOL    HW224219   2.778   1.976   3.708 -1.2041  0.7910 -0.4093
 4195SOL     OW24220   4.115   0.196  11.471  0.2029  0.5008 -0.0856
 4195SOL    HW124221   4.090   0.268  11.413 -0.5690  0.7929  0.6018
 4195SOL    HW224222   4.204   0.208  11.504 -0.1463 -0.2122  1.1418
 4196SOL     OW24223   1.077   2.247   8.584 -0.0304 -0.3700 -0.3471
 4196SOL    HW124224   1.104   2.155   8.584  0.2364 -0.2975 -2.2411
 4196SOL    HW224225   1.102   2.274   8.672 -0.2604 -1.2645 -0.0053
 4197SOL     OW24226   2.091   4.594   3.950 -0.0843 -0.0442  0.2744
 4197SOL    HW124227   2.180   4.612   3.918 -0.5672 -2.2334 -2.3351
 4197SOL    HW224228   2.047   4.678   3.941  1.3726  0.6074 -0.8767
 4198SOL     OW24229   0.671   2.462   0.674  0.4910 -0.3256  0.1781
 4198SOL    HW124230   0.748   2.406   0.665  0.3043 -0.4823 -0.4280
 4198SOL    HW224231   0.608   2.394   0.697  1.1370 -1.2183 -0.7158
 4199SOL     OW24232   2.087   4.393  14.916  0.2702 -0.3981 -0.0005
 4199SOL    HW124233   2.073   4.347  14.834 -1.2968  1.0099 -0.5375
 4199SOL    HW224234   2.146   4.465  14.893 -1.5217  1.5133  1.3232
 4200SOL     OW24235   2.535   2.614  12.751  0.3746  0.0457 -0.0276
 4200SOL    HW124236   2.518   2.535  12.803  2.3903  1.4587  2.7357
 4200SOL    HW224237   2.478   2.594  12.676 -1.0382  3.0636  0.2516
 4201SOL     OW24238   3.656   2.346   5.159 -0.4698 -0.1299 -0.0890
 4201SOL    HW124239   3.562   2.330   5.174 -0.3484 -1.3834 -0.7186
 4201SOL    HW224240   3.644   2.411   5.090  3.4173 -1.1057 -1.6767
 4202SOL     OW24241   4.505   0.141  10.185  1.2413 -0.5375 -0.1106
 4202SOL    HW124242   4.576   0.155  10.248  0.5137 -0.6401  0.7166
 4202SOL    HW224243   4.527   0.211  10.124 -0.1127 -0.5719 -0.6166
 4203SOL     OW24244   3.296   4.108   9.513  0.5980  0.1817 -0.2670
 4203SOL    HW124245   3.317   4.020   9.544  0.4678 -0.1597 -1.1436
 4203SOL    HW224246   3.243   4.086   9.436 -0.0034  2.1339 -0.4041
 4204SOL     OW24247   4.731   1.282  15.868 -0.2629 -0.2193 -0.1795
 4204SOL    HW124248   0.009   1.324  15.783 -1.0135  0.2897 -0.0596
 4204SOL    HW224249   4.643   1.307  15.896 -0.0955 -0.5913  0.6919
 4205SOL     OW24250   3.828   3.448   4.461 -0.2153 -0.3448 -0.4105
 4205SOL    HW124251   3.735   3.429   4.472  0.0687 -1.5360 -0.1044
 4205SOL    HW224252   3.810   3.537   4.430 -3.5265 -1.4589 -1.7596
 4206SOL     OW24253   3.093   1.878   2.858  0.8107 -0.3177 -0.3733
 4206SOL    HW124254   3.149   1.867   2.935  1.1435 -1.5370 -0.7841
 4206SOL    HW224255   3.021   1.821   2.885 -2.1108  2.8869 -1.2836
 4207SOL     OW24256   0.916   3.638   5.951 -0.4111 -0.4378 -0.2880
 4207SOL    HW124257   0.888   3.698   6.020  3.5667  1.0385  0.1114
 4207SOL    HW224258   0.840   3.581   5.947 -1.5264  0.9381  1.3750
 4208SOL     OW24259   4.094   2.219   2.819 -0.5577  0.3502  0.1434
 4208SOL    HW124260   4.176   2.264   2.797 -1.4558  2.1508  0.4797
 4208SOL    HW224261   4.057   2.286   2.877  1.2200 -0.8784  2.7487
 4209SOL     OW24262   3.458   3.517   8.638 -0.0927 -0.3017 -0.0614
 4209SOL    HW124263   3.543   3.542   8.673 -0.3706  1.8802 -0.9722
 4209SOL    HW224264   3.397   3.586   8.664 -1.7620 -1.2874 -1.3036
 4210SOL     OW24265   3.839   4.545   2.600 -0.7829 -0.3901 -0.1442
 4210SOL    HW124266   3.911   4.598   2.636 -1.6619  0.4512  0.3822
 4210SOL    HW224267   3.785   4.526   2.677  1.6163 -1.8044  1.1803
 4211SOL     OW24268   3.995   2.711   3.305 -0.1435  0.1147 -0.7843
 4211SOL    HW124269   3.901   2.729   3.303 -0.5558 -1.7885  0.7717
 4211SOL    HW224270   4.006   2.616   3.306  0.6623  0.2301  0.7156
 4212SOL     OW24271   0.769   2.160   8.811 -0.3253 -0.2795  0.5621
 4212SOL    HW124272   0.840   2.136   8.871  1.0273  3.1178  0.3601
 4212SOL    HW224273   0.697   2.112   8.852 -1.3122  1.8892  1.3825
 4213SOL     OW24274   3.485   0.739   7.257  0.5280 -0.0673  0.1659
 4213SOL    HW124275   3.466   0.646   7.248 -3.2102  0.6164  0.5487
 4213SOL    HW224276   3.456   0.765   7.170  1.7608 -0.0170 -0.2155
 4214SOL     OW24277   1.606   4.057   3.070 -0.2383 -0.7095 -0.3754
 4214SOL    HW124278   1.580   4.091   2.984  1.5306 -1.1259 -1.0863
 4214SOL    HW224279   1.522   4.028   3.104 -1.6275  2.2814 -1.3055
 4215SOL     OW24280   1.269   4.534   7.670  0.5026  0.1215  0.0565
 4215SOL    HW124281   1.300   4.472   7.604  1.7661 -1.4808  2.1322
 4215SOL    HW224282   1.347   4.573   7.709  0.8631  1.1141 -1.6684
 4216SOL     OW24283   0.121   1.968  10.418  0.1807 -0.3996 -0.3444
 4216SOL    HW124284   0.034   1.999  10.441  0.9776  1.8269 -0.3299
 4216SOL    HW224285   0.180   2.033  10.457  1.8362 -2.0981  0.0372
 4217SOL     OW24286   2.860   2.089   7.450 -0.1126 -0.1638  0.0935
 4217SOL    HW124287   2.872   2.022   7.382 -0.5067 -1.3943  1.2223
 4217SOL    HW224288   2.890   2.041   7.527 -0.4140 -0.0005  0.3124
 4218SOL     OW24289   0.090   0.230   4.220 -0.0992  0.4002  1.0998
 4218SOL    HW124290   0.086   0.260   4.311  1.9903 -0.5295  1.4988
 4218SOL    HW224291   0.173   0.183   4.220 -0.1690  0.3331 -2.1257
 4219SOL     OW24292   1.552   3.660   7.373  0.3282  0.0200  0.3414
 4219SOL    HW124293   1.469   3.614   7.381  0.1208  0.8190  2.9580
 4219SOL    HW224294   1.565   3.669   7.279  2.8143 -0.8615  0.5754
 4220SOL     OW24295   4.654   2.843   4.650  0.0025 -0.6410 -0.2340
 4220SOL    HW124296   4.711   2.868   4.578 -1.2733  1.9187 -0.3688
 4220SOL    HW224297   4.692   2.761   4.682  0.3395 -0.1899  0.5138
 4221SOL     OW24298   2.392   4.614   8.107  0.3408 -0.6372  0.1934
 4221SOL    HW124299   2.381   4.706   8.085 -0.2621 -1.3349 -2.3857
 4221SOL    HW224300   2.454   4.631   8.178  0.2078 -0.5198  0.2816
 4222SOL     OW24301   2.843   2.674   4.488  0.7770 -0.6713  0.0499
 4222SOL    HW124302   2.808   2.635   4.568 -1.8900 -0.3164 -0.9412
 4222SOL    HW224303   2.894   2.750   4.515  0.5350 -0.4707 -0.0604
 4223SOL     OW24304   1.924   4.016   6.381  0.1322  0.0752  0.2968
 4223SOL    HW124305   1.910   3.921   6.379  3.0977 -0.3184 -1.4234
 4223SOL    HW224306   1.978   4.024   6.303 -2.1885  1.6248 -1.1186
 4224SOL     OW24307   3.703   4.285   7.662 -0.8352  0.6221 -0.3939
 4224SOL    HW124308   3.681   4.308   7.752  0.5319  1.9213 -0.3755
 4224SOL    HW224309   3.620   4.264   7.619 -0.2730 -2.6289  0.0971
 4225SOL     OW24310   2.849   3.511  16.934  0.7523 -0.0934 -0.5452
 4225SOL    HW124311   2.830   3.491  16.842 -1.1906 -2.3544  0.3564
 4225SOL    HW224312   2.920   3.448  16.940 -0.6077 -1.8415 -2.5520
 4226SOL     OW24313   3.998   2.702   7.395  0.1127  0.2736 -0.3694
 4226SOL    HW124314   3.922   2.645   7.395 -0.1627  0.6495 -0.0180
 4226SOL    HW224315   4.002   2.738   7.306  0.3033 -2.5960 -1.5385
 4227SOL     OW24316   2.263   0.293   6.084 -0.2826 -0.0233  0.4041
 4227SOL    HW124317   2.224   0.273   5.999 -2.4150 -1.6770  1.7890
 4227SOL    HW224318   2.355   0.299   6.058  0.0497 -3.6359  0.7515
 4228SOL     OW24319   0.788   0.585   0.659 -0.0188  0.1579 -0.7539
 4228SOL    HW124320   0.702   0.614   0.689  1.3973  1.3906  2.1287
 4228SOL    HW224321   0.775   0.599   0.565 -0.1903  2.8120 -0.3350
 4229SOL     OW24322   0.268   3.986  16.923  0.2328 -0.1800 -0.4519
 4229SOL    HW124323   0.328   3.987  16.998 -0.7716 -1.3778  0.3801
 4229SOL    HW224324   0.242   3.895  16.933 -0.8712 -0.0775 -2.3783
 4230SOL     OW24325   2.949   0.335   8.546  0.3894 -0.1472 -0.2835
 4230SOL    HW124326   2.939   0.405   8.610  0.6824 -1.5586  1.2920
 4230SOL    HW224327   2.967   0.260   8.602  2.4845  0.2643 -0.4320
 4231SOL     OW24328   2.951   4.154   3.858 -0.0490 -0.2431 -0.1352
 4231SOL    HW124329   2.865   4.115   3.839  0.4696 -0.9182 -1.0679
 4231SOL    HW224330   2.986   4.138   3.771 -1.0647 -2.6826 -0.1010
 4232SOL     OW24331   0.681   0.373   8.259 -0.2718  0.0169  0.2770
 4232SOL    HW124332   0.750   0.323   8.304  0.0174  2.4592  2.5156
 4232SOL    HW224333   0.681   0.328   8.174  1.6942  2.0634 -0.8063
 4233SOL     OW24334   2.915   2.951  10.198 -0.0401  0.6032 -0.3571
 4233SOL    HW124335   2.834   3.002  10.193 -0.5911 -0.1741  0.6816
 4233SOL    HW224336   2.986   3.007  10.231 -0.1452 -0.4172  1.6222
 4234SOL     OW24337   0.973   0.337   6.924  0.2556 -0.1776  0.4439
 4234SOL    HW124338   0.987   0.290   7.006 -1.4564  2.1285  2.0681
 4234SOL    HW224339   0.979   0.268   6.858 -2.9967 -1.2794  1.2727
 4235SOL     OW24340   3.592   0.244  15.268 -0.3897 -0.9142  0.6141
 4235SOL    HW124341   3.604   0.246  15.173 -0.6348  0.3118  0.6089
 4235SOL    HW224342   3.678   0.221  15.302 -0.4653 -1.1227  0.6644
 4236SOL     OW24343   3.401   4.712   6.086  0.3433  0.3331  0.1091
 4236SOL    HW124344   3.375   4.730   6.176 -0.8376  1.4183 -0.4364
 4236SOL    HW224345   3.316   4.713   6.041  0.9672 -0.6355 -1.0588
 4237SOL     OW24346   1.798   0.176  16.088 -0.3842 -0.5142 -0.2029
 4237SOL    HW124347   1.829   0.086  16.090  1.4375  0.1613  1.5743
 4237SOL    HW224348   1.752   0.177  16.171 -0.1458 -0.4967 -0.0722
 4238SOL     OW24349   0.569   0.663   7.464 -0.0596  0.2145 -0.2292
 4238SOL    HW124350   0.552   0.571   7.445  0.0524  0.4805 -1.6247
 4238SOL    HW224351   0.503   0.710   7.413  0.3503 -0.7975 -1.6973
 4239SOL     OW24352   2.515   2.106   5.972 -0.2083 -0.0450  0.6353
 4239SOL    HW124353   2.451   2.149   5.916  0.3704 -0.3808 -0.2770
 4239SOL    HW224354   2.544   2.186   6.016  1.5926  0.8567 -2.2190
 4240SOL     OW24355   2.345   3.170   4.158 -0.3886  0.8747  0.2745
 4240SOL    HW124356   2.346   3.119   4.239 -0.0946  1.1702  0.4615
 4240SOL    HW224357   2.440   3.172   4.149 -0.3843  0.3102  0.2366
 4241SOL     OW24358   1.122   1.146   4.104  1.1428  0.4118 -0.2031
 4241SOL    HW124359   1.112   1.051   4.101  2.4814  0.3023 -1.5478
 4241SOL    HW224360   1.044   1.162   4.052  0.4927 -1.0953  0.3122
 4242SOL     OW24361   1.673   0.202   0.257  1.0180  0.6181  0.6424
 4242SOL    HW124362   1.599   0.262   0.245  0.9983  0.2312 -1.2646
 4242SOL    HW224363   1.743   0.266   0.267  0.5038  1.4799 -1.2382
 4243SOL     OW24364   2.657   1.432   3.125  0.4008 -0.0969  0.5462
 4243SOL    HW124365   2.688   1.487   3.197 -1.8400  1.8547  0.0332
 4243SOL    HW224366   2.580   1.480   3.094  0.3776 -1.1723 -1.0586
 4244SOL     OW24367   3.840   4.039  16.231 -0.6525 -0.4217 -0.2802
 4244SOL    HW124368   3.901   4.096  16.184 -2.4282  0.3374 -1.6914
 4244SOL    HW224369   3.759   4.082  16.202 -0.8352 -0.4505  0.1861
 4245SOL     OW24370   0.417   3.138   5.937 -0.4710  0.0796 -0.0035
 4245SOL    HW124371   0.441   3.221   5.895  1.6699 -0.7612 -0.4442
 4245SOL    HW224372   0.504   3.101   5.950 -1.3365 -2.2807 -0.9255
 4246SOL     OW24373   0.257   1.406   6.765 -0.5414 -0.2424 -0.2430
 4246SOL    HW124374   0.256   1.365   6.852  2.1271 -1.4675 -0.7996
 4246SOL    HW224375   0.315   1.344   6.721 -0.7700  0.0837 -0.9992
 4247SOL     OW24376   1.115   2.389   8.824 -0.1056  0.5461  0.1099
 4247SOL    HW124377   1.054   2.416   8.893 -2.8132 -1.6942 -1.4102
 4247SOL    HW224378   1.148   2.303   8.850 -0.1815  0.9484  1.5561
 4248SOL     OW24379   0.575   2.040   3.093 -0.1749  0.1780 -0.4103
 4248SOL    HW124380   0.560   2.091   3.172 -3.5346  1.4759 -1.8973
 4248SOL    HW224381   0.561   1.952   3.127 -2.3947 -0.1574 -2.1412
 4249SOL     OW24382   3.262   1.980   2.470 -0.5069 -0.2376  0.1266
 4249SOL    HW124383   3.287   2.048   2.407  1.0331 -2.7895 -1.9729
 4249SOL    HW224384   3.338   1.927   2.492 -0.1635  0.0874 -0.2928
 4250SOL     OW24385   4.530   4.093  13.890  0.2714 -0.0400  0.1840
 4250SOL    HW124386   4.563   4.069  13.803  0.3033 -1.2618  0.5330
 4250SOL    HW224387   4.439   4.116  13.873  0.8976  1.5275 -1.0463
 4251SOL     OW24388   3.298   3.583   4.647 -0.8996  0.6355 -0.0812
 4251SOL    HW124389   3.308   3.594   4.742 -1.1335  1.6727 -0.1785
 4251SOL    HW224390   3.211   3.621   4.641 -0.0515  2.4630 -0.8587
 4252SOL     OW24391   1.868   1.231  10.642 -0.5553 -0.3735  0.5724
 4252SOL    HW124392   1.816   1.151  10.634  0.2920 -0.9643  0.9990
 4252SOL    HW224393   1.925   1.231  10.566  0.3522  1.1495  1.2546
 4253SOL     OW24394   4.019   4.037   4.980  0.0741  0.3133  0.0602
 4253SOL    HW124395   3.987   3.980   4.910  0.8662 -0.8605  0.6441
 4253SOL    HW224396   4.042   4.120   4.937 -0.1966 -0.6878 -2.0176
 4254SOL     OW24397   3.532   2.447   3.788 -0.4708 -0.2056 -0.3089
 4254SOL    HW124398   3.477   2.525   3.778 -0.6840 -0.4765 -1.2056
 4254SOL    HW224399   3.623   2.477   3.786 -0.5324  0.0505  0.7720
 4255SOL     OW24400   0.698   4.512   6.490  0.3639  0.0834  0.2104
 4255SOL    HW124401   0.787   4.524   6.523  0.2739 -0.0049  0.4892
 4255SOL    HW224402   0.654   4.470   6.564  2.1008 -1.3438  0.4561
 4256SOL     OW24403   0.698   1.976   5.504  0.7925 -0.3320 -0.0854
 4256SOL    HW124404   0.745   2.053   5.537 -0.0275  0.6670 -1.2683
 4256SOL    HW224405   0.675   2.012   5.419  1.1567 -0.3539 -0.1937
 4257SOL     OW24406   2.837   2.342   6.055 -0.3073 -0.3706 -0.0051
 4257SOL    HW124407   2.751   2.308   6.080  0.0096 -1.1213  0.0660
 4257SOL    HW224408   2.817   2.416   5.998  1.9665  0.5124  0.3285
 4258SOL     OW24409   3.978   2.278   2.270  0.3088  0.5024  0.1834
 4258SOL    HW124410   3.989   2.361   2.317  2.1863  1.5579 -2.0981
 4258SOL    HW224411   3.883   2.267   2.277  0.6074 -0.9708  1.7217
 4259SOL     OW24412   4.177   2.653   8.427  0.1329 -0.0363  0.9562
 4259SOL    HW124413   4.264   2.686   8.403 -0.2066  3.0619  3.9776
 4259SOL    HW224414   4.127   2.735   8.432  0.5979  0.1801  2.3293
 4260SOL     OW24415   3.882   1.184   9.487 -0.4411  0.0127 -0.3284
 4260SOL    HW124416   3.850   1.267   9.451 -0.7831 -0.2058 -0.5186
 4260SOL    HW224417   3.943   1.161   9.417 -0.0040 -1.8898  0.6782
 4261SOL     OW24418   2.468   2.088  11.958  0.3542  0.4092  0.0270
 4261SOL    HW124419   2.518   2.136  12.023  1.7730  0.3343 -0.9939
 4261SOL    HW224420   2.382   2.129  11.965  0.5902  0.7512  0.7974
 4262SOL     OW24421   0.789   1.994   2.173 -1.1713 -0.0306  0.5110
 4262SOL    HW124422   0.864   2.037   2.214 -0.3791 -1.0923  0.1784
 4262SOL    HW224423   0.843   1.923   2.137 -0.3649  0.3350  0.9828
 4263SOL     OW24424   0.780   3.487   5.435  0.0579  0.1163  0.4422
 4263SOL    HW124425   0.800   3.546   5.507  0.2979  2.3361 -1.4580
 4263SOL    HW224426   0.834   3.524   5.365  1.4924 -1.6264  0.6357
 4264SOL     OW24427   1.039   4.168   2.188 -0.4240  0.6169  0.0573
 4264SOL    HW124428   0.983   4.220   2.247 -0.4105  0.0297  0.5953
 4264SOL    HW224429   1.018   4.078   2.212 -0.2278  1.2592  2.6587
 4265SOL     OW24430   4.004   1.308   9.710  0.3103  0.6579  0.5462
 4265SOL    HW124431   4.083   1.335   9.662  0.1207 -1.5127 -0.9721
 4265SOL    HW224432   3.959   1.258   9.642  2.4662 -0.5285 -0.0027
 4266SOL     OW24433   3.563   3.156   9.858 -0.3948 -0.5362 -0.0464
 4266SOL    HW124434   3.496   3.119   9.802  0.8422  0.1507 -1.9644
 4266SOL    HW224435   3.526   3.239   9.890 -0.2957  0.1273 -1.6410
 4267SOL     OW24436   1.037   4.241  16.664  0.6047 -0.5627 -0.1400
 4267SOL    HW124437   1.018   4.211  16.753 -2.3717  1.1793 -0.1784
 4267SOL    HW224438   0.956   4.219  16.618 -0.8031  0.1501  1.9552
 4268SOL     OW24439   2.237   3.961   3.523  0.3397 -0.0992  0.4673
 4268SOL    HW124440   2.274   3.968   3.434 -0.0740  2.6777  0.5431
 4268SOL    HW224441   2.239   4.052   3.550 -3.1355  1.0882 -3.2763
 4269SOL     OW24442   0.863   4.083  11.154  0.1867  0.0893  0.3399
 4269SOL    HW124443   0.798   4.029  11.199  1.8393 -1.2906  1.0359
 4269SOL    HW224444   0.824   4.090  11.066  1.4044  0.2909 -0.1829
 4270SOL     OW24445   1.415   0.488   4.300 -0.3274 -0.5473 -0.4116
 4270SOL    HW124446   1.329   0.524   4.278 -1.1896 -1.6971  1.0711
 4270SOL    HW224447   1.403   0.404   4.256  1.7862 -0.0097 -2.0042
 4271SOL     OW24448   3.531   1.401   1.802 -0.2620  0.4428 -0.5518
 4271SOL    HW124449   3.495   1.458   1.734  0.9872 -1.2427 -2.6543
 4271SOL    HW224450   3.570   1.467   1.858 -0.8362 -1.0177  1.5777
 4272SOL     OW24451   3.780   2.351  10.015  0.0503  0.3207 -0.4665
 4272SOL    HW124452   3.729   2.300  10.078  1.3673  0.2316  0.5242
 4272SOL    HW224453   3.866   2.341  10.055 -1.0225 -1.2849  1.3786
 4273SOL     OW24454   2.219   3.657   5.157 -0.1357 -0.3646 -0.2599
 4273SOL    HW124455   2.168   3.576   5.155 -1.6722  0.6536 -1.4115
 4273SOL    HW224456   2.200   3.682   5.248 -1.3937  2.0703 -1.2019
 4274SOL     OW24457   2.872   2.390  16.789 -0.3448  0.0728 -0.2402
 4274SOL    HW124458   2.793   2.339  16.802 -0.6888  0.9843  1.3451
 4274SOL    HW224459   2.889   2.428  16.876  2.1483  0.0511 -0.7153
 4275SOL     OW24460   2.597   1.298   5.688  0.5294 -0.2753 -0.2620
 4275SOL    HW124461   2.588   1.208   5.658  1.7580 -0.6521  0.5092
 4275SOL    HW224462   2.504   1.323   5.690  0.4261 -0.6487 -0.3382
 4276SOL     OW24463   0.511   1.917   1.988 -0.0651  0.4188  0.0729
 4276SOL    HW124464   0.558   1.838   1.960 -4.2852 -2.6323  1.7011
 4276SOL    HW224465   0.514   1.982   1.918  0.6742  1.2598  0.8810
 4277SOL     OW24466   3.581   1.373   5.476  0.4560  0.5742 -0.1555
 4277SOL    HW124467   3.548   1.377   5.565 -1.3680  0.7985 -0.8524
 4277SOL    HW224468   3.677   1.365   5.477  0.4883  1.0954  0.3038
 4278SOL     OW24469   1.012   1.996   4.407  0.2551 -0.0421 -0.5731
 4278SOL    HW124470   1.042   2.037   4.488 -1.9296  1.1128 -0.3529
 4278SOL    HW224471   1.034   2.061   4.340  0.6202 -0.0988 -0.5086
 4279SOL     OW24472   1.062   2.151   5.925  0.2039  0.3664  0.3357
 4279SOL    HW124473   0.978   2.191   5.903  0.8676 -0.8211 -4.4395
 4279SOL    HW224474   1.058   2.083   5.858 -0.0394  2.5697 -1.9136
 4280SOL     OW24475   1.536   4.019   7.844 -0.5588 -0.6553 -0.5840
 4280SOL    HW124476   1.471   4.008   7.914 -0.0864 -0.6194 -0.1442
 4280SOL    HW224477   1.562   3.927   7.839  2.1852  0.1019 -0.1307
 4281SOL     OW24478   4.538   1.975  10.893  0.1689  0.1920 -0.1369
 4281SOL    HW124479   4.592   1.998  10.968 -1.4515  0.2813  1.0146
 4281SOL    HW224480   4.530   1.880  10.904  1.7808 -0.1434 -1.7966
 4282SOL     OW24481   1.524   2.243   3.917 -0.5153  0.1545 -0.0312
 4282SOL    HW124482   1.540   2.299   3.841  1.1923 -1.1733 -0.6723
 4282SOL    HW224483   1.518   2.160   3.869  1.5093  0.7640 -1.3526
 4283SOL     OW24484   1.548   0.379   5.601  0.0429  0.4470  0.3303
 4283SOL    HW124485   1.557   0.405   5.692 -1.9102  1.8601  0.1136
 4283SOL    HW224486   1.609   0.441   5.560  0.4364 -0.7853 -0.9488
 4284SOL     OW24487   1.948   3.334   0.039 -0.4736 -0.0148  0.0707
 4284SOL    HW124488   1.915   3.414  17.743  0.1151  0.4587  0.5236
 4284SOL    HW224489   2.042   3.335   0.022 -0.5515 -0.5074 -0.3800
 4285SOL     OW24490   4.118   2.938   5.288  0.4281 -0.1420  0.5724
 4285SOL    HW124491   4.046   2.923   5.227  0.4263  1.8985  0.0763
 4285SOL    HW224492   4.124   2.849   5.321 -0.2058 -0.6113 -0.5982
 4286SOL     OW24493   0.638   1.554   8.310 -0.7999 -0.0686  0.0993
 4286SOL    HW124494   0.655   1.461   8.322  0.1131  0.1599  0.5959
 4286SOL    HW224495   0.686   1.574   8.229 -2.3103  1.4531 -0.4297
 4287SOL     OW24496   3.390   1.956  10.669  0.0783  0.1131  0.3986
 4287SOL    HW124497   3.345   1.890  10.721 -0.8415 -0.7726 -1.5249
 4287SOL    HW224498   3.330   1.990  10.602  0.9061  0.7104 -0.0497
 4288SOL     OW24499   3.855   1.809  13.545  0.2786 -0.0528 -0.1400
 4288SOL    HW124500   3.914   1.776  13.477 -0.7101 -2.2172  0.0643
 4288SOL    HW224501   3.920   1.844  13.605 -1.6436  1.9635  0.7406
 4289SOL     OW24502   0.727   4.299   5.234 -0.0289  0.7979  0.8612
 4289SOL    HW124503   0.757   4.344   5.313  1.2510  4.1471 -1.5783
 4289SOL    HW224504   0.633   4.319   5.233 -0.6489 -2.2743 -1.7849
 4290SOL     OW24505   1.639   4.508   3.094  0.4112 -0.1078 -0.3455
 4290SOL    HW124506   1.645   4.589   3.145 -4.5857  0.5294 -0.7687
 4290SOL    HW224507   1.730   4.482   3.079 -0.3863 -0.7799 -4.0332
 4291SOL     OW24508   4.577   2.220  14.309  0.3919 -0.3798 -0.2373
 4291SOL    HW124509   4.612   2.306  14.330  1.6748 -1.2789  1.3143
 4291SOL    HW224510   4.602   2.181  14.393 -1.8666 -0.6403  0.3138
 4292SOL     OW24511   4.463   1.666  17.175 -0.1058 -0.4226  0.1604
 4292SOL    HW124512   4.471   1.587  17.121 -0.6964  0.5745 -1.3577
 4292SOL    HW224513   4.449   1.625  17.260 -2.8181  1.3385  0.5590
 4293SOL     OW24514   2.166   1.116   6.614  0.4075  0.2084  0.3924
 4293SOL    HW124515   2.175   1.026   6.584 -1.4591 -0.3889  1.6791
 4293SOL    HW224516   2.249   1.154   6.583 -0.3399  1.3508 -0.2062
 4294SOL     OW24517   0.313   4.059   8.563  0.3675  0.1096  0.3489
 4294SOL    HW124518   0.305   4.067   8.468 -2.1418  1.8658  0.7037
 4294SOL    HW224519   0.355   3.974   8.575 -0.2993 -0.3979 -0.9468
 4295SOL     OW24520   0.056   2.399   6.395 -0.0551  0.3537 -0.4282
 4295SOL    HW124521   0.037   2.462   6.326  0.1275  2.1395  1.1774
 4295SOL    HW224522   0.125   2.439   6.448 -0.2002  1.8566 -1.3957
 4296SOL     OW24523   3.895   4.367   7.493  0.0281 -0.4498 -0.2248
 4296SOL    HW124524   3.847   4.335   7.416 -0.8730 -1.2658  0.6874
 4296SOL    HW224525   3.833   4.352   7.564  1.5118 -0.3815  1.0763
 4297SOL     OW24526   3.809   3.245  13.024  0.1810 -0.1955 -0.0057
 4297SOL    HW124527   3.791   3.209  12.938  3.0214 -0.5298 -0.4650
 4297SOL    HW224528   3.773   3.334  13.027  0.6955 -0.0120  0.5998
 4298SOL     OW24529   2.013   2.342   7.932  0.1786 -0.1353  0.0874
 4298SOL    HW124530   1.980   2.428   7.958 -1.0788 -0.0574 -1.7893
 4298SOL    HW224531   2.053   2.367   7.849 -0.1926 -0.3244 -0.1462
 4299SOL     OW24532   3.703   0.098   6.635  0.4092 -0.1020 -0.0917
 4299SOL    HW124533   3.790   0.115   6.671  0.2064  0.9518 -0.1196
 4299SOL    HW224534   3.729   0.044   6.560 -0.5525  1.6318 -1.6830
 4300SOL     OW24535   1.285   2.186   0.559  0.4768 -0.5440  0.2216
 4300SOL    HW124536   1.266   2.262   0.614 -1.6021 -1.1141  0.2762
 4300SOL    HW224537   1.374   2.205   0.528  0.4698 -0.2761  0.3671
 4301SOL     OW24538   0.732   3.013  17.362 -0.5854  0.0915  0.0816
 4301SOL    HW124539   0.670   2.940  17.355 -1.3380  0.6393  1.2219
 4301SOL    HW224540   0.794   2.958  17.410 -2.4363 -2.6059 -0.6059
 4302SOL     OW24541   3.414   4.016   3.751  0.3893  0.3124 -0.5236
 4302SOL    HW124542   3.380   4.046   3.667 -0.4793  0.6212 -0.0685
 4302SOL    HW224543   3.437   3.924   3.737 -1.1523 -0.1981  0.2894
 4303SOL     OW24544   4.508   1.478   5.214 -0.2739 -0.0871  0.0879
 4303SOL    HW124545   4.454   1.470   5.135  0.8605  0.3187 -0.7158
 4303SOL    HW224546   4.592   1.462   5.172 -1.6030 -1.8027 -1.8901
 4304SOL     OW24547   2.613   0.692   5.959  0.4230  0.3648  0.0403
 4304SOL    HW124548   2.585   0.618   5.904  1.2001  2.1911 -2.7891
 4304SOL    HW224549   2.702   0.705   5.926  0.2320  1.2765 -0.1122
 4305SOL     OW24550   3.788   3.769   8.130 -0.0093 -0.5776 -0.3300
 4305SOL    HW124551   3.860   3.766   8.067 -0.4193  1.4403 -0.8789
 4305SOL    HW224552   3.775   3.863   8.137  0.6414 -0.5397  0.3605
 4306SOL     OW24553   4.326   0.828   1.918 -0.4320 -0.1506 -0.0722
 4306SOL    HW124554   4.362   0.834   2.007 -0.9410  1.2904  0.0374
 4306SOL    HW224555   4.233   0.847   1.932 -0.6105 -1.5584  0.6405
 4307SOL     OW24556   2.858   2.288  11.977 -0.3396  0.1395  0.1301
 4307SOL    HW124557   2.827   2.330  12.058  2.5478 -0.6410  1.6494
 4307SOL    HW224558   2.913   2.227  12.026  0.6218  0.6595 -0.2942
 4308SOL     OW24559   3.548   2.159  10.056 -0.1543 -0.4540  0.2801
 4308SOL    HW124560   3.455   2.140  10.041 -1.0507  1.2398  3.7381
 4308SOL    HW224561   3.541   2.150  10.151  2.0924 -0.2516  0.4496
 4309SOL     OW24562   3.037   1.902   1.793  0.0004  0.5918  0.1744
 4309SOL    HW124563   3.084   1.985   1.784  0.1624  0.4114 -0.6055
 4309SOL    HW224564   3.014   1.901   1.886  0.6367 -0.6111  0.3179
 4310SOL     OW24565   0.381   4.078   4.148 -0.0009  0.8024 -0.2648
 4310SOL    HW124566   0.328   4.024   4.089  0.0431 -0.0385  0.4650
 4310SOL    HW224567   0.451   4.026   4.186 -1.3325 -0.3662  0.5758
 4311SOL     OW24568   4.458   4.193  17.585 -0.0212 -0.1503  0.0652
 4311SOL    HW124569   4.550   4.165  17.586  0.4730  1.3300 -3.7038
 4311SOL    HW224570   4.432   4.172  17.496  3.0539  0.1685 -0.9043
 4312SOL     OW24571   3.695   4.660  16.621 -0.7013 -0.1577 -0.2002
 4312SOL    HW124572   3.784   4.657  16.586 -0.8635  0.3630 -0.6647
 4312SOL    HW224573   3.678   4.566  16.612  0.7641 -0.4700  0.3017
 4313SOL     OW24574   0.019   1.690   8.196 -0.5221 -0.4132  0.6172
 4313SOL    HW124575   4.711   1.739   8.265 -0.9489 -0.6345  0.5024
 4313SOL    HW224576   0.019   1.753   8.124  0.2859 -0.2495  0.7577
 4314SOL     OW24577   4.304   3.111   7.032  0.2742 -0.7930  0.5676
 4314SOL    HW124578   4.296   3.179   7.098 -3.3851 -0.9012  0.2349
 4314SOL    HW224579   4.268   3.156   6.955  3.1104 -0.3779 -0.5095
 4315SOL     OW24580   1.610   3.115   5.688  0.2049  0.2875 -0.4818
 4315SOL    HW124581   1.571   3.068   5.761 -1.6621  0.6737 -1.2300
 4315SOL    HW224582   1.677   3.166   5.734 -1.7583  1.5346  0.9779
 4316SOL     OW24583   1.989   1.072   6.354  0.5108 -0.8866 -0.8539
 4316SOL    HW124584   1.986   1.124   6.435 -0.3699 -2.4107  0.1030
 4316SOL    HW224585   1.959   1.138   6.292  1.8717  1.5802  1.0721
 4317SOL     OW24586   0.767   4.251   5.985  0.0417  0.0006 -0.1740
 4317SOL    HW124587   0.725   4.281   6.066 -1.9303 -0.9785 -0.8281
 4317SOL    HW224588   0.728   4.317   5.928 -2.2690 -2.1251 -1.0541
 4318SOL     OW24589   1.379   4.015  10.503 -0.3358  0.4832 -0.1925
 4318SOL    HW124590   1.366   3.920  10.500  0.0722  0.3509  2.2794
 4318SOL    HW224591   1.303   4.053  10.547  0.3653  1.4122  0.2101
 4319SOL     OW24592   3.605   0.438   9.886  0.4076  0.6011 -0.2353
 4319SOL    HW124593   3.564   0.517   9.851  0.6346  0.1932 -1.4368
 4319SOL    HW224594   3.670   0.470   9.948  0.1126 -1.4042  1.1183
 4320SOL     OW24595   0.109   2.941   3.600 -0.3652  0.2855 -0.6591
 4320SOL    HW124596   0.172   2.912   3.666 -0.6374 -1.0634 -1.0110
 4320SOL    HW224597   0.055   2.866   3.577  1.5062 -0.6238 -2.0766
 4321SOL     OW24598   2.956   1.098   6.295  0.1509 -0.6273 -0.0552
 4321SOL    HW124599   3.038   1.121   6.252 -0.9435  2.5129 -0.4739
 4321SOL    HW224600   2.952   1.161   6.367  0.7781  1.2832 -1.7070
 4322SOL     OW24601   0.316   3.828   8.417 -0.1937 -0.8253  0.4133
 4322SOL    HW124602   0.253   3.794   8.480 -2.7729  1.6506 -0.8631
 4322SOL    HW224603   0.266   3.819   8.336  0.5309  1.0421 -0.2312
 4323SOL     OW24604   3.212   2.893   9.139  0.7896  0.5474 -0.0479
 4323SOL    HW124605   3.167   2.819   9.100  1.0676  1.0145 -1.2736
 4323SOL    HW224606   3.276   2.919   9.073  0.1375  0.3908 -0.7355
 4324SOL     OW24607   1.479   1.954   1.903 -0.2128  0.4991 -0.3913
 4324SOL    HW124608   1.423   1.879   1.886 -1.8280  1.3278  1.2637
 4324SOL    HW224609   1.545   1.929   1.968 -1.2285 -1.5797 -0.1626
 4325SOL     OW24610   0.850   4.320   6.878  0.1301 -0.3399  0.3518
 4325SOL    HW124611   0.816   4.256   6.941  2.5108 -1.4463  0.5427
 4325SOL    HW224612   0.784   4.343   6.813  1.0736 -0.1162 -0.5407
 4326SOL     OW24613   0.087   1.755   2.177 -0.2646 -0.3018 -0.0924
 4326SOL    HW124614   0.030   1.679   2.179 -1.2060  0.4651  2.1712
 4326SOL    HW224615   0.170   1.709   2.167  1.2930  2.8825 -1.9914
 4327SOL     OW24616   3.832   0.123   2.069 -0.2986 -0.2253  0.1659
 4327SOL    HW124617   3.737   0.125   2.076 -0.3177  0.8005 -0.3120
 4327SOL    HW224618   3.848   0.068   1.993 -0.7603  1.2686 -1.0036
 4328SOL     OW24619   3.738   1.298   8.132 -0.5060 -0.4340  0.2093
 4328SOL    HW124620   3.695   1.356   8.069  0.6971  0.4293  0.1814
 4328SOL    HW224621   3.785   1.373   8.167 -0.3272 -1.4310  2.0864
 4329SOL     OW24622   2.525   2.496  13.040  0.0897  0.0190  0.2738
 4329SOL    HW124623   2.456   2.487  13.105 -0.3515 -0.7836 -0.3050
 4329SOL    HW224624   2.475   2.450  12.973  0.9576  1.1023 -1.1147
 4330SOL     OW24625   0.245   4.549   5.137 -0.0667  0.1662 -0.4929
 4330SOL    HW124626   0.218   4.639   5.156  0.8507 -0.3148  3.2030
 4330SOL    HW224627   0.173   4.493   5.165 -2.6514  3.5328 -0.4723
 4331SOL     OW24628   2.161   1.480   1.920 -0.1038  0.2050 -0.8265
 4331SOL    HW124629   2.147   1.469   1.825  0.0543 -0.9191 -0.7199
 4331SOL    HW224630   2.232   1.542   1.933 -1.3789  1.2927  0.9752
 4332SOL     OW24631   4.595   2.009   8.940  0.1956  0.0934  0.5858
 4332SOL    HW124632   4.682   2.047   8.954 -0.5995  1.9739  0.4127
 4332SOL    HW224633   4.614   1.915   8.935  2.3788  0.5269  0.7628
 4333SOL     OW24634   4.297   3.796  12.266  0.0668 -0.2769  0.2916
 4333SOL    HW124635   4.346   3.876  12.246  0.6893 -0.8815 -0.6143
 4333SOL    HW224636   4.208   3.832  12.273 -0.0856 -1.0295  2.3349
 4334SOL     OW24637   1.497   3.393   6.219  0.6647  0.0359 -0.0596
 4334SOL    HW124638   1.587   3.384   6.248  0.8480  1.2355 -0.2689
 4334SOL    HW224639   1.502   3.347   6.135 -2.7489  0.7914 -0.6718
 4335SOL     OW24640   3.562   1.545   3.565  0.2895 -0.1893  0.2168
 4335SOL    HW124641   3.546   1.616   3.627  1.6647 -0.7846  1.2739
 4335SOL    HW224642   3.599   1.594   3.491  0.8198 -0.1635  0.4971
 4336SOL     OW24643   1.721   0.660   2.125  0.7750  0.1776 -0.0258
 4336SOL    HW124644   1.796   0.624   2.170  0.8658  0.7888  0.3133
 4336SOL    HW224645   1.749   0.644   2.035 -0.9388 -2.6315 -0.0497
 4337SOL     OW24646   4.009   2.479   0.747 -1.1293 -0.4827  0.2738
 4337SOL    HW124647   4.079   2.413   0.746 -0.8774 -0.2511  2.8001
 4337SOL    HW224648   4.022   2.511   0.657  1.6343 -3.2624 -0.3243
 4338SOL     OW24649   0.518   4.549   6.112  0.1892 -0.3924 -0.1497
 4338SOL    HW124650   0.480   4.547   6.025  1.6667 -0.4718 -0.7953
 4338SOL    HW224651   0.581   4.479   6.095 -0.8497 -1.5339  0.6664
 4339SOL     OW24652   2.152   1.489   2.374 -0.1268 -0.0348 -0.0969
 4339SOL    HW124653   2.164   1.552   2.445  1.1488  1.0417 -1.2606
 4339SOL    HW224654   2.057   1.478   2.371 -0.0553 -0.5010 -0.7621
 4340SOL     OW24655   4.717   2.867   6.790 -0.2842 -0.3054 -0.1562
 4340SOL    HW124656   4.644   2.929   6.788 -0.0994 -0.1115 -0.8372
 4340SOL    HW224657   4.674   2.789   6.826 -0.4766 -0.5811 -0.9938
 4341SOL     OW24658   0.672   3.892   6.336  1.0943  0.1930 -0.0240
 4341SOL    HW124659   0.582   3.867   6.316  2.1534 -2.5618 -1.3643
 4341SOL    HW224660   0.663   3.969   6.392  1.9857  1.3721 -1.4611
 4342SOL     OW24661   0.559   3.953   1.375  0.1986  0.5351 -0.0252
 4342SOL    HW124662   0.636   3.925   1.326 -0.2069 -0.6638  0.0213
 4342SOL    HW224663   0.498   3.886   1.346 -2.6823  3.7099 -1.3430
 4343SOL     OW24664   1.294   2.856  11.069  0.4487 -0.2210  1.0915
 4343SOL    HW124665   1.240   2.782  11.041  0.8870 -0.3406  0.5458
 4343SOL    HW224666   1.344   2.889  10.994  1.6223 -1.5439  1.2911
 4344SOL     OW24667   3.513   3.677  14.089  0.0109  0.1991 -0.2322
 4344SOL    HW124668   3.558   3.721  14.017 -1.3116  2.1074  0.1023
 4344SOL    HW224669   3.557   3.592  14.093 -1.7099 -0.8691 -3.9247
 4345SOL     OW24670   2.291   4.450   9.018  0.2646 -0.2715 -0.1220
 4345SOL    HW124671   2.368   4.503   8.998  1.8040 -2.0596  1.1162
 4345SOL    HW224672   2.239   4.464   8.938 -1.8563 -0.8801  1.1415
 4346SOL     OW24673   4.602   2.698   4.269 -0.0515  0.0569 -0.0953
 4346SOL    HW124674   4.546   2.664   4.200 -1.9310  0.8089  1.0439
 4346SOL    HW224675   4.587   2.640   4.344 -0.8477  2.5050  1.6499
 4347SOL     OW24676   3.918   0.463  10.320  0.3000 -0.0570  0.6526
 4347SOL    HW124677   3.853   0.517  10.363 -0.3709  0.3876 -0.9119
 4347SOL    HW224678   3.921   0.389  10.380 -0.7312 -0.9655 -0.4088
 4348SOL     OW24679   4.566   3.809  11.711 -0.8142  0.0213  0.0266
 4348SOL    HW124680   4.566   3.900  11.679 -1.4597  0.5267  1.4770
 4348SOL    HW224681   4.490   3.799  11.768  0.2709  0.5014  1.5536
 4349SOL     OW24682   0.699   3.783  14.370 -0.6087  0.3628 -0.0051
 4349SOL    HW124683   0.618   3.825  14.397 -0.8089  0.5900 -0.9573
 4349SOL    HW224684   0.750   3.851  14.327  1.4546 -1.6157 -0.7009
 4350SOL     OW24685   1.812   0.617   6.544  0.4021 -0.3031  0.5134
 4350SOL    HW124686   1.769   0.698   6.570  1.1997 -0.0049  0.9182
 4350SOL    HW224687   1.858   0.603   6.627 -1.0117  1.1529  1.5496
 4351SOL     OW24688   0.468   2.015   0.477  0.7252  0.5250 -0.1319
 4351SOL    HW124689   0.410   2.037   0.550 -0.5821  0.6790 -1.2154
 4351SOL    HW224690   0.413   1.939   0.455  2.9034 -0.4982 -1.9308
 4352SOL     OW24691   3.719   1.594  10.404 -0.3311  0.4235  0.2993
 4352SOL    HW124692   3.654   1.525  10.391 -0.8088  1.0891 -0.8973
 4352SOL    HW224693   3.754   1.581  10.316 -1.6631 -0.7495 -0.0635
 4353SOL     OW24694   0.713   1.280   8.474 -0.6742  0.2497 -0.2925
 4353SOL    HW124695   0.793   1.286   8.526  0.2221 -1.5813 -1.4550
 4353SOL    HW224696   0.715   1.192   8.436 -2.4381  0.8386 -1.7507
 4354SOL     OW24697   2.171   0.371   2.248 -0.2571 -0.3229  0.1593
 4354SOL    HW124698   2.147   0.401   2.336  1.1911 -1.0637  0.7980
 4354SOL    HW224699   2.224   0.450   2.235 -0.2102 -0.0004  2.3352
 4355SOL     OW24700   3.755   2.378   1.601 -0.5407 -0.4507  0.5787
 4355SOL    HW124701   3.814   2.411   1.669 -1.3903  1.6706  0.2691
 4355SOL    HW224702   3.669   2.370   1.641 -0.7015 -0.2192  0.2769
 4356SOL     OW24703   1.931   2.817   5.310  0.1999  0.2653 -0.3180
 4356SOL    HW124704   1.909   2.910   5.312 -0.4749  0.1188 -1.0536
 4356SOL    HW224705   1.905   2.808   5.402  0.1383 -3.3012 -0.6982
 4357SOL     OW24706   4.702   4.677   8.585  0.4136 -0.3403 -0.1426
 4357SOL    HW124707   0.050   4.633   8.593 -0.4764 -1.8175  1.0865
 4357SOL    HW224708   4.723   0.018   8.533 -1.8110  0.8377  0.6981
 4358SOL     OW24709   0.553   2.117   1.782  0.0112  0.3704 -0.5371
 4358SOL    HW124710   0.512   2.194   1.741 -0.1431  1.1097  1.0398
 4358SOL    HW224711   0.590   2.067   1.709 -0.4355 -1.1652  0.2863
 4359SOL     OW24712   2.186   3.267   9.469 -0.2107  0.5754 -0.1367
 4359SOL    HW124713   2.279   3.283   9.484  0.0030  0.5209 -1.4385
 4359SOL    HW224714   2.159   3.351   9.432  1.3059  1.2160  0.1928
 4360SOL     OW24715   2.885   3.863   7.856 -0.3910 -0.7002 -0.8990
 4360SOL    HW124716   2.840   3.855   7.940  0.1062  0.3241 -0.5302
 4360SOL    HW224717   2.911   3.771   7.851 -1.1909 -0.9615 -0.3623
 4361SOL     OW24718   2.529   0.744   4.175  0.0624  0.1477  0.5252
 4361SOL    HW124719   2.450   0.769   4.127 -0.6258  0.1909  1.6688
 4361SOL    HW224720   2.583   0.804   4.124 -2.1945  1.7748  0.0598
 4362SOL     OW24721   4.528   2.307   3.322 -0.5685 -0.5225 -0.0117
 4362SOL    HW124722   4.591   2.373   3.294  0.3987 -1.0452  0.9523
 4362SOL    HW224723   4.488   2.352   3.397 -0.3374  0.0704 -0.2456
 4363SOL     OW24724   2.296   0.260   0.454 -0.3090  0.3340  0.8191
 4363SOL    HW124725   2.365   0.277   0.518  1.0277 -0.5338 -0.4014
 4363SOL    HW224726   2.214   0.276   0.501  0.3097  0.7965  1.7351
 4364SOL     OW24727   4.682   0.308   8.223 -0.1929 -0.2204  0.3258
 4364SOL    HW124728   4.670   0.403   8.226  0.7129 -0.1025  0.1559
 4364SOL    HW224729   0.009   0.290   8.153 -0.8907  0.3739 -0.4600
 4365SOL     OW24730   3.889   1.825   5.506 -0.0212  0.0363  0.0133
 4365SOL    HW124731   3.929   1.870   5.581 -0.6171  2.1791 -0.9672
 4365SOL    HW224732   3.800   1.858   5.511  0.1495  0.7551 -1.8530
 4366SOL     OW24733   1.730   3.107  13.081  0.1434  0.3565 -0.2471
 4366SOL    HW124734   1.711   3.030  13.135 -2.5230  1.0451 -0.2176
 4366SOL    HW224735   1.822   3.087  13.064 -0.3995 -3.0215  0.7306
 4367SOL     OW24736   2.159   1.940   5.780  0.0158  1.0303 -0.2391
 4367SOL    HW124737   2.224   1.870   5.785 -0.5366  0.3480 -2.6653
 4367SOL    HW224738   2.092   1.886   5.740 -2.8422  3.3933  1.3327
 4368SOL     OW24739   3.815   0.461  15.679  0.3364 -0.3005 -0.2172
 4368SOL    HW124740   3.896   0.506  15.700  0.1553  0.0764 -0.3345
 4368SOL    HW224741   3.803   0.495  15.591 -1.1316  2.8201  1.1773
 4369SOL     OW24742   2.424   1.545   1.827  0.0356 -0.2052  0.0831
 4369SOL    HW124743   2.431   1.449   1.831  1.1272 -0.1149  0.2897
 4369SOL    HW224744   2.467   1.562   1.911 -0.1143 -0.7815  0.2727
 4370SOL     OW24745   3.645   2.068   8.673  0.4960 -0.3637  0.3224
 4370SOL    HW124746   3.558   2.058   8.712 -0.3630 -0.1922 -1.5646
 4370SOL    HW224747   3.638   2.136   8.606 -2.7759 -0.2599  0.7911
 4371SOL     OW24748   4.682   4.311  15.448  0.4661 -0.8125  0.2264
 4371SOL    HW124749   4.648   4.251  15.382  0.6795 -2.0456  1.2358
 4371SOL    HW224750   4.633   4.390  15.426  0.3798 -0.8589  0.2548
 4372SOL     OW24751   4.654   4.427   8.785  0.0102 -0.4759 -0.2566
 4372SOL    HW124752   4.673   4.521   8.782  0.3049 -0.4946  1.0309
 4372SOL    HW224753   0.005   4.391   8.773 -0.3974 -1.5595  0.0378
 4373SOL     OW24754   2.806   4.079   9.937 -0.1614  0.3883 -0.0178
 4373SOL    HW124755   2.860   4.113   9.865 -1.3793  2.5398  0.0891
 4373SOL    HW224756   2.766   4.161   9.966 -0.2488 -0.7261  3.0680
 4374SOL     OW24757   2.725   0.735   6.977 -0.4911 -0.0886  0.1417
 4374SOL    HW124758   2.737   0.780   6.893 -1.5723 -0.1623 -0.0515
 4374SOL    HW224759   2.692   0.650   6.949  0.9632 -0.5381 -0.2153
 4375SOL     OW24760   1.801   3.261  10.303  0.0824 -0.4885 -0.0708
 4375SOL    HW124761   1.788   3.300  10.216 -0.8865 -0.5800  0.0287
 4375SOL    HW224762   1.738   3.316  10.350  1.3925  2.5093 -1.8185
 4376SOL     OW24763   0.489   2.440  16.935 -0.5670  0.7143  0.0298
 4376SOL    HW124764   0.462   2.377  16.868 -2.3310  1.7985 -0.2717
 4376SOL    HW224765   0.558   2.489  16.891  1.2593 -2.0934 -0.1993
 4377SOL     OW24766   3.578   2.605  10.762 -0.3622 -0.6499  0.5726
 4377SOL    HW124767   3.659   2.635  10.802 -0.9549  2.1410 -0.3244
 4377SOL    HW224768   3.621   2.547  10.699 -2.0923 -1.0921 -0.2305
 4378SOL     OW24769   2.495   4.472   4.704  0.2299  0.2812  0.4163
 4378SOL    HW124770   2.541   4.476   4.620  0.8901  1.4517  0.8431
 4378SOL    HW224771   2.420   4.528   4.686  0.1028  0.0177  0.1058
 4379SOL     OW24772   3.382   0.898   3.677 -0.1532  1.0966  0.1598
 4379SOL    HW124773   3.423   0.815   3.699 -1.2219  0.5413  0.0444
 4379SOL    HW224774   3.300   0.870   3.635 -0.5538  1.1757  0.8953
 4380SOL     OW24775   2.597   3.552   2.514 -0.2663  0.5263  0.3231
 4380SOL    HW124776   2.649   3.565   2.434 -0.7630  0.0583 -0.0734
 4380SOL    HW224777   2.536   3.485   2.484  4.1447 -3.3186 -0.0867
 4381SOL     OW24778   1.600   1.536  17.402  0.2355  0.2125 -0.7643
 4381SOL    HW124779   1.688   1.557  17.369  0.8809  2.4177  2.3585
 4381SOL    HW224780   1.606   1.535  17.497 -3.8587  1.2786 -0.4954
 4382SOL     OW24781   0.250   3.199   4.577 -0.1465 -0.1307 -0.5523
 4382SOL    HW124782   0.327   3.245   4.610  0.3723 -1.1397 -0.3700
 4382SOL    HW224783   0.187   3.224   4.645  0.5962  2.6297 -0.8812
 4383SOL     OW24784   0.041   1.464   5.839 -0.0041  0.1277  0.8126
 4383SOL    HW124785   4.729   1.501   5.764 -1.2618 -1.7296  0.7123
 4383SOL    HW224786   0.107   1.533   5.844  1.0517 -0.7687 -0.7187
 4384SOL     OW24787   3.103   0.537   4.637 -0.3698 -0.3588  0.1815
 4384SOL    HW124788   3.101   0.544   4.542 -3.1581  2.1325  0.4267
 4384SOL    HW224789   3.196   0.532   4.655  0.0266  0.2886 -1.7143
 4385SOL     OW24790   2.111   4.072  17.537 -1.2557 -0.8308  0.2834
 4385SOL    HW124791   2.134   4.011  17.606 -1.9200  1.7428  2.7815
 4385SOL    HW224792   2.072   4.014  17.471 -1.8338 -1.2463  0.9901
 4386SOL     OW24793   0.027   1.801   5.600  0.1364 -0.0852  0.3961
 4386SOL    HW124794   0.094   1.835   5.658  0.4991 -0.7880  0.3959
 4386SOL    HW224795   0.015   1.873   5.538 -1.3602 -0.9902 -0.3854
 4387SOL     OW24796   1.503   4.269  11.400 -0.3042 -0.0034 -0.3500
 4387SOL    HW124797   1.470   4.285  11.488  1.6642  0.1747  0.3525
 4387SOL    HW224798   1.490   4.174  11.399  2.2901 -0.3433 -1.8337
 4388SOL     OW24799   3.914   3.038   4.154  0.2609  0.6086 -0.0620
 4388SOL    HW124800   3.998   2.997   4.134 -1.7887 -3.1135 -0.9627
 4388SOL    HW224801   3.939   3.118   4.201  0.3200  0.3506  0.3432
 4389SOL     OW24802   3.377   4.598   8.335  0.7615 -0.2793  0.0729
 4389SOL    HW124803   3.395   4.691   8.352 -2.3169  0.6175 -1.6465
 4389SOL    HW224804   3.458   4.566   8.294  1.0602 -0.7033  1.0048
 4390SOL     OW24805   1.731   0.754  14.816  0.1693 -0.2057 -0.0429
 4390SOL    HW124806   1.718   0.839  14.858  4.5598  1.8731 -2.9020
 4390SOL    HW224807   1.804   0.717  14.866  2.7047  1.2338 -2.6714
 4391SOL     OW24808   3.634   2.562   7.662 -0.2605  0.3536  0.0022
 4391SOL    HW124809   3.703   2.524   7.608 -0.9194  0.3322 -0.8395
 4391SOL    HW224810   3.597   2.625   7.600 -1.5033  0.3227  0.6957
 4392SOL     OW24811   1.601   3.750   7.922  0.3563  0.1495 -0.2233
 4392SOL    HW124812   1.563   3.696   7.852 -2.1009 -1.0681  2.0723
 4392SOL    HW224813   1.547   3.735   7.999 -2.1876 -0.2979 -2.0838
 4393SOL     OW24814   1.919   1.962   5.310 -0.1339  0.7396 -0.1863
 4393SOL    HW124815   1.943   1.956   5.217  0.9952  0.3406  0.1342
 4393SOL    HW224816   1.825   1.978   5.304 -0.5769 -2.1928 -1.1792
 4394SOL     OW24817   3.179   4.735  17.521 -0.5228 -0.6629  0.6301
 4394SOL    HW124818   3.194   4.712  17.429  1.4282  0.3133  0.7050
 4394SOL    HW224819   3.141   0.087  17.522  0.6451 -0.1380 -0.7956
 4395SOL     OW24820   0.809   3.646   7.154 -0.6514  0.0219  0.3426
 4395SOL    HW124821   0.862   3.665   7.232  0.4818 -0.6821 -0.2673
 4395SOL    HW224822   0.762   3.568   7.182 -0.4522  0.5115  2.0857
 4396SOL     OW24823   1.772   0.555   5.780 -0.2332 -0.0714  0.1945
 4396SOL    HW124824   1.855   0.601   5.770  0.1438 -0.6356  0.7647
 4396SOL    HW224825   1.798   0.466   5.758 -0.1932 -0.0838  0.2961
 4397SOL     OW24826   0.355   0.855  10.236 -0.1102  0.4532 -0.1065
 4397SOL    HW124827   0.402   0.868  10.319 -2.4425 -2.3694  1.6890
 4397SOL    HW224828   0.272   0.816  10.263 -1.3126  3.1402  0.0550
 4398SOL     OW24829   1.394   1.519   5.150 -0.1129 -0.1110 -0.0796
 4398SOL    HW124830   1.336   1.446   5.129  0.2208 -1.0182  2.1457
 4398SOL    HW224831   1.386   1.510   5.245 -1.0491 -0.9239 -0.2333
 4399SOL     OW24832   4.548   3.359  10.228  0.8436 -0.5247  0.0846
 4399SOL    HW124833   4.502   3.443  10.223 -0.3935 -1.2698 -0.8766
 4399SOL    HW224834   4.514   3.310  10.303 -1.3302 -0.2648 -0.7365
 4400SOL     OW24835   3.663   3.486   9.223 -0.1223 -0.3429 -0.6278
 4400SOL    HW124836   3.642   3.519   9.136 -1.7081 -0.6481 -0.3809
 4400SOL    HW224837   3.584   3.433   9.238 -0.1752 -0.1178 -0.0937
 4401SOL     OW24838   1.332   2.773   2.026  0.0339  0.4760  0.2842
 4401SOL    HW124839   1.368   2.847   2.074  1.3861  1.4423 -2.2023
 4401SOL    HW224840   1.242   2.798   2.045 -0.9870 -1.8160 -1.5302
 4402SOL     OW24841   1.205   1.877   9.008 -0.4310  0.4868 -0.0807
 4402SOL    HW124842   1.262   1.853   9.081  1.1467  3.3776 -0.3773
 4402SOL    HW224843   1.187   1.789   8.973  0.1290  0.3238  0.0396
 4403SOL     OW24844   4.575   4.692   7.711  0.5616  0.1223 -0.2551
 4403SOL    HW124845   4.584   4.597   7.711 -0.1773  0.0537 -0.6122
 4403SOL    HW224846   4.507   4.716   7.649 -0.1731 -1.1919  0.0564
 4404SOL     OW24847   3.306   0.339   8.221 -1.1427  0.0287 -0.1525
 4404SOL    HW124848   3.308   0.430   8.251 -2.1789  1.0678 -3.2884
 4404SOL    HW224849   3.312   0.354   8.127 -0.7339  0.7754 -0.0108
 4405SOL     OW24850   3.789   3.450   6.219  0.3387 -0.2160  0.3493
 4405SOL    HW124851   3.834   3.409   6.144 -1.6851 -0.8341 -0.5210
 4405SOL    HW224852   3.810   3.542   6.207 -0.9425  0.1986  1.2816
 4406SOL     OW24853   2.848   0.058   4.186 -0.1900  0.5069 -0.0113
 4406SOL    HW124854   2.880   0.029   4.101 -0.6510  0.4679 -0.1733
 4406SOL    HW224855   2.905   0.130   4.209  1.9092 -0.2468 -3.0329
 4407SOL     OW24856   0.703   0.784   7.702 -0.1135  0.0370 -0.1011
 4407SOL    HW124857   0.680   0.875   7.724  0.2857 -0.4782  2.4308
 4407SOL    HW224858   0.677   0.778   7.610 -2.8924  2.2245  0.5383
 4408SOL     OW24859   1.084   1.267   0.468 -0.2214  0.1874  0.1203
 4408SOL    HW124860   1.024   1.234   0.534  2.7740  0.6063  3.0515
 4408SOL    HW224861   1.051   1.357   0.464  0.9567  0.6754  1.4972
 4409SOL     OW24862   3.425   4.370  11.306  0.1990  0.6352  0.6061
 4409SOL    HW124863   3.380   4.285  11.310 -1.8865  1.8507  3.2944
 4409SOL    HW224864   3.482   4.367  11.383  0.2004  3.7839  0.7228
 4410SOL     OW24865   3.198   3.074   9.635  0.3743  0.6212 -0.1360
 4410SOL    HW124866   3.209   3.072   9.540  0.3226  0.8308 -0.1465
 4410SOL    HW224867   3.273   3.027   9.671 -0.2005 -2.2607 -2.7148
 4411SOL     OW24868   3.919   0.435  13.328  0.1353  0.1794 -0.1677
 4411SOL    HW124869   3.908   0.341  13.315 -1.7776  0.1891  1.2569
 4411SOL    HW224870   3.826   0.459  13.331  0.1515  0.0816  1.1495
 4412SOL     OW24871   2.112   1.430   9.303  0.1404  0.8093  0.4978
 4412SOL    HW124872   2.105   1.381   9.385 -1.8311  0.0130 -0.1470
 4412SOL    HW224873   2.032   1.482   9.293 -0.1998 -0.0946 -1.5189
 4413SOL     OW24874   2.648   1.755   2.827 -0.0386  0.1106 -0.4861
 4413SOL    HW124875   2.589   1.825   2.854  1.1861  0.5278  1.0920
 4413SOL    HW224876   2.667   1.775   2.735 -0.0700  0.5575 -0.3948
 4414SOL     OW24877   0.713   2.642   8.663  0.2725  0.2296  0.1558
 4414SOL    HW124878   0.762   2.721   8.640  3.2546 -1.7397 -0.2650
 4414SOL    HW224879   0.764   2.580   8.611  1.9161  1.3106  0.4934
 4415SOL     OW24880   4.427   2.759  11.967  0.2966 -0.6876 -0.1613
 4415SOL    HW124881   4.444   2.685  11.910 -2.1624 -0.0495 -1.7365
 4415SOL    HW224882   4.502   2.765  12.026  0.7299  0.0656 -0.7960
 4416SOL     OW24883   3.284   1.183   9.407 -0.1292  0.4851  0.3234
 4416SOL    HW124884   3.379   1.192   9.412 -0.3333  1.6606  1.7627
 4416SOL    HW224885   3.257   1.237   9.481  0.5829 -0.8792  1.5825
 4417SOL     OW24886   3.376   1.557   6.780  0.3525  0.0733  0.3601
 4417SOL    HW124887   3.380   1.463   6.765 -2.0487 -0.2334  1.5619
 4417SOL    HW224888   3.469   1.570   6.759 -0.1177  1.9548 -0.5687
 4418SOL     OW24889   3.935   0.312   8.814 -0.5111 -0.0588 -0.5661
 4418SOL    HW124890   4.029   0.317   8.803 -0.4523 -3.1840 -1.3436
 4418SOL    HW224891   3.920   0.274   8.901  1.4979 -0.5222 -0.4220
 4419SOL     OW24892   3.925   1.314   4.106 -0.1347 -0.3083  0.1138
 4419SOL    HW124893   3.944   1.233   4.153  1.9784  1.7799  2.8578
 4419SOL    HW224894   3.867   1.353   4.172  0.4933  1.4477 -0.3596
 4420SOL     OW24895   3.575   0.039   3.002 -0.1913  0.5271 -0.3897
 4420SOL    HW124896   3.619   0.091   2.934  1.6022 -3.2711 -2.0946
 4420SOL    HW224897   3.502   0.096   3.029  0.6608  2.7071 -2.6452
 4421SOL     OW24898   3.311   1.591   8.790 -0.3489  0.2005 -0.3349
 4421SOL    HW124899   3.322   1.632   8.704 -0.7955  0.7632 -0.1237
 4421SOL    HW224900   3.216   1.592   8.803 -0.2589  2.3902  0.2037
 4422SOL     OW24901   3.033   0.448   2.546 -0.3014  0.0857  0.5947
 4422SOL    HW124902   3.087   0.438   2.625  0.3973  0.2831  0.1486
 4422SOL    HW224903   2.995   0.360   2.548  2.2191 -1.0033  1.0108
 4423SOL     OW24904   1.979   3.606   8.286 -0.2305 -0.2674 -0.0618
 4423SOL    HW124905   1.939   3.550   8.219  0.0337 -1.1948  0.5699
 4423SOL    HW224906   2.045   3.549   8.324  0.8862  2.1106  1.5725
 4424SOL     OW24907   2.722   1.599   6.291 -0.4481 -0.0027  0.3737
 4424SOL    HW124908   2.699   1.692   6.303 -2.1724 -0.2986 -0.6363
 4424SOL    HW224909   2.635   1.579   6.258 -1.3503  0.6900  2.3075
 4425SOL     OW24910   2.411   4.245  16.260  0.6775 -0.1535 -0.1447
 4425SOL    HW124911   2.349   4.174  16.243 -0.0588  0.4027  0.2068
 4425SOL    HW224912   2.371   4.306  16.197  4.2602  2.4275  0.0869
 4426SOL     OW24913   4.596   3.305   5.134  0.3888 -0.2633 -0.4060
 4426SOL    HW124914   4.529   3.337   5.074 -0.0435 -0.7822 -0.1926
 4426SOL    HW224915   4.580   3.365   5.206  1.5787 -0.1689 -0.2145
 4427SOL     OW24916   4.590   2.938   1.416 -0.5085 -0.1269  0.0250
 4427SOL    HW124917   4.657   2.925   1.349  0.9420  1.9841  1.0615
 4427SOL    HW224918   4.532   3.000   1.374 -1.7935 -0.7008  0.9551
 4428SOL     OW24919   1.928   2.443   8.946 -0.3241  0.5507 -0.7738
 4428SOL    HW124920   1.984   2.489   9.008  1.7499 -1.7235 -0.9680
 4428SOL    HW224921   1.994   2.430   8.878 -0.6497 -3.2816 -0.3381
 4429SOL     OW24922   2.620   3.342   2.067 -0.6035 -0.1485 -0.9300
 4429SOL    HW124923   2.638   3.255   2.034  0.7973  0.2247 -1.1359
 4429SOL    HW224924   2.706   3.383   2.070 -0.4808 -0.5103  0.3561
 4430SOL     OW24925   2.168   2.886   8.956  0.6532  0.7363 -0.4925
 4430SOL    HW124926   2.168   2.850   9.045 -1.4282 -0.2894 -0.9195
 4430SOL    HW224927   2.074   2.874   8.943  0.2357  3.7452 -0.3046
 4431SOL     OW24928   4.722   4.014  14.704 -0.3301 -0.1855  0.2944
 4431SOL    HW124929   4.705   3.934  14.653 -2.1300  1.1684 -1.1913
 4431SOL    HW224930   0.000   3.973  14.790  1.7118  1.0070  0.5268
 4432SOL     OW24931   4.425   1.127  11.143  0.0222 -0.0173 -0.2261
 4432SOL    HW124932   4.360   1.188  11.108  0.5734 -0.5576 -2.2144
 4432SOL    HW224933   4.434   1.154  11.235 -0.0427 -0.3028 -0.1373
 4433SOL     OW24934   0.713   1.686   4.394 -0.3256  0.0786 -0.2412
 4433SOL    HW124935   0.654   1.759   4.375 -1.2145 -0.9247 -1.3055
 4433SOL    HW224936   0.661   1.645   4.463 -1.5471  1.4779 -0.3266
 4434SOL     OW24937   1.021   4.106  10.301 -0.4563  0.7547 -0.5623
 4434SOL    HW124938   0.951   4.044  10.323  0.6658 -0.1312  0.5958
 4434SOL    HW224939   1.020   4.166  10.376 -1.9489 -0.2898  0.2635
 4435SOL     OW24940   3.669   1.906  10.022 -0.4128 -0.3718 -0.6219
 4435SOL    HW124941   3.731   1.971  10.055 -0.3737  0.0457 -1.5042
 4435SOL    HW224942   3.612   1.963   9.970 -1.4872 -2.1407 -1.3987
 4436SOL     OW24943   3.328   1.622  14.778  0.0001  0.0909  0.4304
 4436SOL    HW124944   3.417   1.625  14.812  0.2498 -2.4995 -0.0494
 4436SOL    HW224945   3.278   1.606  14.858  0.5656 -1.5401  0.4444
 4437SOL     OW24946   4.346   0.826   1.652 -0.5571 -0.6649  0.5846
 4437SOL    HW124947   4.435   0.816   1.620 -0.6246 -0.2167  0.2544
 4437SOL    HW224948   4.351   0.831   1.747 -0.1914 -2.1000  0.6502
 4438SOL     OW24949   4.691   1.039   2.694 -0.0258  0.3126  0.8804
 4438SOL    HW124950   0.010   1.117   2.699 -3.0498  2.5725 -1.2237
 4438SOL    HW224951   0.012   0.971   2.731 -0.7769 -0.1137  1.2755
 4439SOL     OW24952   2.646   1.466  13.563  0.8830 -0.2799  0.1881
 4439SOL    HW124953   2.732   1.460  13.604  1.3703 -1.9702 -1.1162
 4439SOL    HW224954   2.620   1.551  13.600 -0.1848 -0.9668  1.0281
 4440SOL     OW24955   3.160   2.724   3.984 -0.2595 -0.1482  0.2283
 4440SOL    HW124956   3.180   2.675   4.063 -1.8731 -0.7132  0.2839
 4440SOL    HW224957   3.097   2.663   3.946 -1.8870  1.0367  1.0693
 4441SOL     OW24958   2.977   0.002   3.956 -0.6288 -0.1344  0.3488
 4441SOL    HW124959   2.935   0.026   3.873  0.7731 -0.7522 -0.5268
 4441SOL    HW224960   2.998   4.648   3.936 -1.7451 -0.3208  0.0425
 4442SOL     OW24961   2.358   1.515  13.777 -0.5796 -0.6879  0.5173
 4442SOL    HW124962   2.438   1.546  13.734 -1.0774 -1.9885 -1.3168
 4442SOL    HW224963   2.331   1.578  13.844 -3.3480 -1.0601 -0.2219
 4443SOL     OW24964   0.280   0.899   3.045 -0.3593  0.2080 -0.6388
 4443SOL    HW124965   0.250   0.969   3.103 -0.7587 -1.7657  1.5515
 4443SOL    HW224966   0.252   0.937   2.962  0.4997 -1.4420 -1.6881
 4444SOL     OW24967   1.848   3.805  10.934 -0.0797 -0.2572  0.2312
 4444SOL    HW124968   1.862   3.719  10.975 -0.0909  0.2267  1.2462
 4444SOL    HW224969   1.776   3.833  10.989  0.6763  1.0595  0.5447
 4445SOL     OW24970   3.148   2.833   1.494 -0.4205 -0.8034 -0.2861
 4445SOL    HW124971   3.061   2.799   1.513 -1.4109  1.7147 -0.2871
 4445SOL    HW224972   3.192   2.818   1.578 -1.0600 -2.3702 -0.2405
 4446SOL     OW24973   3.175   1.723   5.192  0.3307 -0.1101 -0.3918
 4446SOL    HW124974   3.081   1.710   5.202  0.5815 -1.1051  0.7446
 4446SOL    HW224975   3.187   1.814   5.167  1.2085  0.3136  1.5758
 4447SOL     OW24976   2.280   1.762  14.852 -0.2482 -0.2207  0.1006
 4447SOL    HW124977   2.354   1.715  14.892  0.0180  1.4260  1.5216
 4447SOL    HW224978   2.235   1.801  14.927  1.9415 -0.3618  1.4818
 4448SOL     OW24979   0.995   4.286   7.334  0.2701 -0.5844  0.6979
 4448SOL    HW124980   0.995   4.190   7.336 -1.7831 -0.4961  3.3894
 4448SOL    HW224981   1.071   4.300   7.278 -0.0536  0.0064  0.4055
 4449SOL     OW24982   1.272   3.091   0.826  0.5494 -0.1811 -0.0091
 4449SOL    HW124983   1.225   3.026   0.878 -0.6415  1.0426  0.4202
 4449SOL    HW224984   1.229   3.172   0.853  0.3635  0.7028 -2.9510
 4450SOL     OW24985   0.129   0.537   3.613  0.0071  0.6571  0.6844
 4450SOL    HW124986   0.085   0.572   3.535  0.4722 -2.8957 -1.1819
 4450SOL    HW224987   0.054   0.499   3.659 -1.3222  0.9468 -1.2218
 4451SOL     OW24988   1.743   2.469   5.509 -0.1389 -0.4544 -0.0682
 4451SOL    HW124989   1.767   2.512   5.591 -1.6699  0.3853 -0.0608
 4451SOL    HW224990   1.663   2.427   5.540 -0.6181  0.5549  0.0904
 4452SOL     OW24991   1.740   1.674   2.462  0.1411 -0.7539 -0.1170
 4452SOL    HW124992   1.650   1.705   2.474 -0.4252 -2.0381 -0.9654
 4452SOL    HW224993   1.742   1.578   2.468 -1.4812 -0.6133  2.3469
 4453SOL     OW24994   1.105   1.132   6.689 -0.2414  0.1779 -0.1078
 4453SOL    HW124995   1.139   1.053   6.729 -0.0626  0.9966  1.3765
 4453SOL    HW224996   1.171   1.199   6.708  0.7954 -0.6277 -0.9256
 4454SOL     OW24997   2.408   3.377   2.426  0.0544  0.3792  0.0426
 4454SOL    HW124998   2.412   3.295   2.377  0.7012  0.4640 -0.0447
 4454SOL    HW224999   2.336   3.422   2.382  0.1176  2.2383  1.8029
 4455SOL     OW25000   2.890   4.484   7.538  0.0189  0.0460 -0.4843
 4455SOL    HW125001   2.939   4.404   7.553 -1.9262 -1.4307 -2.0690
 4455SOL    HW225002   2.808   4.440   7.517  0.4235 -0.8570 -0.1481
 4456SOL     OW25003   1.967   3.035   2.496  0.0204  0.7575 -0.2772
 4456SOL    HW125004   1.902   3.096   2.462 -0.1520  0.1984 -0.9512
 4456SOL    HW225005   2.031   3.094   2.535  1.1362 -0.3882 -0.3713
 4457SOL     OW25006   2.534   1.137   8.894  0.3908  0.7331  0.4297
 4457SOL    HW125007   2.615   1.092   8.918 -1.3229 -1.4766  2.0969
 4457SOL    HW225008   2.497   1.065   8.842  1.7112 -0.3063  0.9229
 4458SOL     OW25009   3.796   1.135   7.732 -0.0355 -0.1755 -0.1463
 4458SOL    HW125010   3.814   1.083   7.811 -0.5401  0.3599  0.3199
 4458SOL    HW225011   3.700   1.136   7.727 -0.0143  0.9368 -0.2606
 4459SOL     OW25012   2.468   0.709  12.313 -0.5885  0.5527  0.0812
 4459SOL    HW125013   2.492   0.739  12.226  1.0446 -3.8176 -0.9764
 4459SOL    HW225014   2.377   0.681  12.305  0.1561 -0.8030 -3.5234
 4460SOL     OW25015   0.344   4.467   4.721 -0.1181 -0.2203  0.8294
 4460SOL    HW125016   0.376   4.377   4.721 -0.5031 -0.3610 -2.0920
 4460SOL    HW225017   0.398   4.500   4.649 -0.3201 -2.6027 -0.3976
 4461SOL     OW25018   1.176   2.082   3.676  0.1141 -0.8813 -0.5227
 4461SOL    HW125019   1.245   2.056   3.737 -0.2236  1.7915  1.0249
 4461SOL    HW225020   1.179   2.177   3.688 -1.1292 -0.9432  0.2149
 4462SOL     OW25021   0.765   2.560  15.374 -0.4810  0.7387  0.1516
 4462SOL    HW125022   0.793   2.619  15.445  1.9744  0.0713 -0.2462
 4462SOL    HW225023   0.840   2.565  15.316 -1.5259 -1.0411 -1.3412
 4463SOL     OW25024   3.775   2.140   3.970 -0.1551  0.2742  0.4893
 4463SOL    HW125025   3.713   2.166   3.902 -0.0577  2.3349  1.1991
 4463SOL    HW225026   3.845   2.095   3.921 -1.7975 -0.0819 -1.5281
 4464SOL     OW25027   4.504   0.846   5.244  0.1022 -0.0597 -0.1043
 4464SOL    HW125028   4.529   0.878   5.331 -1.8018 -0.1901  0.4904
 4464SOL    HW225029   4.506   0.927   5.194  2.5552 -0.4735 -0.6746
 4465SOL     OW25030   0.313   3.731   3.258  0.4001  0.7792  0.1182
 4465SOL    HW125031   0.268   3.659   3.303 -0.0481  1.8122  1.3428
 4465SOL    HW225032   0.299   3.704   3.168 -1.1677  0.2367  0.5151
 4466SOL     OW25033   1.286   3.593  17.381  0.0423 -0.4649 -0.4248
 4466SOL    HW125034   1.338   3.575  17.303 -1.8928 -4.4809 -0.8094
 4466SOL    HW225035   1.307   3.513  17.430 -2.6863 -0.0963  1.3460
 4467SOL     OW25036   1.224   3.060  11.222  0.1348 -0.3303 -0.1421
 4467SOL    HW125037   1.252   2.983  11.173  2.3383 -0.0304  0.6428
 4467SOL    HW225038   1.203   3.122  11.152 -0.2943 -0.4740 -0.1424
 4468SOL     OW25039   3.325   1.360   9.136  0.0170 -0.1776  0.0707
 4468SOL    HW125040   3.341   1.356   9.230 -0.9867 -0.0820  0.2416
 4468SOL    HW225041   3.289   1.446   9.118 -1.6174 -0.5594  1.5144
 4469SOL     OW25042   3.841   4.027   7.259 -0.1630 -0.1326  0.2012
 4469SOL    HW125043   3.788   3.948   7.253 -0.1144 -0.1953  0.5898
 4469SOL    HW225044   3.778   4.096   7.281 -0.6189 -0.3131 -0.5241
 4470SOL     OW25045   4.297   0.643   2.888 -0.8410 -0.1314  1.1137
 4470SOL    HW125046   4.369   0.642   2.950  1.0668 -1.0648 -1.1352
 4470SOL    HW225047   4.263   0.730   2.909  0.2906  1.1650 -2.3652
 4471SOL     OW25048   1.938   1.722   2.803 -0.3290 -0.5940 -0.0238
 4471SOL    HW125049   1.897   1.638   2.825 -2.1917  0.8245  1.8714
 4471SOL    HW225050   1.931   1.719   2.707  2.1319  0.1803 -0.2072
 4472SOL     OW25051   2.455   0.050   1.886  0.0999  0.5012  0.0128
 4472SOL    HW125052   2.513   0.123   1.862  0.5398 -0.4579 -1.8892
 4472SOL    HW225053   2.380   0.106   1.906 -0.2001 -0.4179  1.4684
 4473SOL     OW25054   4.179   3.751   7.649 -0.7089  0.6080 -0.0997
 4473SOL    HW125055   4.163   3.673   7.703 -0.1672  3.2802  3.8749
 4473SOL    HW225056   4.111   3.733   7.585 -2.2008  2.2085  1.0483
 4474SOL     OW25057   2.094   1.390   8.412  0.0357  0.0129 -0.2830
 4474SOL    HW125058   2.006   1.406   8.447  0.2468  1.3942 -0.3831
 4474SOL    HW225059   2.126   1.477   8.435  0.7987 -1.0593  2.6789
 4475SOL     OW25060   3.786   4.200   6.665  0.2731  0.0487  0.5018
 4475SOL    HW125061   3.828   4.279   6.630 -0.0711 -0.2807 -0.6538
 4475SOL    HW225062   3.735   4.231   6.739  0.1734 -0.2136  0.5435
 4476SOL     OW25063   3.543   2.481  14.386 -1.1713  0.4485 -0.5183
 4476SOL    HW125064   3.524   2.492  14.293 -0.5617  1.2448 -0.5515
 4476SOL    HW225065   3.634   2.508  14.377 -0.4944 -1.3638  0.9204
 4477SOL     OW25066   1.279   4.480   1.500 -0.1196 -0.1281 -0.0371
 4477SOL    HW125067   1.355   4.523   1.461 -0.2077 -1.0582 -1.2274
 4477SOL    HW225068   1.259   4.415   1.432 -0.8843 -0.9959  1.0188
 4478SOL     OW25069   1.497   0.947   3.801  0.1045  0.8993  0.2273
 4478SOL    HW125070   1.578   0.998   3.789  1.6397 -2.2212 -2.7430
 4478SOL    HW225071   1.436   0.995   3.745 -1.1628 -1.1176 -0.1153
 4479SOL     OW25072   1.015   3.097  12.109  0.2107 -0.9014 -0.4197
 4479SOL    HW125073   1.017   3.013  12.064 -0.0495 -0.0734 -1.9629
 4479SOL    HW225074   1.091   3.144  12.075  0.4855 -0.5078  0.7279
 4480SOL     OW25075   4.577   0.263   0.608 -0.1921  0.2874  0.3116
 4480SOL    HW125076   4.660   0.277   0.562 -1.1621  0.6723 -1.3257
 4480SOL    HW225077   4.562   0.171   0.587 -0.6720 -0.1389  2.5452
 4481SOL     OW25078   0.433   3.487   2.544  0.0178  0.0420 -0.3018
 4481SOL    HW125079   0.484   3.565   2.566 -0.3099 -0.4905  2.3342
 4481SOL    HW225080   0.429   3.491   2.449 -1.0433 -1.9207 -0.3404
 4482SOL     OW25081   2.002   0.892   9.169 -0.2405  0.2777 -0.1096
 4482SOL    HW125082   2.031   0.823   9.229  2.3482  1.9731  0.5775
 4482SOL    HW225083   2.048   0.963   9.213 -1.8801 -0.0079  2.1367
 4483SOL     OW25084   4.194   3.564  12.117  0.7494  0.1704 -0.9439
 4483SOL    HW125085   4.230   3.619  12.186  0.5978 -0.3883 -0.4199
 4483SOL    HW225086   4.171   3.482  12.160 -1.7988  1.7539  0.7516
 4484SOL     OW25087   4.477   1.264   5.991 -0.2640 -0.0875 -0.1102
 4484SOL    HW125088   4.487   1.179   5.949 -1.6157 -0.0821 -0.4535
 4484SOL    HW225089   4.458   1.324   5.918 -2.6792 -0.4362  0.2383
 4485SOL     OW25090   4.103   4.670   9.974 -0.3613 -0.7614 -0.0473
 4485SOL    HW125091   4.027   4.667  10.032 -0.6819  0.9913 -0.3618
 4485SOL    HW225092   4.076   4.639   9.887  1.1889 -2.9783  0.2567
 4486SOL     OW25093   1.616   2.917   6.122  0.2099  0.6572  0.6976
 4486SOL    HW125094   1.563   2.902   6.200  1.8294 -3.5065  1.0320
 4486SOL    HW225095   1.690   2.965   6.158 -0.2670  3.0045 -1.5053
 4487SOL     OW25096   1.264   3.614   3.009 -0.0807 -0.0572  0.2650
 4487SOL    HW125097   1.348   3.632   3.051 -1.4744  1.3623  2.4467
 4487SOL    HW225098   1.288   3.636   2.919  1.0694 -0.8926  0.3652
 4488SOL     OW25099   2.858   0.930   6.769  0.6423  0.2467  0.0621
 4488SOL    HW125100   2.928   0.896   6.824 -0.0998  0.2115  1.0004
 4488SOL    HW225101   2.865   0.857   6.708 -0.2496 -0.6441  1.0258
 4489SOL     OW25102   4.018   0.376   6.326  0.1877 -0.0146  0.0716
 4489SOL    HW125103   3.988   0.416   6.245  1.0076  2.6347  1.0907
 4489SOL    HW225104   3.934   0.367   6.371  0.6055  0.1570  0.8817
 4490SOL     OW25105   1.716   1.373   9.009 -0.7293 -0.3088 -0.1652
 4490SOL    HW125106   1.781   1.348   8.943  0.5964 -0.6109  1.2492
 4490SOL    HW225107   1.737   1.314   9.081  1.7453  0.7741 -0.0053
 4491SOL     OW25108   3.811   0.119  16.421  0.2806  0.4152  0.0267
 4491SOL    HW125109   3.863   0.039  16.435 -1.2262 -0.3892  1.0941
 4491SOL    HW225110   3.843   0.153  16.337  0.0972 -0.3628 -0.3663
 4492SOL     OW25111   2.527   3.371  14.283  0.8167  0.2483  0.3981
 4492SOL    HW125112   2.604   3.428  14.277  1.4804 -0.5180  1.7928
 4492SOL    HW225113   2.472   3.418  14.220 -1.1577 -2.9008 -0.2086
 4493SOL     OW25114   4.652   4.679   7.282 -0.1652 -0.4784  0.0720
 4493SOL    HW125115   4.736   4.691   7.237  0.6472 -0.2897  1.6066
 4493SOL    HW225116   4.659   0.007   7.353  0.4600 -1.8309  1.2411
 4494SOL     OW25117   2.293   0.717   8.600 -0.2480  0.9580  0.1145
 4494SOL    HW125118   2.300   0.766   8.519  0.1457 -0.3891 -0.6756
 4494SOL    HW225119   2.201   0.710   8.622 -0.2160 -2.1086 -0.6834
 4495SOL     OW25120   2.873   0.791   4.278 -0.4680 -0.4002 -0.0103
 4495SOL    HW125121   2.803   0.767   4.339  1.6486  0.2322  2.6951
 4495SOL    HW225122   2.947   0.808   4.337 -0.3562 -1.2709  0.0985
 4496SOL     OW25123   3.492   1.589   4.744 -0.0074 -0.2320 -0.1279
 4496SOL    HW125124   3.429   1.646   4.789  0.1163  0.1260 -0.4056
 4496SOL    HW225125   3.570   1.630   4.780 -0.6776 -1.1013  2.3467
 4497SOL     OW25126   3.069   3.001   3.745 -0.0837  0.0499  0.4163
 4497SOL    HW125127   3.017   3.031   3.819  0.6125  0.7150  0.6392
 4497SOL    HW225128   3.149   3.054   3.749  0.9015 -1.5031  1.2035
 4498SOL     OW25129   2.508   4.387  15.138 -0.5537 -0.4077  0.1425
 4498SOL    HW125130   2.446   4.451  15.175  0.8331  1.4385 -0.7061
 4498SOL    HW225131   2.453   4.321  15.097 -0.1217 -0.5301 -0.2441
 4499SOL     OW25132   3.256   3.370   4.269 -0.2585  0.4000 -0.1564
 4499SOL    HW125133   3.280   3.459   4.247  1.2800 -0.0863 -0.4443
 4499SOL    HW225134   3.307   3.327   4.200  1.0824  1.2334  0.3257
 4500SOL     OW25135   4.406   4.609   9.518 -0.1366  0.3106 -0.0245
 4500SOL    HW125136   4.493   4.648   9.523  0.9628 -2.0809 -0.3896
 4500SOL    HW225137   4.356   4.638   9.595 -2.2505 -3.3876 -0.0003
 4501SOL     OW25138   1.223   0.694   2.685 -0.4845 -0.1556  0.6145
 4501SOL    HW125139   1.280   0.617   2.686 -2.7993 -1.8542  3.4869
 4501SOL    HW225140   1.283   0.765   2.709 -0.4690  0.2846 -0.7257
 4502SOL     OW25141   3.130   0.523  14.535  0.5696  0.2479  0.0556
 4502SOL    HW125142   3.057   0.462  14.523  0.3190  0.4757  0.4335
 4502SOL    HW225143   3.091   0.610  14.537 -0.4075 -0.1754 -0.4353
 4503SOL     OW25144   4.237   0.744   8.125 -0.7346 -0.2226 -0.7425
 4503SOL    HW125145   4.245   0.666   8.070 -0.6097 -0.6346 -0.1414
 4503SOL    HW225146   4.195   0.713   8.206 -1.5824  1.6726 -0.4586
 4504SOL     OW25147   1.751   2.389   7.788  0.4030 -0.1308  0.2822
 4504SOL    HW125148   1.817   2.330   7.826  1.3185 -0.0078 -1.1242
 4504SOL    HW225149   1.797   2.473   7.786 -0.4045  0.3133  0.3981
 4505SOL     OW25150   3.961   2.610  14.737 -0.0436 -0.0857 -0.2180
 4505SOL    HW125151   3.972   2.705  14.739 -1.7003  0.1167 -1.0270
 4505SOL    HW225152   4.037   2.588  14.791 -2.4828 -1.9775  2.4435
 4506SOL     OW25153   2.680   0.858   5.276 -0.2639 -0.4075  0.1199
 4506SOL    HW125154   2.733   0.918   5.329  0.2143 -0.3007 -0.4759
 4506SOL    HW225155   2.721   0.775   5.300 -0.2277 -0.0602  1.2609
 4507SOL     OW25156   0.865   4.123  12.000  0.3754  0.1343  0.6123
 4507SOL    HW125157   0.789   4.138  12.056 -0.5536 -0.1334 -0.5920
 4507SOL    HW225158   0.909   4.208  11.999  0.8241 -0.0588  3.1503
 4508SOL     OW25159   3.654   3.102   7.270  0.4780 -0.3676 -0.5244
 4508SOL    HW125160   3.650   3.113   7.365 -3.1394  0.4015 -0.7860
 4508SOL    HW225161   3.627   3.180   7.222  0.1159 -0.3963 -0.3635
 4509SOL     OW25162   3.704   3.051   1.284  0.0607  0.1009  0.2209
 4509SOL    HW125163   3.749   3.073   1.203  1.5443  1.2391  1.3671
 4509SOL    HW225164   3.611   3.066   1.268 -0.0126  0.1099  0.6614
 4510SOL     OW25165   4.521   2.895   7.071 -0.5662  0.5204 -0.1359
 4510SOL    HW125166   4.553   2.961   7.132  0.7789  0.0703 -0.3624
 4510SOL    HW225167   4.523   2.952   6.993  0.4952 -0.8016 -1.0746
 4511SOL     OW25168   2.951   2.716  17.124 -0.5329 -0.7143  0.4198
 4511SOL    HW125169   3.021   2.777  17.146 -1.6211 -0.0060  1.9494
 4511SOL    HW225170   2.879   2.750  17.178  1.2806  3.5412  0.1974
 4512SOL     OW25171   1.118   3.770   7.587  0.1765  0.0587 -0.2588
 4512SOL    HW125172   1.202   3.810   7.612  0.3364  0.3560 -1.2820
 4512SOL    HW225173   1.074   3.771   7.672  1.2122  1.4472  0.2688
 4513SOL     OW25174   3.295   3.478  13.403  0.7759 -0.1079 -0.3907
 4513SOL    HW125175   3.230   3.525  13.455 -1.0373 -3.0141 -0.0576
 4513SOL    HW225176   3.335   3.422  13.469  3.3381 -0.3174 -2.1250
 4514SOL     OW25177   2.332   1.187   3.957 -0.2591 -0.0304 -0.1109
 4514SOL    HW125178   2.411   1.139   3.982 -0.4860 -1.3255 -1.8723
 4514SOL    HW225179   2.269   1.163   4.026  0.5553 -0.5824  0.4407
 4515SOL     OW25180   2.358   2.161   9.358 -0.3929  0.1476  0.1457
 4515SOL    HW125181   2.315   2.212   9.427  0.1850  1.2435 -0.3000
 4515SOL    HW225182   2.404   2.227   9.308 -1.3832  1.8575  1.4844
 4516SOL     OW25183   0.895   4.314   7.589 -0.2112 -1.1302 -0.0607
 4516SOL    HW125184   0.945   4.269   7.520  0.0544  0.0756 -0.6531
 4516SOL    HW225185   0.917   4.254   7.660  3.3015  0.1007 -0.1160
 4517SOL     OW25186   4.711   1.020   9.612  0.1589  0.2143 -0.0307
 4517SOL    HW125187   4.659   0.983   9.541  1.8520 -1.3186 -0.4628
 4517SOL    HW225188   4.644   1.067   9.663  0.5763 -0.6986  1.3642
 4518SOL     OW25189   4.294   1.074   5.759 -0.2871  0.2144  0.3083
 4518SOL    HW125190   4.199   1.070   5.748 -0.1584 -1.6849 -0.0630
 4518SOL    HW225191   4.295   1.164   5.792  2.4128 -0.1333  1.2480
 4519SOL     OW25192   1.202   2.716   8.475 -0.1658  0.2068  0.6027
 4519SOL    HW125193   1.235   2.714   8.565 -0.7016 -0.0220  0.7907
 4519SOL    HW225194   1.197   2.622   8.460 -0.0612  0.1310  1.0359
 4520SOL     OW25195   4.660   3.089  16.212  0.1087 -0.7654  0.3918
 4520SOL    HW125196   4.635   3.007  16.254 -0.9662  0.2107  1.6708
 4520SOL    HW225197   4.584   3.145  16.228  1.2667  0.5796  1.2199
 4521SOL     OW25198   0.491   3.116  13.287  0.2680  0.1464  0.1616
 4521SOL    HW125199   0.424   3.177  13.316 -0.5546 -0.6850 -0.0075
 4521SOL    HW225200   0.467   3.113  13.194 -1.5086 -0.3012  0.6433
 4522SOL     OW25201   4.574   0.029   1.581  0.0661 -0.3642 -0.5829
 4522SOL    HW125202   4.548   0.117   1.554  2.1228  0.6681  0.7679
 4522SOL    HW225203   4.585   0.041   1.675 -1.6846  2.2496 -0.7155
 4523SOL     OW25204   4.561   2.330   5.083  0.2177 -0.0855  0.3904
 4523SOL    HW125205   4.629   2.297   5.142 -0.0466 -0.0336  0.7209
 4523SOL    HW225206   4.522   2.244   5.068  0.6274  0.3477 -3.0927
 4524SOL     OW25207   4.591   3.462   4.507 -0.0956 -0.4152 -0.1370
 4524SOL    HW125208   4.572   3.468   4.600 -1.9782 -0.0039 -0.5421
 4524SOL    HW225209   4.551   3.547   4.486  0.1247  0.1709  1.8352
 4525SOL     OW25210   1.292   1.759   0.913 -0.3118 -0.1229  0.6888
 4525SOL    HW125211   1.335   1.829   0.864 -3.0381  0.8135 -0.3690
 4525SOL    HW225212   1.205   1.772   0.876  0.7854  1.2072 -1.3541
 4526SOL     OW25213   3.378   4.573  14.903 -0.5887  0.1162  0.0389
 4526SOL    HW125214   3.362   4.614  14.818 -1.3545  0.1851  0.2178
 4526SOL    HW225215   3.333   4.637  14.959  0.5738  0.7048  0.3112
 4527SOL     OW25216   4.526   3.516   4.782 -0.1526  0.1656 -0.0860
 4527SOL    HW125217   4.509   3.451   4.849 -0.0335 -0.0779 -0.2950
 4527SOL    HW225218   4.578   3.579   4.832  0.9110 -2.4812  2.1297
 4528SOL     OW25219   4.370   3.915   8.286  0.0704  0.2207 -0.8258
 4528SOL    HW125220   4.402   3.856   8.217 -0.1936  1.5915 -2.1257
 4528SOL    HW225221   4.391   3.999   8.244  1.1008 -0.1133 -0.9805
 4529SOL     OW25222   4.104   1.922  17.508 -0.6961 -0.5384 -0.1912
 4529SOL    HW125223   4.018   1.890  17.481  0.3639 -3.0164 -0.7032
 4529SOL    HW225224   4.120   2.000  17.455  1.3083  0.2629  1.5948
 4530SOL     OW25225   2.474   4.304  14.753  0.0154 -0.1168 -0.4065
 4530SOL    HW125226   2.509   4.392  14.767 -0.0554 -0.0034 -0.9325
 4530SOL    HW225227   2.451   4.316  14.661 -3.7587 -1.2941  0.3712
 4531SOL     OW25228   2.417   4.506   7.522  0.2305  0.1609 -0.0971
 4531SOL    HW125229   2.369   4.475   7.599 -1.4568  0.4866 -1.0297
 4531SOL    HW225230   2.367   4.466   7.451 -2.1007  1.9775  0.5072
 4532SOL     OW25231   4.341   0.792   4.474 -0.3029  0.0049  0.2699
 4532SOL    HW125232   4.349   0.758   4.385 -0.4489  2.0915 -0.5271
 4532SOL    HW225233   4.382   0.722   4.526  1.6528  1.0904  0.2021
 4533SOL     OW25234   0.688   2.827   6.357 -0.3923  0.5161  0.1902
 4533SOL    HW125235   0.698   2.901   6.297 -1.8865  0.5244 -0.0349
 4533SOL    HW225236   0.728   2.767   6.294 -0.5210  0.0473  0.5552
 4534SOL     OW25237   3.951   3.440  17.218 -0.1093 -0.2486  0.5444
 4534SOL    HW125238   3.897   3.439  17.138  0.4743  2.1370  0.1223
 4534SOL    HW225239   3.899   3.505  17.265 -0.3701 -0.8206  1.0357
 4535SOL     OW25240   0.856   2.447   8.506  0.3971 -0.0659  0.3973
 4535SOL    HW125241   0.936   2.398   8.524  0.5962 -0.7973 -2.4293
 4535SOL    HW225242   0.790   2.378   8.504  0.7213 -0.3748  0.4090
 4536SOL     OW25243   3.810   1.368   2.945 -0.0815  0.4087  0.4631
 4536SOL    HW125244   3.752   1.365   3.020  1.3539 -2.6603  1.4286
 4536SOL    HW225245   3.890   1.328   2.979 -0.5698  0.0942  1.2305
 4537SOL     OW25246   3.297   4.218  10.448 -0.6255 -0.4828  0.0498
 4537SOL    HW125247   3.275   4.311  10.443 -0.0587 -0.4094 -0.9619
 4537SOL    HW225248   3.313   4.210  10.542  0.5829  0.8546 -0.0471
 4538SOL     OW25249   2.239   0.575   8.106  0.1030 -0.1161  1.0623
 4538SOL    HW125250   2.222   0.531   8.022 -0.8096  2.8410 -0.3007
 4538SOL    HW225251   2.157   0.624   8.107  0.3486  0.3478 -1.6205
 4539SOL     OW25252   2.979   2.471   2.519 -0.4174 -0.8686  0.3514
 4539SOL    HW125253   2.919   2.401   2.494  0.1869 -0.9076 -0.9624
 4539SOL    HW225254   3.056   2.421   2.544  0.4803  2.1390  3.6026
 4540SOL     OW25255   4.635   4.311   5.399 -0.6091  0.2834  0.0276
 4540SOL    HW125256   4.618   4.365   5.321 -1.4411  1.8870  1.3146
 4540SOL    HW225257   4.552   4.268   5.417 -0.4300 -0.3640 -0.6948
 4541SOL     OW25258   4.049   3.418  11.910 -0.1041 -0.1481  0.6692
 4541SOL    HW125259   4.113   3.427  11.839 -0.9536  1.7174  0.1398
 4541SOL    HW225260   4.095   3.452  11.986  0.6351  0.4983 -0.0656
 4542SOL     OW25261   0.500   1.357   5.440 -0.0140 -0.3389 -0.1569
 4542SOL    HW125262   0.579   1.377   5.389 -0.6458 -1.0889 -1.4229
 4542SOL    HW225263   0.489   1.264   5.424  0.1222 -0.5556  1.0085
 4543SOL     OW25264   0.252   1.955   0.180  0.1149  0.0034  0.3041
 4543SOL    HW125265   0.194   2.002   0.240  0.1852  0.9764 -0.3876
 4543SOL    HW225266   0.286   2.023   0.122  0.1133  1.4717  2.0007
 4544SOL     OW25267   0.303   3.538   4.517 -0.3886  0.4642  0.2134
 4544SOL    HW125268   0.226   3.496   4.555 -1.8185  1.1310 -1.9434
 4544SOL    HW225269   0.374   3.484   4.550  0.7664  0.4961 -2.1640
 4545SOL     OW25270   0.425   2.306   0.643  0.7779  0.7573  0.4955
 4545SOL    HW125271   0.438   2.324   0.550  1.7906  0.0274  0.4918
 4545SOL    HW225272   0.425   2.210   0.645 -0.7613  0.7517 -0.0723
 4546SOL     OW25273   4.299   2.007   2.919  0.0423  0.5128  0.1714
 4546SOL    HW125274   4.382   2.054   2.913  0.5937 -0.5774 -0.7540
 4546SOL    HW225275   4.277   2.015   2.826  2.2851  1.1429 -0.2998
 4547SOL     OW25276   3.527   2.416  11.516  0.2460  0.4076 -0.1562
 4547SOL    HW125277   3.510   2.507  11.542 -1.8775  0.5404 -2.0374
 4547SOL    HW225278   3.588   2.422  11.443 -2.2325 -2.0202 -2.4164
 4548SOL     OW25279   3.888   4.498   8.152 -0.7338  0.4271 -0.1984
 4548SOL    HW125280   3.956   4.530   8.212  0.1881 -0.8720 -0.5718
 4548SOL    HW225281   3.929   4.417   8.124  0.7339  0.9048  0.5929
 4549SOL     OW25282   1.244   1.204   5.499 -0.0915  0.1443 -0.5619
 4549SOL    HW125283   1.179   1.165   5.556  0.8008  1.1003  1.1100
 4549SOL    HW225284   1.310   1.249   5.551  0.3898 -0.5432 -0.5797
 4550SOL     OW25285   2.357   4.017   1.413  0.1356 -0.0141 -0.4907
 4550SOL    HW125286   2.440   4.062   1.430  0.1318 -0.7386  1.3948
 4550SOL    HW225287   2.289   4.070   1.455 -0.7433 -2.0901  0.6970
 4551SOL     OW25288   0.838   3.979   9.877 -0.3358  0.4620 -0.7240
 4551SOL    HW125289   0.753   3.960   9.916 -0.1637 -1.7686 -1.4383
 4551SOL    HW225290   0.845   3.901   9.822 -0.4052 -0.7615  0.9995
 4552SOL     OW25291   2.840   2.148   3.799  0.6893  0.6516 -0.6692
 4552SOL    HW125292   2.883   2.206   3.862  1.1727 -0.0605 -0.3365
 4552SOL    HW225293   2.893   2.172   3.723 -0.2784 -2.7484 -2.4268
 4553SOL     OW25294   2.988   4.200   2.721 -0.2527  0.9464  0.1245
 4553SOL    HW125295   3.071   4.234   2.690 -1.0208  0.3031 -2.6179
 4553SOL    HW225296   2.982   4.242   2.808  0.7473  0.2837  0.5106
 4554SOL     OW25297   1.749   2.711   5.968 -0.1068 -0.0422 -0.1159
 4554SOL    HW125298   1.692   2.776   6.009 -0.3647  0.8254 -1.8312
 4554SOL    HW225299   1.745   2.642   6.034 -1.0805  0.9376  0.8566
 4555SOL     OW25300   1.862   3.100   8.493 -0.0553  0.0251 -0.7452
 4555SOL    HW125301   1.867   3.007   8.471  4.0371  0.1514 -0.3031
 4555SOL    HW225302   1.935   3.107   8.555  0.0254 -1.7719 -0.6400
 4556SOL     OW25303   3.470   3.076  14.138  0.1371  0.2247  0.1129
 4556SOL    HW125304   3.546   3.117  14.180  0.7053 -0.8923  0.1711
 4556SOL    HW225305   3.506   2.992  14.109  1.5419  0.6383  0.6428
 4557SOL     OW25306   0.975   1.963   5.749  0.2313 -0.1585 -0.0703
 4557SOL    HW125307   0.894   1.951   5.699  0.2386  0.7803 -0.3117
 4557SOL    HW225308   0.963   1.906   5.825 -2.2406  0.8203  0.2849
 4558SOL     OW25309   0.842   4.008   6.759  0.1657  0.4282  0.1477
 4558SOL    HW125310   0.833   3.992   6.853 -3.5816 -0.8536 -0.4226
 4558SOL    HW225311   0.870   3.919   6.735  0.6790  0.3680  1.0008
 4559SOL     OW25312   1.763   3.341   5.341  0.5579  0.1465  0.9856
 4559SOL    HW125313   1.784   3.417   5.396 -0.8309  0.2658  1.3436
 4559SOL    HW225314   1.683   3.309   5.384  2.2926 -2.1030  2.5659
 4560SOL     OW25315   1.833   2.498   7.327  0.0679  0.5716 -0.7986
 4560SOL    HW125316   1.871   2.412   7.345 -0.4954  0.6112  0.6703
 4560SOL    HW225317   1.855   2.542   7.409  2.3691  0.4256 -1.3601
 4561SOL     OW25318   4.013   1.344  12.811  0.2674 -0.3775 -0.5451
 4561SOL    HW125319   4.024   1.438  12.828 -2.4242 -0.1346 -0.1041
 4561SOL    HW225320   4.020   1.356  12.716 -1.7690  0.7863 -0.5341
 4562SOL     OW25321   1.839   0.857   8.968  0.5233 -0.2923 -0.4794
 4562SOL    HW125322   1.887   0.886   9.046 -2.2111  1.3852  0.5583
 4562SOL    HW225323   1.853   0.762   8.975  1.2098 -0.3017 -2.0512
 4563SOL     OW25324   2.856   4.736  14.159 -0.3098 -0.2884 -0.0350
 4563SOL    HW125325   2.801   4.699  14.229  0.8967 -1.8831  0.0760
 4563SOL    HW225326   2.878   0.080  14.206  2.6124  0.6921 -3.0958
 4564SOL     OW25327   0.238   1.987   1.919  0.2054  0.1068 -0.5100
 4564SOL    HW125328   0.213   2.076   1.946  0.8908 -0.3848  1.7493
 4564SOL    HW225329   0.316   1.976   1.973 -1.6544  0.2938  2.2398
 4565SOL     OW25330   0.542   0.843   3.187 -0.1269 -0.1881  0.4087
 4565SOL    HW125331   0.602   0.914   3.163  0.3321 -0.7351 -0.0870
 4565SOL    HW225332   0.455   0.868   3.157 -0.4698 -0.2459  1.3713
 4566SOL     OW25333   3.212   0.634   5.292  0.0460  0.5636  0.0814
 4566SOL    HW125334   3.172   0.721   5.286  1.6789  1.1596 -2.2590
 4566SOL    HW225335   3.264   0.624   5.212  2.3371 -1.6587  1.8623
 4567SOL     OW25336   2.240   1.729   4.268 -0.2155 -0.3567 -0.6348
 4567SOL    HW125337   2.152   1.767   4.262 -0.6968 -1.2771  0.7253
 4567SOL    HW225338   2.282   1.717   4.182 -0.5770  0.4544 -0.9324
 4568SOL     OW25339   4.334   2.889  13.568  0.5509 -0.0788 -0.0981
 4568SOL    HW125340   4.417   2.852  13.537  1.8264  1.1162  1.9360
 4568SOL    HW225341   4.307   2.924  13.482 -0.8504 -0.9177 -0.0009
 4569SOL     OW25342   3.933   3.522   0.084 -0.2435 -0.2242  0.0619
 4569SOL    HW125343   3.900   3.506  17.740 -0.2728 -2.5783  0.5013
 4569SOL    HW225344   4.022   3.490   0.073  0.7331  2.8849 -1.1262
 4570SOL     OW25345   0.955   1.692  14.476  0.1361 -0.0707 -0.4402
 4570SOL    HW125346   0.915   1.778  14.486 -0.0601 -0.0918 -1.0547
 4570SOL    HW225347   0.904   1.656  14.403  1.8320  1.2243 -2.2669
 4571SOL     OW25348   0.278   3.723  16.939 -0.0426 -0.2192  0.5023
 4571SOL    HW125349   0.292   3.677  16.857 -1.9061  0.3600 -0.1309
 4571SOL    HW225350   0.335   3.668  16.993  0.0128  0.5530  1.2372
 4572SOL     OW25351   2.770   3.508   3.852 -1.0205 -0.3222  0.4041
 4572SOL    HW125352   2.805   3.486   3.938  0.3572  0.7255  0.1124
 4572SOL    HW225353   2.831   3.469   3.790 -0.5265  1.1242 -0.0142
 4573SOL     OW25354   2.471   2.804  13.988 -0.1186  0.5071 -0.0660
 4573SOL    HW125355   2.421   2.811  14.069 -1.9488  3.0471 -1.4086
 4573SOL    HW225356   2.404   2.792  13.921 -1.0400 -0.4832  1.0343
 4574SOL     OW25357   1.076   4.568   6.203 -0.0139 -0.5786  0.0419
 4574SOL    HW125358   1.107   4.491   6.155  1.7676 -0.1737  0.5372
 4574SOL    HW225359   1.145   4.573   6.269 -0.8794 -0.8090  0.9477
 4575SOL     OW25360   1.629   1.244  11.747 -0.0765 -0.2261 -0.6759
 4575SOL    HW125361   1.704   1.288  11.708  0.1120 -0.0327 -0.0837
 4575SOL    HW225362   1.668   1.161  11.774  0.0973 -0.0114 -0.2677
 4576SOL     OW25363   3.459   3.261   1.734 -0.6491  0.8345  0.4473
 4576SOL    HW125364   3.525   3.201   1.766  0.2966  1.1935 -0.8082
 4576SOL    HW225365   3.384   3.205   1.714  0.6936 -0.9752  0.4718
 4577SOL     OW25366   1.465   3.965   4.128  0.4764 -0.1217 -0.5158
 4577SOL    HW125367   1.408   4.037   4.154  2.1711  1.2370 -0.5645
 4577SOL    HW225368   1.444   3.898   4.194  3.2548 -2.0168 -1.5614
 4578SOL     OW25369   1.277   3.448   7.367  0.0190 -0.0214  0.6742
 4578SOL    HW125370   1.331   3.373   7.344  1.2752  0.6687  1.3658
 4578SOL    HW225371   1.186   3.420   7.373  0.1668 -0.6735 -0.2148
 4579SOL     OW25372   3.118   0.638   2.008  0.2669 -0.7525 -0.1623
 4579SOL    HW125373   3.212   0.643   1.990  0.2081 -0.8836 -0.5110
 4579SOL    HW225374   3.115   0.592   2.092  0.0927  1.4970  1.0464
 4580SOL     OW25375   0.476   2.385   5.579  0.2314 -0.2619  0.4664
 4580SOL    HW125376   0.417   2.415   5.648 -0.2590  0.6963 -0.3815
 4580SOL    HW225377   0.554   2.437   5.599  0.0343  0.1787  0.0825
 4581SOL     OW25378   2.740   4.014   9.128  0.0132  0.6079 -0.4144
 4581SOL    HW125379   2.769   4.091   9.078  0.1822  1.4744  1.0261
 4581SOL    HW225380   2.660   4.042   9.172 -0.8583 -1.5056 -0.6648
 4582SOL     OW25381   4.418   4.141  17.319 -0.0784  0.2487 -0.3162
 4582SOL    HW125382   4.434   4.067  17.260 -1.3159 -2.6352  2.9631
 4582SOL    HW225383   4.325   4.159  17.307  0.2121  0.0282 -2.8498
 4583SOL     OW25384   0.743   3.570   0.640 -0.2854  0.2804 -0.6869
 4583SOL    HW125385   0.676   3.637   0.652 -0.1037  0.3912 -0.3089
 4583SOL    HW225386   0.824   3.613   0.668 -0.1388  0.1821 -0.9517
 4584SOL     OW25387   3.275   0.097  13.092  0.2186  0.0181 -0.7951
 4584SOL    HW125388   3.323   0.121  13.171 -1.0149  0.2339 -0.1158
 4584SOL    HW225389   3.285   0.002  13.093  2.9446  0.3099 -0.2512
 4585SOL     OW25390   0.352   1.627   3.686 -0.0205  0.0353 -0.2649
 4585SOL    HW125391   0.289   1.569   3.643  0.1184 -0.0983 -0.2893
 4585SOL    HW225392   0.318   1.629   3.776  1.4672  0.2564  0.2852
 4586SOL     OW25393   4.509   1.659   6.705  0.6987 -0.1310 -0.2084
 4586SOL    HW125394   4.454   1.640   6.782  0.7028  0.2810 -0.1048
 4586SOL    HW225395   4.531   1.573   6.668  0.4567 -0.7536  1.0502
 4587SOL     OW25396   3.606   3.359   7.141  0.1729 -0.0818  0.1588
 4587SOL    HW125397   3.682   3.408   7.172  0.7986  0.5915 -2.4882
 4587SOL    HW225398   3.588   3.385   7.051 -2.3993 -1.4057  0.2908
 4588SOL     OW25399   2.731   1.196   7.057 -0.5775  0.2032  0.6830
 4588SOL    HW125400   2.797   1.174   6.992 -2.6016  0.5701 -1.4887
 4588SOL    HW225401   2.645   1.210   7.018 -0.6803  1.6942  1.4243
 4589SOL     OW25402   1.974   0.743   7.501 -1.0906  0.8594  0.0039
 4589SOL    HW125403   1.915   0.719   7.573 -1.0509 -0.5119 -0.4278
 4589SOL    HW225404   1.945   0.679   7.437  2.3844 -0.8886  0.1380
 4590SOL     OW25405   4.251   4.688   2.859  0.2365  0.1023  0.4301
 4590SOL    HW125406   4.234   4.711   2.950  0.2808  1.6806  0.0567
 4590SOL    HW225407   4.191   0.012   2.815  0.4965  0.2050  0.2158
 4591SOL     OW25408   2.877   4.288   9.340 -0.6967 -0.0345  0.1404
 4591SOL    HW125409   2.954   4.343   9.355 -1.7420  1.7507 -1.0652
 4591SOL    HW225410   2.892   4.205   9.385  0.3049  0.3625  0.5492
 4592SOL     OW25411   2.185   1.830   6.935  0.5426 -0.1306 -0.2141
 4592SOL    HW125412   2.216   1.795   6.851 -1.1531  1.2875 -1.4441
 4592SOL    HW225413   2.244   1.782   6.993  0.8679 -1.2137 -1.4262
 4593SOL     OW25414   0.066   2.152   3.112 -0.6511  0.4737 -0.8117
 4593SOL    HW125415   0.069   2.227   3.171 -1.0522 -0.3047  0.1982
 4593SOL    HW225416   0.147   2.100   3.117 -0.9188  0.0185 -1.2202
 4594SOL     OW25417   1.259   1.774   4.169 -0.5512 -0.0472 -0.5131
 4594SOL    HW125418   1.219   1.688   4.180  1.4854 -0.8401  0.6613
 4594SOL    HW225419   1.255   1.803   4.260  0.7434 -1.6570  0.0525
 4595SOL     OW25420   3.006   4.193   4.673 -0.4344 -0.1130  0.4828
 4595SOL    HW125421   2.969   4.258   4.733  0.0627  1.4300 -0.8800
 4595SOL    HW225422   3.025   4.115   4.725 -0.8907 -0.5094  0.0522
 4596SOL     OW25423   2.498   4.521   3.098 -0.6921 -0.1252 -0.4327
 4596SOL    HW125424   2.523   4.552   3.011 -0.9466  0.5319 -0.2747
 4596SOL    HW225425   2.509   4.427   3.085 -1.8020 -0.4996  1.2333
 4597SOL     OW25426   0.924   2.601  14.882 -0.0203  0.2625  0.4647
 4597SOL    HW125427   0.981   2.573  14.954 -0.1475  0.8160  0.7819
 4597SOL    HW225428   0.980   2.673  14.853  1.7286 -1.4041 -0.3130
 4598SOL     OW25429   1.607   3.731   1.623 -0.4082  0.2482  0.1905
 4598SOL    HW125430   1.655   3.800   1.668  2.9692 -1.8622 -0.1634
 4598SOL    HW225431   1.633   3.735   1.530  2.7239 -1.7763  0.9943
 4599SOL     OW25432   3.945   1.892   4.888  0.0093  0.1738  0.2834
 4599SOL    HW125433   3.926   1.809   4.844 -1.1749  0.8675 -0.5014
 4599SOL    HW225434   3.974   1.868   4.976  0.3312  0.7846  0.3476
 4600SOL     OW25435   2.603   3.361   0.175 -0.6037 -0.9495 -0.1956
 4600SOL    HW125436   2.544   3.400   0.110 -1.3120  1.7703  2.0604
 4600SOL    HW225437   2.617   3.432   0.238 -1.6996 -1.0110  0.1245
 4601SOL     OW25438   1.130   1.991   8.585  0.1427  0.2105 -0.2867
 4601SOL    HW125439   1.059   1.957   8.640  1.1814 -1.0772  0.2644
 4601SOL    HW225440   1.130   1.925   8.516  0.8283  0.8666 -0.9112
 4602SOL     OW25441   0.730   2.031   4.129  0.7408  0.2626 -0.0036
 4602SOL    HW125442   0.729   2.016   4.224  3.0988 -1.0614 -0.2053
 4602SOL    HW225443   0.677   1.957   4.098  0.4067  0.2138  0.6808
 4603SOL     OW25444   0.421   1.749   8.957  0.2746  0.1482 -0.5329
 4603SOL    HW125445   0.443   1.671   8.905 -0.9325 -0.7952  0.3878
 4603SOL    HW225446   0.423   1.718   9.047 -1.3755 -2.4545 -1.4143
 4604SOL     OW25447   0.572   3.335   8.173  0.4470 -0.2845  0.0117
 4604SOL    HW125448   0.594   3.253   8.128 -0.4273 -0.3379 -0.3181
 4604SOL    HW225449   0.486   3.305   8.204 -0.0541  1.3965  0.2679
 4605SOL     OW25450   4.665   1.202   8.691 -1.1700 -0.0584  0.0333
 4605SOL    HW125451   4.647   1.294   8.711  3.7439  1.1790 -1.2001
 4605SOL    HW225452   4.736   1.220   8.629 -0.7486  0.1012  0.5633
 4606SOL     OW25453   1.039   0.337   4.102  0.3311  0.4747 -0.1238
 4606SOL    HW125454   1.039   0.243   4.117 -0.1988  0.4191 -0.4486
 4606SOL    HW225455   1.014   0.339   4.010 -2.2890  0.2214  0.5722
 4607SOL     OW25456   0.606   4.298   1.328 -0.1548  0.4607 -0.2372
 4607SOL    HW125457   0.578   4.235   1.262 -0.5353  1.0438 -0.6347
 4607SOL    HW225458   0.687   4.274   1.373 -1.4366  2.3567  3.1228
 4608SOL     OW25459   4.127   2.555  12.229 -0.2224 -0.4179 -0.2064
 4608SOL    HW125460   4.219   2.572  12.206 -0.6660 -0.2583 -1.8218
 4608SOL    HW225461   4.094   2.572  12.141 -0.8398 -0.1264  0.0795
 4609SOL     OW25462   2.143   4.644   5.719  0.2550  0.1956 -0.0806
 4609SOL    HW125463   2.084   4.673   5.649  2.1005 -0.5637 -1.9408
 4609SOL    HW225464   2.227   4.633   5.675  0.0988 -0.0048 -0.3300
 4610SOL     OW25465   0.572   3.605   0.400  0.3218 -0.1831 -0.0439
 4610SOL    HW125466   0.585   3.585   0.307  0.7952  1.0238 -0.2312
 4610SOL    HW225467   0.636   3.539   0.427 -2.9239 -3.3047  0.0262
 4611SOL     OW25468   1.668   0.932   7.736  0.5969  0.1848  0.5464
 4611SOL    HW125469   1.746   0.983   7.757  1.7628 -0.5456 -2.0655
 4611SOL    HW225470   1.595   0.989   7.760  0.5548 -0.1793  1.2883
 4612SOL     OW25471   0.887   1.377   0.796  0.1100  0.2771 -0.3284
 4612SOL    HW125472   0.895   1.302   0.738 -1.5486  0.3448 -0.6385
 4612SOL    HW225473   0.949   1.441   0.760  0.5914 -1.0945 -1.9567
 4613SOL     OW25474   0.422   4.676   3.407 -0.8640 -0.5889 -0.0941
 4613SOL    HW125475   0.342   4.727   3.411 -1.5717 -1.5929 -1.5032
 4613SOL    HW225476   0.415   4.657   3.314  0.5727 -1.9319  0.0650
 4614SOL     OW25477   0.536   1.033   7.131 -0.1247 -0.3915 -0.8362
 4614SOL    HW125478   0.470   0.966   7.112 -1.9788  1.4418 -0.8709
 4614SOL    HW225479   0.559   0.996   7.217 -0.7629 -0.1792 -0.5734
 4615SOL     OW25480   1.495   0.639   7.775  0.5055 -0.6500 -0.0384
 4615SOL    HW125481   1.439   0.714   7.794 -1.2849 -1.6956 -1.2955
 4615SOL    HW225482   1.466   0.579   7.844  0.2819 -0.9937 -0.4347
 4616SOL     OW25483   2.791   3.558   8.572  0.7013  0.4102 -0.0663
 4616SOL    HW125484   2.881   3.581   8.595  0.4228  1.4088  0.0238
 4616SOL    HW225485   2.795   3.563   8.477 -0.1574 -2.8458 -0.2887
 4617SOL     OW25486   0.328   1.274   4.091  0.3438 -0.1027 -0.5168
 4617SOL    HW125487   0.290   1.359   4.115 -0.8901 -0.5296 -0.9434
 4617SOL    HW225488   0.414   1.280   4.133 -0.0141  0.2546  0.1767
 4618SOL     OW25489   3.912   0.311   5.574 -0.3166  0.0750 -0.2332
 4618SOL    HW125490   3.938   0.390   5.526 -0.5471  0.6568  0.5968
 4618SOL    HW225491   3.878   0.252   5.508 -0.3662  0.6116 -0.6884
 4619SOL     OW25492   4.189   0.444   5.278  0.3271 -0.1063  0.4746
 4619SOL    HW125493   4.222   0.521   5.325  3.1320  0.7209 -2.8808
 4619SOL    HW225494   4.154   0.389   5.349  3.3241 -0.3202  1.7989
 4620SOL     OW25495   1.929   4.296   9.871 -0.6468  0.0486 -0.2080
 4620SOL    HW125496   1.953   4.335   9.787  2.5420  1.3584  1.3305
 4620SOL    HW225497   1.876   4.368   9.905 -1.5393 -0.4070 -0.6393
 4621SOL     OW25498   0.408   0.242   6.789  0.2871  0.4712 -0.1022
 4621SOL    HW125499   0.328   0.227   6.739 -0.2762 -1.1898  1.2982
 4621SOL    HW225500   0.386   0.314   6.849 -0.4892  0.9316 -0.9354
 4622SOL     OW25501   1.371   0.669  12.575 -0.2010 -0.4981 -0.0341
 4622SOL    HW125502   1.458   0.629  12.571 -0.0105 -0.2869  2.4082
 4622SOL    HW225503   1.398   0.744  12.522 -0.6230 -1.4159 -1.5583
 4623SOL     OW25504   1.989   4.011   4.864  0.0608  0.4174  0.0509
 4623SOL    HW125505   2.056   4.061   4.817 -2.1641  2.5285 -0.8817
 4623SOL    HW225506   1.909   4.048   4.827  0.0117  0.4138  0.1513
 4624SOL     OW25507   3.941   2.202  10.205  0.1894 -0.3620  0.0799
 4624SOL    HW125508   3.967   2.153  10.127  0.2683  0.9049 -0.6867
 4624SOL    HW225509   3.985   2.150  10.272 -0.2096  1.7122  1.9552
 4625SOL     OW25510   0.437   2.107   8.071  0.1002  0.3407  0.2041
 4625SOL    HW125511   0.374   2.161   8.023  0.0936 -1.0980 -1.4238
 4625SOL    HW225512   0.464   2.157   8.147  0.3513 -1.0077  1.0130
 4626SOL     OW25513   3.373   2.808   7.808  0.1996 -0.0333 -0.0789
 4626SOL    HW125514   3.328   2.747   7.867 -2.4414  0.7811 -1.2169
 4626SOL    HW225515   3.434   2.751   7.763 -1.0007 -0.4588 -1.1699
 4627SOL     OW25516   4.114   3.492   8.819 -0.9272 -0.2912 -0.2254
 4627SOL    HW125517   4.116   3.456   8.907 -0.3769 -1.3191 -0.6623
 4627SOL    HW225518   4.033   3.543   8.825 -0.9820 -0.7141  2.4862
 4628SOL     OW25519   1.049   3.282  12.875 -0.0564 -0.1875  0.6851
 4628SOL    HW125520   1.113   3.333  12.825  0.2677 -2.1744 -0.9164
 4628SOL    HW225521   1.096   3.204  12.905  1.7730  0.5603 -0.1786
 4629SOL     OW25522   1.142   0.833   0.751 -0.1421 -0.1031  0.2411
 4629SOL    HW125523   1.084   0.856   0.678 -1.2676  0.9269  1.4516
 4629SOL    HW225524   1.104   0.748   0.775  1.7020 -0.1029  3.1561
 4630SOL     OW25525   1.284   2.608   6.210 -0.2865 -0.2194 -0.9083
 4630SOL    HW125526   1.239   2.525   6.222 -1.8308  0.7035 -0.3456
 4630SOL    HW225527   1.278   2.647   6.298 -1.7050  0.5739 -1.3583
 4631SOL     OW25528   4.632   0.721   4.072 -0.5973  0.4254 -0.0957
 4631SOL    HW125529   4.696   0.788   4.096  0.1514 -0.5329  0.5855
 4631SOL    HW225530   4.695   0.649   4.059 -0.9727  0.0061  0.4062
 4632SOL     OW25531   0.441   3.949   2.396 -0.3405  0.4243  0.2042
 4632SOL    HW125532   0.364   3.933   2.451 -2.1047  2.0742 -1.7578
 4632SOL    HW225533   0.398   3.944   2.310 -1.6426 -1.2545  0.9436
 4633SOL     OW25534   4.093   1.405  12.030 -0.1909 -0.3053 -0.0282
 4633SOL    HW125535   4.166   1.453  11.992 -1.8064  2.3304  0.1876
 4633SOL    HW225536   4.029   1.430  11.963  0.8824  0.9773 -0.5900
 4634SOL     OW25537   1.702   0.554   0.791 -0.6721  0.8101 -0.0459
 4634SOL    HW125538   1.657   0.526   0.711 -0.5598  0.3278  0.0550
 4634SOL    HW225539   1.625   0.581   0.840  0.3934  1.1375  1.4368
 4635SOL     OW25540   0.372   3.840   8.756 -0.1028 -0.3245  0.7930
 4635SOL    HW125541   0.300   3.886   8.799 -1.5264  0.0547 -2.0193
 4635SOL    HW225542   0.347   3.747   8.760  1.4880 -0.8108 -0.5532
 4636SOL     OW25543   3.099   1.906   5.483 -0.4287  0.8940  0.2647
 4636SOL    HW125544   3.120   1.915   5.576 -2.9911 -1.4050  1.0835
 4636SOL    HW225545   3.184   1.875   5.452  0.0966  0.7400  1.8541
 4637SOL     OW25546   1.949   2.448  11.450  0.0309 -0.0662  0.2873
 4637SOL    HW125547   1.943   2.539  11.420  1.2136  0.6853  2.3894
 4637SOL    HW225548   1.999   2.407  11.380  0.0927 -0.1444  0.3784
 4638SOL     OW25549   3.927   3.889   5.205  0.1173  0.0838 -0.1322
 4638SOL    HW125550   3.957   3.959   5.148 -0.1003  2.9875  3.3167
 4638SOL    HW225551   3.857   3.938   5.248  0.2266 -1.2580  1.6350
 4639SOL     OW25552   1.774   0.671   7.666  0.2152  0.3095 -0.2673
 4639SOL    HW125553   1.694   0.632   7.631 -1.4144  0.9354  2.7599
 4639SOL    HW225554   1.733   0.751   7.699  1.8631 -0.3973  3.4808
 4640SOL     OW25555   0.003   4.481   7.985 -0.0606  0.2912  0.3348
 4640SOL    HW125556   4.702   4.410   8.039 -0.8329 -0.9159 -1.7876
 4640SOL    HW225557   4.704   4.462   7.898  0.4932 -1.5916  0.5129
 4641SOL     OW25558   1.314   0.271   6.977  0.0568 -0.4795  0.3928
 4641SOL    HW125559   1.356   0.186   6.988 -1.2192 -1.2744 -0.9608
 4641SOL    HW225560   1.240   0.263   6.917  1.3756  3.4700 -1.7577
 4642SOL     OW25561   2.872   1.982   4.046 -0.0514 -0.3758  0.9940
 4642SOL    HW125562   2.829   2.067   4.058  0.9766  0.0001  2.0077
 4642SOL    HW225563   2.925   2.002   3.969  0.7963 -3.0729  0.8902
 4643SOL     OW25564   3.135   2.679   6.028  0.3473 -0.0423  0.5374
 4643SOL    HW125565   3.072   2.682   5.956 -0.1745  0.2076  1.0101
 4643SOL    HW225566   3.091   2.705   6.109 -1.1249  1.0834 -0.6061
 4644SOL     OW25567   2.854   1.635   3.230 -0.0170  0.1125  0.1079
 4644SOL    HW125568   2.948   1.614   3.228 -0.0754 -0.3110  2.3379
 4644SOL    HW225569   2.851   1.708   3.291 -0.2479 -0.2229  0.4956
 4645SOL     OW25570   2.927   0.377  10.848  0.0441  0.1096 -0.1422
 4645SOL    HW125571   2.935   0.362  10.942 -0.5123 -1.5661 -0.3565
 4645SOL    HW225572   3.002   0.326  10.819  1.0346  1.5015  0.0087
 4646SOL     OW25573   0.668   0.872   1.551 -0.3024 -0.3002  0.4653
 4646SOL    HW125574   0.693   0.889   1.460 -1.2306 -1.4176  0.0039
 4646SOL    HW225575   0.712   0.789   1.567  0.7293  0.2421  0.4520
 4647SOL     OW25576   3.755   0.903   7.262  0.2843  0.4321  0.1184
 4647SOL    HW125577   3.682   0.841   7.258  0.3424  0.4329 -1.1484
 4647SOL    HW225578   3.738   0.939   7.349 -0.6322  1.2181 -0.3871
 4648SOL     OW25579   2.531   3.718   9.185  0.3012  0.0697 -0.2199
 4648SOL    HW125580   2.577   3.773   9.121  0.1084  0.5333  0.0371
 4648SOL    HW225581   2.529   3.790   9.249 -3.0797  1.3643 -1.7287
 4649SOL     OW25582   4.042   1.233  14.810  0.3714 -0.6630  0.4457
 4649SOL    HW125583   4.114   1.232  14.873 -1.6253 -1.1624  2.7190
 4649SOL    HW225584   4.084   1.187  14.736  1.9788 -0.6903  1.3721
 4650SOL     OW25585   2.464   1.114   4.775  0.8872  0.0363  0.1273
 4650SOL    HW125586   2.515   1.153   4.704 -0.6551 -1.4116 -1.8096
 4650SOL    HW225587   2.514   1.038   4.802  0.5734  0.4160  1.8014
 4651SOL     OW25588   1.692   3.864   0.878  0.4496  0.6775  0.6360
 4651SOL    HW125589   1.662   3.849   0.789 -1.9956  1.5264  1.3250
 4651SOL    HW225590   1.720   3.956   0.872  4.9430 -0.7995 -0.7999
 4652SOL     OW25591   3.415   2.724   0.003 -0.2408 -0.0684 -0.7563
 4652SOL    HW125592   3.476   2.668  17.699 -0.3677 -0.3988 -0.5265
 4652SOL    HW225593   3.365   2.653   0.043 -0.5570  0.1108 -0.8328
 4653SOL     OW25594   2.514   4.093   2.812 -0.1482 -0.1381  0.3101
 4653SOL    HW125595   2.428   4.097   2.771  0.6573  2.2840 -1.1213
 4653SOL    HW225596   2.513   3.998   2.826 -1.0452 -0.0394  0.9172
 4654SOL     OW25597   1.735   4.312   1.931  0.2214 -0.3911 -0.0120
 4654SOL    HW125598   1.692   4.397   1.941 -0.2399 -0.6404  0.1627
 4654SOL    HW225599   1.662   4.265   1.889 -0.0827  1.7657 -1.8741
 4655SOL     OW25600   3.828   3.654  17.352 -0.1814 -0.4636  0.2787
 4655SOL    HW125601   3.770   3.730  17.363  1.7272  0.8274  1.3071
 4655SOL    HW225602   3.899   3.703  17.311  0.2348 -0.8700  0.5167
 4656SOL     OW25603   1.561   1.449   2.450 -0.5944 -0.8679  0.0523
 4656SOL    HW125604   1.518   1.534   2.449 -0.0673 -0.6461 -2.1139
 4656SOL    HW225605   1.554   1.409   2.364  1.1765 -3.0402  0.9084
 4657SOL     OW25606   4.372   2.602   5.868  0.2217  0.3341 -0.3832
 4657SOL    HW125607   4.355   2.668   5.801 -2.0760  0.7588  0.6135
 4657SOL    HW225608   4.284   2.597   5.904  0.8070  0.1825  1.0325
 4658SOL     OW25609   2.671   1.634   5.064  0.0494  0.5490 -0.2254
 4658SOL    HW125610   2.694   1.706   5.006  1.2026  0.7614  0.5059
 4658SOL    HW225611   2.708   1.670   5.144  3.1341 -0.7546 -1.0493
 4659SOL     OW25612   2.104   0.027   9.034  0.2692  0.0659  0.1767
 4659SOL    HW125613   2.063   0.043   8.949 -0.8418 -2.4138  0.2779
 4659SOL    HW225614   2.069   0.104   9.079 -0.9113 -0.4538  0.1344
 4660SOL     OW25615   2.754   1.686  15.793 -0.3964 -0.2747 -0.0399
 4660SOL    HW125616   2.771   1.698  15.699  0.3191  0.3797  0.1729
 4660SOL    HW225617   2.689   1.750  15.823 -0.9210 -1.0355  0.4248
 4661SOL     OW25618   2.769   1.664  16.202 -0.1513  0.1233 -0.8447
 4661SOL    HW125619   2.838   1.722  16.170 -0.1852  2.1168  2.7621
 4661SOL    HW225620   2.693   1.692  16.150  0.7103  4.3408  0.1800
 4662SOL     OW25621   0.432   4.330   4.034  0.6773  0.2145 -0.1685
 4662SOL    HW125622   0.431   4.236   4.053  2.2919 -0.2763 -2.4244
 4662SOL    HW225623   0.521   4.328   3.999 -0.5334 -1.5996 -3.1470
 4663SOL     OW25624   2.557   1.923   8.722 -0.2760  0.1830 -0.5760
 4663SOL    HW125625   2.520   1.969   8.797  1.6467  2.2726 -0.8792
 4663SOL    HW225626   2.571   1.832   8.748  1.9980  0.8960  0.6888
 4664SOL     OW25627   1.682   0.060  13.534 -0.7095 -0.2842  0.0844
 4664SOL    HW125628   1.750   0.009  13.490 -0.1111 -0.3770  1.1203
 4664SOL    HW225629   1.721   0.086  13.617 -1.0470 -4.3432  1.4845
 4665SOL     OW25630   4.391   4.055   7.972 -0.3078  0.5012 -0.1973
 4665SOL    HW125631   4.323   4.010   7.922 -1.4815  1.0506  0.9033
 4665SOL    HW225632   4.430   3.970   7.994 -0.1441  0.8875  1.0322
 4666SOL     OW25633   3.029   0.768  10.964 -0.5868 -0.5283 -0.0724
 4666SOL    HW125634   2.995   0.722  10.887 -1.9876  0.0813  0.1882
 4666SOL    HW225635   3.018   0.699  11.029 -2.8438  0.3185  0.4401
 4667SOL     OW25636   3.278   0.811   9.459 -0.4896  0.1891  0.5920
 4667SOL    HW125637   3.361   0.853   9.481 -0.5204 -0.2014  1.4513
 4667SOL    HW225638   3.244   0.857   9.383  0.7281 -1.4649 -0.9595
 4668SOL     OW25639   4.490   1.954  13.952 -0.3219  0.5130  0.1347
 4668SOL    HW125640   4.401   1.933  13.926 -0.3319 -0.0311  0.6058
 4668SOL    HW225641   4.486   1.917  14.040  2.7686  0.9074  0.4352
 4669SOL     OW25642   2.599   2.593  11.277  0.0551  0.2975  0.3377
 4669SOL    HW125643   2.673   2.630  11.324 -2.1534  0.8304  3.3433
 4669SOL    HW225644   2.553   2.667  11.237 -1.6970 -1.1586 -0.3395
 4670SOL     OW25645   4.058   0.938   7.515  0.4029  0.0947 -0.3633
 4670SOL    HW125646   3.992   0.995   7.475  0.1858 -0.7307 -1.1833
 4670SOL    HW225647   4.072   0.878   7.442  1.2517 -0.8108  0.5352
 4671SOL     OW25648   2.609   3.553   8.753  0.3819 -0.1296 -0.4213
 4671SOL    HW125649   2.544   3.491   8.721 -0.3531  0.3936  0.0694
 4671SOL    HW225650   2.671   3.545   8.680  0.6261  0.5310 -0.2885
 4672SOL     OW25651   3.229   3.710   9.959  0.5485  0.5184  0.3075
 4672SOL    HW125652   3.164   3.774   9.988 -1.3870 -1.4205  0.2443
 4672SOL    HW225653   3.310   3.753   9.984  0.3285 -0.1230  2.1228
 4673SOL     OW25654   3.898   2.087   3.304 -0.1995 -0.0187 -0.2264
 4673SOL    HW125655   3.950   2.053   3.231 -2.1990  1.5437 -2.3771
 4673SOL    HW225656   3.937   2.173   3.316  0.9645 -0.6872  0.7848
 4674SOL     OW25657   2.321   4.508  12.061  0.3501 -0.4745  0.7641
 4674SOL    HW125658   2.417   4.511  12.053  0.4655 -0.1656  2.1638
 4674SOL    HW225659   2.308   4.426  12.109  1.6814 -0.4619  1.1518
 4675SOL     OW25660   1.802   0.565   8.678  0.0224  0.0536  0.6768
 4675SOL    HW125661   1.754   0.495   8.721  1.5531 -1.1040  0.5072
 4675SOL    HW225662   1.755   0.644   8.704 -0.8699  0.4700 -2.1306
 4676SOL     OW25663   3.614   1.295   2.749  0.3387 -0.3621 -0.3557
 4676SOL    HW125664   3.538   1.321   2.801 -0.6287 -0.2692 -1.8232
 4676SOL    HW225665   3.678   1.294   2.820  1.3596  0.2411 -1.2741
 4677SOL     OW25666   4.355   3.800  13.263 -0.5466  0.0945 -0.2823
 4677SOL    HW125667   4.279   3.857  13.252  0.7237  1.6620 -0.9758
 4677SOL    HW225668   4.320   3.712  13.247  0.6138 -0.9797  3.0885
 4678SOL     OW25669   3.978   3.594  12.405  0.0701 -0.2578 -0.8621
 4678SOL    HW125670   4.001   3.603  12.497 -0.5457  0.2844 -0.7618
 4678SOL    HW225671   4.029   3.517  12.384 -1.9814 -1.6506 -0.7762
 4679SOL     OW25672   2.060   3.168  10.105 -0.4177 -0.5742 -0.6117
 4679SOL    HW125673   2.125   3.187  10.173 -2.5802  2.5823  0.5475
 4679SOL    HW225674   2.093   3.079  10.094 -1.7663 -0.8926 -2.0606
 4680SOL     OW25675   0.364   0.986   1.343  0.0012  0.2765 -0.0013
 4680SOL    HW125676   0.395   0.976   1.253 -0.8193 -0.2350 -0.2311
 4680SOL    HW225677   0.303   1.060   1.348  3.9214  3.6220 -2.0028
 4681SOL     OW25678   1.502   0.037   2.890 -0.3583  0.3437  0.2866
 4681SOL    HW125679   1.438   0.001   2.951  0.6718 -1.0663  0.5331
 4681SOL    HW225680   1.543   0.107   2.940  1.0739  1.5716 -2.6018
 4682SOL     OW25681   3.494   4.153   7.572  0.3270  0.0119 -0.1835
 4682SOL    HW125682   3.417   4.208   7.557  0.1324  0.0402  0.9560
 4682SOL    HW225683   3.456   4.097   7.640  0.5011  0.7061  0.4924
 4683SOL     OW25684   0.816   1.825   0.162 -0.2463  0.3983  0.2299
 4683SOL    HW125685   0.803   1.900   0.219  1.2176 -0.4101  1.6572
 4683SOL    HW225686   0.786   1.861   0.079  1.8089 -0.9115 -1.1044
 4684SOL     OW25687   1.297   4.678   3.039 -0.3690  0.4868  0.3521
 4684SOL    HW125688   1.210   4.708   3.065 -0.2741 -0.4917  1.8304
 4684SOL    HW225689   1.294   4.590   3.078  0.0907  0.4892  0.3900
 4685SOL     OW25690   4.707   2.974   1.714  0.1914 -0.1754  0.0257
 4685SOL    HW125691   4.648   3.049   1.726 -0.3791 -0.3031 -2.0210
 4685SOL    HW225692   4.695   2.964   1.620 -0.2168  1.6077 -0.1161
 4686SOL     OW25693   3.456   0.696   5.430 -0.2010  0.3575  0.2104
 4686SOL    HW125694   3.474   0.608   5.461 -1.4041  0.1166  0.2539
 4686SOL    HW225695   3.369   0.691   5.389  0.7875  1.3362 -2.0402
 4687SOL     OW25696   4.174   0.756   7.088 -0.4561 -0.4756  0.2011
 4687SOL    HW125697   4.260   0.798   7.094 -1.4051  1.5356 -0.2331
 4687SOL    HW225698   4.129   0.832   7.049  0.8797  1.1970  1.9537
 4688SOL     OW25699   2.100   3.381   5.709  0.5226 -0.1630 -0.5533
 4688SOL    HW125700   2.070   3.472   5.718 -0.3754 -0.4095 -1.1466
 4688SOL    HW225701   2.192   3.388   5.682  1.3208  0.7002  2.3313
 4689SOL     OW25702   3.182   1.288   3.932 -0.3617 -0.0933 -0.1938
 4689SOL    HW125703   3.187   1.204   3.887  0.5656 -0.2045  0.1153
 4689SOL    HW225704   3.269   1.327   3.924  0.2649 -1.2477  1.2771
 4690SOL     OW25705   0.027   3.434   4.286 -0.0847  0.0221  0.2208
 4690SOL    HW125706   4.704   3.438   4.360 -1.6774  0.7089 -1.0984
 4690SOL    HW225707   4.714   3.394   4.215  1.2963 -1.7573  0.2660
 4691SOL     OW25708   1.853   2.110   0.800 -0.5966  0.2743  0.4502
 4691SOL    HW125709   1.780   2.104   0.861 -0.1488 -2.0964  0.7795
 4691SOL    HW225710   1.812   2.060   0.730 -0.7816  1.7335 -0.4799
 4692SOL     OW25711   4.160   3.160  14.857 -0.1361 -0.6686 -0.0936
 4692SOL    HW125712   4.141   3.248  14.888 -0.3935 -0.7756  0.0534
 4692SOL    HW225713   4.072   3.130  14.834 -0.5137  0.6898 -0.4360
 4693SOL     OW25714   0.888   4.048  10.576  0.1050 -0.2127  0.4938
 4693SOL    HW125715   0.898   3.985  10.504 -2.7840  0.7456 -0.7402
 4693SOL    HW225716   0.797   4.068  10.555  0.5725  0.9132 -0.4966
 4694SOL     OW25717   0.801   2.534   5.454 -0.4200 -0.3228  0.6596
 4694SOL    HW125718   0.844   2.474   5.393  0.5678  0.9288  0.1271
 4694SOL    HW225719   0.741   2.574   5.390 -0.0515  0.8055  1.0236
 4695SOL     OW25720   2.403   0.739  17.403 -0.2385  0.3187 -0.4577
 4695SOL    HW125721   2.473   0.742  17.337 -1.4585  0.6800 -1.7255
 4695SOL    HW225722   2.328   0.704  17.356 -0.3770 -0.0412  0.0378
 4696SOL     OW25723   3.211   2.628   2.957  0.3324 -0.1649  0.1826
 4696SOL    HW125724   3.256   2.638   2.873 -0.8544  2.3465 -0.1766
 4696SOL    HW225725   3.286   2.598   3.009 -0.3101 -2.5946 -0.3204
 4697SOL     OW25726   0.704   0.120   6.277  0.3349 -0.0467 -0.5331
 4697SOL    HW125727   0.791   0.088   6.300 -0.1721 -0.4088  0.9034
 4697SOL    HW225728   0.674   0.152   6.363 -0.6124 -1.1898 -0.4464
 4698SOL     OW25729   2.234   2.303   3.112 -0.6343 -0.0325 -0.0725
 4698SOL    HW125730   2.161   2.359   3.087  2.4757  3.2993 -1.5869
 4698SOL    HW225731   2.195   2.225   3.152 -0.2087 -0.4874 -0.5319
 4699SOL     OW25732   0.631   3.345   8.639  0.1421  0.3230 -0.5684
 4699SOL    HW125733   0.664   3.429   8.609 -1.3606  0.6862 -1.2232
 4699SOL    HW225734   0.551   3.343   8.586 -0.0244 -1.7448 -0.2366
 4700SOL     OW25735   4.591   3.221  13.949  0.2025  0.6350  0.2350
 4700SOL    HW125736   4.566   3.198  14.039  0.5573 -1.1299 -0.1078
 4700SOL    HW225737   4.504   3.220  13.909  0.5492 -0.9944 -0.4939
 4701SOL     OW25738   3.392   4.636   2.415  0.4597  0.7979 -0.5839
 4701SOL    HW125739   3.407   4.641   2.321  1.3658  3.1404 -0.3190
 4701SOL    HW225740   3.455   4.704   2.439 -0.7218  1.7287 -0.1337
 4702SOL     OW25741   1.864   3.298   8.214  0.4200  0.1111  0.3899
 4702SOL    HW125742   1.944   3.299   8.268 -1.0659  0.3111  2.6014
 4702SOL    HW225743   1.837   3.208   8.235  1.6785 -0.6899 -1.3536
 4703SOL     OW25744   4.233   1.744  14.544  0.7422  0.2993 -0.3000
 4703SOL    HW125745   4.215   1.761  14.451  0.2892 -1.4290 -0.5335
 4703SOL    HW225746   4.151   1.706  14.577  1.1638 -0.8235 -0.5374
 4704SOL     OW25747   0.440   2.042  15.794  0.1239  0.0030  0.6918
 4704SOL    HW125748   0.494   2.111  15.833  1.3447 -0.7331  0.2899
 4704SOL    HW225749   0.509   1.976  15.786 -0.4967 -0.6312  0.5791
 4705SOL     OW25750   1.818   3.900   2.049 -0.3451 -0.1372 -0.0573
 4705SOL    HW125751   1.842   3.884   1.958  2.2127  1.6108  0.3155
 4705SOL    HW225752   1.724   3.913   2.036 -0.5443 -0.3709  1.1384
 4706SOL     OW25753   0.601   0.160   6.990  0.2842  0.1496 -0.5562
 4706SOL    HW125754   0.642   0.246   6.981  2.9485 -1.1566 -0.8025
 4706SOL    HW225755   0.560   0.159   6.903 -0.8014 -1.7871 -0.0275
 4707SOL     OW25756   1.360   0.903   7.876  0.0016  1.0481 -0.1923
 4707SOL    HW125757   1.303   0.838   7.918  0.5743  0.6740  0.0092
 4707SOL    HW225758   1.383   0.957   7.951 -1.6582  1.4825  0.0095
 4708SOL     OW25759   2.872   0.410   5.379  0.1463  0.2426 -0.1707
 4708SOL    HW125760   2.874   0.404   5.284  0.6259 -1.1402 -0.0738
 4708SOL    HW225761   2.806   0.343   5.394 -0.9135  1.3949  0.4132
 4709SOL     OW25762   4.658   3.419   3.052 -0.7351 -0.6554 -0.2596
 4709SOL    HW125763   4.606   3.465   2.987 -0.4614  1.2942  0.8915
 4709SOL    HW225764   4.599   3.348   3.078 -1.7594 -0.0043 -0.8565
 4710SOL     OW25765   0.559   2.087   5.752 -0.9282 -0.5432  0.2432
 4710SOL    HW125766   0.531   2.159   5.696  2.1408  0.6774  0.2687
 4710SOL    HW225767   0.616   2.038   5.692 -0.7954 -1.0601  0.7988
 4711SOL     OW25768   3.554   0.967   5.479  0.0762 -0.0050  0.1007
 4711SOL    HW125769   3.520   0.879   5.466 -3.1711  1.3747 -0.9229
 4711SOL    HW225770   3.647   0.952   5.493 -0.0130  1.0629  1.9321
 4712SOL     OW25771   2.796   2.371   3.020  0.1536 -0.2019  0.6814
 4712SOL    HW125772   2.859   2.418   2.965 -2.0611  1.6203 -0.3293
 4712SOL    HW225773   2.719   2.415   2.983  1.0368  0.3368 -0.5387
 4713SOL     OW25774   0.712   0.426  16.774  0.0845 -0.4901 -0.5628
 4713SOL    HW125775   0.755   0.340  16.780 -1.1020 -0.9921  0.6063
 4713SOL    HW225776   0.736   0.459  16.688  0.9783  1.4991  0.4295
 4714SOL     OW25777   3.599   1.046   4.624  0.1099 -0.2903  0.1763
 4714SOL    HW125778   3.684   1.002   4.631  0.6552  0.8961  1.0504
 4714SOL    HW225779   3.577   1.021   4.534  0.6094  1.7897 -0.5177
 4715SOL     OW25780   2.215   4.604   6.925 -0.4610  0.4851 -0.0095
 4715SOL    HW125781   2.268   4.643   6.856 -0.9345 -0.7096 -1.0595
 4715SOL    HW225782   2.281   4.575   6.988  0.5620  1.0608 -0.8250
 4716SOL     OW25783   2.504   1.953   2.910 -0.8103 -0.5922 -0.2567
 4716SOL    HW125784   2.535   2.031   2.957 -2.2737 -0.2775  0.1682
 4716SOL    HW225785   2.410   1.967   2.904 -0.5770  1.0580 -0.0219
 4717SOL     OW25786   3.325   2.593   2.055 -0.5626 -0.1751  0.1923
 4717SOL    HW125787   3.410   2.575   2.096 -0.3998  1.4726  0.5643
 4717SOL    HW225788   3.330   2.688   2.061 -0.9577  0.0210 -3.0390
 4718SOL     OW25789   3.936   2.637   2.694  0.1737 -0.4199  0.2240
 4718SOL    HW125790   3.929   2.592   2.778 -2.3247 -1.4230 -0.5290
 4718SOL    HW225791   3.898   2.723   2.710  0.0745 -0.6578  1.2301
 4719SOL     OW25792   3.752   0.862   9.094  0.0215 -0.8499  0.3612
 4719SOL    HW125793   3.809   0.786   9.089 -2.0811 -2.1398 -3.9056
 4719SOL    HW225794   3.665   0.824   9.107 -1.2347  1.0284 -2.6038
 4720SOL     OW25795   3.245   2.084  15.949 -0.0699  0.4489 -0.9652
 4720SOL    HW125796   3.156   2.055  15.970  0.6625 -0.7112  0.5975
 4720SOL    HW225797   3.275   2.027  15.878 -0.2052 -0.9274  0.0749
 4721SOL     OW25798   0.110   2.072   4.173  0.8355 -0.1438  0.2570
 4721SOL    HW125799   0.098   2.062   4.267  0.5710 -0.5625  0.1804
 4721SOL    HW225800   0.146   1.991   4.137  1.3888  0.7104 -1.1363
 4722SOL     OW25801   4.140   1.420  11.493  0.4814 -0.0171  0.1188
 4722SOL    HW125802   4.074   1.481  11.462  0.0733 -0.8548 -0.6504
 4722SOL    HW225803   4.088   1.361  11.547 -0.8773  0.1949 -0.9561
 4723SOL     OW25804   2.268   4.083  15.310  0.2797  0.4031 -0.3141
 4723SOL    HW125805   2.176   4.069  15.330  0.3763  0.6285  0.2931
 4723SOL    HW225806   2.261   4.171  15.275 -1.4880  0.0038 -0.9353
 4724SOL     OW25807   1.689   2.424  11.131 -0.4271  0.3944 -0.2319
 4724SOL    HW125808   1.774   2.413  11.088  0.9372  2.5558  1.9275
 4724SOL    HW225809   1.630   2.394  11.062 -2.8371 -0.1951  2.0839
 4725SOL     OW25810   2.838   3.818  13.137  0.1128  0.1927  0.3395
 4725SOL    HW125811   2.839   3.910  13.110  2.4511  0.2239  0.5097
 4725SOL    HW225812   2.747   3.801  13.114  0.7354 -1.1328 -1.1957
 4726SOL     OW25813   0.997   3.777  13.736  0.1248 -0.6450 -0.0330
 4726SOL    HW125814   1.039   3.694  13.710 -1.4740 -2.0401  1.8471
 4726SOL    HW225815   1.075   3.814  13.777 -1.4102  0.8407  1.5415
 4727SOL     OW25816   0.669   4.318   3.429 -0.5058 -0.5910  0.2069
 4727SOL    HW125817   0.618   4.295   3.351 -0.2306  0.3320 -0.2425
 4727SOL    HW225818   0.607   4.296   3.498 -1.5180  1.9671  0.1138
 4728SOL     OW25819   0.052   4.444   5.943  0.0036  0.1849  0.0604
 4728SOL    HW125820   0.071   4.384   6.015 -1.5578  0.3266  0.5879
 4728SOL    HW225821   0.115   4.513   5.965 -0.4894  1.2808 -1.9312
 4729SOL     OW25822   0.684   0.422   6.933  0.3548 -0.5747 -0.0043
 4729SOL    HW125823   0.646   0.426   6.845 -1.3165  1.1128  0.8114
 4729SOL    HW225824   0.775   0.441   6.910  0.1168  0.0295 -0.4513
 4730SOL     OW25825   4.502   0.577   5.508  0.3171  0.1398 -0.2818
 4730SOL    HW125826   4.537   0.605   5.593  0.8623 -1.0410 -0.1107
 4730SOL    HW225827   4.582   0.563   5.459  0.9434 -3.2541  1.7094
 4731SOL     OW25828   0.992   1.268   6.163  0.2128 -0.2880  0.3469
 4731SOL    HW125829   1.034   1.321   6.230  0.4873  1.2735 -1.0591
 4731SOL    HW225830   0.907   1.313   6.168  0.9590  1.1221  0.4188
 4732SOL     OW25831   3.186   2.937  13.710  0.2582 -0.1273  0.3454
 4732SOL    HW125832   3.099   2.975  13.698 -0.0248 -0.1610  2.1927
 4732SOL    HW225833   3.228   2.952  13.626  0.3673 -0.8168  0.2774
 4733SOL     OW25834   1.854   4.454  10.159  0.2029 -0.1731 -0.7885
 4733SOL    HW125835   1.945   4.430  10.144  0.3764  0.6107 -1.0236
 4733SOL    HW225836   1.820   4.366  10.171 -2.2276  0.9484  0.6515
 4734SOL     OW25837   0.904   4.389  12.080 -0.3476  0.4841 -0.2630
 4734SOL    HW125838   0.881   4.478  12.054  0.6268  0.7897 -0.0970
 4734SOL    HW225839   0.819   4.346  12.084 -0.0618  0.0136  0.6534
 4735SOL     OW25840   1.658   3.659   2.294 -0.2427 -0.1288 -0.9028
 4735SOL    HW125841   1.676   3.707   2.375 -3.1476  0.7366 -0.7516
 4735SOL    HW225842   1.743   3.653   2.251  0.9085 -2.5600  1.7458
 4736SOL     OW25843   1.086   2.058   8.019 -0.1868 -0.6672 -0.7005
 4736SOL    HW125844   1.167   2.100   8.049 -0.6154 -0.8013  0.6360
 4736SOL    HW225845   1.026   2.104   8.078 -0.1366 -0.4918 -0.7844
 4737SOL     OW25846   3.364   0.412   2.837  0.1361 -0.3664  0.5042
 4737SOL    HW125847   3.372   0.498   2.877 -1.6041 -0.3350  0.7845
 4737SOL    HW225848   3.435   0.415   2.772  1.4228 -0.3753  1.9106
 4738SOL     OW25849   2.624   0.076   6.626  0.2014  0.2217  0.2790
 4738SOL    HW125850   2.687   0.147   6.638  0.8399 -0.4850  1.0629
 4738SOL    HW225851   2.578   0.089   6.543  1.7044  0.0181 -0.5835
 4739SOL     OW25852   3.444   2.078   4.949 -0.0617  0.0790  0.4287
 4739SOL    HW125853   3.531   2.059   4.984  0.1726 -1.3242 -0.9113
 4739SOL    HW225854   3.450   2.173   4.960  3.3289 -0.1601  0.5002
 4740SOL     OW25855   3.073   3.617   1.618  0.3626  0.2641 -0.2985
 4740SOL    HW125856   2.991   3.661   1.642  0.0197  0.3127 -1.5519
 4740SOL    HW225857   3.129   3.689   1.589  0.6877 -0.3654 -1.2264
 4741SOL     OW25858   0.813   0.221  17.326  0.4143  0.0110 -0.0431
 4741SOL    HW125859   0.807   0.126  17.322  1.3478 -0.1233  1.8616
 4741SOL    HW225860   0.774   0.240  17.241  1.1718 -2.4625 -0.9476
 4742SOL     OW25861   3.327   0.322   3.524 -0.1300 -0.5523 -0.0364
 4742SOL    HW125862   3.369   0.240   3.549  0.9535 -0.2343 -0.8345
 4742SOL    HW225863   3.397   0.388   3.523 -0.0300 -0.6791 -1.6466
 4743SOL     OW25864   3.376   4.585   4.371 -0.0221  0.5747 -0.2227
 4743SOL    HW125865   3.326   4.624   4.300 -0.0850  1.4039  0.2784
 4743SOL    HW225866   3.398   4.500   4.334 -1.7043 -0.9410  2.2815
 4744SOL     OW25867   4.378   1.634   0.103  0.9773 -0.6261 -0.0338
 4744SOL    HW125868   4.321   1.564   0.134  0.3199 -0.1023 -0.0347
 4744SOL    HW225869   4.315   1.661   0.035  1.0988 -0.4090 -0.0610
 4745SOL     OW25870   3.637   1.036   5.917 -0.5163  0.5744  0.5067
 4745SOL    HW125871   3.698   1.076   5.855 -0.6766  1.8192  1.1677
 4745SOL    HW225872   3.561   1.093   5.908 -0.6526  0.3531  0.2653
 4746SOL     OW25873   3.221   4.611   5.746 -0.3528  0.1965 -0.1858
 4746SOL    HW125874   3.275   4.687   5.724  1.6119 -1.2623 -0.4240
 4746SOL    HW225875   3.255   4.550   5.680  0.3296  0.0411  0.3124
 4747SOL     OW25876   0.909   4.083   7.769 -0.3128 -0.1042 -0.0982
 4747SOL    HW125877   0.818   4.070   7.796 -0.5385  1.3395 -0.2016
 4747SOL    HW225878   0.943   3.994   7.783 -1.0445 -0.2155  0.9806
 4748SOL     OW25879   0.636   1.129   1.210 -0.2542 -0.1645 -0.0318
 4748SOL    HW125880   0.684   1.146   1.128 -2.1109  1.6508 -0.7473
 4748SOL    HW225881   0.687   1.063   1.257  1.3774  1.1113 -0.0212
 4749SOL     OW25882   1.798   3.969   5.579  0.0587  0.3498 -0.2201
 4749SOL    HW125883   1.836   3.947   5.664 -0.1701  1.3832  0.1582
 4749SOL    HW225884   1.810   4.064   5.584  1.0670  0.2356 -0.4340
 4750SOL     OW25885   0.572   4.090   4.765  0.4927 -0.2919 -0.1118
 4750SOL    HW125886   0.477   4.079   4.776  0.3371  1.5909  0.4554
 4750SOL    HW225887   0.592   4.000   4.738  0.3947 -0.7028  1.1670
 4751SOL     OW25888   2.136   2.394  11.085  0.3661  0.2094 -0.1966
 4751SOL    HW125889   2.218   2.371  11.041  1.2036  0.7053  1.1382
 4751SOL    HW225890   2.138   2.360  11.174 -0.0216  0.1242 -0.2218
 4752SOL     OW25891   4.730   2.289   1.598  0.2750 -0.4975 -0.0616
 4752SOL    HW125892   4.725   2.337   1.681  1.4735 -1.1990  0.4147
 4752SOL    HW225893   4.646   2.320   1.562 -0.8166  0.3098  3.1655
 4753SOL     OW25894   0.681   0.914  12.286 -0.7322  0.2737 -0.1335
 4753SOL    HW125895   0.695   0.942  12.377  0.8854 -0.4513 -0.1656
 4753SOL    HW225896   0.620   0.985  12.265  0.5142  1.1500 -0.8033
 4754SOL     OW25897   2.614   2.177   7.753 -0.3096 -0.2273  0.3346
 4754SOL    HW125898   2.579   2.173   7.842  1.2391 -3.4800  0.8155
 4754SOL    HW225899   2.567   2.110   7.704  2.7783 -0.9548 -1.5963
 4755SOL     OW25900   3.048   3.836   1.858 -0.2487 -0.0662  0.4109
 4755SOL    HW125901   3.127   3.805   1.903  1.0647  2.6213 -0.0316
 4755SOL    HW225902   3.087   3.876   1.780 -0.0368  2.7698  1.9352
 4756SOL     OW25903   3.750   3.317  12.077  0.2851 -0.5581  0.1366
 4756SOL    HW125904   3.754   3.411  12.059 -0.5007 -0.6303 -0.4221
 4756SOL    HW225905   3.725   3.280  11.992 -0.6341  0.9184 -0.2358
 4757SOL     OW25906   0.720   1.015   5.973 -0.1582 -0.3098 -0.4040
 4757SOL    HW125907   0.646   1.059   6.015  0.2086 -0.0488 -0.0209
 4757SOL    HW225908   0.744   0.957   6.046 -1.6974  0.3711  0.6471
 4758SOL     OW25909   0.846   0.864   9.029 -0.4391  0.2405 -0.7275
 4758SOL    HW125910   0.779   0.918   8.987 -2.1204 -0.8126  0.5866
 4758SOL    HW225911   0.795   0.804   9.084  0.9080 -0.9400 -0.7496
 4759SOL     OW25912   2.883   0.388   1.973  0.0127  0.8429  0.2054
 4759SOL    HW125913   2.934   0.392   1.892  0.6230  0.7992  0.5879
 4759SOL    HW225914   2.862   0.481   1.982  0.0843  0.6745  2.0576
 4760SOL     OW25915   2.752   3.244   3.278 -0.4818 -0.0898 -0.1444
 4760SOL    HW125916   2.729   3.211   3.192 -2.0967  0.3611  0.1203
 4760SOL    HW225917   2.838   3.284   3.265 -0.1985 -0.7114 -0.1904
 4761SOL     OW25918   4.338   2.709   4.607 -0.0901  0.3616  0.1870
 4761SOL    HW125919   4.389   2.628   4.601  0.1932  0.6691 -1.6161
 4761SOL    HW225920   4.406   2.775   4.621  0.5540 -0.2032 -0.2455
 4762SOL     OW25921   2.436   3.546   2.096  0.6639 -0.3339  0.1259
 4762SOL    HW125922   2.482   3.630   2.097  0.0781  0.0060 -0.9389
 4762SOL    HW225923   2.515   3.495   2.078  0.2443 -0.5050 -1.2756
 4763SOL     OW25924   0.355   2.316   2.366  0.2219  0.4634  0.6468
 4763SOL    HW125925   0.328   2.287   2.453 -1.7205 -0.0410 -0.1159
 4763SOL    HW225926   0.414   2.251   2.329 -0.2542  0.9936 -1.0559
 4764SOL     OW25927   2.995   3.321  16.452 -0.6875  0.4144 -0.2664
 4764SOL    HW125928   2.911   3.316  16.497 -0.5421  1.7860  0.1714
 4764SOL    HW225929   3.036   3.384  16.512 -1.1619 -0.4358  0.9331
 4765SOL     OW25930   3.743   0.666  12.423  0.1286 -0.2954 -0.0843
 4765SOL    HW125931   3.756   0.666  12.329  1.0859  3.0472  0.0451
 4765SOL    HW225932   3.795   0.590  12.451  0.3264  0.1825  0.8820
 4766SOL     OW25933   1.813   0.634   4.814 -0.4692  0.1763  0.6151
 4766SOL    HW125934   1.717   0.627   4.813 -0.7030  3.1917  1.3325
 4766SOL    HW225935   1.851   0.596   4.735 -2.6708 -1.9906  0.5857
 4767SOL     OW25936   4.272   1.715   9.692 -0.4773 -0.4924 -0.1824
 4767SOL    HW125937   4.357   1.723   9.648  0.4997  3.1957  2.3892
 4767SOL    HW225938   4.215   1.739   9.619 -0.7689 -0.4856  0.0490
 4768SOL     OW25939   4.430   3.139   3.971  0.0394 -0.4407 -0.5333
 4768SOL    HW125940   4.479   3.110   4.047  0.7735  0.7413 -0.5500
 4768SOL    HW225941   4.495   3.149   3.902  1.6555 -0.7473  0.9382
 4769SOL     OW25942   3.905   3.326   5.006  0.1639  0.2727  0.3619
 4769SOL    HW125943   3.896   3.260   4.937 -1.4404 -1.2218  2.0109
 4769SOL    HW225944   3.984   3.372   4.979  0.3097  0.5885  1.3427
 4770SOL     OW25945   1.531   1.673   8.190  0.1704  0.1762  0.2292
 4770SOL    HW125946   1.454   1.618   8.175  0.7180 -1.1382  2.1822
 4770SOL    HW225947   1.594   1.631   8.132  0.9102  0.5766  0.7349
 4771SOL     OW25948   1.060   3.941   6.285  0.2295 -0.4737  0.2551
 4771SOL    HW125949   1.153   3.923   6.272  0.0453 -1.3377  0.1082
 4771SOL    HW225950   1.056   4.032   6.316  0.8042 -0.1749 -0.5498
 4772SOL     OW25951   2.757   4.549   4.170  0.3463 -0.4210 -0.3195
 4772SOL    HW125952   2.783   4.637   4.198  2.2965 -1.0121 -0.2726
 4772SOL    HW225953   2.836   4.515   4.126  1.4213 -0.4436  1.6107
 4773SOL     OW25954   0.933   2.852  10.929  0.8008 -0.0597  0.0440
 4773SOL    HW125955   0.905   2.933  10.886 -1.0906 -0.7030  0.0696
 4773SOL    HW225956   0.906   2.869  11.019 -0.9142  1.2702 -0.7281
 4774SOL     OW25957   0.863   2.293   0.687 -0.5517 -0.1272 -0.0215
 4774SOL    HW125958   0.884   2.252   0.772 -1.3853 -2.2569 -0.8504
 4774SOL    HW225959   0.878   2.227   0.620 -0.2523  1.0602 -1.1348
 4775SOL     OW25960   4.137   3.255  15.739  0.1615 -0.3099  0.2006
 4775SOL    HW125961   4.080   3.326  15.767 -0.0201  0.1094 -1.2549
 4775SOL    HW225962   4.079   3.202  15.684  0.2382 -1.0005  0.7734
 4776SOL     OW25963   0.289   0.215   1.814 -0.2956 -0.0434 -0.2011
 4776SOL    HW125964   0.272   0.234   1.722 -1.3636 -1.4696 -0.3051
 4776SOL    HW225965   0.332   0.130   1.800  0.3660  0.4549 -1.2160
 4777SOL     OW25966   1.357   4.043   3.199 -0.1434  0.2175 -0.1353
 4777SOL    HW125967   1.348   4.056   3.294 -0.4117  0.7366 -0.2296
 4777SOL    HW225968   1.269   4.055   3.164 -0.3835  3.2815  1.4931
 4778SOL     OW25969   0.296   3.590   8.798 -0.2208  0.7857  0.0449
 4778SOL    HW125970   0.311   3.609   8.891  2.8420 -0.4966 -0.2068
 4778SOL    HW225971   0.296   3.495   8.810  0.5124  0.4695 -2.6100
 4779SOL     OW25972   0.002   2.737   1.820 -0.0286  0.1154  0.2145
 4779SOL    HW125973   4.695   2.820   1.799  3.5012  2.0776  0.5331
 4779SOL    HW225974   4.689   2.721   1.900 -1.7546 -1.0633 -1.1085
 4780SOL     OW25975   2.728   0.787   8.100  0.7353  0.2014  0.2033
 4780SOL    HW125976   2.743   0.697   8.130  2.0345 -0.2458 -1.7941
 4780SOL    HW225977   2.813   0.827   8.120  0.9325 -0.0098 -0.2206
 4781SOL     OW25978   0.126   3.545  12.441  0.0523  0.1412  0.3762
 4781SOL    HW125979   0.201   3.524  12.387 -1.9371 -0.8101 -2.0276
 4781SOL    HW225980   0.055   3.511  12.386  0.7878 -0.5361 -0.1411
 4782SOL     OW25981   3.360   4.104   8.050 -0.2907  0.1925 -0.4480
 4782SOL    HW125982   3.309   4.177   8.013 -2.8202 -0.4054  1.8237
 4782SOL    HW225983   3.298   4.032   8.042  0.0931 -0.1330 -0.4542
 4783SOL     OW25984   3.769   0.049   3.707  0.5178 -0.7941 -0.4207
 4783SOL    HW125985   3.798   0.132   3.746 -0.0398  0.2252 -2.1781
 4783SOL    HW225986   3.727   0.075   3.625  2.3035  0.1604 -1.0451
 4784SOL     OW25987   2.673   4.503   7.980 -0.4196 -0.2888 -0.4970
 4784SOL    HW125988   2.699   4.419   8.017 -0.5647 -0.7522 -1.4570
 4784SOL    HW225989   2.662   4.554   8.061  2.7490  0.0693 -0.2832
 4785SOL     OW25990   2.914   1.552   3.987 -0.0261  0.5593  0.0779
 4785SOL    HW125991   2.990   1.585   3.940 -0.5027  2.2657  0.4850
 4785SOL    HW225992   2.895   1.470   3.941  1.9332 -0.5129  1.2231
 4786SOL     OW25993   2.636   4.318   4.896  0.8091 -0.2427 -0.2860
 4786SOL    HW125994   2.573   4.257   4.859 -0.0702  0.1188  0.6359
 4786SOL    HW225995   2.613   4.388   4.835 -2.2759 -0.2539  0.8962
 4787SOL     OW25996   0.911   4.140   3.477 -0.4392  0.2734  0.3842
 4787SOL    HW125997   0.900   4.048   3.453 -3.2731  0.3167  1.5223
 4787SOL    HW225998   0.820   4.169   3.471 -0.9018 -0.3563  4.1227
 4788SOL     OW25999   3.148   4.176  12.033  0.1766 -0.2532  0.4904
 4788SOL    HW126000   3.235   4.211  12.054 -0.3830  0.2976  1.9187
 4788SOL    HW226001   3.119   4.127  12.111  0.8746  0.0021  0.9157
 4789SOL     OW26002   0.854   3.363  12.383 -0.0572  0.3451  0.6877
 4789SOL    HW126003   0.802   3.297  12.428  0.7996 -0.8414 -0.0414
 4789SOL    HW226004   0.837   3.435  12.443  0.6953 -0.4621  1.8538
 4790SOL     OW26005   3.238   0.354   9.496  0.8324 -0.0192  0.0435
 4790SOL    HW126006   3.233   0.316   9.584 -0.4671 -1.7883 -0.7924
 4790SOL    HW226007   3.173   0.424   9.501  0.1959 -0.4985 -1.3923
 4791SOL     OW26008   3.218   0.154   1.277  0.3098  0.3835 -0.2462
 4791SOL    HW126009   3.208   0.192   1.364  1.4077 -3.5268  1.6267
 4791SOL    HW226010   3.301   0.107   1.286 -0.0012 -0.1002  0.0917
 4792SOL     OW26011   3.211   2.034  14.143  0.1971  0.1098 -0.8034
 4792SOL    HW126012   3.179   2.092  14.212 -0.2658 -2.7437  1.4039
 4792SOL    HW226013   3.214   1.944  14.176  1.6464  0.5207  0.1890
 4793SOL     OW26014   1.298   3.494   9.347  0.1658 -0.0712  0.0189
 4793SOL    HW126015   1.238   3.453   9.285 -0.3178 -1.0528  1.1449
 4793SOL    HW226016   1.380   3.445   9.339  1.0966  0.9902  3.0060
 4794SOL     OW26017   2.521   0.619  16.134 -0.4777  0.0840  0.1046
 4794SOL    HW126018   2.587   0.623  16.202 -1.1764 -3.0900  0.9809
 4794SOL    HW226019   2.441   0.624  16.186 -0.9519  0.8355 -0.6907
 4795SOL     OW26020   2.983   0.865   5.879  0.2670 -0.1367 -0.0947
 4795SOL    HW126021   2.912   0.908   5.927  1.4296 -3.0819  4.3184
 4795SOL    HW226022   2.972   0.793   5.942 -0.3258  0.7497  0.8193
 4796SOL     OW26023   1.757   2.630   8.430 -0.2873 -0.7937 -0.2921
 4796SOL    HW126024   1.721   2.547   8.401  0.7973 -2.7596  3.9664
 4796SOL    HW226025   1.675   2.663   8.466 -0.6735 -3.0965  0.9260
 4797SOL     OW26026   1.230   2.067  11.025 -0.2362 -0.9465  0.0615
 4797SOL    HW126027   1.256   1.983  10.987  1.8716  0.3102 -1.2794
 4797SOL    HW226028   1.269   2.041  11.108 -0.5914 -0.5318  0.3608
 4798SOL     OW26029   2.523   3.819   2.860  0.0680 -0.5324 -0.2779
 4798SOL    HW126030   2.532   3.765   2.782 -1.7600  3.4713 -3.3199
 4798SOL    HW226031   2.578   3.767   2.917 -0.8719  0.0350  1.1433
 4799SOL     OW26032   1.806   3.447  14.312 -0.7699  0.2727  0.1055
 4799SOL    HW126033   1.724   3.483  14.347 -1.6528  1.2414 -3.0193
 4799SOL    HW226034   1.792   3.355  14.337  2.1711 -0.1075  0.2666
 4800SOL     OW26035   2.623   0.906   4.890  0.2148 -0.1042 -0.2389
 4800SOL    HW126036   2.674   0.961   4.950 -1.4770  0.8489  0.3379
 4800SOL    HW226037   2.577   0.844   4.946  1.1611  0.4797  1.1985
 4801SOL     OW26038   1.428   2.476   8.170  0.0839  0.6482  0.0909
 4801SOL    HW126039   1.437   2.571   8.177  0.0471  0.7653 -1.5270
 4801SOL    HW226040   1.332   2.472   8.160 -0.1907  0.0387  2.9388
 4802SOL     OW26041   1.177   0.489  11.828  0.5355  0.6249 -0.2304
 4802SOL    HW126042   1.239   0.454  11.764 -2.2443  0.6970 -2.9463
 4802SOL    HW226043   1.242   0.529  11.886  0.4234 -0.3137  0.5465
 4803SOL     OW26044   1.161   4.415  11.335  0.1265  0.3134  0.1839
 4803SOL    HW126045   1.216   4.396  11.411  0.1080 -0.2808  0.0510
 4803SOL    HW226046   1.157   4.325  11.302  2.3289  0.8576 -1.5757
 4804SOL     OW26047   2.596   0.938   0.409 -0.3042  0.1774  0.1842
 4804SOL    HW126048   2.631   0.947   0.497  0.5486 -0.1694 -0.1246
 4804SOL    HW226049   2.537   1.013   0.407  0.1993  0.5880  1.3374
 4805SOL     OW26050   0.249   3.097   2.978  0.4533 -0.4038  0.6497
 4805SOL    HW126051   0.295   3.040   2.917 -0.0886  0.8469 -0.9432
 4805SOL    HW226052   0.307   3.171   2.995 -0.0189  0.4755 -1.5645
 4806SOL     OW26053   0.503   1.767   3.085  0.2440  0.1915  0.4927
 4806SOL    HW126054   0.447   1.706   3.037 -1.3081  0.0871  2.4609
 4806SOL    HW226055   0.543   1.721   3.159 -3.2868 -1.3518  1.4347
 4807SOL     OW26056   3.247   0.674  10.668 -0.2620  0.5478  0.1896
 4807SOL    HW126057   3.221   0.765  10.653 -0.8925  0.5103  1.0855
 4807SOL    HW226058   3.158   0.641  10.672  0.4640 -1.4901 -0.2530
 4808SOL     OW26059   2.513   0.015   7.571  0.3794  0.4211  0.2139
 4808SOL    HW126060   2.574   4.733   7.643 -0.2971 -0.2212  0.6326
 4808SOL    HW226061   2.463   4.669   7.575  1.5018 -0.2792 -0.2878
 4809SOL     OW26062   2.916   2.454  17.041  0.3137  0.0489  0.2109
 4809SOL    HW126063   2.938   2.533  17.090 -1.2509  1.3923 -1.2327
 4809SOL    HW226064   2.999   2.442  16.994  0.1166 -0.8401  0.0918
 4810SOL     OW26065   4.623   3.913  11.332  0.0736 -0.2992 -0.0177
 4810SOL    HW126066   4.597   3.978  11.398  1.6312 -0.8059  1.0782
 4810SOL    HW226067   4.570   3.840  11.365 -0.8480  0.7303  0.7687
 4811SOL     OW26068   1.369   1.481   0.904 -0.3971  0.2303 -0.2443
 4811SOL    HW126069   1.309   1.447   0.970  0.1114 -1.5391 -0.7000
 4811SOL    HW226070   1.381   1.574   0.926 -0.7687  0.3677 -0.6194
 4812SOL     OW26071   1.875   3.826   3.314 -0.3209  0.7243 -0.4647
 4812SOL    HW126072   1.783   3.832   3.338 -0.4046 -1.4140 -0.2823
 4812SOL    HW226073   1.880   3.898   3.252  1.6824  1.1119  0.1492
 4813SOL     OW26074   3.955   3.380  12.670  0.0843 -0.3226  0.1018
 4813SOL    HW126075   4.036   3.429  12.655 -0.4732  0.5118 -0.2064
 4813SOL    HW226076   3.986   3.293  12.695 -0.2773  0.3577  2.9210
 4814SOL     OW26077   0.898   2.364  17.512 -0.2494 -0.4128  0.0260
 4814SOL    HW126078   0.965   2.340  17.575 -0.5784 -1.3605  0.0208
 4814SOL    HW226079   0.924   2.456  17.504 -0.3719 -0.5513 -2.0208
 4815SOL     OW26080   1.283   2.967  15.607  0.3500 -0.0554 -0.0822
 4815SOL    HW126081   1.237   3.026  15.667  1.6575 -0.1087  0.9805
 4815SOL    HW226082   1.216   2.899  15.603  0.1168  0.1274  0.6225
 4816SOL     OW26083   3.918   4.571  14.962 -0.2109 -0.5015 -0.2024
 4816SOL    HW126084   3.845   4.625  14.932 -0.9525  0.1150  2.7011
 4816SOL    HW226085   3.994   4.628  14.947 -0.5458 -0.1733 -0.6333
 4817SOL     OW26086   3.570   3.521  17.167 -0.4550 -0.4873  0.0039
 4817SOL    HW126087   3.570   3.596  17.107 -0.1067  0.8448  1.6591
 4817SOL    HW226088   3.630   3.461  17.123  0.6290  1.4455 -1.1608
 4818SOL     OW26089   2.393   1.525   0.016  0.3416  0.2046  0.3366
 4818SOL    HW126090   2.377   1.569   0.099  0.0671 -0.4358  0.6237
 4818SOL    HW226091   2.450   1.454   0.045 -0.7453 -0.8690 -0.1263
 4819SOL     OW26092   2.944   0.045   4.781 -0.2135 -0.0277  0.2822
 4819SOL    HW126093   2.884   0.006   4.717  0.3893 -1.5794  0.6539
 4819SOL    HW226094   2.984   4.705   4.822 -0.3861  0.2022  0.8763
 4820SOL     OW26095   4.391   2.053   3.965 -0.4339 -0.1911 -0.3795
 4820SOL    HW126096   4.317   1.995   3.986 -0.8307  1.0673  1.6899
 4820SOL    HW226097   4.386   2.123   4.031  1.4669  1.6878 -2.2360
 4821SOL     OW26098   1.256   0.106   9.089 -0.3324  0.3957  0.0903
 4821SOL    HW126099   1.332   0.165   9.097 -0.1309  0.5418 -2.8525
 4821SOL    HW226100   1.246   0.113   8.994 -1.9501  1.7740  0.3622
 4822SOL     OW26101   4.271   1.112   6.457 -0.3865 -0.6394 -0.2962
 4822SOL    HW126102   4.292   1.196   6.415  2.7958 -0.4287  1.7204
 4822SOL    HW226103   4.253   1.051   6.385  0.0426 -0.0490 -0.9008
 4823SOL     OW26104   0.684   3.994  14.159  0.4229 -0.7449 -0.0262
 4823SOL    HW126105   0.634   4.070  14.189  2.0967  1.2490 -2.2648
 4823SOL    HW226106   0.754   4.041  14.114  1.7686 -1.8548  0.8999
 4824SOL     OW26107   1.298   3.317  13.277 -0.4582 -0.2955 -0.0408
 4824SOL    HW126108   1.327   3.357  13.194  2.1186 -0.1805  0.9205
 4824SOL    HW226109   1.235   3.380  13.310 -2.2686 -1.7703 -0.6983
 4825SOL     OW26110   1.741   1.641   0.223 -0.1845  0.4957 -0.1313
 4825SOL    HW126111   1.836   1.631   0.235  0.0580  0.7933 -1.8319
 4825SOL    HW226112   1.725   1.558   0.178 -1.6061  1.2207 -0.9400
 4826SOL     OW26113   2.383   2.959   1.687 -0.2290 -0.1062  0.4499
 4826SOL    HW126114   2.299   2.915   1.696 -1.1802  1.5892 -0.2229
 4826SOL    HW226115   2.397   3.016   1.763  1.8859 -0.5501  0.3869
 4827SOL     OW26116   0.778   1.350   2.417  0.2561  0.4014  0.0514
 4827SOL    HW126117   0.760   1.366   2.325  0.6207  4.4936  0.6881
 4827SOL    HW226118   0.795   1.443   2.434 -2.9752  1.1265 -0.6932
 4828SOL     OW26119   2.522   3.061   7.765 -0.0676  0.0264 -0.0683
 4828SOL    HW126120   2.509   2.985   7.709 -1.6117  0.2718 -0.0527
 4828SOL    HW226121   2.544   3.015   7.845 -0.6532 -0.2023 -0.0397
 4829SOL     OW26122   0.037   3.986  17.427 -0.2764 -0.6319 -0.2198
 4829SOL    HW126123   0.007   3.996  17.337 -0.6061 -0.6276 -0.1069
 4829SOL    HW226124   4.736   4.057  17.479  0.9246 -0.1156 -0.0426
 4830SOL     OW26125   2.695   0.607   8.433  0.1451 -0.0419  0.1143
 4830SOL    HW126126   2.664   0.564   8.353  1.0991 -0.6891  0.1000
 4830SOL    HW226127   2.616   0.587   8.485  0.4828  1.2080  1.0926
 4831SOL     OW26128   4.649   2.152   5.698 -0.1214 -0.2723 -0.2957
 4831SOL    HW126129   4.646   2.106   5.781  0.3864 -0.8918 -0.6225
 4831SOL    HW226130   4.636   2.242   5.726 -1.6116  0.1301 -2.2261
 4832SOL     OW26131   4.120   1.683   0.481 -0.6435  0.6451 -0.4949
 4832SOL    HW126132   4.191   1.661   0.541  0.3299  1.1493 -1.4620
 4832SOL    HW226133   4.076   1.751   0.533  0.2029  0.6043  0.2733
 4833SOL     OW26134   4.602   0.444   9.265  0.0201 -0.1808  0.3830
 4833SOL    HW126135   4.644   0.358   9.264 -0.1691 -0.2666 -0.1251
 4833SOL    HW226136   4.677   0.488   9.306 -0.2394  0.4513  0.1877
 4834SOL     OW26137   4.631   2.607   1.545  0.3866 -0.2120  0.0004
 4834SOL    HW126138   4.547   2.597   1.500 -0.3665 -0.4617  1.4696
 4834SOL    HW226139   4.660   2.697   1.528  1.6524 -0.6390 -0.1560
 4835SOL     OW26140   2.487   0.612   3.508  0.0176  0.0499  0.1063
 4835SOL    HW126141   2.400   0.576   3.491  0.1733 -1.1631  1.8310
 4835SOL    HW226142   2.518   0.634   3.420 -0.9839  2.3381  0.3213
 4836SOL     OW26143   2.766   0.729   9.345 -0.2123 -0.2754 -0.6577
 4836SOL    HW126144   2.738   0.674   9.272 -0.6035 -0.5853 -0.2729
 4836SOL    HW226145   2.702   0.708   9.413 -0.9118 -1.9599 -1.8186
 4837SOL     OW26146   0.016   1.760   3.481 -0.4157  0.0893  0.4879
 4837SOL    HW126147   4.661   1.755   3.453 -0.0798  0.4460 -0.6728
 4837SOL    HW226148   0.037   1.850   3.457 -0.1915  0.3129  1.5076
 4838SOL     OW26149   0.079   0.895   4.388 -0.6755 -0.0704 -0.4869
 4838SOL    HW126150   0.084   0.859   4.476  0.6282 -0.5791 -0.7740
 4838SOL    HW226151   0.119   0.982   4.393 -3.7942  1.2091  1.9285
 4839SOL     OW26152   2.882   4.659   8.646 -0.0237 -0.1703  0.0612
 4839SOL    HW126153   2.977   4.656   8.653 -0.0941  0.0032  1.0979
 4839SOL    HW226154   2.861   4.615   8.728  0.3312 -0.6555 -0.1100
 4840SOL     OW26155   0.264   4.211   4.951 -0.1050 -0.2113 -0.8911
 4840SOL    HW126156   0.351   4.237   4.984 -0.2018 -2.5012  1.1796
 4840SOL    HW226157   0.288   4.128   4.911  0.8918 -0.8017  0.9308
 4841SOL     OW26158   0.777   4.010   5.170 -0.4843  0.2785  0.1520
 4841SOL    HW126159   0.866   4.007   5.205 -1.3483 -2.0886  2.1839
 4841SOL    HW226160   0.793   4.057   5.089 -0.8847 -1.8210 -1.1590
 4842SOL     OW26161   2.790   3.911   0.460 -0.4363 -0.0033  0.2562
 4842SOL    HW126162   2.754   3.921   0.549  0.1999 -0.8184  0.6066
 4842SOL    HW226163   2.877   3.951   0.468 -1.4115  1.9577  0.8613
 4843SOL     OW26164   4.340   0.201  13.754 -0.3434 -0.0676  0.1086
 4843SOL    HW126165   4.275   0.209  13.684  0.4058  4.3035 -0.1084
 4843SOL    HW226166   4.365   0.110  13.742  0.4715  0.4149 -1.8970
 4844SOL     OW26167   1.556   1.224   4.744 -0.0132  0.1594 -0.0898
 4844SOL    HW126168   1.625   1.267   4.795 -0.9262 -0.5875  1.7889
 4844SOL    HW226169   1.594   1.236   4.657  0.8740 -0.2240  0.2427
 4845SOL     OW26170   2.735   3.116   3.030  0.0701 -0.4413  0.2446
 4845SOL    HW126171   2.665   3.051   3.037 -0.4126  0.0229 -0.2115
 4845SOL    HW226172   2.810   3.069   2.995 -2.6848 -2.4880 -2.8556
 4846SOL     OW26173   1.243   3.940  13.748  0.1477 -0.4519 -0.8371
 4846SOL    HW126174   1.309   3.877  13.775  0.0640 -0.5633 -0.8930
 4846SOL    HW226175   1.279   3.969  13.665  0.5396 -0.1677 -0.5683
 4847SOL     OW26176   4.366   2.794   5.245 -0.2804  1.0433 -0.1427
 4847SOL    HW126177   4.420   2.725   5.206  0.2112  1.9204 -1.0408
 4847SOL    HW226178   4.311   2.741   5.302 -0.0416  1.2527  0.2771
 4848SOL     OW26179   3.588   3.467  13.895 -0.2388 -0.2376 -0.0677
 4848SOL    HW126180   3.525   3.395  13.904  0.0652 -0.2045  2.4285
 4848SOL    HW226181   3.641   3.466  13.975  0.4493  1.1450 -0.5259
 4849SOL     OW26182   2.244   4.311   6.875 -0.0952 -0.1090  0.3562
 4849SOL    HW126183   2.245   4.407   6.874  2.7545 -0.1310  0.1902
 4849SOL    HW226184   2.338   4.297   6.860  0.0443  1.0857  0.0879
 4850SOL     OW26185   4.222   3.022   5.670 -0.2699 -0.1465 -0.3621
 4850SOL    HW126186   4.147   3.048   5.723 -0.2964 -0.0898 -0.4274
 4850SOL    HW226187   4.217   3.075   5.590  0.7310  1.5794  0.7159
 4851SOL     OW26188   4.056   1.444   5.166 -0.0734 -0.5110  0.3487
 4851SOL    HW126189   4.085   1.532   5.141 -2.1452 -0.2285 -1.0674
 4851SOL    HW226190   4.138   1.409   5.200  0.4313 -1.3165 -1.6791
 4852SOL     OW26191   3.321   4.201   5.211 -0.5657  0.0401 -0.3213
 4852SOL    HW126192   3.402   4.166   5.172 -0.2687 -0.7830  1.0303
 4852SOL    HW226193   3.255   4.149   5.164  1.0142 -0.4968 -1.9725
 4853SOL     OW26194   3.972   2.924  10.121  0.5274 -0.4038  0.0506
 4853SOL    HW126195   4.014   2.899  10.039  0.8536 -2.2899  0.7802
 4853SOL    HW226196   4.044   2.970  10.164 -1.4329  1.0259  1.8335
 4854SOL     OW26197   1.656   2.488  15.376 -0.7030  0.3219 -0.2353
 4854SOL    HW126198   1.620   2.411  15.419 -1.2349 -0.2757 -1.7439
 4854SOL    HW226199   1.667   2.542  15.454 -2.4698  1.7531 -0.9987
 4855SOL     OW26200   1.409   3.377   3.376  0.5766 -0.0178 -0.1636
 4855SOL    HW126201   1.439   3.296   3.417  1.3762  0.0830 -0.5582
 4855SOL    HW226202   1.380   3.338   3.294 -0.6886 -0.6655  0.5742
 4856SOL     OW26203   2.365   3.483   4.635  0.1950 -0.2409  0.4809
 4856SOL    HW126204   2.349   3.404   4.686 -0.9327 -0.6144 -0.4584
 4856SOL    HW226205   2.417   3.530   4.700  3.4986 -1.2751 -1.3701
 4857SOL     OW26206   1.226   0.092  16.158  0.1595  0.1373 -0.8023
 4857SOL    HW126207   1.254   0.116  16.246 -3.0057 -0.1227  0.2699
 4857SOL    HW226208   1.294   0.030  16.131 -1.7423 -2.3498  0.0389
 4858SOL     OW26209   1.181   1.795   5.213  0.3073  0.1303  0.0938
 4858SOL    HW126210   1.257   1.737   5.217  0.9199  0.9203 -0.0395
 4858SOL    HW226211   1.224   1.876   5.242  1.5976  0.7525 -3.5159
 4859SOL     OW26212   2.846   0.630   1.402  0.3420 -0.0683 -0.2846
 4859SOL    HW126213   2.849   0.558   1.339 -1.8799 -0.0706 -0.4073
 4859SOL    HW226214   2.764   0.676   1.382  1.0168  1.0018 -0.6130
 4860SOL     OW26215   4.518   1.300   1.454 -0.5340 -0.1764  0.7529
 4860SOL    HW126216   4.443   1.355   1.433 -2.1535 -2.9743 -0.6783
 4860SOL    HW226217   4.486   1.210   1.448 -0.3130 -0.4496  3.6653
 4861SOL     OW26218   1.101   1.096  17.372 -0.0768 -0.3954  0.3767
 4861SOL    HW126219   1.137   1.180  17.401 -1.9676  0.8434 -0.8851
 4861SOL    HW226220   1.167   1.043  17.417  0.1182 -1.2341 -0.8974
 4862SOL     OW26221   4.695   2.018   5.441 -1.1605  0.0483  0.0174
 4862SOL    HW126222   4.706   2.097   5.388 -3.4927  0.2479 -0.1653
 4862SOL    HW226223   4.652   2.064   5.514  1.3384  3.4592 -0.6393
 4863SOL     OW26224   2.033   4.523   4.226  0.3961  0.1846 -0.0660
 4863SOL    HW126225   2.030   4.527   4.131 -0.8127  1.8952  0.0336
 4863SOL    HW226226   2.120   4.561   4.240  0.6456 -0.8538  1.1855
 4864SOL     OW26227   0.355   2.789   4.708 -0.0373 -0.8615 -0.1045
 4864SOL    HW126228   0.377   2.870   4.662 -0.4117 -0.7082 -0.0138
 4864SOL    HW226229   0.425   2.792   4.773  0.6805  0.4074 -0.9422
 4865SOL     OW26230   1.403   4.009   0.624 -0.1646 -0.2864 -0.0342
 4865SOL    HW126231   1.452   3.928   0.627 -0.5525 -0.5026  0.5412
 4865SOL    HW226232   1.365   4.023   0.711  1.8093  0.1401  0.7488
 4866SOL     OW26233   4.334   1.818   4.372 -0.2126  0.6491 -0.1360
 4866SOL    HW126234   4.377   1.843   4.454  0.1307 -0.4545  0.0218
 4866SOL    HW226235   4.302   1.730   4.389  0.2812  0.9807  2.4833
 4867SOL     OW26236   2.922   0.850   2.196 -0.3723  0.2027  0.4732
 4867SOL    HW126237   2.991   0.898   2.151 -2.3543  1.6360 -1.0559
 4867SOL    HW226238   2.971   0.801   2.262  1.8924  1.7467 -0.0736
 4868SOL     OW26239   3.416   4.124   7.219 -0.1139  0.0015  0.0844
 4868SOL    HW126240   3.337   4.142   7.167  1.6304  0.6570 -2.3129
 4868SOL    HW226241   3.379   4.071   7.290  2.4602 -0.1589  1.3205
 4869SOL     OW26242   1.732   1.708   0.900  0.2357 -0.0359  0.1021
 4869SOL    HW126243   1.728   1.614   0.920  0.5130 -0.1642 -0.4408
 4869SOL    HW226244   1.711   1.707   0.807  0.4199 -0.0197  0.0605
 4870SOL     OW26245   4.491   0.550  14.932 -0.2921 -0.0937  0.4137
 4870SOL    HW126246   4.584   0.528  14.923 -0.5403 -0.3738 -1.3312
 4870SOL    HW226247   4.463   0.474  14.983 -0.7111 -1.2322 -1.4997
 4871SOL     OW26248   1.993   1.574   0.316 -0.5856 -0.0454  0.2828
 4871SOL    HW126249   2.023   1.664   0.306  2.1172 -1.0840 -1.0344
 4871SOL    HW226250   1.968   1.577   0.408 -0.2875 -0.8412  0.3940
 4872SOL     OW26251   2.977   1.521  10.254 -0.3437  0.8138 -0.1459
 4872SOL    HW126252   2.975   1.549  10.346 -1.6720  4.4644 -1.3196
 4872SOL    HW226253   2.983   1.606  10.211  2.6754  1.0292  0.7123
 4873SOL     OW26254   2.994   2.201   8.753 -0.1075 -0.5935 -0.0665
 4873SOL    HW126255   3.044   2.246   8.822  2.2329  1.3697 -3.0378
 4873SOL    HW226256   2.922   2.163   8.802  0.7396 -1.7678  0.2651
 4874SOL     OW26257   1.493   3.310   1.297  0.8011 -0.2395 -0.1508
 4874SOL    HW126258   1.503   3.227   1.343 -1.5326  0.5139  1.7417
 4874SOL    HW226259   1.549   3.372   1.343  1.4713 -0.9386 -0.0312
 4875SOL     OW26260   4.490   2.609   6.349  0.4273 -0.6248  0.3855
 4875SOL    HW126261   4.463   2.694   6.383 -0.9515 -1.4625  1.3696
 4875SOL    HW226262   4.516   2.636   6.261  3.0682 -2.0473  0.7259
 4876SOL     OW26263   0.396   2.922   2.829 -0.2697 -0.1643 -0.0205
 4876SOL    HW126264   0.438   2.915   2.744 -1.8177  0.0940 -0.8084
 4876SOL    HW226265   0.309   2.895   2.800 -0.0616  0.2363 -1.0150
 4877SOL     OW26266   1.678   0.796   2.535 -0.2543 -0.2055 -0.0413
 4877SOL    HW126267   1.765   0.829   2.510 -0.1855 -1.5413 -1.6078
 4877SOL    HW226268   1.638   0.867   2.584  0.3635 -0.3042  0.6035
 4878SOL     OW26269   0.437   0.402   4.526  0.3681 -0.2176  0.2242
 4878SOL    HW126270   0.474   0.314   4.536  1.2847 -0.0438 -1.6108
 4878SOL    HW226271   0.495   0.441   4.592  0.3752  0.6619 -0.2961
 4879SOL     OW26272   4.327   2.152   8.450 -0.4347  0.2259  0.7872
 4879SOL    HW126273   4.266   2.224   8.432 -0.0427 -0.2138 -2.2815
 4879SOL    HW226274   4.262   2.086   8.476 -2.9646  2.9252  1.3798
 4880SOL     OW26275   0.724   4.641   1.814 -0.6274  0.2010  0.6218
 4880SOL    HW126276   0.771   4.586   1.750 -2.1073  1.0069 -1.1470
 4880SOL    HW226277   0.727   4.722   1.763  1.5210 -1.7539 -2.3551
 4881SOL     OW26278   4.455   3.795   6.138 -0.3683 -0.2000  0.1757
 4881SOL    HW126279   4.521   3.864   6.149 -0.4936  0.2348 -1.9123
 4881SOL    HW226280   4.380   3.845   6.106 -0.3999 -2.1166 -2.6968
 4882SOL     OW26281   1.680   3.335   4.718  0.6744  0.3136  0.6402
 4882SOL    HW126282   1.743   3.362   4.784  1.7292 -1.7320  0.4825
 4882SOL    HW226283   1.710   3.384   4.641 -0.4904 -1.5986 -1.0597
 4883SOL     OW26284   3.366   2.831  10.916 -0.7895 -0.0642 -0.5060
 4883SOL    HW126285   3.375   2.736  10.902  1.5995 -0.2270  2.0341
 4883SOL    HW226286   3.382   2.871  10.830 -1.2734  1.0474 -0.0680
 4884SOL     OW26287   0.116   2.840   7.170  0.2028  0.1245  0.1385
 4884SOL    HW126288   0.125   2.754   7.128  0.7923  0.3375 -0.1677
 4884SOL    HW226289   0.093   2.822   7.261  1.9555 -0.4750  0.4646
 4885SOL     OW26290   4.367   0.956   7.539  0.4665  0.4896 -0.3593
 4885SOL    HW126291   4.274   0.960   7.519 -0.0372 -2.7843  1.2735
 4885SOL    HW226292   4.364   1.007   7.621  1.8334  0.8721 -0.5335
 4886SOL     OW26293   4.541   4.323  14.068 -0.3771 -0.0393 -0.2835
 4886SOL    HW126294   4.554   4.401  14.013  2.2344  0.1489  0.5976
 4886SOL    HW226295   4.560   4.258  14.000 -0.2258 -2.1837  1.8150
 4887SOL     OW26296   2.654   4.347   7.416  0.0022 -0.2896  0.1377
 4887SOL    HW126297   2.573   4.397   7.425 -0.7511 -1.5543  0.4203
 4887SOL    HW226298   2.626   4.256   7.415  0.2937 -0.3879  0.8112
 4888SOL     OW26299   2.376   3.613   8.980 -0.3244  0.1745 -0.3425
 4888SOL    HW126300   2.380   3.695   8.931 -0.9585  1.4598  1.7283
 4888SOL    HW226301   2.438   3.626   9.052 -0.5043 -1.0300  0.0393
 4889SOL     OW26302   4.031   3.946  16.413 -0.4443 -0.2529 -0.5513
 4889SOL    HW126303   4.064   4.028  16.449  0.9340 -1.3957  0.7718
 4889SOL    HW226304   3.972   3.969  16.341 -1.0649 -0.8425 -0.2403
 4890SOL     OW26305   2.303   2.856   3.149  0.2188  0.3391  0.0897
 4890SOL    HW126306   2.302   2.871   3.244  1.5838  0.2280  0.1249
 4890SOL    HW226307   2.290   2.945   3.115 -1.1799  0.4343  0.8833
 4891SOL     OW26308   4.145   4.674   5.066  0.3124  0.0639  0.4661
 4891SOL    HW126309   4.146   4.584   5.098 -1.2592 -0.2656 -0.4246
 4891SOL    HW226310   4.127   4.715   5.151 -2.0159 -0.0716  0.0464
 4892SOL     OW26311   1.613   1.826  16.968 -0.1114  0.0840  0.0424
 4892SOL    HW126312   1.621   1.879  16.888  2.1707 -2.9408 -1.7224
 4892SOL    HW226313   1.582   1.745  16.929 -1.8111  0.8589 -0.2024
 4893SOL     OW26314   3.652   1.702   5.844  0.2331  0.2884 -0.1883
 4893SOL    HW126315   3.600   1.659   5.776 -1.7503  1.2181  0.7278
 4893SOL    HW226316   3.613   1.790   5.848 -1.3149 -0.4651  1.2870
 4894SOL     OW26317   3.064   1.811   2.605  0.2058  0.4264 -0.4003
 4894SOL    HW126318   3.127   1.882   2.592 -0.2903  0.6699 -1.4782
 4894SOL    HW226319   3.063   1.818   2.700  1.3055  3.6919 -0.6191
 4895SOL     OW26320   1.793   1.336   3.198 -0.2707 -0.1361  0.1252
 4895SOL    HW126321   1.860   1.270   3.212 -0.0571  0.1804  0.6100
 4895SOL    HW226322   1.716   1.290   3.231  0.0143 -1.0102 -0.4441
 4896SOL     OW26323   1.301   3.909  17.297 -0.3016  0.3746 -0.1863
 4896SOL    HW126324   1.299   3.845  17.226 -1.1560  0.0915  0.0870
 4896SOL    HW226325   1.381   3.958  17.279 -0.6470  1.7008  1.8815
 4897SOL     OW26326   0.556   1.268   4.229 -0.1545  0.5676  0.3124
 4897SOL    HW126327   0.607   1.349   4.225  0.4296  0.1602 -0.4074
 4897SOL    HW226328   0.612   1.197   4.198  3.0505  2.7046  1.1802
 4898SOL     OW26329   4.146   0.599  11.590  0.3541 -0.2511 -0.2610
 4898SOL    HW126330   4.109   0.619  11.504 -0.4600 -4.4330 -0.8944
 4898SOL    HW226331   4.233   0.581  11.556  1.4759  0.8698  2.0354
 4899SOL     OW26332   1.305   3.742  10.443  0.3859 -0.1930  0.0733
 4899SOL    HW126333   1.282   3.665  10.495 -2.0114  1.1030  0.8985
 4899SOL    HW226334   1.399   3.723  10.442  0.6051  0.8841 -0.8950
 4900SOL     OW26335   0.096   2.174  14.804 -0.1883 -0.3207  0.1070
 4900SOL    HW126336   0.134   2.136  14.725 -1.3157 -1.7218  0.2393
 4900SOL    HW226337   0.055   2.256  14.777  2.0042  0.9564  0.5938
 4901SOL     OW26338   1.917   1.780  12.455 -0.0121  0.0259  0.6396
 4901SOL    HW126339   1.917   1.726  12.376  0.3661  0.9905 -0.0198
 4901SOL    HW226340   1.883   1.858  12.410  1.2791  0.0964 -0.2059
 4902SOL     OW26341   2.952   0.229   2.989  0.1134 -0.5565  0.0774
 4902SOL    HW126342   2.978   0.280   3.065  1.4795 -0.8555 -0.2013
 4902SOL    HW226343   2.928   0.145   3.029 -1.4839 -0.4210 -0.5733
 4903SOL     OW26344   3.060   1.367  16.324 -0.4935  0.0807 -0.0663
 4903SOL    HW126345   3.052   1.389  16.231 -0.1178 -0.1945 -0.1623
 4903SOL    HW226346   2.973   1.336  16.350 -1.6168  0.2311 -3.5934
 4904SOL     OW26347   4.253   1.368   0.648  0.4004 -1.0068  0.3744
 4904SOL    HW126348   4.161   1.367   0.621  0.1160  3.3920  1.1096
 4904SOL    HW226349   4.264   1.458   0.679  0.2994 -0.4078 -1.2926
 4905SOL     OW26350   4.279   1.865   7.135  0.1903 -0.2476  0.3145
 4905SOL    HW126351   4.193   1.855   7.176 -0.2746 -1.0712 -0.8299
 4905SOL    HW226352   4.282   1.958   7.115 -2.5238 -0.4527 -1.1006
 4906SOL     OW26353   0.073   4.443   5.657  0.0736 -0.1591  0.5789
 4906SOL    HW126354   0.078   4.437   5.753  2.8033  0.6488  0.4630
 4906SOL    HW226355   4.730   4.389   5.647  0.3036 -0.5669  0.9532
 4907SOL     OW26356   0.180   2.482   7.745  0.1075  0.1476  0.3111
 4907SOL    HW126357   0.145   2.521   7.665 -0.1961  0.6837  0.7058
 4907SOL    HW226358   0.148   2.540   7.814 -1.2195  1.0195 -1.0163
 4908SOL     OW26359   4.461   2.112   2.095 -0.2107 -0.2155  0.0672
 4908SOL    HW126360   4.467   2.183   2.031  0.0116  0.7396  1.1449
 4908SOL    HW226361   4.551   2.079   2.093  0.1654  0.8971 -1.3688
 4909SOL     OW26362   2.586   1.279   9.549 -0.4673 -0.4401 -0.2318
 4909SOL    HW126363   2.561   1.271   9.641 -1.4823 -2.0974 -0.6556
 4909SOL    HW226364   2.681   1.291   9.554 -0.4462 -1.2835  1.6137
 4910SOL     OW26365   2.156   2.623   3.281  0.7710  0.2875  0.1246
 4910SOL    HW126366   2.114   2.597   3.199 -0.5293 -0.7287  1.1271
 4910SOL    HW226367   2.250   2.610   3.271  0.6609 -0.4612  0.0678
 4911SOL     OW26368   2.739   1.019  13.027 -0.1283 -0.0140  0.2069
 4911SOL    HW126369   2.681   1.066  13.087 -0.3374 -1.3195  1.0213
 4911SOL    HW226370   2.688   0.941  13.002 -1.8002  0.9645  0.5659
 4912SOL     OW26371   3.339   1.281   4.412 -0.1857  0.4716 -0.8594
 4912SOL    HW126372   3.250   1.295   4.379 -1.1591  0.0075  1.5542
 4912SOL    HW226373   3.332   1.312   4.503  0.9363 -3.2172  0.4609
 4913SOL     OW26374   2.643   0.003  13.619  0.0322 -0.4964  0.4403
 4913SOL    HW126375   2.726   0.045  13.598 -0.7498  1.9852  2.3873
 4913SOL    HW226376   2.667   4.689  13.697  0.0117 -0.8307  0.2323
 4914SOL     OW26377   1.220   0.446   7.289 -0.1736  0.3170  0.5886
 4914SOL    HW126378   1.282   0.377   7.267 -1.2580 -0.4691 -0.0200
 4914SOL    HW226379   1.260   0.529   7.263 -0.1136 -0.7912 -2.8046
 4915SOL     OW26380   1.491   0.851  15.180  0.0302  0.6587  0.4347
 4915SOL    HW126381   1.424   0.785  15.161  1.4096 -1.2421  2.2640
 4915SOL    HW226382   1.555   0.800  15.229 -2.2673  0.3569  3.0932
 4916SOL     OW26383   4.532   1.825   0.187 -0.0735  0.0403 -0.3894
 4916SOL    HW126384   4.468   1.770   0.141  1.9867 -0.6805 -2.4200
 4916SOL    HW226385   4.608   1.811   0.130 -0.7583  1.1327 -1.5795
 4917SOL     OW26386   3.715   2.291   4.855  0.6144 -0.0827 -0.0715
 4917SOL    HW126387   3.805   2.289   4.824  0.7153  1.2911  0.1295
 4917SOL    HW226388   3.698   2.200   4.878  0.2129  0.2118  0.7931
 4918SOL     OW26389   3.925   0.501  16.957 -0.4638  0.0592  0.1361
 4918SOL    HW126390   3.841   0.527  16.920 -1.3248 -0.6875  1.5837
 4918SOL    HW226391   3.896   0.428  17.012 -0.6510  0.9227  1.1685
 4919SOL     OW26392   0.301   3.868   5.178 -0.4223 -0.2930  0.6109
 4919SOL    HW126393   0.383   3.902   5.213  0.3007 -0.5019 -0.8919
 4919SOL    HW226394   0.323   3.851   5.087  0.9172  2.3112  0.4737
 4920SOL     OW26395   4.518   1.666   5.815 -0.5680  1.0140  0.1293
 4920SOL    HW126396   4.511   1.757   5.787  0.4898  1.1012  0.1194
 4920SOL    HW226397   4.561   1.629   5.738 -2.2141 -1.2295  0.2731
 4921SOL     OW26398   0.446   4.123   6.434  0.3525  0.2988  0.0521
 4921SOL    HW126399   0.373   4.103   6.493 -0.9335  2.1475 -0.8876
 4921SOL    HW226400   0.526   4.131   6.485  0.8918  3.1159 -1.2242
 4922SOL     OW26401   3.499   0.775   9.148  0.0959 -0.3962  0.5614
 4922SOL    HW126402   3.500   0.708   9.217 -1.8076 -1.1917 -0.1956
 4922SOL    HW226403   3.444   0.841   9.190 -0.7425 -0.7234 -0.0330
 4923SOL     OW26404   4.368   2.605   1.441 -0.0920 -0.1217 -0.6422
 4923SOL    HW126405   4.311   2.539   1.482  0.9430 -0.3719  0.3987
 4923SOL    HW226406   4.351   2.684   1.491 -0.3388  0.7575 -2.1135
 4924SOL     OW26407   1.968   1.028   2.926 -0.0739 -0.2993  0.1546
 4924SOL    HW126408   1.883   0.984   2.921  0.7166 -1.9356  1.1305
 4924SOL    HW226409   1.940   1.119   2.911 -0.8205 -0.3933  0.9461
 4925SOL     OW26410   3.142   4.172  10.912 -0.1178 -0.0260  0.4071
 4925SOL    HW126411   3.178   4.117  10.982  0.1769 -0.2254  0.0985
 4925SOL    HW226412   3.221   4.212  10.875  1.6620 -0.6056  3.5065
 4926SOL     OW26413   1.177   2.621  10.972  0.1753 -0.4883 -0.1909
 4926SOL    HW126414   1.269   2.596  10.956  0.1928 -1.3005  1.2632
 4926SOL    HW226415   1.148   2.546  10.920 -0.1009 -0.2325 -0.4054
 4927SOL     OW26416   2.872   2.231   1.935 -0.1034 -0.3991 -0.1489
 4927SOL    HW126417   2.784   2.266   1.924  0.9017  2.0698 -0.4504
 4927SOL    HW226418   2.858   2.178   2.013  0.6552 -2.4976 -1.4223
 4928SOL     OW26419   2.321   1.689   8.980 -0.4016 -0.2012 -0.1699
 4928SOL    HW126420   2.338   1.686   9.074 -0.3190  0.1847 -0.1726
 4928SOL    HW226421   2.226   1.677   8.983 -0.5410  0.9865  0.1564
 4929SOL     OW26422   3.546   0.900   6.376  0.2955  0.0863  0.1928
 4929SOL    HW126423   3.574   0.812   6.401  0.0380 -0.9211 -3.1130
 4929SOL    HW226424   3.609   0.904   6.305 -2.5089  0.9590 -2.2428
 4930SOL     OW26425   0.724   3.210   6.341  1.3830 -0.0658 -0.1294
 4930SOL    HW126426   0.629   3.201   6.334  1.4827 -0.5639 -0.8028
 4930SOL    HW226427   0.728   3.301   6.370 -0.6517  1.0869 -3.3414
 4931SOL     OW26428   3.223   3.325   6.733  0.7363 -0.5168  0.0307
 4931SOL    HW126429   3.259   3.354   6.816 -1.4394  0.2288  0.7163
 4931SOL    HW226430   3.298   3.350   6.679 -0.2735 -1.1857 -1.6831
 4932SOL     OW26431   0.282   2.152   3.388 -0.1170 -0.1946  0.0350
 4932SOL    HW126432   0.336   2.170   3.311  0.7297 -1.0765  0.4208
 4932SOL    HW226433   0.343   2.106   3.445 -1.7597  0.3786  2.2687
 4933SOL     OW26434   1.687   1.059   2.937  0.4499  0.0221  0.5124
 4933SOL    HW126435   1.623   1.014   2.992 -0.6948 -0.5217 -1.2741
 4933SOL    HW226436   1.661   1.024   2.852 -1.5492  1.2090  0.6296
 4934SOL     OW26437   0.089   2.986   3.185 -0.2826  0.4193  0.0837
 4934SOL    HW126438   0.147   3.004   3.110 -1.8034 -0.8873 -1.4141
 4934SOL    HW226439   0.087   3.074   3.221  0.4874  0.0688  0.9807
 4935SOL     OW26440   0.736   3.190  16.065 -0.0296  0.4726 -0.1009
 4935SOL    HW126441   0.654   3.221  16.105 -0.6011  0.4730 -1.2633
 4935SOL    HW226442   0.738   3.258  15.998 -1.0534  0.0594 -0.5602
 4936SOL     OW26443   0.089   2.774   2.411  0.9310  0.1653  0.7651
 4936SOL    HW126444   0.179   2.741   2.405  0.4913 -0.5945 -1.5092
 4936SOL    HW226445   0.075   2.761   2.317 -0.5688  0.8587  0.8895
 4937SOL     OW26446   4.204   0.559   9.913  0.5832 -0.0710 -0.2368
 4937SOL    HW126447   4.172   0.576  10.002  0.9879  1.3130 -0.3488
 4937SOL    HW226448   4.215   0.464   9.909 -2.0419 -0.4315  1.3291
 4938SOL     OW26449   0.390   2.389   8.550  0.3635 -0.3610 -0.2701
 4938SOL    HW126450   0.360   2.310   8.594  1.6375 -1.8608 -2.1048
 4938SOL    HW226451   0.367   2.364   8.461  0.5097 -0.3196 -0.3192
 4939SOL     OW26452   3.620   0.269  16.659  0.3889  0.2416 -0.2544
 4939SOL    HW126453   3.640   0.290  16.750 -0.2227 -2.3674  0.4613
 4939SOL    HW226454   3.696   0.222  16.624  0.0800  0.5401 -1.3364
 4940SOL     OW26455   4.091   0.797   3.095  0.8886  0.0981 -0.2318
 4940SOL    HW126456   4.105   0.878   3.047  1.0586 -1.0388 -2.1024
 4940SOL    HW226457   4.000   0.780   3.072  1.2935 -1.4365 -0.7190
 4941SOL     OW26458   1.317   0.780   5.800  0.4052 -0.0776 -0.1806
 4941SOL    HW126459   1.240   0.754   5.850  0.0148  1.7947  0.1870
 4941SOL    HW226460   1.322   0.708   5.738  2.3995 -0.0855 -0.0102
 4942SOL     OW26461   3.830   1.461   1.519 -0.8131 -0.2756 -0.2828
 4942SOL    HW126462   3.879   1.514   1.582  0.6207 -2.2531  0.2656
 4942SOL    HW226463   3.830   1.374   1.559 -0.9634 -0.4556 -0.6741
 4943SOL     OW26464   3.785   1.681   1.977 -0.1354  0.0030  0.8934
 4943SOL    HW126465   3.818   1.722   2.056  0.5689 -1.5921  1.4273
 4943SOL    HW226466   3.692   1.690   1.999  0.4943  1.6856  2.8896
 4944SOL     OW26467   2.312   1.600   7.396 -0.2926  0.1949 -0.0173
 4944SOL    HW126468   2.397   1.633   7.424 -0.2885  0.6732 -0.6010
 4944SOL    HW226469   2.336   1.516   7.357  0.2102 -0.3396  1.4519
 4945SOL     OW26470   4.328   4.651   6.288 -0.5069  0.1313  0.3368
 4945SOL    HW126471   4.314   4.599   6.367  2.2391  0.4296  1.0233
 4945SOL    HW226472   4.238   4.677   6.269 -0.2727  1.2190  0.7329
 4946SOL     OW26473   0.166   4.031  13.828 -0.1332  0.8117 -0.0539
 4946SOL    HW126474   0.087   3.989  13.795  1.1788 -1.3190 -0.4145
 4946SOL    HW226475   0.157   4.119  13.791 -1.2684  0.9121  0.4621
 4947SOL     OW26476   4.503   0.977   5.488  0.1371  0.5506  0.4723
 4947SOL    HW126477   4.521   1.071   5.478 -0.9187  0.7578  0.5540
 4947SOL    HW226478   4.574   0.945   5.544 -0.8565 -0.4491  1.1577
 4948SOL     OW26479   0.017   4.673  14.758  0.1927 -0.0872 -0.4694
 4948SOL    HW126480   0.045   4.582  14.753  2.2621  0.5751 -0.6778
 4948SOL    HW226481   0.095   4.725  14.740 -0.4836  1.7687  2.0164
 4949SOL     OW26482   4.132   0.033  15.535 -0.1481 -0.3629 -0.5439
 4949SOL    HW126483   4.202   0.033  15.469  1.0312 -1.0304  0.6916
 4949SOL    HW226484   4.174   0.081  15.606  1.3633 -1.3812 -0.7389
 4950SOL     OW26485   2.987   3.625  11.978 -0.5085  0.0226 -0.0711
 4950SOL    HW126486   3.070   3.627  12.026 -0.2783  0.0044 -0.4687
 4950SOL    HW226487   3.009   3.691  11.912  0.1359  0.8721  1.0009
 4951SOL     OW26488   2.943   2.762   6.227 -0.5761  0.1873 -0.3604
 4951SOL    HW126489   2.916   2.836   6.173 -2.6813 -1.0507 -1.0486
 4951SOL    HW226490   2.859   2.737   6.265  0.1656  0.9094  1.6919
 4952SOL     OW26491   2.899   1.681   2.454 -0.0855  0.2334  0.0374
 4952SOL    HW126492   2.959   1.700   2.525 -1.3275  1.6473  0.7126
 4952SOL    HW226493   2.897   1.769   2.416 -0.9329 -0.3030 -1.1882
 4953SOL     OW26494   3.134   3.387  12.149  0.2381 -0.2826  0.1520
 4953SOL    HW126495   3.076   3.335  12.205 -0.7231 -1.4993 -1.9745
 4953SOL    HW226496   3.144   3.464  12.204  0.1819 -0.0244 -0.2041
 4954SOL     OW26497   0.308   0.138   8.606 -0.2018 -0.3165  0.1896
 4954SOL    HW126498   0.232   0.194   8.619  0.4408  0.6172 -0.0366
 4954SOL    HW226499   0.337   0.151   8.516  0.0361  1.4426  0.5235
 4955SOL     OW26500   2.834   1.589  12.433  0.0557  0.2825  0.0098
 4955SOL    HW126501   2.740   1.578  12.443  0.7785 -3.3718  3.0650
 4955SOL    HW226502   2.853   1.644  12.509 -0.5127  1.5022 -0.7315
 4956SOL     OW26503   0.429   0.824   9.986  0.7488  0.6399  0.0429
 4956SOL    HW126504   0.422   0.840  10.080  0.8825  1.2866 -0.0624
 4956SOL    HW226505   0.512   0.777   9.980  0.8486  0.6733  1.3085
 4957SOL     OW26506   3.177   1.922  10.834  0.1639  0.1580  0.0952
 4957SOL    HW126507   3.094   1.964  10.813  1.0736  1.3897 -1.0610
 4957SOL    HW226508   3.153   1.848  10.889  1.3078 -1.1976 -1.2306
 4958SOL     OW26509   3.449   1.416  14.498  0.0725  0.3003  0.1043
 4958SOL    HW126510   3.508   1.345  14.475  1.2994  1.6073 -0.7844
 4958SOL    HW226511   3.507   1.484  14.533 -2.3655  1.4305  1.9420
 4959SOL     OW26512   1.238   2.051  15.992  0.5501 -0.2523  0.0944
 4959SOL    HW126513   1.310   2.111  15.974  1.5725 -1.0120  1.6792
 4959SOL    HW226514   1.270   1.976  16.042  1.0829  0.3975  0.7249
 4960SOL     OW26515   0.602   1.132  12.459  0.1109  0.2962 -0.0475
 4960SOL    HW126516   0.604   1.191  12.383 -2.0607  1.3165  0.6888
 4960SOL    HW226517   0.649   1.172  12.533 -0.7372  0.5285  0.3699
 4961SOL     OW26518   3.155   0.231   8.986 -0.0076 -0.1514  0.3078
 4961SOL    HW126519   3.150   0.169   9.059 -2.3673 -0.6826 -0.2954
 4961SOL    HW226520   3.239   0.272   9.005 -0.5391  1.4398 -0.7529
 4962SOL     OW26521   1.537   1.417   3.069 -0.5151 -0.2049  1.0883
 4962SOL    HW126522   1.574   1.377   3.147  1.5412  0.5572  0.5011
 4962SOL    HW226523   1.454   1.370   3.063 -0.6313  0.3440 -1.4899
 4963SOL     OW26524   1.948   2.884   3.271  0.9933  0.2861  0.0972
 4963SOL    HW126525   2.020   2.821   3.275 -1.0455 -2.2080 -1.7823
 4963SOL    HW226526   1.888   2.836   3.329  1.1412  1.6786  1.4151
 4964SOL     OW26527   1.244   2.099   6.874 -0.3908 -0.1552 -0.1568
 4964SOL    HW126528   1.202   2.048   6.805  0.5539  0.9775 -1.5720
 4964SOL    HW226529   1.205   2.186   6.875 -1.0927 -0.4696 -0.3911
 4965SOL     OW26530   3.166   0.456   1.758 -0.1844  0.3153 -0.1868
 4965SOL    HW126531   3.197   0.545   1.745  2.4981 -0.3145  1.8304
 4965SOL    HW226532   3.077   0.479   1.731  0.2630  1.0598 -0.9963
 4966SOL     OW26533   2.314   1.710  12.847  0.3899  0.1957  0.0332
 4966SOL    HW126534   2.372   1.634  12.851  0.6542  0.3629 -0.4925
 4966SOL    HW226535   2.362   1.774  12.900 -0.7545  1.8214 -0.8946
 4967SOL     OW26536   4.314   1.112   9.179  0.2203 -0.1119 -0.1677
 4967SOL    HW126537   4.378   1.073   9.239 -1.2796  0.4383  1.7652
 4967SOL    HW226538   4.305   1.042   9.114  0.6089 -2.1995  2.0040
 4968SOL     OW26539   0.276   3.645   5.320 -0.4868 -0.1284 -0.0400
 4968SOL    HW126540   0.347   3.589   5.291  1.7008  3.7190 -2.0956
 4968SOL    HW226541   0.277   3.709   5.249  2.9566  0.3682  0.4970
 4969SOL     OW26542   1.112   3.292   2.380  0.9719  0.0925  0.0598
 4969SOL    HW126543   1.199   3.253   2.375  0.7981 -0.9750  4.7511
 4969SOL    HW226544   1.063   3.217   2.413  0.0602  0.0933 -1.2789
 4970SOL     OW26545   1.284   1.704  16.872  0.0047 -0.1867 -0.6452
 4970SOL    HW126546   1.279   1.773  16.937  0.2651  0.7479 -1.6124
 4970SOL    HW226547   1.350   1.643  16.906  0.7137  2.0737  1.9901
 4971SOL     OW26548   1.186   1.341  17.435 -0.1243 -0.2097  0.3886
 4971SOL    HW126549   1.102   1.386  17.441  0.2863  0.7232 -0.7457
 4971SOL    HW226550   1.242   1.419  17.443 -0.0253 -0.4403  1.8561
 4972SOL     OW26551   2.195   3.090   9.828 -0.3260 -0.2352 -0.1716
 4972SOL    HW126552   2.131   3.160   9.820  1.6084  1.5338 -0.4221
 4972SOL    HW226553   2.257   3.114   9.759  1.7945 -2.5109  0.9244
 4973SOL     OW26554   4.205   1.715  17.647 -0.1303 -0.5525 -0.2430
 4973SOL    HW126555   4.165   1.635  17.614 -1.5590 -0.3834  1.0629
 4973SOL    HW226556   4.172   1.778  17.584 -0.0483 -0.6720 -0.4034
 4974SOL     OW26557   4.617   3.336   2.012  0.3372  0.1850 -0.0018
 4974SOL    HW126558   4.664   3.398   2.067  0.3889  0.4361 -0.3363
 4974SOL    HW226559   4.665   3.329   1.930 -2.2302  1.2484 -1.5797
 4975SOL     OW26560   1.665   1.767  17.217 -0.5011  0.6641 -0.0860
 4975SOL    HW126561   1.662   1.795  17.125 -1.6579  1.4465  0.1790
 4975SOL    HW226562   1.587   1.810  17.253 -2.9636 -4.6109  0.8669
 4976SOL     OW26563   3.127   3.544   5.338 -0.1035 -0.4790  0.1572
 4976SOL    HW126564   3.170   3.507   5.261  2.3576  1.7144  0.4609
 4976SOL    HW226565   3.102   3.633   5.312 -0.1700 -0.2015  1.1829
 4977SOL     OW26566   4.193   3.390  17.732  0.0960 -0.3226  0.5448
 4977SOL    HW126567   4.278   3.418   0.020  0.9382 -0.8980 -1.1976
 4977SOL    HW226568   4.200   3.386  17.636 -1.2030 -2.2430  0.5352
 4978SOL     OW26569   1.924   1.625   0.571  0.1347  0.1606 -0.2043
 4978SOL    HW126570   1.960   1.631   0.659 -2.7113  1.2887  0.8826
 4978SOL    HW226571   1.841   1.672   0.580 -0.7668 -0.9521 -2.6042
 4979SOL     OW26572   0.187   2.436   3.691  0.4347 -0.2013 -0.5120
 4979SOL    HW126573   0.273   2.453   3.729 -0.4617  0.5049  1.2553
 4979SOL    HW226574   0.178   2.503   3.623 -0.4989  2.5315  2.3177
 4980SOL     OW26575   0.219   0.542   1.677 -0.6576 -0.2061  0.1966
 4980SOL    HW126576   0.230   0.638   1.682 -1.9931 -0.1196  1.4166
 4980SOL    HW226577   0.276   0.523   1.751  0.4660  0.0279 -0.6029
 4981SOL     OW26578   2.325   3.138   3.173 -0.0234  0.6222 -0.1222
 4981SOL    HW126579   2.247   3.130   3.229 -0.2354 -0.1423 -0.5240
 4981SOL    HW226580   2.395   3.098   3.226 -0.9393 -0.1070  0.5485
 4982SOL     OW26581   0.557   3.745   9.586  0.2583 -0.0900 -0.0313
 4982SOL    HW126582   0.482   3.715   9.638  0.3222  0.8044  0.5730
 4982SOL    HW226583   0.547   3.838   9.604 -0.9525 -0.1031 -0.6803
 4983SOL     OW26584   0.219   3.512   5.759  0.3385  0.1613  0.7096
 4983SOL    HW126585   0.204   3.600   5.723  1.6212  1.6116  3.7222
 4983SOL    HW226586   0.207   3.467   5.675 -2.0643  0.4616  0.9121
 4984SOL     OW26587   4.126   2.064   8.222  0.4203  0.0168 -0.4985
 4984SOL    HW126588   4.038   2.032   8.204 -1.1928  2.0892  3.5969
 4984SOL    HW226589   4.125   2.037   8.314  4.0216  0.4247 -0.3378
 4985SOL     OW26590   4.126   0.605  10.216  0.8026 -0.6826  0.2687
 4985SOL    HW126591   4.052   0.563  10.259  0.1310  0.1796 -0.0288
 4985SOL    HW226592   4.101   0.692  10.247 -0.6169 -0.7451 -0.7056
 4986SOL     OW26593   4.628   2.289   0.439 -0.0494 -0.1260  0.4365
 4986SOL    HW126594   4.610   2.200   0.409  0.6984 -0.1134 -0.0605
 4986SOL    HW226595   4.546   2.328   0.410 -1.3369 -3.0161  0.1723
 4987SOL     OW26596   2.563   2.366  11.778 -0.1779 -0.4546 -0.2930
 4987SOL    HW126597   2.651   2.345  11.747 -0.7669  0.4578 -2.5050
 4987SOL    HW226598   2.528   2.421  11.708  0.4698  0.0375 -0.2286
 4988SOL     OW26599   1.018   1.960   7.058  0.1027  0.1864  0.0829
 4988SOL    HW126600   1.093   1.985   7.004 -0.0869  2.1018  0.7145
 4988SOL    HW226601   0.943   1.995   7.010  0.6532  2.6337  0.9683
 4989SOL     OW26602   1.981   2.703   0.113 -0.5830 -0.0730 -0.3329
 4989SOL    HW126603   1.929   2.647   0.172  2.4570 -1.5740  0.9851
 4989SOL    HW226604   1.915   2.771   0.103 -1.4043 -0.8961 -0.4938
 4990SOL     OW26605   1.917   3.742   9.715  0.2027  0.1711  0.3071
 4990SOL    HW126606   1.884   3.822   9.674  1.2879  0.4664  0.0190
 4990SOL    HW226607   1.952   3.702   9.635  0.7097  0.9867  0.1294
 4991SOL     OW26608   3.230   0.904  12.186  0.1561 -0.9178  0.0643
 4991SOL    HW126609   3.311   0.879  12.141  0.6303  1.2995 -0.3261
 4991SOL    HW226610   3.256   0.912  12.278 -0.6130 -0.5044  0.2459
 4992SOL     OW26611   1.067   1.953   3.187  0.1154  0.0747  0.6882
 4992SOL    HW126612   1.069   1.990   3.099  0.6401 -1.3565  0.1041
 4992SOL    HW226613   0.977   1.978   3.207 -0.6103 -0.4500 -1.9394
 4993SOL     OW26614   2.831   2.319   7.299  0.0589  0.5326  0.0001
 4993SOL    HW126615   2.752   2.370   7.282 -0.5483 -0.2672  0.4114
 4993SOL    HW226616   2.807   2.249   7.361  1.7788 -1.4456 -1.5644
 4994SOL     OW26617   1.958   0.298  15.202 -0.3651 -0.0229 -0.3400
 4994SOL    HW126618   2.010   0.367  15.244 -4.5278  1.2757  2.6605
 4994SOL    HW226619   1.989   0.216  15.242 -1.2627  0.6835  1.7887
 4995SOL     OW26620   0.363   1.095  15.794  0.2356 -0.1821  0.7163
 4995SOL    HW126621   0.267   1.093  15.788  0.3473 -0.3536 -1.0640
 4995SOL    HW226622   0.392   1.029  15.731 -2.3165 -0.1561 -0.4924
 4996SOL     OW26623   0.658   0.106   9.904  0.2587  0.1269 -0.1908
 4996SOL    HW126624   0.584   0.081   9.959  0.4280 -2.1772 -1.0351
 4996SOL    HW226625   0.638   0.066   9.819 -0.8334  1.0374 -0.3648
 4997SOL     OW26626   2.975   0.813   8.984 -0.7360  0.0927 -0.4948
 4997SOL    HW126627   2.966   0.743   8.920  2.7349 -0.3910 -0.4681
 4997SOL    HW226628   3.058   0.846   8.949 -0.7137  0.9228  0.3342
 4998SOL     OW26629   1.375   2.383   4.199 -0.1696  0.0665 -0.2257
 4998SOL    HW126630   1.423   2.452   4.153 -0.5264  1.5510  1.6707
 4998SOL    HW226631   1.451   2.355   4.249  0.2997 -0.9651 -1.5082
 4999SOL     OW26632   3.947   1.059   4.196  0.2639  0.5961 -0.2898
 4999SOL    HW126633   3.866   1.046   4.146  0.4247  2.0196 -0.9051
 4999SOL    HW226634   4.003   0.988   4.166  0.9263  0.9885  0.0384
 5000SOL     OW26635   1.501   2.184  10.735 -0.6874  0.3986 -0.6801
 5000SOL    HW126636   1.480   2.230  10.654 -0.9847  1.6927  0.1222
 5000SOL    HW226637   1.493   2.252  10.802 -1.0805  1.0681 -1.4077
 5001SOL     OW26638   1.914   0.569   2.323  0.0116 -0.4928  0.1743
 5001SOL    HW126639   1.959   0.652   2.306 -1.2834 -0.2841 -2.2991
 5001SOL    HW226640   1.989   0.519   2.357  0.1283  0.2988  1.0421
 5002SOL     OW26641   2.780   1.058  10.042 -0.4237 -0.4340 -0.0796
 5002SOL    HW126642   2.795   1.086  10.133 -0.1901 -0.7139 -0.0339
 5002SOL    HW226643   2.696   1.013  10.037 -2.2093  2.8633 -0.2417
 5003SOL     OW26644   3.365   3.260   2.715 -0.3640  0.0077  0.1528
 5003SOL    HW126645   3.345   3.270   2.808 -0.8959  1.1336 -0.0843
 5003SOL    HW226646   3.281   3.226   2.681 -0.8529  0.7262  0.6592
 5004SOL     OW26647   3.503   1.685   1.973  0.6243 -0.0977 -0.5216
 5004SOL    HW126648   3.449   1.623   2.022 -0.0304  3.0904  2.8093
 5004SOL    HW226649   3.482   1.769   2.014  1.5070  0.1540 -0.5904
 5005SOL     OW26650   1.388   4.210   4.982  0.1012  0.2539  0.1899
 5005SOL    HW126651   1.375   4.287   5.036 -2.9508 -1.7338  2.2463
 5005SOL    HW226652   1.484   4.208   4.978  0.0876 -0.2957  0.1211
 5006SOL     OW26653   2.187   4.513   9.640  0.3403  0.1762  0.7525
 5006SOL    HW126654   2.162   4.541   9.728  2.2992  0.4051  1.2222
 5006SOL    HW226655   2.155   4.588   9.589 -1.2758 -1.0140  0.0354
 5007SOL     OW26656   2.659   1.401   6.734 -0.4631 -0.3737  0.1007
 5007SOL    HW126657   2.708   1.333   6.780 -1.3575 -0.6068  0.7231
 5007SOL    HW226658   2.730   1.451   6.696 -0.4916 -1.5732 -1.5312
 5008SOL     OW26659   0.043   4.262   8.312 -0.2105 -0.6256 -0.2495
 5008SOL    HW126660   0.083   4.316   8.380 -0.4926  0.5016 -0.9812
 5008SOL    HW226661   4.693   4.251   8.350 -0.5290 -2.2281 -1.4724
 5009SOL     OW26662   4.106   0.434   9.202 -0.1762  0.8309  0.7212
 5009SOL    HW126663   4.053   0.429   9.282  0.5182  0.8239  1.1879
 5009SOL    HW226664   4.191   0.457   9.241  0.6435  0.8867 -1.1154
 5010SOL     OW26665   1.165   1.192   1.889 -0.0101 -0.1620 -0.3963
 5010SOL    HW126666   1.195   1.112   1.846  1.4089 -0.3539  0.9424
 5010SOL    HW226667   1.072   1.173   1.886  0.3478 -2.0386  0.4474
 5011SOL     OW26668   1.864   0.518  15.907 -0.0690  0.2176 -0.0325
 5011SOL    HW126669   1.922   0.586  15.872 -2.1554  1.7433 -0.6024
 5011SOL    HW226670   1.915   0.496  15.984  0.2259  0.0626 -0.2745
 5012SOL     OW26671   3.415   4.274   8.655  0.1997  0.6451 -0.5474
 5012SOL    HW126672   3.452   4.357   8.683 -1.2161  1.0817  0.0537
 5012SOL    HW226673   3.351   4.300   8.588 -0.9638 -0.3539  0.1757
 5013SOL     OW26674   4.232   0.593   0.853  0.4372 -0.6176  0.2591
 5013SOL    HW126675   4.154   0.647   0.842  0.4236 -0.9534 -1.3231
 5013SOL    HW226676   4.257   0.630   0.937  0.5301 -0.4945  0.1775
 5014SOL     OW26677   3.546   0.109   2.010  0.4636 -0.4842  0.9659
 5014SOL    HW126678   3.565   0.074   1.923 -1.3527  3.7838 -1.1659
 5014SOL    HW226679   3.523   0.200   1.992  1.1793 -0.5630 -0.3117
 5015SOL     OW26680   4.623   4.604   0.823  0.4179  0.7072  0.5892
 5015SOL    HW126681   4.627   4.606   0.728  0.6335  2.7185  0.6397
 5015SOL    HW226682   4.530   4.627   0.830  0.0669 -1.5351  3.3020
 5016SOL     OW26683   0.920   0.246   4.925  0.0732 -0.0639 -0.1561
 5016SOL    HW126684   0.989   0.312   4.932 -1.0548  0.9802  0.9009
 5016SOL    HW226685   0.844   0.301   4.945  2.7610  3.7328 -0.3636
 5017SOL     OW26686   2.022   1.237   3.536 -0.4767 -0.3716 -0.0881
 5017SOL    HW126687   2.054   1.322   3.508  0.2855 -0.8954 -0.8279
 5017SOL    HW226688   2.104   1.190   3.555  0.2582  0.3152 -1.5620
 5018SOL     OW26689   0.628   2.165   2.325  0.2377 -0.1120 -0.3643
 5018SOL    HW126690   0.697   2.103   2.349 -0.3888 -0.9461 -0.7357
 5018SOL    HW226691   0.615   2.152   2.231 -1.4776  0.0568 -0.1476
 5019SOL     OW26692   4.392   2.170   0.864 -0.0002  1.3584  0.0915
 5019SOL    HW126693   4.333   2.164   0.789 -0.4587 -0.0963  0.5674
 5019SOL    HW226694   4.461   2.216   0.816  0.7285  0.3089  0.1229
 5020SOL     OW26695   1.917   2.572   7.954  0.2470  0.0860 -0.0466
 5020SOL    HW126696   1.835   2.617   7.936 -0.4426 -0.4433  1.7819
 5020SOL    HW226697   1.949   2.624   8.029  1.6599 -1.4044  0.3967
 5021SOL     OW26698   0.931   3.422   9.924  0.0906 -0.3221 -0.6659
 5021SOL    HW126699   0.890   3.508   9.918  0.1187 -0.0887  2.0917
 5021SOL    HW226700   0.854   3.366   9.935  1.6436 -1.9815  1.9647
 5022SOL     OW26701   1.585   2.908   5.336  0.8207 -0.2505 -0.2319
 5022SOL    HW126702   1.510   2.963   5.360  2.0387  0.0247  2.9058
 5022SOL    HW226703   1.652   2.971   5.310 -2.8460  3.5130 -0.4804
 5023SOL     OW26704   4.381   2.520   2.034 -0.2340  0.1282 -0.0057
 5023SOL    HW126705   4.296   2.479   2.046  0.0038 -0.2459  0.3780
 5023SOL    HW226706   4.357   2.597   2.086  2.3215  1.8243 -1.3075
 5024SOL     OW26707   0.054   2.155   6.716  0.7324  0.4266 -0.4549
 5024SOL    HW126708   0.106   2.074   6.711  0.5130  0.2973 -0.6088
 5024SOL    HW226709   0.009   2.146   6.800  2.4784  0.9025  0.5403
 5025SOL     OW26710   1.138   1.476  10.321 -0.2406 -0.4359 -0.4467
 5025SOL    HW126711   1.212   1.525  10.285 -0.7989  1.2369  0.6863
 5025SOL    HW226712   1.092   1.439  10.246 -0.5585  1.0018 -0.9642
 5026SOL     OW26713   1.390   4.156   2.744 -0.0043  0.2261  0.0785
 5026SOL    HW126714   1.388   4.208   2.824 -1.8669 -1.8312  1.3420
 5026SOL    HW226715   1.296   4.139   2.742  0.1599 -0.6715 -0.1098
 5027SOL     OW26716   1.717   0.566   3.814  0.0082  0.2925  0.6846
 5027SOL    HW126717   1.649   0.622   3.776 -0.7492 -0.0541  1.5586
 5027SOL    HW226718   1.675   0.485   3.787  0.0350 -0.2512  2.3232
 5028SOL     OW26719   3.159   2.288   6.308  0.5943  0.2004 -0.4139
 5028SOL    HW126720   3.166   2.270   6.214  1.3742  0.9281 -0.5010
 5028SOL    HW226721   3.244   2.292   6.351 -0.0276  0.4040  0.8243
 5029SOL     OW26722   3.693   2.466   6.591 -0.1972 -0.6309  0.6173
 5029SOL    HW126723   3.724   2.511   6.512 -1.0459 -1.9672 -0.4708
 5029SOL    HW226724   3.692   2.530   6.662 -1.2655 -0.5260  0.5082
 5030SOL     OW26725   3.209   4.473   3.805 -0.6534  0.1882 -0.2527
 5030SOL    HW126726   3.214   4.379   3.792  1.8615  0.3359 -0.2905
 5030SOL    HW226727   3.300   4.502   3.816 -0.6443 -0.0182  0.2144
 5031SOL     OW26728   3.325   1.468   2.647  0.0133 -0.2076  0.0954
 5031SOL    HW126729   3.340   1.388   2.698 -2.2363  0.7758  2.2921
 5031SOL    HW226730   3.243   1.490   2.691  1.1745 -1.1631  2.7106
 5032SOL     OW26731   0.094   1.470   3.182 -0.2846 -0.2960  0.1123
 5032SOL    HW126732   0.010   1.451   3.224 -1.0597  1.1272 -0.7655
 5032SOL    HW226733   0.080   1.482   3.088  0.4851  0.4023  0.0912
 5033SOL     OW26734   1.825   2.446   3.010  0.3086  0.2534  0.0406
 5033SOL    HW126735   1.854   2.355   3.019 -0.2246  0.0452 -0.3559
 5033SOL    HW226736   1.731   2.437   2.991  0.5982  2.2113 -2.2148
 5034SOL     OW26737   1.040   2.963   0.011 -0.3995  0.1355  0.0597
 5034SOL    HW126738   1.000   2.907   0.077  0.7075 -1.0063 -0.2467
 5034SOL    HW226739   1.104   3.014   0.062 -0.8656  0.7428  0.0402
 5035SOL     OW26740   3.208   1.704   7.724 -0.4057 -0.0001 -0.0563
 5035SOL    HW126741   3.183   1.628   7.776  1.1143 -0.3739  0.1354
 5035SOL    HW226742   3.137   1.718   7.662 -0.7390  1.7392  0.6991
 5036SOL     OW26743   2.380   2.278   4.637  0.6126  0.0020  0.7911
 5036SOL    HW126744   2.301   2.329   4.617  1.2164  0.0354 -1.4841
 5036SOL    HW226745   2.394   2.219   4.564 -0.1708 -1.2579  1.6600
 5037SOL     OW26746   1.241   3.791  14.725 -0.8037  0.3692  0.2408
 5037SOL    HW126747   1.304   3.813  14.794 -0.3518  1.0975 -0.3906
 5037SOL    HW226748   1.162   3.767  14.773 -2.4892  1.3163 -2.1072
 5038SOL     OW26749   4.500   2.577   5.153 -0.0774 -0.1349  0.3066
 5038SOL    HW126750   4.507   2.485   5.128 -1.2548 -0.0346 -0.4096
 5038SOL    HW226751   4.509   2.626   5.071 -1.3063 -0.3957  0.0085
 5039SOL     OW26752   1.821   4.709  10.014  0.4039 -0.1758 -0.1381
 5039SOL    HW126753   1.837   4.627  10.061  5.2593  2.3541  2.6882
 5039SOL    HW226754   1.753   0.016  10.066  1.5597  0.9887  0.4261
 5040SOL     OW26755   1.181   0.754   8.033  0.4756 -0.2193  0.0161
 5040SOL    HW126756   1.129   0.773   8.111 -1.9829 -2.7407 -1.0269
 5040SOL    HW226757   1.104   0.744   7.978  0.0655 -2.3411  0.9906
 5041SOL     OW26758   3.481   4.318   4.336 -0.6511  0.3616 -0.0198
 5041SOL    HW126759   3.554   4.256   4.332 -1.4774 -0.6589  0.8489
 5041SOL    HW226760   3.412   4.261   4.369  0.7638 -2.3492 -1.7966
 5042SOL     OW26761   1.407   2.838   0.765  0.3612  0.1684  0.1827
 5042SOL    HW126762   1.312   2.840   0.753  0.3233  1.3314  0.7391
 5042SOL    HW226763   1.419   2.866   0.855  0.0583  0.0604  0.2598
 5043SOL     OW26764   2.282   0.112  14.884 -0.2877 -0.0743 -0.2240
 5043SOL    HW126765   2.245   0.127  14.971 -1.0521 -0.6285 -0.4484
 5043SOL    HW226766   2.274   0.016  14.882  2.9929 -0.3233 -1.5186
 5044SOL     OW26767   0.220   0.903   9.422  0.1344 -0.1960  0.0708
 5044SOL    HW126768   0.136   0.895   9.465 -0.2072 -1.5533 -0.8337
 5044SOL    HW226769   0.198   0.852   9.343  1.7225  0.0832 -0.5705
 5045SOL     OW26770   3.198   1.944   7.504 -0.5785  0.4935  0.5107
 5045SOL    HW126771   3.177   1.885   7.432 -0.2005 -0.8340  1.4691
 5045SOL    HW226772   3.257   1.889   7.556  1.6382  1.5138 -0.9205
 5046SOL     OW26773   3.706   2.976  14.879  0.0902  0.1778 -0.1767
 5046SOL    HW126774   3.787   3.022  14.856 -0.1442 -1.0271 -3.3820
 5046SOL    HW226775   3.648   3.016  14.813 -0.4541  0.5716  0.5429
 5047SOL     OW26776   4.688   1.293   7.917 -0.3120  0.3209  0.4400
 5047SOL    HW126777   4.688   1.295   7.822 -2.6922 -1.0469  0.4222
 5047SOL    HW226778   0.045   1.299   7.936  0.6959  0.0505 -4.5312
 5048SOL     OW26779   0.590   2.880  16.389 -0.6146  0.0459  0.3961
 5048SOL    HW126780   0.521   2.929  16.432  0.6782  0.9784  1.4001
 5048SOL    HW226781   0.584   2.918  16.301  1.0541  0.8442  0.6295
 5049SOL     OW26782   0.250   3.883   2.614 -0.5898 -0.4778 -0.5790
 5049SOL    HW126783   0.212   3.797   2.594  1.6916 -1.2822 -1.4908
 5049SOL    HW226784   0.276   3.880   2.706 -1.4632 -1.6205 -0.3676
 5050SOL     OW26785   0.219   3.221  17.410 -0.3607  0.7302 -0.1008
 5050SOL    HW126786   0.202   3.142  17.460  1.2389  1.0394  0.9309
 5050SOL    HW226787   0.196   3.201  17.319 -1.4343  1.1102  0.0838
 5051SOL     OW26788   0.952   2.350  14.748 -0.5053 -0.7238 -0.0182
 5051SOL    HW126789   0.940   2.443  14.767 -0.0702 -1.0594  1.8711
 5051SOL    HW226790   0.935   2.316  14.836  0.4583 -1.3954 -0.0987
 5052SOL     OW26791   1.169   2.579  15.650 -0.2672 -0.1590 -0.3222
 5052SOL    HW126792   1.257   2.600  15.681 -0.9618  0.0055  1.5333
 5052SOL    HW226793   1.161   2.619  15.563 -0.5837  1.1309  0.2978
 5053SOL     OW26794   2.159   3.463   2.915  1.0899  0.0723  0.2809
 5053SOL    HW126795   2.205   3.478   2.832 -1.4782 -1.2069 -1.3716
 5053SOL    HW226796   2.066   3.446   2.900  1.9904 -2.7749 -2.2764
 5054SOL     OW26797   0.143   2.744   6.435 -0.1149  0.2021 -0.0270
 5054SOL    HW126798   0.150   2.813   6.501 -0.9692 -0.7553  1.0537
 5054SOL    HW226799   0.201   2.679   6.475 -0.1506 -0.0467 -0.3848
 5055SOL     OW26800   2.304   0.085   9.261 -0.2043  0.3241  0.3206
 5055SOL    HW126801   2.262   0.166   9.291  1.0128  1.3698 -0.8107
 5055SOL    HW226802   2.253   0.070   9.182  1.7261  0.2678 -0.9246
 5056SOL     OW26803   4.001   3.541   2.430  0.5022  0.2339 -0.6354
 5056SOL    HW126804   3.915   3.504   2.413  0.4530  0.7001 -1.4088
 5056SOL    HW226805   4.005   3.546   2.526  1.0538  1.3409 -0.7136
 5057SOL     OW26806   1.895   0.524  12.159  0.2652  0.1664 -0.5304
 5057SOL    HW126807   1.857   0.445  12.199  2.1002 -0.0631  0.7577
 5057SOL    HW226808   1.989   0.518  12.174  0.2802  3.2220  0.4717
 5058SOL     OW26809   1.691   3.455   0.118  0.2359 -0.1488  0.2286
 5058SOL    HW126810   1.650   3.382   0.164 -0.5017  0.2543  0.2152
 5058SOL    HW226811   1.769   3.463   0.172  0.3302  0.2189  0.0391
 5059SOL     OW26812   3.001   1.032   9.164 -0.1313  0.1119 -0.3856
 5059SOL    HW126813   2.982   0.956   9.109 -2.4413  0.8164 -0.5560
 5059SOL    HW226814   2.962   1.007   9.247  0.5463 -0.5119 -0.2605
 5060SOL     OW26815   1.775   0.823   9.499  0.0414 -0.2119  0.0152
 5060SOL    HW126816   1.854   0.770   9.488  0.3300  0.0132  1.0140
 5060SOL    HW226817   1.727   0.784   9.572 -3.2632  0.6843 -1.6907
 5061SOL     OW26818   2.109   2.806  11.390 -0.0854  0.0103 -0.2798
 5061SOL    HW126819   2.021   2.824  11.356 -0.9305  0.2820  2.0565
 5061SOL    HW226820   2.147   2.750  11.322 -2.3467 -1.5949 -0.2333
 5062SOL     OW26821   1.174   1.320  16.027  0.0708 -0.1998  0.0588
 5062SOL    HW126822   1.116   1.371  15.971  1.5767  0.6567 -0.7267
 5062SOL    HW226823   1.236   1.289  15.961  1.7281  0.6192  1.2286
 5063SOL     OW26824   2.998   0.063   5.547  0.3045  0.0657  0.1279
 5063SOL    HW126825   2.939   0.072   5.472 -0.5111  1.0925  0.9043
 5063SOL    HW226826   2.965   0.131   5.606  2.9297  2.6262 -1.3174
 5064SOL     OW26827   4.359   2.792   1.843 -0.3749 -0.1527 -0.5143
 5064SOL    HW126828   4.281   2.751   1.805 -1.2680  1.2496 -0.2242
 5064SOL    HW226829   4.383   2.719   1.899  2.5061  0.0318 -1.4972
 5065SOL     OW26830   1.296   3.151   8.003  0.0826  0.0619  0.4383
 5065SOL    HW126831   1.302   3.243   7.980  1.1255 -0.2431 -0.4946
 5065SOL    HW226832   1.226   3.130   7.940  0.8108  0.9204 -0.6453
 5066SOL     OW26833   1.816   4.131  12.218  0.4385 -1.1220  0.4293
 5066SOL    HW126834   1.791   4.216  12.255  2.1460 -0.4384 -0.0301
 5066SOL    HW226835   1.766   4.142  12.137 -0.0584 -0.8232  0.7752
 5067SOL     OW26836   3.802   2.513   7.348 -0.0810 -0.0662  0.0323
 5067SOL    HW126837   3.790   2.419   7.338 -1.3838  0.0121  0.8467
 5067SOL    HW226838   3.741   2.539   7.280 -1.6931 -0.2048  1.4247
 5068SOL     OW26839   4.001   2.825   3.776  0.4221  0.3960 -0.5084
 5068SOL    HW126840   4.057   2.747   3.773  0.0387  0.2341 -2.7767
 5068SOL    HW226841   4.052   2.890   3.728  0.0139 -0.1976 -1.7455
 5069SOL     OW26842   1.202   4.512   2.351  0.6406 -0.2061  0.3131
 5069SOL    HW126843   1.211   4.417   2.362  0.8241 -0.1086  0.9902
 5069SOL    HW226844   1.279   4.542   2.400  0.9549  1.7575 -1.4001
 5070SOL     OW26845   3.111   0.374   2.797  0.5875 -0.3847  0.0869
 5070SOL    HW126846   3.204   0.377   2.819  0.6601 -2.0345 -0.0158
 5070SOL    HW226847   3.083   0.295   2.843 -4.1772  0.8158 -0.7063
 5071SOL     OW26848   2.535   3.821   2.046 -0.4375 -0.1781 -0.4027
 5071SOL    HW126849   2.461   3.834   1.986 -0.5110  1.9343  0.1460
 5071SOL    HW226850   2.534   3.899   2.102 -3.5398  0.2391 -1.0603
 5072SOL     OW26851   4.339   0.261   9.877  0.2986 -0.3358 -0.4923
 5072SOL    HW126852   4.425   0.270   9.918  0.0660 -2.5499  0.4989
 5072SOL    HW226853   4.284   0.253   9.955  1.6635  0.9334  0.6156
 5073SOL     OW26854   1.366   1.017   4.366 -0.4924  0.3258 -0.3221
 5073SOL    HW126855   1.298   0.966   4.321 -1.0679  1.4785 -0.7527
 5073SOL    HW226856   1.434   0.951   4.381 -1.5535 -0.7978 -0.4964
 5074SOL     OW26857   2.019   4.140   0.875  0.7402 -0.2869  0.0637
 5074SOL    HW126858   2.065   4.068   0.919 -2.0115 -0.8994  1.9484
 5074SOL    HW226859   1.933   4.107   0.901  0.1642 -0.4340 -2.0483
 5075SOL     OW26860   4.543   2.743   9.614  0.6480 -0.2083  0.6445
 5075SOL    HW126861   4.548   2.672   9.551  1.7816 -0.2426  0.7573
 5075SOL    HW226862   4.543   2.816   9.552 -0.3594 -0.9554 -0.2197
 5076SOL     OW26863   2.812   1.041   1.500 -0.0532 -0.1450 -0.7265
 5076SOL    HW126864   2.771   1.014   1.582  1.4189  0.8660  0.3405
 5076SOL    HW226865   2.886   1.073   1.551  1.9412 -1.6674 -2.6970
 5077SOL     OW26866   2.821   3.700   1.677 -0.6517 -0.7805  0.6364
 5077SOL    HW126867   2.840   3.744   1.759  1.6888  2.2973 -1.5329
 5077SOL    HW226868   2.771   3.622   1.698 -1.8376 -0.4865 -1.0865
 5078SOL     OW26869   3.457   3.256   5.233  0.7743 -0.1291 -0.3530
 5078SOL    HW126870   3.421   3.182   5.184  1.7903 -0.6356 -0.3164
 5078SOL    HW226871   3.545   3.222   5.248  0.8131  0.8819  1.7175
 5079SOL     OW26872   1.517   0.211  13.408 -0.0476 -0.3229  0.1218
 5079SOL    HW126873   1.579   0.158  13.459  0.7935  1.4361  0.9266
 5079SOL    HW226874   1.432   0.178  13.437 -0.1307 -0.2639 -0.0548
 5080SOL     OW26875   2.197   2.926  10.107 -0.0643 -0.3587 -0.1944
 5080SOL    HW126876   2.231   2.878  10.183  1.7015  1.0248 -0.1085
 5080SOL    HW226877   2.111   2.886  10.093  0.0506 -0.7109  0.1051
 5081SOL     OW26878   4.295   3.262   3.614 -0.2472 -0.4539 -0.0682
 5081SOL    HW126879   4.353   3.286   3.542 -0.2332  0.7323  0.3351
 5081SOL    HW226880   4.208   3.266   3.574  0.0557 -0.9383 -0.7691
 5082SOL     OW26881   3.699   0.075   9.677 -0.6793  0.0657 -0.3335
 5082SOL    HW126882   3.636   0.109   9.740 -1.2942  0.5749 -1.2244
 5082SOL    HW226883   3.708   4.717   9.693  3.0190  0.4495 -0.0241
 5083SOL     OW26884   3.380   2.411   3.061  0.5114  0.3658 -0.0822
 5083SOL    HW126885   3.309   2.418   3.125  0.1073 -0.3943 -0.4396
 5083SOL    HW226886   3.457   2.417   3.116  1.1402  2.7172 -1.2323
 5084SOL     OW26887   3.138   4.456   5.182  0.2627  0.9294  0.5042
 5084SOL    HW126888   3.156   4.363   5.172 -1.1695  0.4584  2.4778
 5084SOL    HW226889   3.079   4.456   5.257 -0.3803 -2.9090  0.0185
 5085SOL     OW26890   3.960   1.401   7.783  0.4730 -0.2116  0.1883
 5085SOL    HW126891   3.869   1.414   7.811 -0.3397 -0.9501 -2.1779
 5085SOL    HW226892   3.949   1.355   7.700  0.8276 -0.6854  0.4062
 5086SOL     OW26893   3.065   2.120   4.683 -0.1462 -0.1577 -0.0076
 5086SOL    HW126894   3.014   2.041   4.700  1.4694 -1.0342  0.7890
 5086SOL    HW226895   3.153   2.088   4.704 -0.5884 -1.2288  0.2113
 5087SOL     OW26896   4.648   3.971  13.654  0.2969  0.3804 -0.5030
 5087SOL    HW126897   4.643   3.876  13.662  1.2141  0.4710  1.1561
 5087SOL    HW226898   4.654   3.977  13.559 -0.1737 -0.3733 -0.5810
 5088SOL     OW26899   0.697   4.585  14.105 -0.1560  0.1447 -0.1444
 5088SOL    HW126900   0.738   4.639  14.172 -0.5510  0.1906  0.0552
 5088SOL    HW226901   0.746   4.606  14.025 -0.5350 -1.0740 -0.6988
 5089SOL     OW26902   1.338   1.790   9.248 -0.0297 -0.3383  0.7019
 5089SOL    HW126903   1.284   1.860   9.283  1.7024  0.9689  0.7669
 5089SOL    HW226904   1.422   1.813   9.287  0.4251 -0.9299  0.0730
 5090SOL     OW26905   3.438   2.956   4.370 -0.0045 -0.4909  0.1589
 5090SOL    HW126906   3.514   2.899   4.387 -1.7997 -2.6814  0.8961
 5090SOL    HW226907   3.418   2.993   4.456 -0.6932 -0.9133  0.1837
 5091SOL     OW26908   0.813   1.175   8.854  0.2756  0.8464 -0.0224
 5091SOL    HW126909   0.829   1.081   8.847 -1.0664  0.5375  1.1177
 5091SOL    HW226910   0.725   1.175   8.892 -0.5400  4.1354 -1.8398
 5092SOL     OW26911   1.851   2.979   6.584  0.0306  0.1122 -0.0116
 5092SOL    HW126912   1.876   2.916   6.516  0.4085  0.0516  0.1864
 5092SOL    HW226913   1.756   2.967   6.586 -0.2187  2.6274  2.3101
 5093SOL     OW26914   2.962   4.208   8.368  0.4229  0.2375  0.1002
 5093SOL    HW126915   2.918   4.184   8.287  0.0558 -1.3788  0.7799
 5093SOL    HW226916   2.959   4.303   8.351  1.1766 -0.0084 -1.4101
 5094SOL     OW26917   1.551   1.249   3.285  0.2842  0.3340  0.1389
 5094SOL    HW126918   1.542   1.156   3.308  0.4881  0.1566 -0.4973
 5094SOL    HW226919   1.515   1.284   3.366  0.1103  0.7974 -0.1425
 5095SOL     OW26920   2.855   2.463  10.826 -0.8410 -0.9117 -0.1417
 5095SOL    HW126921   2.818   2.515  10.896  0.1110  0.5183 -0.6979
 5095SOL    HW226922   2.941   2.437  10.860 -0.7913 -1.6359 -0.8032
 5096SOL     OW26923   0.823   1.569  16.703  0.2368  0.2282  0.1361
 5096SOL    HW126924   0.805   1.487  16.658 -2.0158  1.6965 -1.6511
 5096SOL    HW226925   0.910   1.547  16.735  0.7181 -2.2108 -2.8146
 5097SOL     OW26926   4.272   0.414  16.153 -0.1230 -0.0771  0.0358
 5097SOL    HW126927   4.308   0.406  16.242 -1.0759 -1.3454  0.3128
 5097SOL    HW226928   4.183   0.446  16.171 -0.7469 -1.5084 -0.4326
 5098SOL     OW26929   1.645   0.338   3.200 -0.1806 -0.2150  0.5604
 5098SOL    HW126930   1.609   0.425   3.216  0.8571  0.1249  1.0555
 5098SOL    HW226931   1.660   0.344   3.106 -2.2825  2.5311  0.4192
 5099SOL     OW26932   3.611   2.529  17.649 -0.2130  0.4242 -0.4721
 5099SOL    HW126933   3.674   2.516  17.720 -0.9080  0.4594  0.1545
 5099SOL    HW226934   3.580   2.440  17.638 -1.1380  0.5731  0.8790
 5100SOL     OW26935   4.166   1.225   7.897 -0.7626  0.2929 -0.4022
 5100SOL    HW126936   4.161   1.265   7.984  0.1861 -2.1142  0.7421
 5100SOL    HW226937   4.103   1.285   7.855 -2.2603 -0.7410  0.3927
 5101SOL     OW26938   2.814   4.335   3.352  0.0198 -0.7953  0.0869
 5101SOL    HW126939   2.793   4.426   3.331  0.2828 -1.4808 -3.1254
 5101SOL    HW226940   2.884   4.320   3.288  1.3042 -1.8397  1.7228
 5102SOL     OW26941   3.476   1.514   7.597  0.0607  0.0916 -0.6590
 5102SOL    HW126942   3.456   1.435   7.648  0.8767  0.8560  0.8367
 5102SOL    HW226943   3.384   1.539   7.593 -0.4863 -1.5543  1.5249
 5103SOL     OW26944   0.313   4.650   2.007 -0.6144 -0.0176 -0.1473
 5103SOL    HW126945   0.405   4.632   2.025 -0.2667  1.0662 -0.8279
 5103SOL    HW226946   0.283   4.578   1.953  0.4759 -1.3819  1.0849
 5104SOL     OW26947   0.510   1.207   2.427 -0.2082 -0.2203  0.0464
 5104SOL    HW126948   0.565   1.153   2.370 -0.9878 -0.0542 -0.8767
 5104SOL    HW226949   0.574   1.230   2.493 -0.2204  0.0103 -0.0232
 5105SOL     OW26950   4.458   2.998   0.308  0.0386 -0.0692  0.2863
 5105SOL    HW126951   4.533   2.940   0.288  0.6193  0.9666 -0.5319
 5105SOL    HW226952   4.503   3.079   0.330  1.1368 -0.8750  1.0423
 5106SOL     OW26953   0.690   1.054   4.167  0.3208 -0.5433  0.0830
 5106SOL    HW126954   0.645   0.969   4.160 -1.9524  0.8402 -2.1621
 5106SOL    HW226955   0.748   1.049   4.092  0.9607  3.6242  0.3364
 5107SOL     OW26956   1.107   1.702   2.372 -0.5294  0.0463  0.5500
 5107SOL    HW126957   1.100   1.608   2.356  0.9486  0.0814 -0.3586
 5107SOL    HW226958   1.140   1.711   2.462  0.1654 -1.1563  0.4176
 5108SOL     OW26959   3.656   2.504  11.039 -0.8050 -0.4420  0.1024
 5108SOL    HW126960   3.580   2.556  11.010  0.3125  0.6396 -0.8728
 5108SOL    HW226961   3.723   2.562  11.004 -0.0975 -1.9562 -1.0472
 5109SOL     OW26962   3.588   2.504   1.904  0.3704  0.0811 -0.7719
 5109SOL    HW126963   3.530   2.475   1.834 -0.2648 -1.0259  0.2147
 5109SOL    HW226964   3.665   2.520   1.849  2.2140  2.1180  2.3500
 5110SOL     OW26965   4.183   4.709   1.467  0.0491  0.1168  0.0323
 5110SOL    HW126966   4.249   4.701   1.398  0.2137  0.3399  0.1638
 5110SOL    HW226967   4.184   0.068   1.479 -1.5920  0.1051  0.1763
 5111SOL     OW26968   3.607   2.976  11.363  0.1209  0.0890 -0.3247
 5111SOL    HW126969   3.656   3.054  11.390  1.3185 -0.1312 -1.8416
 5111SOL    HW226970   3.531   3.017  11.323 -0.4117 -0.8508 -0.2728
 5112SOL     OW26971   3.274   3.512  17.180  0.3470 -0.6444 -0.1660
 5112SOL    HW126972   3.273   3.420  17.152  0.6602 -0.7348  0.1227
 5112SOL    HW226973   3.369   3.524  17.182  0.6324 -2.7420 -0.3542
 5113SOL     OW26974   3.317   1.347   9.656 -0.0024 -0.1056  0.0366
 5113SOL    HW126975   3.371   1.411   9.702  0.0808 -0.4548  0.4193
 5113SOL    HW226976   3.325   1.283   9.726  1.5132  0.8718  0.7672
 5114SOL     OW26977   1.341   1.172   2.128  0.3675 -0.0397  0.0253
 5114SOL    HW126978   1.267   1.188   2.069  0.9754  0.6623 -0.5620
 5114SOL    HW226979   1.295   1.142   2.206  2.1572  1.1146  1.5156
 5115SOL     OW26980   3.560   3.828   6.610 -0.3376 -0.1772  0.4823
 5115SOL    HW126981   3.643   3.790   6.639 -0.1104  1.3144  1.7672
 5115SOL    HW226982   3.533   3.887   6.680  0.2718 -0.2271  0.7562
 5116SOL     OW26983   2.612   4.356   6.846  0.3929 -0.3745  0.4068
 5116SOL    HW126984   2.632   4.331   6.936  0.6076  1.8439  0.9714
 5116SOL    HW226985   2.658   4.284   6.803 -0.6816 -0.4615 -0.5678
 5117SOL     OW26986   1.616   1.861   3.657 -0.2100  0.2609 -0.0175
 5117SOL    HW126987   1.615   1.783   3.713 -0.9428  0.5896  0.4164
 5117SOL    HW226988   1.595   1.821   3.572 -2.3250  0.8529  0.2303
 5118SOL     OW26989   4.076   3.474   6.015 -0.3323 -0.2723  0.0159
 5118SOL    HW126990   4.069   3.570   6.009 -0.8689 -0.5036 -2.7046
 5118SOL    HW226991   4.143   3.461   5.949 -1.3311  0.7142 -1.2104
 5119SOL     OW26992   3.432   4.700   9.936  0.1205 -0.7510 -0.0067
 5119SOL    HW126993   3.489   0.038   9.916 -0.7887  0.4090  1.7143
 5119SOL    HW226994   3.487   4.657  10.001  2.3744  2.1024 -0.0516
 5120SOL     OW26995   0.026   1.828   7.427 -0.0996 -0.3863 -0.2750
 5120SOL    HW126996   4.728   1.912   7.458 -2.5173 -1.1416 -0.9642
 5120SOL    HW226997   0.114   1.861   7.408 -0.1950  0.4247  0.6488
 5121SOL     OW26998   3.858   4.215   3.591 -0.5360 -0.3204 -0.3533
 5121SOL    HW126999   3.827   4.247   3.676  0.4514 -1.7237  0.5416
 5121SOL    HW227000   3.872   4.297   3.544  0.4651 -0.8055 -0.9106
 5122SOL     OW27001   0.926   0.598   6.570 -0.1361 -0.3246 -0.5930
 5122SOL    HW127002   0.915   0.691   6.552 -1.5032  0.3078  3.6443
 5122SOL    HW227003   0.955   0.593   6.661  0.0836  1.1305 -0.5996
 5123SOL     OW27004   3.549   0.006   8.834 -0.4268  0.2414  0.3324
 5123SOL    HW127005   3.492   0.060   8.780  0.5255  0.6012 -0.3165
 5123SOL    HW227006   3.501   0.011   8.917 -0.7496 -0.9632  0.2145
 5124SOL     OW27007   2.544   3.973   6.781  0.3699  0.3312 -0.0536
 5124SOL    HW127008   2.456   3.934   6.773  0.6563 -0.2254 -0.5355
 5124SOL    HW227009   2.580   3.995   6.696 -0.1035 -0.9454 -0.5819
 5125SOL     OW27010   0.307   4.458   4.254 -0.0232  0.5448  0.4827
 5125SOL    HW127011   0.347   4.423   4.174 -0.7525  1.3884 -0.2557
 5125SOL    HW227012   0.221   4.416   4.250 -0.0265  0.7506 -1.6522
 5126SOL     OW27013   2.023   4.270   5.754  0.5637  0.1075  0.6677
 5126SOL    HW127014   2.043   4.359   5.784  0.5223 -0.2535  1.7462
 5126SOL    HW227015   2.089   4.218   5.798  2.1564  0.9465 -0.7078
 5127SOL     OW27016   4.200   0.903   2.531 -0.1724 -0.4640 -0.2084
 5127SOL    HW127017   4.295   0.901   2.519  0.0300 -1.8599  1.8123
 5127SOL    HW227018   4.190   0.877   2.622  1.2937 -1.4410 -0.3337
 5128SOL     OW27019   1.234   3.608   2.542 -0.0082 -0.3869  0.0107
 5128SOL    HW127020   1.254   3.526   2.588  0.9597 -0.2386 -0.1481
 5128SOL    HW227021   1.151   3.586   2.500  0.8522 -0.1517 -1.8613
 5129SOL     OW27022   1.539   2.900  14.713 -0.6661  0.1711 -0.4516
 5129SOL    HW127023   1.561   2.814  14.748  0.4035  1.2703  1.5542
 5129SOL    HW227024   1.578   2.912  14.626  0.3446  0.5691  0.0556
 5130SOL     OW27025   4.578   4.298   5.702 -0.3594  0.3945 -0.5937
 5130SOL    HW127026   4.486   4.278   5.721  0.3565 -3.1705 -0.9032
 5130SOL    HW227027   4.588   4.255   5.618  0.6784  1.7409 -1.1565
 5131SOL     OW27028   2.305   2.103   4.081 -0.1327 -0.0484 -0.2301
 5131SOL    HW127029   2.219   2.144   4.091 -0.7458 -0.8720 -1.9640
 5131SOL    HW227030   2.353   2.158   4.020 -0.6532 -0.6335 -1.1694
 5132SOL     OW27031   0.166   1.093   3.198  0.3660  0.0081 -0.5089
 5132SOL    HW127032   0.110   1.145   3.141 -0.8777 -0.2197  0.5112
 5132SOL    HW227033   0.121   1.104   3.282 -2.0855  3.2323 -2.2518
 5133SOL     OW27034   1.114   4.164  11.207 -0.2376 -0.2670  0.5963
 5133SOL    HW127035   1.035   4.109  11.210  0.9635 -2.1339 -1.5316
 5133SOL    HW227036   1.133   4.133  11.118 -0.4526  0.4213  0.3088
 5134SOL     OW27037   3.458   1.489   9.834 -0.0737  0.5518 -0.2192
 5134SOL    HW127038   3.488   1.573   9.867  0.4627 -0.5461  2.1438
 5134SOL    HW227039   3.504   1.436   9.900 -1.9070  0.1047  0.7196
 5135SOL     OW27040   1.741   4.694   3.975 -0.5009 -0.2811 -0.4779
 5135SOL    HW127041   1.818   0.015   3.977 -0.1489 -0.7993  0.5078
 5135SOL    HW227042   1.782   4.608   3.970 -2.1881 -1.1820  1.3796
 5136SOL     OW27043   4.016   1.948   6.374 -0.3523  0.0637 -0.0077
 5136SOL    HW127044   3.924   1.924   6.373 -0.5795  1.0343 -2.4129
 5136SOL    HW227045   4.007   2.008   6.448  1.4294  1.2350 -0.7252
 5137SOL     OW27046   1.750   3.576   3.092  0.2631 -0.2762  0.2137
 5137SOL    HW127047   1.811   3.625   3.037 -0.3251  0.1368 -0.0629
 5137SOL    HW227048   1.807   3.542   3.162  0.5758  1.6526  0.8851
 5138SOL     OW27049   2.606   3.893   2.445 -0.0550 -0.1649  0.5561
 5138SOL    HW127050   2.678   3.866   2.503 -0.2031  0.1875  0.9099
 5138SOL    HW227051   2.642   3.964   2.392 -0.3929  0.0305  0.5929
 5139SOL     OW27052   3.566   4.028   8.175 -0.1324 -0.9998 -0.0889
 5139SOL    HW127053   3.482   4.046   8.132  0.4064 -2.2169 -1.6809
 5139SOL    HW227054   3.633   4.074   8.125 -1.4174  0.4587 -0.4786
 5140SOL     OW27055   2.743   4.188   6.007  0.1181  0.2973  0.0993
 5140SOL    HW127056   2.825   4.159   6.048  0.4415 -1.1248 -1.5649
 5140SOL    HW227057   2.745   4.283   6.023 -2.2700  0.3571 -0.0705
 5141SOL     OW27058   2.794   2.706   4.222  0.6701 -0.2672 -0.0460
 5141SOL    HW127059   2.743   2.786   4.218 -1.3111 -1.5800 -1.2466
 5141SOL    HW227060   2.790   2.685   4.315  1.0092 -3.9280 -0.8475
 5142SOL     OW27061   2.735   1.776   3.918  0.1585  0.7961  0.0184
 5142SOL    HW127062   2.793   1.701   3.935  2.5853  2.8241  0.7027
 5142SOL    HW227063   2.760   1.842   3.983  1.8459 -0.6960  0.8626
 5143SOL     OW27064   1.364   3.465  16.099 -0.1594  0.2591 -0.4321
 5143SOL    HW127065   1.349   3.436  16.009  0.9157  1.0820 -0.8706
 5143SOL    HW227066   1.282   3.511  16.119  0.1424 -0.2229  1.9577
 5144SOL     OW27067   1.512   4.517  11.246 -0.1531 -0.3651  0.3476
 5144SOL    HW127068   1.519   4.431  11.287  0.4361 -0.7490 -0.5454
 5144SOL    HW227069   1.574   4.569  11.296  2.0270 -3.6273  1.0288
 5145SOL     OW27070   4.482   1.075   5.120 -0.5628 -0.0374  0.6036
 5145SOL    HW127071   4.547   1.140   5.145 -0.2158  0.4963 -1.7483
 5145SOL    HW227072   4.476   1.095   5.027 -2.9341 -0.3009  0.6981
 5146SOL     OW27073   3.333   2.731   8.718 -0.5506 -0.1378 -0.4138
 5146SOL    HW127074   3.407   2.684   8.680  0.1148  1.6850 -1.3285
 5146SOL    HW227075   3.285   2.654   8.748 -1.1773 -0.0062 -1.0917
 5147SOL     OW27076   4.403   0.041   0.863 -0.3508  0.0389  0.5246
 5147SOL    HW127077   4.478   0.064   0.807  0.6203 -0.4176  1.6430
 5147SOL    HW227078   4.357   0.125   0.869  1.5151  1.0645  0.4661
 5148SOL     OW27079   0.779   0.801   3.888  0.9031  0.0846 -0.2559
 5148SOL    HW127080   0.765   0.833   3.799  3.9031 -1.5422 -1.3164
 5148SOL    HW227081   0.862   0.757   3.874  0.9743  0.2657 -0.4005
 5149SOL     OW27082   1.929   3.683   2.179  0.2185  0.2689 -0.2014
 5149SOL    HW127083   1.886   3.755   2.133 -0.1045  1.0391  1.2957
 5149SOL    HW227084   2.021   3.710   2.177  0.5027 -0.5688  1.1001
 5150SOL     OW27085   1.702   0.035  16.363  0.1563 -0.0700  0.3070
 5150SOL    HW127086   1.776   0.077  16.408  0.5720 -0.4567 -0.0133
 5150SOL    HW227087   1.626   0.067  16.412  0.4557  0.3543  0.4931
 5151SOL     OW27088   2.774   2.064  12.418 -0.0344  0.3526  0.1894
 5151SOL    HW127089   2.739   1.975  12.408  1.0093  0.0830 -1.1284
 5151SOL    HW227090   2.771   2.082  12.512 -1.6021 -0.7327  0.3440
 5152SOL     OW27091   2.272   1.642   4.532  0.2567 -1.2142  0.4011
 5152SOL    HW127092   2.348   1.697   4.554  1.9855 -3.4100 -0.0874
 5152SOL    HW227093   2.247   1.689   4.452 -0.2644 -1.0312  0.6730
 5153SOL     OW27094   4.703   1.397  11.121 -0.6034  0.0637 -0.2355
 5153SOL    HW127095   0.011   1.480  11.136 -1.8367  0.2756  2.1598
 5153SOL    HW227096   0.012   1.351  11.191  1.2002 -1.7329 -2.5818
 5154SOL     OW27097   3.717   2.449   8.674 -0.3553 -1.0266  0.1327
 5154SOL    HW127098   3.757   2.417   8.593  1.3773  0.4752  0.3784
 5154SOL    HW227099   3.635   2.487   8.645  0.1428  0.7806  1.0744
 5155SOL     OW27100   1.583   2.582  13.208 -0.1709  0.2068 -0.6928
 5155SOL    HW127101   1.550   2.569  13.297 -1.6441  1.2794 -1.0689
 5155SOL    HW227102   1.517   2.532  13.161 -0.5055 -1.0626  1.1252
 5156SOL     OW27103   3.994   0.781   0.806  0.7223 -0.1905  0.1265
 5156SOL    HW127104   3.986   0.707   0.746  1.2531 -1.4385  1.5882
 5156SOL    HW227105   3.903   0.808   0.805  1.1647  1.3770  1.6569
 5157SOL     OW27106   4.610   1.874   0.548 -0.2430  0.6993 -0.3034
 5157SOL    HW127107   4.540   1.859   0.484  0.8797 -0.6426 -1.2079
 5157SOL    HW227108   4.608   1.785   0.582 -1.4786  0.2993 -1.4168
 5158SOL     OW27109   1.385   3.882   6.240 -0.0038 -0.5773  0.3752
 5158SOL    HW127110   1.433   3.910   6.318 -1.6784 -0.5190  1.3847
 5158SOL    HW227111   1.365   3.964   6.195 -1.3074 -0.4662  1.1585
 5159SOL     OW27112   4.201   2.864  14.945 -0.1933 -0.3432  0.1748
 5159SOL    HW127113   4.187   2.950  14.985 -1.6723  0.7182 -2.6252
 5159SOL    HW227114   4.149   2.875  14.865  1.9999 -0.6134 -1.2887
 5160SOL     OW27115   0.480   4.391   5.221  0.5773 -0.6486 -0.0600
 5160SOL    HW127116   0.394   4.431   5.233  0.3794 -0.6463 -1.4435
 5160SOL    HW227117   0.463   4.324   5.155  4.7990  0.0185 -1.8076
 5161SOL     OW27118   3.274   1.461  13.372 -0.0289  0.5172  0.0198
 5161SOL    HW127119   3.288   1.488  13.462 -2.5125 -1.5239  0.9914
 5161SOL    HW227120   3.208   1.525  13.345  0.4086  1.5569  1.4518
 5162SOL     OW27121   1.724   3.352   8.449  0.0602  0.0787  0.2509
 5162SOL    HW127122   1.752   3.270   8.492 -0.5224  1.1543  2.6848
 5162SOL    HW227123   1.773   3.335   8.368 -1.0044  0.8196 -0.5345
 5163SOL     OW27124   0.823   1.803   9.175 -0.2011 -0.1354 -0.9271
 5163SOL    HW127125   0.738   1.783   9.215  0.2960 -0.9818 -0.3095
 5163SOL    HW227126   0.819   1.729   9.114  0.9068  0.0013 -1.1585
 5164SOL     OW27127   3.427   3.703  14.979  0.9112  0.0490  0.5130
 5164SOL    HW127128   3.385   3.727  15.061 -1.5912  0.6338 -0.9349
 5164SOL    HW227129   3.432   3.609  14.991 -0.4036 -0.0335  0.4278
 5165SOL     OW27130   1.353   1.510  11.050  0.0801  0.2230 -0.2291
 5165SOL    HW127131   1.412   1.435  11.054 -0.1110 -0.0184 -2.0579
 5165SOL    HW227132   1.267   1.473  11.033 -0.0366 -0.0382  0.9334
 5166SOL     OW27133   2.797   3.742   5.324  0.3182 -0.0306  0.3681
 5166SOL    HW127134   2.744   3.814   5.289  1.2438  0.6556  0.3686
 5166SOL    HW227135   2.885   3.779   5.331  1.1678 -1.6159 -1.9367
 5167SOL     OW27136   1.942   1.962   4.983  0.0422  0.5451 -0.3661
 5167SOL    HW127137   2.032   1.938   5.004 -0.0569  0.2969 -0.2306
 5167SOL    HW227138   1.955   2.019   4.907 -0.4134  0.3165 -0.6102
 5168SOL     OW27139   2.674   4.058   3.788 -0.6246 -0.2529 -0.0853
 5168SOL    HW127140   2.605   4.072   3.852 -0.4865  0.3930 -0.0745
 5168SOL    HW227141   2.647   4.136   3.740 -0.2423 -0.7482 -1.0986
 5169SOL     OW27142   2.786   2.620   2.066 -0.5696 -0.1308  0.9174
 5169SOL    HW127143   2.832   2.538   2.047 -0.6357  0.4639 -1.7667
 5169SOL    HW227144   2.728   2.602   2.140 -1.5153  1.7303  0.6270
 5170SOL     OW27145   4.129   0.480   7.664 -0.1504  0.3901  0.3838
 5170SOL    HW127146   4.189   0.549   7.692 -0.5937  1.4475 -1.2577
 5170SOL    HW227147   4.064   0.529   7.613  2.0021  1.3896 -1.3854
 5171SOL     OW27148   4.116   1.299   3.301 -0.4595  0.4307  0.1250
 5171SOL    HW127149   4.185   1.309   3.366  0.1316 -0.4838 -0.3526
 5171SOL    HW227150   4.124   1.378   3.248  4.3856  1.6580  2.6772
 5172SOL     OW27151   4.373   0.474  15.897  0.1200  0.7739 -0.6577
 5172SOL    HW127152   4.283   0.485  15.869 -0.0426 -2.7236 -1.5385
 5172SOL    HW227153   4.361   0.448  15.988 -2.9887  0.1770 -1.2591
 5173SOL     OW27154   2.222   4.488   3.067 -0.0943 -0.0922 -0.4989
 5173SOL    HW127155   2.216   4.392   3.060  0.2020 -0.1752  0.3287
 5173SOL    HW227156   2.299   4.505   3.121  0.9967 -0.1300 -2.0246
 5174SOL     OW27157   4.045   0.788   3.705  0.1697  0.1844  0.2163
 5174SOL    HW127158   4.107   0.719   3.729  0.5949  0.2449 -0.7259
 5174SOL    HW227159   4.096   0.829   3.635 -1.3122  1.8383  0.0823
 5175SOL     OW27160   4.227   3.699   7.108 -0.4705  0.3945  0.3302
 5175SOL    HW127161   4.257   3.658   7.027 -2.0365  0.6424 -0.3805
 5175SOL    HW227162   4.230   3.630   7.174 -1.7305  1.0222  1.0489
 5176SOL     OW27163   0.280   1.606   1.117  0.2596 -0.1035  0.0340
 5176SOL    HW127164   0.187   1.627   1.105  0.1101 -1.3834 -1.0240
 5176SOL    HW227165   0.306   1.678   1.058  1.0605  0.3934  0.9898
 5177SOL     OW27166   0.757   1.774   2.343  0.3312 -0.3806  0.4167
 5177SOL    HW127167   0.834   1.820   2.308  1.2877  0.1603  3.2412
 5177SOL    HW227168   0.687   1.805   2.286  0.5149  1.5008  1.2077
 5178SOL     OW27169   0.061   0.943   7.975 -0.2931  0.2324 -0.2471
 5178SOL    HW127170   4.722   0.991   8.008 -0.4742  0.2316 -0.6525
 5178SOL    HW227171   0.062   0.984   7.888  1.5567 -1.7932 -1.1695
 5179SOL     OW27172   1.113   4.121   8.853 -0.2942 -0.3775  0.7886
 5179SOL    HW127173   1.073   4.085   8.932 -0.0742 -2.4235 -0.0283
 5179SOL    HW227174   1.079   4.210   8.860 -0.4245 -0.1034 -2.8552
 5180SOL     OW27175   2.500   4.663   1.647  0.0838  0.3020 -0.0014
 5180SOL    HW127176   2.453   4.582   1.667  1.8757 -0.7730 -0.1081
 5180SOL    HW227177   2.475   4.714   1.724  1.0766 -0.0065  0.5323
 5181SOL     OW27178   0.166   2.079  15.826  0.1183  0.0335 -0.5428
 5181SOL    HW127179   0.127   2.105  15.743 -0.2630 -1.4385 -0.8317
 5181SOL    HW227180   0.256   2.049  15.810 -0.1189 -1.2858  0.5513
 5182SOL     OW27181   1.826   1.466   2.951 -0.2123  0.6050 -0.5757
 5182SOL    HW127182   1.796   1.539   3.005  1.4638  0.5058  0.4716
 5182SOL    HW227183   1.816   1.398   3.017 -0.3475  0.9604 -0.2313
 5183SOL     OW27184   0.228   1.920   4.602 -0.7361  0.0678 -0.0875
 5183SOL    HW127185   0.239   2.015   4.598 -2.5994  0.3023  0.3487
 5183SOL    HW227186   0.233   1.911   4.697  1.2391  1.3192 -0.0876
 5184SOL     OW27187   1.352   0.480   5.898  0.1232  0.4327 -0.1600
 5184SOL    HW127188   1.374   0.569   5.926  0.1717  0.6571 -0.9082
 5184SOL    HW227189   1.414   0.428   5.950 -1.4021 -1.3441 -0.1093
 5185SOL     OW27190   4.429   0.232   8.286  0.1206 -0.0803  0.0874
 5185SOL    HW127191   4.501   0.289   8.258  2.0732 -2.3464  0.5698
 5185SOL    HW227192   4.470   0.155   8.248  0.9230  0.0969  0.5981
 5186SOL     OW27193   4.629   3.723   3.175 -0.6237 -0.3692  0.1132
 5186SOL    HW127194   4.646   3.814   3.200 -0.7493 -0.1686 -0.5277
 5186SOL    HW227195   4.693   3.707   3.105 -2.9511 -2.4696 -1.5143
 5187SOL     OW27196   3.030   0.715   1.139 -0.0315  0.5200 -0.0424
 5187SOL    HW127197   3.089   0.707   1.214 -1.9466 -0.7169  1.3437
 5187SOL    HW227198   3.006   0.806   1.155  1.0245  1.0136 -1.1693
 5188SOL     OW27199   2.285   1.740   3.993 -0.2048 -0.3680  0.3571
 5188SOL    HW127200   2.280   1.670   3.927  1.7685 -0.5280  0.3829
 5188SOL    HW227201   2.193   1.763   4.004  0.1359  0.0540  2.3473
 5189SOL     OW27202   0.304   1.145   7.486 -0.1806 -0.3264 -0.3236
 5189SOL    HW127203   0.236   1.181   7.429 -1.5787  0.1741  1.6583
 5189SOL    HW227204   0.371   1.211   7.470  0.8869 -0.8238  2.1475
 5190SOL     OW27205   1.359   1.262   6.781  0.3543  0.1420 -0.8345
 5190SOL    HW127206   1.373   1.268   6.875  1.9275 -1.4586 -0.9724
 5190SOL    HW227207   1.414   1.185   6.764  1.4246  1.2477 -2.3036
 5191SOL     OW27208   1.376   2.088   8.628  0.1503  0.5393  0.3167
 5191SOL    HW127209   1.357   2.132   8.710  1.5316  2.6973 -0.4995
 5191SOL    HW227210   1.298   2.034   8.617 -0.7523  2.0282 -0.6764
 5192SOL     OW27211   0.461   1.408   2.238 -0.3833  0.1425 -0.1930
 5192SOL    HW127212   0.465   1.344   2.309  1.0288  0.2782 -0.1622
 5192SOL    HW227213   0.551   1.439   2.237 -0.4281  0.2726 -0.1958
 5193SOL     OW27214   1.397   0.967   4.792  0.0012  0.4853  0.1334
 5193SOL    HW127215   1.321   0.956   4.734  2.2460 -0.5698 -2.6209
 5193SOL    HW227216   1.409   1.062   4.795  1.8048  0.2952 -1.5196
 5194SOL     OW27217   2.727   2.441   5.022 -0.3504  0.9592 -0.4185
 5194SOL    HW127218   2.748   2.425   5.114 -1.8029  0.4144 -0.1892
 5194SOL    HW227219   2.808   2.404   4.986 -0.5942 -0.6139  0.6383
 5195SOL     OW27220   1.685   4.573   5.491  0.0766  0.4364  0.4849
 5195SOL    HW127221   1.601   4.556   5.450  2.2360 -1.9738 -2.8982
 5195SOL    HW227222   1.656   4.558   5.581  1.6807 -0.2883  0.8851
 5196SOL     OW27223   3.193   1.784  14.257  0.6278  1.3417  0.0152
 5196SOL    HW127224   3.275   1.818  14.291  1.1172 -0.8206  1.0164
 5196SOL    HW227225   3.192   1.699  14.301  2.4446  1.3510  0.0884
 5197SOL     OW27226   3.946   2.093   6.598 -0.3568  0.1851  0.4869
 5197SOL    HW127227   3.883   2.130   6.660 -0.8877 -1.3431  0.8677
 5197SOL    HW227228   3.983   2.174   6.565  1.5945 -1.2945 -0.9350
 5198SOL     OW27229   1.083   3.195   7.208  0.4141  0.3992 -0.3320
 5198SOL    HW127230   1.053   3.252   7.279  0.4597 -1.7470  1.3961
 5198SOL    HW227231   1.066   3.107   7.241  0.6432  0.8306  0.9412
 5199SOL     OW27232   1.310   1.260  15.800 -0.2602  0.1555 -0.8493
 5199SOL    HW127233   1.299   1.239  15.707 -2.2824  2.9976 -1.2427
 5199SOL    HW227234   1.294   1.175  15.840  4.2917  0.2596  1.1596
 5200SOL     OW27235   0.759   1.590   2.550  0.3968 -0.3529 -0.5493
 5200SOL    HW127236   0.669   1.558   2.545 -0.4506  1.9898 -0.3646
 5200SOL    HW227237   0.759   1.651   2.476 -1.0836 -1.3086 -1.3441
 5201SOL     OW27238   2.510   0.795   3.181 -0.2251 -0.2687 -0.2237
 5201SOL    HW127239   2.516   0.709   3.138 -1.9329  0.1848 -1.3734
 5201SOL    HW227240   2.460   0.833   3.109  2.4205  0.8979 -1.4381
 5202SOL     OW27241   1.901   1.909   5.990  0.0780 -0.2753 -0.0987
 5202SOL    HW127242   1.914   1.868   5.904  1.5128 -1.6336  0.7702
 5202SOL    HW227243   1.987   1.952   5.996 -0.6129  1.0421  0.4837
 5203SOL     OW27244   4.066   0.949   6.932  0.4304 -0.0607 -0.4541
 5203SOL    HW127245   4.155   0.984   6.932  0.2458  0.4048  0.2845
 5203SOL    HW227246   4.050   0.940   6.838  1.0069 -0.1373 -0.5452
 5204SOL     OW27247   2.788   0.465   4.430 -0.3571 -0.8838  0.3639
 5204SOL    HW127248   2.784   0.407   4.353 -0.7733  0.2464 -0.4603
 5204SOL    HW227249   2.862   0.436   4.484  0.4490  1.4038  0.4625
 5205SOL     OW27250   4.196   4.062   0.395  0.2835 -0.2332 -0.0790
 5205SOL    HW127251   4.223   3.978   0.358  1.1996  0.2589 -0.5412
 5205SOL    HW227252   4.167   4.035   0.482 -0.5449 -0.0986 -0.3106
 5206SOL     OW27253   2.877   0.231   6.638  0.3983 -0.7329 -0.6826
 5206SOL    HW127254   2.821   0.266   6.708  1.7576  1.2235 -0.5532
 5206SOL    HW227255   2.875   0.306   6.578 -2.3537 -0.6462 -0.4795
 5207SOL     OW27256   2.260   1.536   0.782  0.8284  0.1499  0.8151
 5207SOL    HW127257   2.169   1.560   0.798 -0.0718 -2.0588 -0.9485
 5207SOL    HW227258   2.257   1.562   0.690 -1.8262 -2.4187  0.1965
 5208SOL     OW27259   0.851   2.206  12.692 -0.0445  0.0888  0.5913
 5208SOL    HW127260   0.846   2.135  12.627  0.4895  0.1932  0.4376
 5208SOL    HW227261   0.905   2.163  12.757  1.1686 -0.2618 -0.6542
 5209SOL     OW27262   3.269   0.098  15.588 -0.0897 -0.5511 -0.0641
 5209SOL    HW127263   3.230   0.045  15.518  2.5973 -0.4360 -1.6672
 5209SOL    HW227264   3.220   0.080  15.668  0.6647 -2.5389 -0.0404
 5210SOL     OW27265   4.476   2.772   6.602 -0.1850  0.0888 -0.5104
 5210SOL    HW127266   4.383   2.759   6.621 -0.2176 -0.3669 -0.9626
 5210SOL    HW227267   4.469   2.860   6.566  2.3462  1.2435  1.8150
 5211SOL     OW27268   2.550   0.099   3.826  0.1496 -0.0854 -0.3078
 5211SOL    HW127269   2.581   0.108   3.736 -0.3860 -0.6643 -0.5562
 5211SOL    HW227270   2.590   0.180   3.858 -2.2580  0.9303  0.1973
 5212SOL     OW27271   1.551   1.281  16.746  0.6476 -0.0345  0.3723
 5212SOL    HW127272   1.612   1.321  16.684  2.3047 -1.0101  1.3503
 5212SOL    HW227273   1.552   1.190  16.715 -4.0887  0.4821 -1.2880
 5213SOL     OW27274   2.370   3.388   5.607  0.0886  0.0747 -0.6752
 5213SOL    HW127275   2.386   3.295   5.592 -0.6818  0.0186 -1.1561
 5213SOL    HW227276   2.447   3.434   5.639 -0.3037  0.3296 -0.0910
 5214SOL     OW27277   4.169   0.877   9.201 -0.5111 -0.6113 -0.7278
 5214SOL    HW127278   4.247   0.842   9.243  0.4037 -1.5488 -3.2022
 5214SOL    HW227279   4.156   0.805   9.140 -1.2804  0.6106 -2.0084
 5215SOL     OW27280   0.389   4.648  10.543  0.4613 -0.2618 -0.1576
 5215SOL    HW127281   0.308   4.691  10.515  0.5132  0.3489  0.6259
 5215SOL    HW227282   0.426   4.628  10.457 -0.8985  0.1579 -0.8436
 5216SOL     OW27283   1.020   1.045   2.615  0.2395 -0.2031  0.3234
 5216SOL    HW127284   1.011   1.004   2.529  2.5498 -0.7812  0.3457
 5216SOL    HW227285   0.935   1.016   2.649  0.3872 -0.4963  0.4396
 5217SOL     OW27286   2.740   3.864   8.080  0.0957  0.0866 -0.1290
 5217SOL    HW127287   2.703   3.888   8.165 -0.0584 -0.9158  0.0827
 5217SOL    HW227288   2.663   3.871   8.022  1.3596 -1.8659 -2.0475
 5218SOL     OW27289   4.511   4.235   8.931 -0.3771  0.4345 -0.4164
 5218SOL    HW127290   4.486   4.283   9.010  0.2416 -1.1454  0.7296
 5218SOL    HW227291   4.554   4.302   8.878  1.1153  0.2357  0.5014
 5219SOL     OW27292   0.279   2.260   2.636  0.2742 -0.2500  0.2316
 5219SOL    HW127293   0.346   2.203   2.675  0.9768  0.0071 -0.6085
 5219SOL    HW227294   0.283   2.337   2.693 -0.8470 -1.3732  1.8301
 5220SOL     OW27295   2.980   2.976   1.670  0.9194  0.5327  0.0293
 5220SOL    HW127296   3.028   2.917   1.729 -2.2479  0.0534  2.1553
 5220SOL    HW227297   2.892   2.984   1.705  0.2827 -1.1494 -1.2239
 5221SOL     OW27298   3.834   1.630   9.628 -0.3706 -0.4074 -0.3858
 5221SOL    HW127299   3.872   1.623   9.541 -2.4882 -1.4061 -1.2285
 5221SOL    HW227300   3.814   1.722   9.647  2.4757  0.4492 -1.5152
 5222SOL     OW27301   3.032   4.000   9.115 -0.6001 -0.5441  0.3536
 5222SOL    HW127302   2.936   3.993   9.112 -0.6981 -0.5113  4.2080
 5222SOL    HW227303   3.058   3.967   9.028  1.2626 -0.2425  0.8160
 5223SOL     OW27304   0.643   4.661  12.010  0.3266 -0.7570 -0.0555
 5223SOL    HW127305   0.707   4.732  12.017 -0.4645  0.1050 -1.4666
 5223SOL    HW227306   0.577   4.692  12.072 -1.6749 -2.0704 -1.4956
 5224SOL     OW27307   0.714   1.191   6.603 -0.0294 -0.0447  0.1020
 5224SOL    HW127308   0.736   1.269   6.653  1.1248 -0.9273  0.9740
 5224SOL    HW227309   0.778   1.134   6.646 -1.1360 -1.1314  0.2951
 5225SOL     OW27310   4.044   1.111   9.297 -0.0511 -0.2432  0.2315
 5225SOL    HW127311   4.119   1.168   9.281 -0.4333  0.3910  0.7007
 5225SOL    HW227312   4.082   1.024   9.283  1.0432  0.7939 -3.0879
 5226SOL     OW27313   4.482   0.584   9.939 -0.4973  0.1393 -0.3462
 5226SOL    HW127314   4.517   0.660   9.892 -1.9819  0.6743 -0.5906
 5226SOL    HW227315   4.389   0.597   9.918 -1.1615 -0.6069  2.1561
 5227SOL     OW27316   3.547   2.206  16.443 -0.3907  0.0156 -0.2321
 5227SOL    HW127317   3.577   2.190  16.533 -1.1272  0.6444  0.1255
 5227SOL    HW227318   3.491   2.130  16.423 -1.1254  0.4394  0.2054
 5228SOL     OW27319   1.090   3.417  12.239 -0.2522  0.6287  1.1158
 5228SOL    HW127320   1.164   3.381  12.288 -2.6607 -0.4754  3.9115
 5228SOL    HW227321   1.019   3.398  12.300 -0.9694 -0.4174 -0.0516
 5229SOL     OW27322   2.918   0.145   2.334 -0.2429 -0.2223 -0.5137
 5229SOL    HW127323   2.930   0.130   2.428  1.4831 -0.2506 -0.7433
 5229SOL    HW227324   3.011   0.156   2.315 -0.2886 -1.0649 -1.1979
 5230SOL     OW27325   1.898   2.351   3.293 -0.3334 -0.3187 -0.1326
 5230SOL    HW127326   1.913   2.260   3.267 -2.4179 -0.0224 -2.3978
 5230SOL    HW227327   1.805   2.371   3.281 -0.0254  0.8939 -0.4587
 5231SOL     OW27328   2.926   4.165   5.379  0.1941  0.0653 -0.1657
 5231SOL    HW127329   2.874   4.092   5.348 -0.1026 -0.0645  0.6403
 5231SOL    HW227330   2.990   4.130   5.441 -0.1708  0.0566  0.1988
 5232SOL     OW27331   4.607   0.326   8.901 -0.3949  0.7615  0.1851
 5232SOL    HW127332   4.550   0.391   8.942  0.3075  1.6625 -0.2591
 5232SOL    HW227333   4.568   0.250   8.943 -0.9982  1.3224  0.6434
 5233SOL     OW27334   2.188   1.818   1.718  0.3314 -1.1382  0.6555
 5233SOL    HW127335   2.154   1.797   1.631 -2.7335  1.1079  1.3468
 5233SOL    HW227336   2.104   1.798   1.759 -2.3953  2.9049 -3.0456
 5234SOL     OW27337   3.146   0.856  12.941  0.0013 -0.1781 -0.3085
 5234SOL    HW127338   3.131   0.903  12.859 -1.2665  2.3363  1.3317
 5234SOL    HW227339   3.235   0.823  12.931 -0.6568 -2.2383  0.7469
 5235SOL     OW27340   2.981   3.267   4.708  0.5101  0.4806  0.8190
 5235SOL    HW127341   2.941   3.190   4.748 -0.2826  0.7691  0.5708
 5235SOL    HW227342   3.040   3.231   4.641  0.1713  1.8950 -0.2398
 5236SOL     OW27343   3.223   4.555  13.984  0.0761  0.5461  0.0777
 5236SOL    HW127344   3.227   4.497  13.907 -1.8635  1.0729 -0.4249
 5236SOL    HW227345   3.255   4.637  13.948 -0.6832  0.0589 -1.7547
 5237SOL     OW27346   0.003   1.637   1.003  0.2452  0.0579 -0.5403
 5237SOL    HW127347   4.733   1.553   0.958 -0.3755 -1.6854  2.8122
 5237SOL    HW227348   4.646   1.654   0.997 -0.0486 -0.7307  1.5975
 5238SOL     OW27349   3.495   0.314   2.229 -0.5423 -0.5807  0.5720
 5238SOL    HW127350   3.494   0.391   2.286 -1.1603  0.6977 -1.1615
 5238SOL    HW227351   3.512   0.354   2.144  1.6096 -0.0994  1.2484
 5239SOL     OW27352   3.715   0.034  15.481  0.3604  0.2367 -0.5836
 5239SOL    HW127353   3.767   0.029  15.561 -0.1600  0.5016 -0.2256
 5239SOL    HW227354   3.662   0.107  15.512  0.8841  0.5717 -0.4898
 5240SOL     OW27355   0.955   2.999  12.355  0.2744  0.9551  0.0858
 5240SOL    HW127356   1.002   3.055  12.417 -0.2645  0.7035  0.7277
 5240SOL    HW227357   0.978   3.036  12.270 -0.6706 -2.5552 -1.6897
 5241SOL     OW27358   2.957   3.614   8.877  0.0201  0.7699  0.3029
 5241SOL    HW127359   2.901   3.661   8.939  2.3924  0.4548  2.7344
 5241SOL    HW227360   2.967   3.683   8.811  0.3452 -1.3824 -1.8806
 5242SOL     OW27361   2.347   1.247   9.437 -0.2858  0.3067  0.1719
 5242SOL    HW127362   2.436   1.242   9.471 -1.5425 -0.6534  3.2383
 5242SOL    HW227363   2.314   1.315   9.495  0.0048 -0.3160  1.0635
 5243SOL     OW27364   1.298   4.394  10.677  0.6158 -0.4660 -0.1483
 5243SOL    HW127365   1.336   4.329  10.735 -1.4758  0.3311  2.1098
 5243SOL    HW227366   1.272   4.463  10.739  2.8464 -0.1885  0.4510
 5244SOL     OW27367   1.054   2.832  15.580 -0.4340 -0.1731 -0.4269
 5244SOL    HW127368   0.970   2.794  15.605 -1.6737  2.4741 -0.5659
 5244SOL    HW227369   1.028   2.923  15.566  0.6336  0.0417 -0.9930
 5245SOL     OW27370   4.396   1.093   7.795 -0.1907  0.2540 -0.3180
 5245SOL    HW127371   4.435   1.073   7.879  0.7085  1.8698 -0.3437
 5245SOL    HW227372   4.325   1.154   7.816 -0.6899 -0.4853  0.1233
 5246SOL     OW27373   3.104   0.951   2.786 -0.2612  0.2278  0.6026
 5246SOL    HW127374   3.054   0.929   2.864 -1.9754  1.2917 -0.1947
 5246SOL    HW227375   3.052   0.914   2.715 -0.8613  0.5688  0.8707
 5247SOL     OW27376   1.951   4.291   8.887  0.2358 -0.2019  0.7762
 5247SOL    HW127377   2.027   4.243   8.920 -0.0616 -0.5209  0.9966
 5247SOL    HW227378   1.982   4.322   8.802  0.2376 -2.7888 -0.1512
 5248SOL     OW27379   1.135   0.581   4.194 -0.1041 -0.0476 -0.4748
 5248SOL    HW127380   1.169   0.599   4.106 -0.2338  0.4379 -0.4229
 5248SOL    HW227381   1.118   0.486   4.191  1.1348 -0.2919  0.2878
 5249SOL     OW27382   1.837   1.854   8.378  0.2829  0.4903  0.0050
 5249SOL    HW127383   1.892   1.790   8.423 -0.5371 -1.2534 -1.4272
 5249SOL    HW227384   1.846   1.833   8.285  1.4773 -0.8795  0.4312
 5250SOL     OW27385   0.411   3.194   5.545 -0.0811 -0.2227  0.4548
 5250SOL    HW127386   0.424   3.199   5.640  2.2388 -1.0872  0.1860
 5250SOL    HW227387   0.340   3.257   5.536  0.4700  0.5149  1.3098
 5251SOL     OW27388   1.625   4.034   7.391 -0.7798  0.6094  0.1446
 5251SOL    HW127389   1.696   4.000   7.337 -0.2533  1.9195  0.0267
 5251SOL    HW227390   1.548   3.989   7.355  0.4583 -0.7787 -0.7524
 5252SOL     OW27391   1.009   0.984   5.204 -0.2216 -0.2594  0.4953
 5252SOL    HW127392   1.100   1.011   5.218 -1.1069  2.1408  1.6281
 5252SOL    HW227393   1.017   0.888   5.211  0.1500 -0.4935 -3.5901
 5253SOL     OW27394   0.512   1.489   8.882  0.4823  0.7208  0.2518
 5253SOL    HW127395   0.539   1.423   8.819  0.0221 -1.0312  1.8912
 5253SOL    HW227396   0.468   1.435   8.947  1.0557  1.0829  0.9428
 5254SOL     OW27397   1.739   2.690   7.545  0.0139 -0.4691 -0.1245
 5254SOL    HW127398   1.774   2.775   7.571  1.3835 -1.2957  0.7314
 5254SOL    HW227399   1.820   2.643   7.567  0.7640 -0.0076 -1.9200
 5255SOL     OW27400   2.268   2.806   9.522  0.0163  0.6307  0.2181
 5255SOL    HW127401   2.325   2.839   9.591 -1.0657  0.0875  1.3805
 5255SOL    HW227402   2.286   2.712   9.515 -0.1142  0.6520 -0.4477
 5256SOL     OW27403   3.798   0.489   8.676  0.0503 -0.4134  0.2241
 5256SOL    HW127404   3.861   0.561   8.685  0.9295 -0.8322 -2.7197
 5256SOL    HW227405   3.855   0.419   8.705  0.6410  0.2307  0.6236
 5257SOL     OW27406   0.077   2.610   5.659 -0.0142  0.5756  0.0191
 5257SOL    HW127407   0.050   2.697   5.689 -1.9940  0.2045 -0.6687
 5257SOL    HW227408   0.036   2.600   5.573  1.4200 -3.7074 -0.1548
 5258SOL     OW27409   2.206   0.913   3.045 -0.0391 -0.2431 -0.9258
 5258SOL    HW127410   2.128   0.948   3.004 -0.0462  2.2716  1.2365
 5258SOL    HW227411   2.266   0.986   3.057 -1.8840  1.1380 -0.0264
 5259SOL     OW27412   1.555   1.174   7.785 -0.5010 -0.8028 -0.4911
 5259SOL    HW127413   1.547   1.201   7.694  1.0531  2.7272  0.4112
 5259SOL    HW227414   1.506   1.243   7.829  0.0575 -0.5057 -0.3327
 5260SOL     OW27415   4.659   3.729   7.905 -0.4280 -0.2274 -0.2720
 5260SOL    HW127416   4.732   3.709   7.963  0.7339 -3.5599 -2.8807
 5260SOL    HW227417   4.682   3.811   7.862  0.5953 -0.5152 -0.2632
 5261SOL     OW27418   1.258   2.979   2.828  0.3570 -0.0050  0.0726
 5261SOL    HW127419   1.198   3.050   2.852  0.4705 -0.6680  2.3240
 5261SOL    HW227420   1.276   3.019   2.744 -0.1714 -0.2266 -0.1476
 5262SOL     OW27421   4.038   0.401   2.565  0.4748 -0.1577 -0.0353
 5262SOL    HW127422   4.012   0.485   2.604  0.2425  0.9510 -2.6083
 5262SOL    HW227423   4.059   0.435   2.478 -1.1983  1.1094  0.0488
 5263SOL     OW27424   0.165   4.404   9.818  0.1961 -0.5394  0.3253
 5263SOL    HW127425   0.088   4.398   9.762  0.5613 -1.5109 -0.0737
 5263SOL    HW227426   0.127   4.404   9.906 -1.4930 -0.1004 -0.4072
 5264SOL     OW27427   0.435   1.689   5.528 -0.5027  0.3413  0.3211
 5264SOL    HW127428   0.528   1.666   5.520 -0.4400 -0.2695  2.8587
 5264SOL    HW227429   0.416   1.648   5.612  1.2410  0.6779  0.8941
 5265SOL     OW27430   0.864   0.697  15.312  0.0071 -0.9652  0.1387
 5265SOL    HW127431   0.899   0.619  15.356  1.3503 -0.1906  0.4191
 5265SOL    HW227432   0.816   0.655  15.240  0.1464 -4.8186  2.2574
 5266SOL     OW27433   0.597   1.588  16.884 -0.2590  0.3066 -0.1625
 5266SOL    HW127434   0.642   1.602  16.967 -0.2883  0.5703 -0.1896
 5266SOL    HW227435   0.669   1.587  16.822  1.3339  1.2120  1.6801
 5267SOL     OW27436   3.133   3.078   6.161  0.4154 -0.4649 -0.3228
 5267SOL    HW127437   3.115   3.043   6.074  0.1002  0.1376 -0.5015
 5267SOL    HW227438   3.049   3.119   6.177  1.4529  1.7230 -0.4760
 5268SOL     OW27439   3.366   1.178   8.682 -0.1344  0.2028  0.4442
 5268SOL    HW127440   3.273   1.156   8.696 -0.0140 -0.2352  0.5453
 5268SOL    HW227441   3.393   1.172   8.773 -0.8041 -0.8853  0.5836
 5269SOL     OW27442   2.557   3.945   9.361 -0.3505 -0.0389 -0.9147
 5269SOL    HW127443   2.532   4.033   9.390  0.2183 -0.6127  1.3268
 5269SOL    HW227444   2.577   3.900   9.443 -2.9407  0.7262  0.1070
 5270SOL     OW27445   1.508   0.407   5.307 -0.1268 -1.1745  1.0549
 5270SOL    HW127446   1.570   0.398   5.235 -0.1746 -2.0422  1.1242
 5270SOL    HW227447   1.570   0.425   5.378  2.6541  0.5189 -1.7715
 5271SOL     OW27448   2.965   3.019   9.354 -0.4657  0.2789  0.5370
 5271SOL    HW127449   3.049   3.041   9.393 -1.4880  0.5973  2.5440
 5271SOL    HW227450   2.906   3.074   9.406 -0.0807 -1.2516  2.6003
 5272SOL     OW27451   0.720   1.144   1.559  0.3034 -0.2805 -0.8373
 5272SOL    HW127452   0.697   1.052   1.571 -2.3187  0.5661  0.7622
 5272SOL    HW227453   0.635   1.188   1.571  0.7074  0.8250 -2.0446
 5273SOL     OW27454   4.656   4.459   5.151  0.1583  1.0451 -0.9782
 5273SOL    HW127455   4.579   4.441   5.097 -1.1827  0.3183  1.1701
 5273SOL    HW227456   4.647   4.554   5.140 -0.2617  1.0509 -0.5844
 5274SOL     OW27457   1.626   0.722   9.711 -0.1317 -0.4935  0.2981
 5274SOL    HW127458   1.676   0.699   9.790  0.4551  0.8673  0.3202
 5274SOL    HW227459   1.541   0.718   9.757  0.6209 -0.3420  1.7164
 5275SOL     OW27460   2.147   2.616   6.076  0.5773  0.1127 -0.6602
 5275SOL    HW127461   2.233   2.642   6.109  0.3912  0.6375 -0.5849
 5275SOL    HW227462   2.168   2.523   6.077 -0.1324 -0.0609 -2.3513
 5276SOL     OW27463   2.013   1.244   4.054 -0.1747  0.3522 -0.0379
 5276SOL    HW127464   2.080   1.193   4.098  0.8421  1.5866 -0.1590
 5276SOL    HW227465   2.043   1.327   4.091  2.3033 -0.5445 -0.0667
 5277SOL     OW27466   2.105   4.569   8.099  0.0482 -0.3291  0.0988
 5277SOL    HW127467   2.196   4.560   8.073 -0.7979 -2.1355 -2.2160
 5277SOL    HW227468   2.107   4.548   8.193  0.5544  0.6564  0.3051
 5278SOL     OW27469   3.455   0.467  12.087  0.5380  0.0229  0.1089
 5278SOL    HW127470   3.439   0.511  12.003  1.4060 -2.6847 -1.4695
 5278SOL    HW227471   3.451   0.544  12.143 -1.2460 -0.6198  0.8689
 5279SOL     OW27472   3.572   4.092   7.010 -0.0646 -0.2868  0.2150
 5279SOL    HW127473   3.525   4.110   7.092 -1.0534  1.5782 -0.7693
 5279SOL    HW227474   3.602   4.179   6.982  1.3435 -0.2798  1.7743
 5280SOL     OW27475   3.558   3.425  13.286  0.1437 -0.2163 -0.0311
 5280SOL    HW127476   3.531   3.500  13.232  1.0903  0.0854 -0.0875
 5280SOL    HW227477   3.479   3.438  13.338 -0.0079 -0.8717 -0.1067
 5281SOL     OW27478   0.992   2.699  11.191 -0.3736  0.2685  0.3022
 5281SOL    HW127479   0.937   2.623  11.211 -1.9359  0.7771 -2.0640
 5281SOL    HW227480   1.049   2.662  11.123  1.2034  0.4152  1.5516
 5282SOL     OW27481   2.110   1.047   8.523 -0.4217  0.2131  0.3452
 5282SOL    HW127482   2.114   1.143   8.529 -0.1925  0.1520  1.1094
 5282SOL    HW227483   2.202   1.026   8.511 -1.4183 -3.2728 -1.0653
 5283SOL     OW27484   3.159   2.355  12.416 -0.3236 -0.1634 -0.4696
 5283SOL    HW127485   3.096   2.314  12.357 -1.3817  1.8711 -0.7752
 5283SOL    HW227486   3.106   2.410  12.474 -1.2170 -0.0572 -1.3882
 5284SOL     OW27487   3.850   2.791   0.012 -0.3234  0.0999  0.8783
 5284SOL    HW127488   3.795   2.715  17.735 -0.1510 -0.1092  1.1791
 5284SOL    HW227489   3.802   2.816   0.091 -0.5426  0.4151  0.6428
 5285SOL     OW27490   3.784   4.444   5.999 -0.1043  0.0883  0.3128
 5285SOL    HW127491   3.707   4.458   6.054 -1.5475 -0.4432 -1.5470
 5285SOL    HW227492   3.794   4.529   5.954 -0.9791 -0.0823 -0.2060
 5286SOL     OW27493   1.017   4.413   4.764  0.4824 -0.0542  0.0085
 5286SOL    HW127494   0.966   4.370   4.695 -0.7139 -1.6788  1.8864
 5286SOL    HW227495   1.098   4.363   4.760 -0.6112 -1.9904  2.0382
 5287SOL     OW27496   4.247   3.455   6.551 -0.0482  0.3272 -0.2418
 5287SOL    HW127497   4.217   3.441   6.462  0.1962 -0.0937 -0.2584
 5287SOL    HW227498   4.334   3.493   6.535 -0.0811  0.0974 -0.9715
 5288SOL     OW27499   4.608   3.105   4.761  0.2907 -0.0763 -0.6064
 5288SOL    HW127500   4.608   3.074   4.852 -0.0647 -2.4163 -1.4008
 5288SOL    HW227501   4.637   3.024   4.720 -1.0252 -1.2127  0.7089
 5289SOL     OW27502   2.489   1.523   2.729  0.2464 -0.1918  0.3551
 5289SOL    HW127503   2.510   1.569   2.647  0.1519 -1.4200 -0.3579
 5289SOL    HW227504   2.549   1.563   2.792  1.4397  0.5632 -1.2433
 5290SOL     OW27505   0.927   0.333  16.091  0.5953  0.2012  0.5988
 5290SOL    HW127506   0.971   0.409  16.129  0.0207  0.7841  0.0932
 5290SOL    HW227507   0.904   0.372  16.007 -2.2154 -2.1365  0.2800
 5291SOL     OW27508   0.425   4.169   1.487  0.3633 -0.0768  0.0445
 5291SOL    HW127509   0.470   4.093   1.451 -0.8586 -1.1743  0.8200
 5291SOL    HW227510   0.484   4.242   1.471  2.1996 -1.2878  1.2448
 5292SOL     OW27511   0.711   3.307  11.020 -0.1657 -0.2762 -0.3044
 5292SOL    HW127512   0.716   3.221  11.062  0.4744 -1.1904 -2.2616
 5292SOL    HW227513   0.682   3.356  11.097 -2.2657 -0.0211 -1.2796
 5293SOL     OW27514   0.288   1.261   2.585 -0.0829  0.0680  0.3968
 5293SOL    HW127515   0.364   1.258   2.528  0.5393 -0.5744  1.2603
 5293SOL    HW227516   0.217   1.231   2.528 -1.0869  0.9788  1.1492
 5294SOL     OW27517   1.630   1.121  17.698  0.4338  0.3089 -0.0870
 5294SOL    HW127518   1.686   1.058  17.744  1.6568  2.1564  0.9637
 5294SOL    HW227519   1.679   1.203  17.698  1.3622 -0.2474  1.2046
 5295SOL     OW27520   3.565   4.525   7.197  0.3248 -0.5740 -0.1715
 5295SOL    HW127521   3.646   4.535   7.246  0.8708 -2.0711 -0.7413
 5295SOL    HW227522   3.505   4.587   7.237  0.7984  0.3060 -0.8421
 5296SOL     OW27523   2.639   4.590   8.488  0.0144 -0.4477  0.1390
 5296SOL    HW127524   2.709   4.553   8.542  1.5614  0.8556 -0.9884
 5296SOL    HW227525   2.619   4.673   8.531 -1.9544 -0.8021 -0.0751
 5297SOL     OW27526   2.929   0.273  15.700  0.8767 -0.1684  0.0518
 5297SOL    HW127527   2.968   0.188  15.719  1.7272  0.3014  0.3786
 5297SOL    HW227528   2.836   0.257  15.716  1.1445  0.4256  2.1692
 5298SOL     OW27529   2.371   3.736   6.369 -0.0520  0.3317  0.4573
 5298SOL    HW127530   2.359   3.831   6.363 -1.2163  0.2122  0.8524
 5298SOL    HW227531   2.443   3.728   6.307 -0.6332  1.3003 -0.3268
 5299SOL     OW27532   4.219   0.833  16.896  0.3707  0.4268 -0.6435
 5299SOL    HW127533   4.293   0.887  16.923 -0.3577  0.4612  1.2968
 5299SOL    HW227534   4.265   0.752  16.874 -1.2006 -0.9946  1.2784
 5300SOL     OW27535   1.258   0.024   7.210  0.4778 -0.0381  0.5876
 5300SOL    HW127536   1.288   4.677   7.244 -0.8001 -0.4013  0.8521
 5300SOL    HW227537   1.339   0.054   7.169 -0.8359 -1.1598 -2.8959
 5301SOL     OW27538   2.720   1.177   3.807 -0.4560  0.2898  0.2927
 5301SOL    HW127539   2.810   1.193   3.836 -0.5534  2.5090 -0.5777
 5301SOL    HW227540   2.666   1.177   3.886 -0.6717 -0.6935  0.1414
 5302SOL     OW27541   0.648   2.613  12.638  0.5268 -0.4596  0.1764
 5302SOL    HW127542   0.577   2.579  12.584 -0.0840 -1.7197  1.7513
 5302SOL    HW227543   0.619   2.704  12.639  0.1720 -0.5484 -2.1581
 5303SOL     OW27544   2.378   1.900   3.140 -0.0082  0.4342 -0.4975
 5303SOL    HW127545   2.440   1.869   3.206  2.1681  2.2183 -1.7389
 5303SOL    HW227546   2.414   1.859   3.062  0.2165  1.6153 -1.0152
 5304SOL     OW27547   2.021   1.572  16.483  0.1472 -0.0090  0.2655
 5304SOL    HW127548   2.044   1.656  16.521 -1.1762  0.0035  1.0443
 5304SOL    HW227549   2.029   1.519  16.561 -3.4793  0.4279  0.9406
 5305SOL     OW27550   0.917   2.836  17.506  0.3040  0.2124  0.2502
 5305SOL    HW127551   0.960   2.899  17.564 -0.9300  2.5254 -1.3679
 5305SOL    HW227552   0.976   2.760  17.514 -0.3076 -0.4898 -2.0154
 5306SOL     OW27553   4.609   0.393   2.058 -0.3259 -0.3243 -0.3662
 5306SOL    HW127554   4.676   0.444   2.105  1.4098 -2.6356 -0.3489
 5306SOL    HW227555   4.677   0.338   2.020 -1.1287  0.0184 -2.2908
 5307SOL     OW27556   2.501   0.639  15.616  0.1690 -0.0780 -0.1420
 5307SOL    HW127557   2.525   0.666  15.704 -1.4299 -1.4119  0.6966
 5307SOL    HW227558   2.588   0.623  15.578  2.0171  1.3655  3.5017
 5308SOL     OW27559   3.795   4.596   6.838  0.0460 -0.2853  0.0325
 5308SOL    HW127560   3.752   4.654   6.775  1.0618 -0.9043 -1.2377
 5308SOL    HW227561   3.875   4.579   6.787 -0.6050  2.8677 -2.0526
 5309SOL     OW27562   0.774   3.916  13.778  0.3100 -0.0272 -0.1380
 5309SOL    HW127563   0.728   3.850  13.831 -0.9940  0.8319 -0.1923
 5309SOL    HW227564   0.849   3.863  13.752 -0.5511 -1.5443  0.4766
 5310SOL     OW27565   0.085   0.553   9.438 -0.0054  0.1745 -0.0099
 5310SOL    HW127566   0.167   0.564   9.390 -0.4634 -0.2187 -0.8711
 5310SOL    HW227567   0.087   0.621   9.506 -2.3237  0.0598  0.1688
 5311SOL     OW27568   4.077   0.668   1.660  0.0508  0.5648 -0.4331
 5311SOL    HW127569   4.134   0.618   1.718  1.1329  2.1132 -0.1573
 5311SOL    HW227570   3.990   0.634   1.682  1.1423 -1.9849 -0.1245
 5312SOL     OW27571   4.694   1.841   3.062 -0.9344  0.1735 -0.4464
 5312SOL    HW127572   4.698   1.754   3.022 -1.1825  0.5514 -1.3156
 5312SOL    HW227573   0.049   1.852   3.087 -1.0948 -0.1012  0.2555
 5313SOL     OW27574   3.561   4.539   9.112  0.5502  0.1482 -0.3581
 5313SOL    HW127575   3.645   4.564   9.149 -0.0305 -1.1392  1.8724
 5313SOL    HW227576   3.504   4.614   9.129  0.2841  0.1780 -1.3538
 5314SOL     OW27577   0.413   0.493   8.583 -0.3032  0.7252  0.4747
 5314SOL    HW127578   0.460   0.521   8.504  0.9628 -0.8369  0.6776
 5314SOL    HW227579   0.458   0.416   8.618  3.4266  1.7184 -2.1327
 5315SOL     OW27580   2.157   3.841  16.398  0.0174  0.0925 -0.9798
 5315SOL    HW127581   2.197   3.824  16.483  2.0724 -0.5250 -2.0819
 5315SOL    HW227582   2.217   3.907  16.362  1.4408  1.0752  3.2129
 5316SOL     OW27583   0.390   2.584   4.498 -0.1417 -0.1029 -0.4252
 5316SOL    HW127584   0.364   2.658   4.552 -0.2038 -0.6457  0.2783
 5316SOL    HW227585   0.477   2.569   4.534  0.7456  1.2963 -1.9780
 5317SOL     OW27586   0.617   1.910   6.694  0.2792 -0.2992  0.0132
 5317SOL    HW127587   0.585   1.858   6.768 -0.6301 -0.9506 -0.8441
 5317SOL    HW227588   0.575   1.994   6.711 -0.5015 -0.7465  0.2548
 5318SOL     OW27589   2.776   3.372   8.025  0.0467 -0.2089 -0.1501
 5318SOL    HW127590   2.793   3.364   7.931 -0.3148 -0.4163 -0.1971
 5318SOL    HW227591   2.795   3.283   8.054  4.4369  1.3610  1.7152
 5319SOL     OW27592   3.749   2.446   0.126  0.1573 -0.1533 -0.3143
 5319SOL    HW127593   3.739   2.446   0.221  0.4494  1.3109 -0.2759
 5319SOL    HW227594   3.843   2.428   0.113  0.0424 -0.8872 -0.0870
 5320SOL     OW27595   4.216   2.341   0.659 -0.0535  0.6925 -0.3096
 5320SOL    HW127596   4.292   2.346   0.601 -0.6361 -1.3696 -1.2559
 5320SOL    HW227597   4.145   2.314   0.601  0.8728  0.7862 -1.4882
 5321SOL     OW27598   0.965   3.378   3.980 -0.3451 -0.1201  0.1997
 5321SOL    HW127599   0.913   3.315   3.930  0.7251 -1.0325  0.2431
 5321SOL    HW227600   0.945   3.458   3.930 -1.5526 -1.6322 -1.7489
 5322SOL     OW27601   4.590   0.405  15.761 -0.8445  0.1006  0.5440
 5322SOL    HW127602   4.601   0.481  15.703 -1.8925  0.0190  0.2423
 5322SOL    HW227603   4.501   0.417  15.794 -2.0308  1.1267 -2.9872
 5323SOL     OW27604   3.399   3.085  13.485 -0.2627  0.1992  0.5876
 5323SOL    HW127605   3.357   3.124  13.409 -1.3260  0.9803  1.5644
 5323SOL    HW227606   3.368   2.994  13.495 -1.4962  0.7404  1.6612
 5324SOL     OW27607   4.671   1.415   6.091 -0.4250  0.2322 -0.0388
 5324SOL    HW127608   4.717   1.421   6.007 -1.5425 -2.4199 -0.8535
 5324SOL    HW227609   4.592   1.370   6.060 -0.3967  1.2637 -1.6040
 5325SOL     OW27610   3.348   4.283   6.047 -0.0671 -1.1609 -0.8078
 5325SOL    HW127611   3.430   4.263   6.002  0.3584 -0.3944 -0.3712
 5325SOL    HW227612   3.368   4.370   6.081 -1.4837 -2.0210  2.2221
 5326SOL     OW27613   0.742   0.002  10.230 -0.3857 -0.4162  0.6856
 5326SOL    HW127614   0.693   0.084  10.232  1.5540  0.7008  1.7366
 5326SOL    HW227615   0.832   0.022  10.257 -0.3227 -0.7081  0.6878
 5327SOL     OW27616   4.129   0.762   6.239  1.1073 -0.4001  0.2272
 5327SOL    HW127617   4.139   0.857   6.239 -1.3296 -0.1345 -1.2766
 5327SOL    HW227618   4.068   0.744   6.167  1.8228  0.4366 -0.5707
 5328SOL     OW27619   1.857   4.381  13.069 -0.2029 -0.2558  0.1694
 5328SOL    HW127620   1.784   4.443  13.069  0.9051  1.0481 -0.9751
 5328SOL    HW227621   1.913   4.433  13.012  0.2660 -2.8570 -1.7015
 5329SOL     OW27622   3.046   3.778  15.369  0.6400  0.4427  0.4270
 5329SOL    HW127623   3.117   3.841  15.379  1.1256 -0.1306  0.5422
 5329SOL    HW227624   3.066   3.697  15.415  1.3586  0.2447 -0.2355
 5330SOL     OW27625   4.107   4.393   5.150  0.0238  0.4331  0.0060
 5330SOL    HW127626   4.032   4.362   5.099 -0.7021  0.5229  1.0245
 5330SOL    HW227627   4.099   4.318   5.209  2.2548 -1.3460 -1.9129
 5331SOL     OW27628   4.603   1.452   3.315 -0.0509  0.3038  0.7621
 5331SOL    HW127629   4.583   1.544   3.299  0.1239  0.2594  0.2982
 5331SOL    HW227630   4.547   1.438   3.392 -1.1802  2.9331  0.4039
 5332SOL     OW27631   1.646   1.723   9.191 -0.0984 -0.8041 -0.0924
 5332SOL    HW127632   1.626   1.814   9.213  2.7595  0.0413 -0.9446
 5332SOL    HW227633   1.715   1.738   9.125 -1.5299  0.4436 -1.2968
 5333SOL     OW27634   3.719   3.745   4.905  0.4304 -0.3361  0.5759
 5333SOL    HW127635   3.641   3.800   4.894  0.0747 -0.4259  2.6967
 5333SOL    HW227636   3.694   3.700   4.985  3.2810 -1.3892  0.8616
 5334SOL     OW27637   3.417   0.154   8.380  0.2438 -0.0520  0.4356
 5334SOL    HW127638   3.508   0.173   8.356  0.9195 -0.5185  2.6521
 5334SOL    HW227639   3.366   0.212   8.323  1.2019 -1.3268 -1.7228
 5335SOL     OW27640   1.200   3.457  11.477 -0.0507 -0.1597  0.6078
 5335SOL    HW127641   1.147   3.505  11.414 -1.3595  0.8910  2.5056
 5335SOL    HW227642   1.179   3.366  11.457 -0.8150  0.5205 -1.6887
 5336SOL     OW27643   0.676   1.833   7.390  0.5860 -0.2438  0.0089
 5336SOL    HW127644   0.760   1.870   7.362  1.5444 -1.1105  1.7745
 5336SOL    HW227645   0.650   1.893   7.459  0.4008 -0.5497  0.2039
 5337SOL     OW27646   3.122   3.222   1.249  0.8434  0.0943  0.2819
 5337SOL    HW127647   3.170   3.281   1.308 -0.2761  0.9590  0.3258
 5337SOL    HW227648   3.072   3.162   1.303 -0.4660  0.3889 -0.6126
 5338SOL     OW27649   4.135   1.622   8.288 -0.2021 -0.0803  0.1000
 5338SOL    HW127650   4.107   1.685   8.221 -2.3328 -0.7307  0.3709
 5338SOL    HW227651   4.220   1.663   8.299 -0.2503 -1.0648  3.9035
 5339SOL     OW27652   2.466   0.233   9.878 -0.0518  0.3272  0.0876
 5339SOL    HW127653   2.420   0.151   9.897 -0.2936  0.6691  0.9457
 5339SOL    HW227654   2.484   0.274   9.962 -1.2927  0.1826  0.4189
 5340SOL     OW27655   3.629   1.973  12.163 -0.1106 -0.6161 -0.5972
 5340SOL    HW127656   3.721   1.977  12.138 -1.0213  1.8715 -3.4825
 5340SOL    HW227657   3.587   1.988  12.078  0.8004 -0.5079 -1.0259
 5341SOL     OW27658   0.012   1.431   5.117 -0.2288  0.0460  0.2428
 5341SOL    HW127659   0.094   1.456   5.074 -0.5937  0.0039 -0.4773
 5341SOL    HW227660   0.018   1.339   5.089  0.2351  0.1041  0.1500
 5342SOL     OW27661   1.845   3.228   7.484  0.4675  0.6067  0.0843
 5342SOL    HW127662   1.871   3.303   7.537  4.0551 -0.3442 -0.2937
 5342SOL    HW227663   1.837   3.271   7.399 -1.4968  0.7353  0.3488
 5343SOL     OW27664   2.150   2.764   6.462  0.2541 -0.2391 -0.1398
 5343SOL    HW127665   2.144   2.777   6.557 -0.0089  0.4451 -0.2454
 5343SOL    HW227666   2.207   2.688   6.459  0.5547 -0.0746  1.7458
 5344SOL     OW27667   4.566   4.483   2.926 -0.9019 -0.2853 -0.4506
 5344SOL    HW127668   4.611   4.440   2.853  0.1909 -1.3439  0.8581
 5344SOL    HW227669   4.481   4.439   2.929 -0.2924 -1.5376 -1.2350
 5345SOL     OW27670   4.298   0.126   9.245 -0.0026  0.1006 -0.5323
 5345SOL    HW127671   4.367   0.118   9.310  0.3462 -0.7493 -1.0143
 5345SOL    HW227672   4.217   0.125   9.297 -1.6000  1.7665 -2.9949
 5346SOL     OW27673   3.748   3.139  11.545 -0.0071 -0.1938 -0.3288
 5346SOL    HW127674   3.665   3.179  11.571 -0.0226  0.2599 -1.0935
 5346SOL    HW227675   3.797   3.180  11.616  0.1971  0.0261 -0.5994
 5347SOL     OW27676   2.573   1.303  16.357 -0.0710  0.1757 -0.1714
 5347SOL    HW127677   2.492   1.331  16.314 -0.1891 -0.2106 -0.1960
 5347SOL    HW227678   2.631   1.367  16.316  1.9626 -0.9943  0.9065
 5348SOL     OW27679   0.998   3.967  17.430 -0.0165 -0.6701 -0.9880
 5348SOL    HW127680   0.906   3.975  17.456  0.5593  0.6177  0.6440
 5348SOL    HW227681   1.039   4.033  17.485 -1.2581 -1.2750  0.6504
 5349SOL     OW27682   3.185   1.236  12.850 -0.2586  0.4900  0.3758
 5349SOL    HW127683   3.268   1.212  12.892 -0.3596  1.6209  1.2099
 5349SOL    HW227684   3.168   1.154  12.802 -3.6229 -0.4103  3.1141
 5350SOL     OW27685   1.910   1.849   7.961 -0.2951 -0.2113  0.1565
 5350SOL    HW127686   1.902   1.940   7.988 -1.3962 -0.7871  1.7533
 5350SOL    HW227687   1.828   1.826   8.005 -0.8634 -1.3869 -1.5295
 5351SOL     OW27688   4.684   4.063   8.854  0.1102 -0.0726 -0.5242
 5351SOL    HW127689   4.644   3.976   8.857  0.0450 -0.0765 -1.5111
 5351SOL    HW227690   4.612   4.119   8.883  0.5098 -1.9190  4.1054
 5352SOL     OW27691   3.813   1.819  10.840 -0.2368  0.2278 -0.3002
 5352SOL    HW127692   3.813   1.765  10.762 -2.3912 -0.7849  0.3985
 5352SOL    HW227693   3.892   1.869  10.820 -0.0150  0.6451  1.6455
 5353SOL     OW27694   1.432   1.219  12.876 -0.2586  0.5829  0.2257
 5353SOL    HW127695   1.355   1.268  12.847  0.5476  1.2335 -0.8401
 5353SOL    HW227696   1.469   1.282  12.937 -1.5391  1.6897 -0.1414
 5354SOL     OW27697   0.833   2.206   5.577  0.1754 -0.0290  0.2743
 5354SOL    HW127698   0.815   2.269   5.646  0.9744  2.5727 -1.8758
 5354SOL    HW227699   0.921   2.234   5.553 -0.0983  0.3999 -0.2340
 5355SOL     OW27700   0.972   2.931  16.532  0.3893 -0.0683  0.0451
 5355SOL    HW127701   0.879   2.924  16.552  0.4432  2.6596  1.2793
 5355SOL    HW227702   0.995   2.839  16.518 -0.6994 -0.3024 -0.1558
 5356SOL     OW27703   1.060   2.928   4.241 -0.4358  0.5577 -0.1771
 5356SOL    HW127704   1.023   2.882   4.316 -2.1685  3.9486  1.0702
 5356SOL    HW227705   1.149   2.943   4.273 -0.0392 -2.1321 -0.0616
 5357SOL     OW27706   4.556   0.555   6.197  0.4302 -0.3558  0.6928
 5357SOL    HW127707   4.510   0.596   6.124  1.0608  1.2692  1.2286
 5357SOL    HW227708   4.488   0.532   6.260  0.6758  1.7218  1.7196
 5358SOL     OW27709   1.702   1.692  16.124  0.1694  0.0742  0.4266
 5358SOL    HW127710   1.617   1.698  16.168 -0.0381 -0.9334  0.1674
 5358SOL    HW227711   1.710   1.780  16.088 -0.2469  0.4528  1.2722
 5359SOL     OW27712   3.894   1.934   8.109 -0.4084 -0.8216 -0.6003
 5359SOL    HW127713   3.871   1.859   8.165  1.8755 -1.5434 -0.6350
 5359SOL    HW227714   3.915   1.890   8.027  0.6237 -1.4414 -0.0064
 5360SOL     OW27715   0.382   1.611   9.189 -0.6992  0.0273  0.3157
 5360SOL    HW127716   0.288   1.603   9.207 -0.4198  0.0864  1.7912
 5360SOL    HW227717   0.400   1.523   9.155  0.6738  0.3330  0.2599
 5361SOL     OW27718   3.621   1.922   9.319  0.2329 -0.4990  0.0204
 5361SOL    HW127719   3.553   1.989   9.323 -1.5633 -2.2906 -0.4552
 5361SOL    HW227720   3.624   1.913   9.224  0.3944 -0.1904 -0.0015
 5362SOL     OW27721   4.063   3.750   9.222 -0.2074  0.0009 -0.3681
 5362SOL    HW127722   3.969   3.731   9.234  0.0288 -1.0113 -0.0956
 5362SOL    HW227723   4.095   3.730   9.310 -0.2312  1.1164 -0.0995
 5363SOL     OW27724   4.507   0.410   6.516  0.6894 -0.8075 -0.0036
 5363SOL    HW127725   4.510   0.387   6.609 -0.5262 -0.7386  0.0555
 5363SOL    HW227726   4.420   0.376   6.494 -0.8894  2.0970  1.8245
 5364SOL     OW27727   4.224   2.344  10.604  0.3612  0.2950  0.0239
 5364SOL    HW127728   4.261   2.268  10.648  1.3434  0.1174 -1.0953
 5364SOL    HW227729   4.181   2.376  10.683 -0.6386 -0.2823 -0.2866
 5365SOL     OW27730   0.383   0.896   1.067  0.5498 -0.1301  0.6855
 5365SOL    HW127731   0.462   0.843   1.067  2.0191  2.0452  0.6257
 5365SOL    HW227732   0.412   0.974   1.019  0.9827 -1.9380 -1.9688
 5366SOL     OW27733   2.703   4.471   4.534  0.1359  0.1869  0.3272
 5366SOL    HW127734   2.726   4.382   4.507 -0.0753  0.6832 -1.4864
 5366SOL    HW227735   2.782   4.510   4.570  0.0673 -0.0117  0.6966
 5367SOL     OW27736   2.297   4.042   9.595 -0.2911 -0.0579 -0.6425
 5367SOL    HW127737   2.382   4.029   9.637 -0.9023  0.7617  0.8464
 5367SOL    HW227738   2.292   4.135   9.573  1.7114  0.5066  1.2754
 5368SOL     OW27739   2.901   4.176   8.937 -0.1395 -0.3163  0.1166
 5368SOL    HW127740   2.985   4.220   8.921  0.1027  0.1623  2.6612
 5368SOL    HW227741   2.855   4.246   8.984 -1.2776 -0.8873 -0.1626
 5369SOL     OW27742   2.063   0.908   8.168 -0.4402  0.3429  0.2394
 5369SOL    HW127743   2.038   0.888   8.258 -0.5682 -2.2957 -0.3986
 5369SOL    HW227744   2.023   0.831   8.127  2.4866  0.1538 -2.1820
 5370SOL     OW27745   0.982   1.528   2.048  0.0798  0.3103  0.4583
 5370SOL    HW127746   1.072   1.513   2.019 -0.6086  1.5395 -2.2948
 5370SOL    HW227747   0.938   1.448   2.019  0.3921 -0.7766  3.0271
 5371SOL     OW27748   4.085   4.282  10.845 -0.2322  0.0464 -0.6347
 5371SOL    HW127749   4.021   4.212  10.832 -0.8371  0.9925 -2.8457
 5371SOL    HW227750   4.090   4.314  10.755  2.4675 -1.3018 -0.9667
 5372SOL     OW27751   0.549   0.526  14.835  0.0823 -0.1698  0.4468
 5372SOL    HW127752   0.473   0.468  14.825  0.2893 -0.3491 -0.0965
 5372SOL    HW227753   0.613   0.470  14.791 -0.9848 -1.2642  0.2714
 5373SOL     OW27754   1.628   0.964  13.024 -0.1394  0.1739 -0.3523
 5373SOL    HW127755   1.545   0.997  12.990 -0.4863  0.7232  1.0474
 5373SOL    HW227756   1.611   0.941  13.115 -1.0193 -0.4172 -0.6573
 5374SOL     OW27757   4.124   2.548  10.791 -0.2519  0.0576 -0.0501
 5374SOL    HW127758   4.147   2.590  10.874 -1.5849  0.3633  0.1630
 5374SOL    HW227759   4.107   2.619  10.729 -1.5690  0.1523  0.4041
 5375SOL     OW27760   1.105   2.214   3.375 -0.9052 -0.3087  0.4078
 5375SOL    HW127761   1.078   2.124   3.357  0.3370 -0.9174  1.5765
 5375SOL    HW227762   1.031   2.239   3.430 -1.4613  0.9130 -0.8949
 5376SOL     OW27763   4.230   1.208  10.632 -0.5455 -0.0027 -0.0396
 5376SOL    HW127764   4.221   1.131  10.688  1.0261  0.7062  1.2195
 5376SOL    HW227765   4.316   1.197  10.592 -0.2657 -0.9266  0.8299
 5377SOL     OW27766   0.972   4.736   3.008  0.3912 -0.1030  0.3247
 5377SOL    HW127767   0.956   4.707   3.098 -1.6261  2.6021  0.8410
 5377SOL    HW227768   0.947   4.662   2.953 -0.1071  1.1579 -1.1439
 5378SOL     OW27769   1.592   1.025   2.672 -0.4469 -0.0319  0.4068
 5378SOL    HW127770   1.629   1.112   2.658 -1.7894  0.6352  0.9932
 5378SOL    HW227771   1.498   1.043   2.670 -0.6506 -1.0925  0.0347
 5379SOL     OW27772   3.993   1.964  10.061  0.2660  0.0555 -0.3907
 5379SOL    HW127773   3.966   1.943   9.972  1.2321  0.5327 -0.7864
 5379SOL    HW227774   4.031   1.882  10.094  0.0887  0.1290 -0.0027
 5380SOL     OW27775   3.472   4.656   5.476 -0.7638  0.0432 -0.6084
 5380SOL    HW127776   3.432   4.725   5.422  1.2023  0.8211 -1.0768
 5380SOL    HW227777   3.400   4.594   5.485 -1.0127  0.6628  1.6306
 5381SOL     OW27778   0.612   2.941   3.276  0.7134 -0.2467 -0.5079
 5381SOL    HW127779   0.612   3.035   3.260  0.6265 -0.4246 -1.6066
 5381SOL    HW227780   0.560   2.923   3.354  3.4597 -0.2945  1.3031
 5382SOL     OW27781   2.158   1.341  13.652 -0.3402  1.6681  0.2881
 5382SOL    HW127782   2.220   1.375  13.715 -0.9787 -0.0610  1.8600
 5382SOL    HW227783   2.070   1.369  13.676 -0.8057 -3.5045  4.6549
 5383SOL     OW27784   2.079   1.772   2.072 -0.3334 -0.4860 -0.2093
 5383SOL    HW127785   2.041   1.727   1.997  1.7819  0.8635 -2.0954
 5383SOL    HW227786   2.041   1.724   2.146  0.4654 -0.5782  0.1420
 5384SOL     OW27787   3.289   1.823   0.572  0.2820 -0.3169  0.6691
 5384SOL    HW127788   3.382   1.806   0.587  0.7892  0.6598 -1.3059
 5384SOL    HW227789   3.288   1.910   0.612  0.1296 -0.2677  0.5595
 5385SOL     OW27790   3.931   2.379   8.839 -0.0583 -0.1295 -0.1133
 5385SOL    HW127791   3.857   2.407   8.784 -0.2334  1.5766  0.9777
 5385SOL    HW227792   3.982   2.460   8.829 -1.9339  0.9029 -1.4237
 5386SOL     OW27793   1.533   3.672  17.227 -0.0678  1.0883  0.2177
 5386SOL    HW127794   1.453   3.680  17.174  0.5234 -2.3681 -1.2573
 5386SOL    HW227795   1.552   3.579  17.210  1.8362  1.6787 -0.8665
 5387SOL     OW27796   1.482   4.144  16.463  0.1699  0.8641  0.0058
 5387SOL    HW127797   1.494   4.188  16.379 -1.0039  0.7331 -0.2366
 5387SOL    HW227798   1.387   4.157  16.467 -0.4088 -3.3311 -0.3579
 5388SOL     OW27799   2.469   2.529   4.725 -0.2797 -0.1290 -0.2316
 5388SOL    HW127800   2.461   2.438   4.694 -0.7460 -0.0968 -0.1979
 5388SOL    HW227801   2.527   2.568   4.659  0.0257 -0.6111 -0.2534
 5389SOL     OW27802   3.935   0.538   5.405  0.0031 -0.0023 -0.0879
 5389SOL    HW127803   4.000   0.608   5.416 -0.2751  0.7895 -3.6629
 5389SOL    HW227804   3.862   0.582   5.363 -0.3694 -0.2122  0.3287
 5390SOL     OW27805   2.942   4.009   7.392  0.0596  0.2688 -0.5555
 5390SOL    HW127806   3.001   3.989   7.319  0.2684 -1.1799  0.0120
 5390SOL    HW227807   2.961   3.940   7.456 -3.9518  2.5714  3.0904
 5391SOL     OW27808   3.110   3.192  13.903  0.0765  0.4601 -0.1963
 5391SOL    HW127809   3.056   3.181  13.981  1.8154 -1.2218  0.7494
 5391SOL    HW227810   3.040   3.177  13.839 -0.5827  1.0286  0.3907
 5392SOL     OW27811   1.941   1.794   6.811  0.9801  0.4460  0.1396
 5392SOL    HW127812   2.014   1.811   6.871 -1.0266 -0.1185  2.7255
 5392SOL    HW227813   1.883   1.750   6.873  0.9742  1.9706  1.2283
 5393SOL     OW27814   3.656   4.525   4.487  0.2315  0.3889 -0.7051
 5393SOL    HW127815   3.569   4.514   4.449  0.4210 -0.4556 -0.9054
 5393SOL    HW227816   3.648   4.619   4.503 -2.1988  0.0477  0.1100
 5394SOL     OW27817   1.157   1.625  14.628  0.3764 -0.2213 -0.2327
 5394SOL    HW127818   1.080   1.648  14.576 -0.1063  0.2770  0.7089
 5394SOL    HW227819   1.209   1.587  14.558  1.2401  0.0027  0.2815
 5395SOL     OW27820   1.533   1.702  11.000  0.0776  0.2353 -0.1862
 5395SOL    HW127821   1.563   1.698  11.091 -0.1449  0.7713 -0.0917
 5395SOL    HW227822   1.467   1.634  11.014 -0.6203  0.5505 -1.8704
 5396SOL     OW27823   0.022   2.906  10.950  0.3520 -0.1069  0.2212
 5396SOL    HW127824   0.027   2.963  11.027  2.0276  0.7733 -0.5477
 5396SOL    HW227825   0.022   2.969  10.878 -2.0533  0.7403  0.9623
 5397SOL     OW27826   3.328   2.327   4.882 -0.1666  0.5628 -0.5928
 5397SOL    HW127827   3.350   2.295   4.795 -0.6946  0.1500 -0.5764
 5397SOL    HW227828   3.285   2.410   4.861 -0.2218  0.8731  0.7498
 5398SOL     OW27829   0.251   0.681  12.779  0.0242  0.5247 -0.1744
 5398SOL    HW127830   0.189   0.720  12.717 -0.3521  0.6756  0.2959
 5398SOL    HW227831   0.256   0.746  12.849  0.2300  1.8604 -1.4303
 5399SOL     OW27832   0.967   1.740   4.489 -0.5573 -0.2302  0.5793
 5399SOL    HW127833   0.881   1.732   4.446  0.5389 -1.3317 -1.4102
 5399SOL    HW227834   0.993   1.824   4.452 -1.9433  0.5435  1.3658
 5400SOL     OW27835   3.197   4.520   2.001 -0.4101  0.1232  0.0846
 5400SOL    HW127836   3.254   4.515   2.077  0.7760  0.9026 -0.7653
 5400SOL    HW227837   3.216   4.603   1.956 -0.2423  0.7380  1.2991
 5401SOL     OW27838   1.004   3.615   5.670 -0.1955  0.1546  0.5073
 5401SOL    HW127839   0.981   3.611   5.763 -2.1072 -0.9294 -0.0068
 5401SOL    HW227840   1.095   3.588   5.667 -0.0918  0.4615  1.0793
 5402SOL     OW27841   4.538   1.016   3.687  0.0678  0.2096  0.0213
 5402SOL    HW127842   4.515   1.039   3.597 -0.5113 -0.0916  0.0878
 5402SOL    HW227843   4.568   0.928   3.665  3.4019  1.9824 -2.4938
 5403SOL     OW27844   1.809   4.689  15.109 -0.3824 -0.6999 -0.8305
 5403SOL    HW127845   1.902   4.669  15.093 -0.4431 -0.6713 -1.2254
 5403SOL    HW227846   1.769   4.668  15.025 -0.2664 -0.2790 -0.9909
 5404SOL     OW27847   4.668   4.475   4.657 -0.3345  0.2617 -0.1972
 5404SOL    HW127848   4.685   4.529   4.735 -0.3824 -1.3567  0.9279
 5404SOL    HW227849   0.013   4.470   4.607 -1.7093 -3.4844 -2.0282
 5405SOL     OW27850   1.240   2.381   3.681 -0.1897  0.3762  0.3384
 5405SOL    HW127851   1.293   2.458   3.701  1.8013 -0.7237 -0.7146
 5405SOL    HW227852   1.213   2.394   3.590 -0.0957 -1.8172 -0.0099
 5406SOL     OW27853   1.441   2.319   6.306 -0.2421  0.0069  0.3556
 5406SOL    HW127854   1.428   2.245   6.247  2.2349  0.4944 -0.8141
 5406SOL    HW227855   1.534   2.305   6.326 -0.0350  1.0426  0.1170
 5407SOL     OW27856   0.674   3.052   4.598 -0.0125 -0.3024  0.2017
 5407SOL    HW127857   0.649   3.052   4.506  0.5674 -0.0926  0.0406
 5407SOL    HW227858   0.736   2.979   4.593 -0.2066 -0.4279 -0.3742
 5408SOL     OW27859   2.620   0.433   6.227 -0.3828 -0.2706  0.4248
 5408SOL    HW127860   2.533   0.444   6.266 -1.4213 -0.7596 -1.7296
 5408SOL    HW227861   2.601   0.427   6.134  4.2752  0.5756 -0.5568
 5409SOL     OW27862   3.715   0.668   5.277 -0.4007 -0.8472  0.1634
 5409SOL    HW127863   3.687   0.649   5.187 -2.7881  1.6822  0.3677
 5409SOL    HW227864   3.634   0.653   5.325  0.8283 -0.0675  2.4712
 5410SOL     OW27865   3.491   4.319   5.734  0.1547  0.1109 -0.1191
 5410SOL    HW127866   3.412   4.365   5.706 -0.8824 -1.2663  0.4973
 5410SOL    HW227867   3.500   4.246   5.673  0.0159  0.0730 -0.0959
 5411SOL     OW27868   1.014   0.191   8.691  0.4329  0.7139  0.2189
 5411SOL    HW127869   0.982   0.263   8.637 -0.2490 -0.1891 -0.5878
 5411SOL    HW227870   1.073   0.238   8.750  1.1815 -0.3536  0.3187
 5412SOL     OW27871   0.351   4.343  12.373  0.5550  0.1453 -0.0989
 5412SOL    HW127872   0.284   4.307  12.432  0.0411 -0.2777 -0.9377
 5412SOL    HW227873   0.327   4.315  12.285  0.5085 -1.4846  0.4171
 5413SOL     OW27874   2.555   2.458   4.400  0.5183  0.1813  0.1592
 5413SOL    HW127875   2.639   2.414   4.416  0.2793 -0.3718 -0.0916
 5413SOL    HW227876   2.501   2.381   4.380 -0.6994  0.5661  1.9455
 5414SOL     OW27877   1.430   4.020  11.443  0.4601 -0.0434  0.1125
 5414SOL    HW127878   1.361   3.964  11.407  0.4696 -1.4173  2.2522
 5414SOL    HW227879   1.502   3.958  11.450 -0.0864 -0.0869  5.4031
 5415SOL     OW27880   2.098   1.757  12.681  0.4400  0.0175 -0.0647
 5415SOL    HW127881   2.039   1.783  12.609  0.3861  0.2101  0.0489
 5415SOL    HW227882   2.165   1.824  12.667  0.1406  0.0715 -1.2365
 5416SOL     OW27883   4.135   2.836   4.741 -0.0123  0.3597 -0.1714
 5416SOL    HW127884   4.209   2.791   4.699 -0.2922  0.7379 -1.0642
 5416SOL    HW227885   4.109   2.775   4.810  0.4216 -0.7652 -0.9960
 5417SOL     OW27886   3.196   1.983   5.105  0.3967 -0.2468 -0.3810
 5417SOL    HW127887   3.251   2.054   5.070 -1.8852  0.4111 -2.7264
 5417SOL    HW227888   3.130   2.028   5.159  0.2266  0.6764 -1.3402
 5418SOL     OW27889   1.276   2.956   8.905  0.4453  0.5896 -0.1088
 5418SOL    HW127890   1.252   3.039   8.946  2.7069  0.6609  1.0438
 5418SOL    HW227891   1.227   2.977   8.825 -0.9539 -0.9428  0.3446
 5419SOL     OW27892   1.026   4.069   8.549  0.0802 -0.5694 -0.1570
 5419SOL    HW127893   1.062   4.082   8.637 -0.7270 -0.8624  0.2099
 5419SOL    HW227894   1.079   4.124   8.491 -1.0823 -0.0890 -0.7650
 5420SOL     OW27895   3.824   2.113  15.349  0.1370 -0.4117 -0.0964
 5420SOL    HW127896   3.850   2.041  15.407  0.2973 -0.1795  0.1194
 5420SOL    HW227897   3.885   2.109  15.276 -0.2484 -0.2032 -0.4277
 5421SOL     OW27898   4.109   2.897  11.829  0.2294  0.2270  0.2844
 5421SOL    HW127899   4.052   2.824  11.803  0.9548 -0.2349  0.0116
 5421SOL    HW227900   4.048   2.954  11.876 -1.7332 -1.0000 -0.7317
 5422SOL     OW27901   2.445   3.713   9.810 -0.2662  0.4862  0.3264
 5422SOL    HW127902   2.484   3.771   9.874 -1.4328 -0.8663  2.2655
 5422SOL    HW227903   2.383   3.653   9.851  1.0794 -1.7635 -0.9489
 5423SOL     OW27904   3.590   0.784   8.639 -0.2202 -0.0309  0.1557
 5423SOL    HW127905   3.552   0.779   8.727 -0.6070 -0.1494 -0.0199
 5423SOL    HW227906   3.559   0.703   8.599 -1.0660  2.1658 -3.6094
 5424SOL     OW27907   1.102   2.914   0.979  0.3725  0.3198  0.1419
 5424SOL    HW127908   1.120   2.820   0.970 -1.1127 -0.0077  0.5711
 5424SOL    HW227909   1.073   2.932   1.069 -3.2175 -2.1320 -0.5462
 5425SOL     OW27910   3.248   4.373   8.008 -0.2710  0.1205 -0.2747
 5425SOL    HW127911   3.276   4.393   7.919  1.5342 -1.2376 -0.0188
 5425SOL    HW227912   3.171   4.429   8.011 -0.7524 -0.5467 -0.0767
 5426SOL     OW27913   1.316   2.940   4.316 -0.8199  0.0807 -0.2097
 5426SOL    HW127914   1.395   2.888   4.332 -0.8008 -0.4578 -1.9863
 5426SOL    HW227915   1.365   3.021   4.333  2.3453 -2.0330  0.7723
 5427SOL     OW27916   2.959   0.542  11.099  0.7135  0.7899 -0.2861
 5427SOL    HW127917   2.973   0.454  11.133 -3.3374  0.5491  0.6931
 5427SOL    HW227918   2.876   0.568  11.138  0.2799 -0.3784 -0.4345
 5428SOL     OW27919   1.999   0.543   3.692  0.1324  0.3236  0.3051
 5428SOL    HW127920   1.906   0.566   3.699 -0.1325 -1.5278  2.7327
 5428SOL    HW227921   2.037   0.627   3.665  1.8822 -0.4577  0.3661
 5429SOL     OW27922   1.995   3.196   4.181  0.1863  0.0692 -0.0570
 5429SOL    HW127923   2.046   3.274   4.158  0.1023 -0.5889 -2.4754
 5429SOL    HW227924   1.909   3.237   4.188 -1.0323 -2.7024  1.0694
 5430SOL     OW27925   2.543   0.905   7.935  0.5300 -0.4977  0.5697
 5430SOL    HW127926   2.591   0.872   8.011 -0.4011 -1.9834  0.5186
 5430SOL    HW227927   2.603   0.876   7.867  0.7039  1.0692  0.0577
 5431SOL     OW27928   3.901   4.699   3.181  1.0033  0.3719  0.1499
 5431SOL    HW127929   3.876   0.003   3.264  0.2978 -0.4379  0.3326
 5431SOL    HW227930   3.857   0.019   3.118  0.6503  0.4919  0.5044
 5432SOL     OW27931   3.040   1.113   3.233  0.3211  0.3822  0.1867
 5432SOL    HW127932   2.969   1.135   3.293  1.5352  0.9941  1.4017
 5432SOL    HW227933   3.034   1.182   3.167 -1.2476 -0.8008 -0.8984
 5433SOL     OW27934   0.952   3.179  13.253 -0.1458 -0.3414  0.0849
 5433SOL    HW127935   0.887   3.160  13.185 -1.7730  0.3259  1.4516
 5433SOL    HW227936   0.939   3.274  13.258 -5.1025 -1.0590  1.2616
 5434SOL     OW27937   1.215   1.607   8.948  0.1562  0.4427 -0.0805
 5434SOL    HW127938   1.190   1.578   9.035 -1.1811 -1.4625 -1.0983
 5434SOL    HW227939   1.310   1.597   8.946  0.3121  1.6504  1.7669
 5435SOL     OW27940   1.799   2.160   5.565 -0.0025  0.2714 -0.2916
 5435SOL    HW127941   1.750   2.218   5.622 -1.2248  0.2294 -1.3161
 5435SOL    HW227942   1.888   2.195   5.575 -0.2950  0.3794  1.9951
 5436SOL     OW27943   3.619   3.149  16.608  0.2752  0.8866  0.0955
 5436SOL    HW127944   3.531   3.112  16.605  0.3850  0.6938 -0.8797
 5436SOL    HW227945   3.652   3.109  16.689 -2.4730  0.9350  1.2448
 5437SOL     OW27946   3.752   4.606   2.140 -0.3996 -0.2091  0.0418
 5437SOL    HW127947   3.830   4.554   2.121 -0.2940 -0.6729  1.7443
 5437SOL    HW227948   3.785   4.685   2.182 -0.5929  0.8233 -1.7474
 5438SOL     OW27949   0.768   0.513  16.537 -0.0126  0.0671  0.7739
 5438SOL    HW127950   0.836   0.469  16.487  0.6311 -0.8223  2.4360
 5438SOL    HW227951   0.711   0.529  16.462  0.1069 -1.3719  0.3670
 5439SOL     OW27952   2.477   2.075   7.063 -0.6149  0.2358  0.2134
 5439SOL    HW127953   2.384   2.059   7.078 -0.4725 -0.8949 -0.1184
 5439SOL    HW227954   2.511   2.088   7.151  2.5233 -1.3086 -0.7534
 5440SOL     OW27955   3.495   3.918   4.584 -0.7860 -0.4913  0.1782
 5440SOL    HW127956   3.576   3.965   4.604 -1.3204 -0.7370  2.9641
 5440SOL    HW227957   3.426   3.983   4.573 -1.3238 -0.5347  3.2918
 5441SOL     OW27958   1.446   0.531   3.192 -0.0794 -0.2929 -0.2333
 5441SOL    HW127959   1.375   0.498   3.136  0.4434 -0.5111 -0.7678
 5441SOL    HW227960   1.428   0.623   3.171  5.8592  1.0115  0.2941
 5442SOL     OW27961   2.370   0.006   9.997 -0.0407  0.1987 -0.3757
 5442SOL    HW127962   2.327   0.052  10.070  1.2744 -1.1265  1.2191
 5442SOL    HW227963   2.460   4.733  10.027 -0.2866 -1.6372 -0.2228
 5443SOL     OW27964   3.361   1.400  14.241  0.0179 -0.1089  0.4315
 5443SOL    HW127965   3.268   1.419  14.253  0.0680  0.2115  0.2971
 5443SOL    HW227966   3.394   1.410  14.331 -0.2249 -1.4560  0.6740
 5444SOL     OW27967   1.959   3.072   7.802  0.0624  0.6712  0.2974
 5444SOL    HW127968   1.981   3.165   7.801 -0.7561  0.8752  1.2619
 5444SOL    HW227969   2.020   3.038   7.867  0.2014  1.9463  0.8454
 5445SOL     OW27970   1.577   1.641   3.827  0.2258 -0.2672 -0.1041
 5445SOL    HW127971   1.555   1.572   3.889 -0.7989 -0.5026 -0.7200
 5445SOL    HW227972   1.488   1.655   3.794 -0.0203 -0.0666  0.6307
 5446SOL     OW27973   3.930   0.203   6.721  0.2369 -0.0506  0.3113
 5446SOL    HW127974   3.974   0.243   6.796  1.4027 -1.5231  0.4105
 5446SOL    HW227975   3.995   0.215   6.651  0.3137  0.0750  0.4045
 5447SOL     OW27976   2.996   3.367   3.778 -0.2648  0.4068 -0.2660
 5447SOL    HW127977   3.017   3.459   3.761 -0.5773  0.8129  1.5960
 5447SOL    HW227978   3.083   3.333   3.796  0.0110  1.0861 -0.3061
 5448SOL     OW27979   2.580   2.712   3.437  0.0640 -0.0423  0.3944
 5448SOL    HW127980   2.529   2.789   3.461  1.4122  0.6490  1.0482
 5448SOL    HW227981   2.568   2.657   3.514 -0.9263 -0.3413  0.0224
 5449SOL     OW27982   0.314   3.836   4.602 -0.1833  0.0847  0.2099
 5449SOL    HW127983   0.408   3.847   4.617 -0.1149 -1.3057  0.7724
 5449SOL    HW227984   0.300   3.746   4.574  1.4680  0.4834 -1.8831
 5450SOL     OW27985   3.336   1.881  11.195 -0.1206 -0.4349  0.3187
 5450SOL    HW127986   3.315   1.795  11.230 -0.3077 -1.1588 -1.5888
 5450SOL    HW227987   3.283   1.941  11.248  1.5965 -0.1013  1.6530
 5451SOL     OW27988   4.538   0.694   3.787  0.1144 -0.5139 -0.2819
 5451SOL    HW127989   4.587   0.614   3.767  0.1824 -0.1450 -1.6310
 5451SOL    HW227990   4.544   0.694   3.882  1.3639  1.0956 -0.3484
 5452SOL     OW27991   2.353   4.653  10.633  0.6328  0.3237 -0.0130
 5452SOL    HW127992   2.327   4.721  10.571 -0.9155  0.6916  1.0162
 5452SOL    HW227993   2.366   4.576  10.579  1.5965  0.7050 -0.3157
 5453SOL     OW27994   0.731   3.044   5.742 -0.9788 -0.3185  0.0861
 5453SOL    HW127995   0.741   3.103   5.816  0.8511 -1.5543  0.8274
 5453SOL    HW227996   0.726   3.100   5.664 -1.6910  1.2956  1.2934
 5454SOL     OW27997   2.014   1.536   6.369  0.2021 -0.7507  0.0312
 5454SOL    HW127998   1.970   1.573   6.446  2.7929 -1.1888  1.6985
 5454SOL    HW227999   1.970   1.578   6.295  2.0045 -1.0401 -1.1867
 5455SOL     OW28000   4.545   3.245   6.170 -0.1599 -0.4977  0.8955
 5455SOL    HW128001   4.556   3.338   6.189  0.0565  0.3484 -3.2162
 5455SOL    HW228002   4.632   3.206   6.183 -0.2512 -1.3495 -1.0060
 5456SOL     OW28003   3.732   4.131   8.572  0.1739  0.4470  0.2197
 5456SOL    HW128004   3.640   4.108   8.575  0.8072 -2.2203 -1.3107
 5456SOL    HW228005   3.723   4.189   8.496  0.2677  1.6196  1.1062
 5457SOL     OW28006   2.872   1.114   1.944  0.2686 -0.0399 -0.5054
 5457SOL    HW128007   2.806   1.091   1.880 -0.4923  1.8518 -0.4221
 5457SOL    HW228008   2.937   1.046   1.926  0.0596 -0.7147  1.2539
 5458SOL     OW28009   1.366   0.036   6.493 -0.3887 -0.2739 -0.0573
 5458SOL    HW128010   1.345   4.705   6.428 -0.1392 -0.7660  0.3620
 5458SOL    HW228011   1.314   0.107   6.456  0.5274  0.7632  0.6373
 5459SOL     OW28012   2.604   2.617   7.471 -0.3641  0.1592  0.3478
 5459SOL    HW128013   2.628   2.532   7.508  1.3341  1.0245  1.2452
 5459SOL    HW228014   2.669   2.619   7.400  1.5701  0.0584  2.1118
 5460SOL     OW28015   4.463   0.466   1.850 -0.2411  0.4266  0.5022
 5460SOL    HW128016   4.491   0.436   1.937 -0.4021 -1.1026  0.0394
 5460SOL    HW228017   4.403   0.538   1.868 -1.3773 -0.6962  1.1534
 5461SOL     OW28018   3.997   0.525   6.703  0.0209 -0.4117 -0.2267
 5461SOL    HW128019   4.090   0.539   6.720  0.4630 -0.9423 -2.2093
 5461SOL    HW228020   3.962   0.512   6.791 -1.3043 -3.0637 -1.1613
 5462SOL     OW28021   3.160   1.811   8.924  0.0823  0.0259 -0.0136
 5462SOL    HW128022   3.178   1.740   8.986  0.7695 -1.1883 -1.5970
 5462SOL    HW228023   3.106   1.771   8.855 -0.4417  1.3929 -0.3973
 5463SOL     OW28024   0.207   0.057   5.215  0.3650 -0.1597  0.1461
 5463SOL    HW128025   0.221   0.150   5.195 -0.1303 -0.3800 -1.2122
 5463SOL    HW228026   0.236   0.061   5.306  1.2235  1.2770 -0.1810
 5464SOL     OW28027   0.516   1.450   6.261  0.5862 -0.1854 -0.2146
 5464SOL    HW128028   0.523   1.425   6.353  1.4674  2.1925  0.3544
 5464SOL    HW228029   0.440   1.404   6.224  2.0231 -0.8232 -2.4065
 5465SOL     OW28030   1.771   1.323   3.949 -0.1620 -0.5269  0.0883
 5465SOL    HW128031   1.747   1.265   3.876 -0.4348 -0.5265  0.1784
 5465SOL    HW228032   1.862   1.296   3.961  0.4438  0.9733 -1.1342
 5466SOL     OW28033   2.101   3.260   8.343  0.0869  0.0002 -0.1397
 5466SOL    HW128034   2.159   3.326   8.305  1.4343 -0.5115  1.0223
 5466SOL    HW228035   2.129   3.239   8.432 -0.0423  1.2443  0.1915
 5467SOL     OW28036   2.164   1.486   6.823 -0.0356  0.0083  0.2929
 5467SOL    HW128037   2.210   1.464   6.742  1.2413  3.1310  0.1573
 5467SOL    HW228038   2.224   1.540   6.874  0.9392 -1.3357  0.5526
 5468SOL     OW28039   4.057   2.867   9.826 -0.3026  0.3939  0.4502
 5468SOL    HW128040   3.961   2.872   9.833 -0.3088  0.9857 -0.0478
 5468SOL    HW228041   4.062   2.960   9.805 -2.3809  0.7082  1.2954
 5469SOL     OW28042   3.574   1.722   0.589 -0.5565 -0.9085  0.2451
 5469SOL    HW128043   3.603   1.813   0.591 -1.3501 -0.6219 -0.9856
 5469SOL    HW228044   3.567   1.687   0.678  0.1960 -1.2267  0.1856
 5470SOL     OW28045   2.546   4.097   6.196 -0.7177 -0.5538 -0.0755
 5470SOL    HW128046   2.572   4.019   6.147 -0.5947  0.6032 -1.8567
 5470SOL    HW228047   2.597   4.161   6.147 -2.5290  0.9119 -0.0643
 5471SOL     OW28048   2.351   3.693   7.995  0.0616  0.3544 -0.1845
 5471SOL    HW128049   2.414   3.621   7.990 -0.1691  0.0988  0.7255
 5471SOL    HW228050   2.410   3.763   7.966  0.5211  0.6607  1.5100
 5472SOL     OW28051   3.440   2.009   6.990 -0.1885  0.5402  0.4006
 5472SOL    HW128052   3.491   1.947   6.938  0.6728  3.5033 -2.3170
 5472SOL    HW228053   3.460   1.985   7.081  1.9592  1.0156  0.0660
 5473SOL     OW28054   3.471   4.272   8.965 -0.3952  0.7526  0.3579
 5473SOL    HW128055   3.536   4.247   8.900  0.8497  0.3357  1.7663
 5473SOL    HW228056   3.504   4.356   8.998 -2.0204  0.1159  3.5655
 5474SOL     OW28057   2.530   3.405   7.107 -0.0238 -0.2188  0.7030
 5474SOL    HW128058   2.592   3.476   7.123  0.2292 -0.0398 -0.9989
 5474SOL    HW228059   2.532   3.376   7.198  1.1544 -0.1970  0.6789
 5475SOL     OW28060   3.039   2.586   2.270  0.1124  0.6253  0.2533
 5475SOL    HW128061   3.007   2.524   2.336 -0.4048  0.1041 -0.4865
 5475SOL    HW228062   3.015   2.541   2.189  2.2008 -0.4891  0.2430
 5476SOL     OW28063   0.773   2.620   8.256  0.3597 -0.3039 -0.7424
 5476SOL    HW128064   0.840   2.684   8.231 -1.6244  1.7724 -0.7383
 5476SOL    HW228065   0.814   2.570   8.327 -0.8761  0.8363  0.7992
 5477SOL     OW28066   3.282   1.230   3.543  0.0270 -0.3456 -0.0942
 5477SOL    HW128067   3.252   1.177   3.617 -2.2111  3.1487  1.4912
 5477SOL    HW228068   3.282   1.314   3.588  0.2375 -1.5584  2.1781
 5478SOL     OW28069   3.042   1.131   5.103 -0.2767  0.0281 -0.2798
 5478SOL    HW128070   3.090   1.192   5.046 -3.4327 -0.2993 -3.3200
 5478SOL    HW228071   2.993   1.194   5.156  1.1250  2.5808 -1.9737
 5479SOL     OW28072   0.720   4.727   2.265  0.1956  0.2216  0.0455
 5479SOL    HW128073   0.746   0.070   2.312 -0.0274 -0.0484  0.6210
 5479SOL    HW228074   0.807   4.689   2.253  0.5513  1.0530 -0.0632
 5480SOL     OW28075   3.438   1.110  12.706 -0.6795  0.1032  0.1587
 5480SOL    HW128076   3.424   1.113  12.800 -0.3511  1.4580  0.1640
 5480SOL    HW228077   3.466   1.199  12.684  1.3107 -0.6712 -0.4847
 5481SOL     OW28078   0.209   1.549   7.870  0.2906  0.4910  0.8206
 5481SOL    HW128079   0.198   1.458   7.898  1.1767 -0.1007 -0.7732
 5481SOL    HW228080   0.121   1.574   7.842 -0.1505 -1.5848  0.3738
 5482SOL     OW28081   3.271   0.935   8.875 -0.0047  0.0539  0.2759
 5482SOL    HW128082   3.362   0.959   8.891  0.5069 -0.3009 -2.1502
 5482SOL    HW228083   3.245   1.027   8.884 -3.1190 -0.6360 -1.4397
 5483SOL     OW28084   4.729   2.523  11.223  0.4215  0.6453  0.6527
 5483SOL    HW128085   0.024   2.522  11.313  1.7640 -0.8204  0.1652
 5483SOL    HW228086   0.043   2.584  11.169 -0.6848 -0.7952 -1.9865
 5484SOL     OW28087   4.612   1.252   5.564 -0.2280  1.0311 -0.0656
 5484SOL    HW128088   4.687   1.306   5.539  2.4360 -1.6212  2.1918
 5484SOL    HW228089   4.537   1.311   5.552 -1.5062 -0.2436  1.6958
 5485SOL     OW28090   3.387   1.797   4.865  0.1245 -0.3095  0.3460
 5485SOL    HW128091   3.371   1.879   4.912  0.7456 -0.2759  0.5076
 5485SOL    HW228092   3.379   1.737   4.939 -0.9365 -1.9184 -1.0807
 5486SOL     OW28093   0.434   2.369   8.985 -0.4936 -0.5611  0.1970
 5486SOL    HW128094   0.389   2.438   8.937  1.4704  1.4105  1.1478
 5486SOL    HW228095   0.520   2.383   8.945 -1.2560 -2.2212 -2.0019
 5487SOL     OW28096   0.785   0.429  12.518 -0.1066 -0.0640 -0.5575
 5487SOL    HW128097   0.743   0.410  12.602  0.6101 -0.7752 -0.3583
 5487SOL    HW228098   0.830   0.348  12.495 -0.0043  0.1587 -1.1408
 5488SOL     OW28099   1.499   3.196   2.104  0.2409 -0.1456  0.1688
 5488SOL    HW128100   1.471   3.234   2.021  0.6951 -0.1797  0.0037
 5488SOL    HW228101   1.573   3.252   2.127  0.2244  0.7793 -2.0221
 5489SOL     OW28102   4.102   3.670   3.944  0.1421 -0.0386 -0.9243
 5489SOL    HW128103   4.189   3.639   3.920 -0.6308 -2.2697 -0.8253
 5489SOL    HW228104   4.079   3.692   3.854  0.8232 -0.4435 -1.1950
 5490SOL     OW28105   4.526   3.584   6.702  0.3244  0.5623  0.5224
 5490SOL    HW128106   4.587   3.510   6.709  0.2035  0.2020 -2.3122
 5490SOL    HW228107   4.548   3.603   6.611 -0.4833  0.4093  0.2983
 5491SOL     OW28108   0.260   1.331   5.885  0.8991 -0.4704  0.2261
 5491SOL    HW128109   0.233   1.292   5.968 -0.9859  2.1631  0.8187
 5491SOL    HW228110   0.174   1.356   5.851  1.8184  3.6779  0.9024
 5492SOL     OW28111   3.990   3.863   7.978  0.3823 -0.5501  0.5552
 5492SOL    HW128112   3.936   3.933   7.941  1.0090  0.3972  1.4241
 5492SOL    HW228113   4.074   3.889   7.940  0.2216 -0.2255  0.4268
 5493SOL     OW28114   2.661   0.439   4.849 -0.0559  0.2260 -0.1106
 5493SOL    HW128115   2.597   0.485   4.795 -0.5416  1.4503  1.5253
 5493SOL    HW228116   2.684   0.504   4.915 -0.5623 -0.3970  0.6875
 5494SOL     OW28117   3.707   2.255   3.037  0.5529 -0.1604  0.3528
 5494SOL    HW128118   3.666   2.216   2.959  0.8043  2.1685 -0.9416
 5494SOL    HW228119   3.740   2.184   3.092 -0.7300 -0.5845  0.5708
 5495SOL     OW28120   4.657   1.886   8.366  0.1387 -0.3885 -0.4283
 5495SOL    HW128121   4.642   1.893   8.460  1.7637  0.1929 -0.2038
 5495SOL    HW228122   4.579   1.923   8.325 -1.7593 -1.2587  2.3790
 5496SOL     OW28123   3.958   2.551   5.676  0.0715  0.0055 -0.2761
 5496SOL    HW128124   3.872   2.593   5.675  0.8748  1.6485  0.1773
 5496SOL    HW228125   3.938   2.457   5.683  1.3707 -0.2684 -0.1567
 5497SOL     OW28126   1.805   2.111  15.938  0.5774  0.2153  0.1843
 5497SOL    HW128127   1.864   2.108  15.863  0.5002  1.4133  0.0701
 5497SOL    HW228128   1.806   2.206  15.954  2.7599  0.2252 -0.0072
 5498SOL     OW28129   3.870   4.650   5.011 -0.0339  0.3653  0.5597
 5498SOL    HW128130   3.915   4.567   5.026  1.7993  1.4266  1.0157
 5498SOL    HW228131   3.945   4.705   4.986 -0.9546  1.4023  0.0932
 5499SOL     OW28132   3.556   0.923   3.437  0.3092 -0.0032  0.2058
 5499SOL    HW128133   3.607   1.003   3.449 -2.1944  1.7087 -0.3558
 5499SOL    HW228134   3.492   0.946   3.504  0.6995  2.0656 -0.1187
 5500SOL     OW28135   0.623   1.566   3.724 -0.7932  0.6565  0.2675
 5500SOL    HW128136   0.644   1.634   3.660 -0.8600  0.4840  0.0631
 5500SOL    HW228137   0.530   1.576   3.704 -0.8161 -1.2064 -0.6100
 5501SOL     OW28138   4.265   0.980  10.422  0.0080  0.1355  0.3099
 5501SOL    HW128139   4.326   0.933  10.365 -0.0160  2.2046 -1.4180
 5501SOL    HW228140   4.183   0.944  10.388 -0.1358  2.3356 -1.7084
 5502SOL     OW28141   3.353   2.936   8.908 -0.0817  0.4049 -0.5053
 5502SOL    HW128142   3.328   2.867   8.846  0.5582 -2.4301  2.3760
 5502SOL    HW228143   3.277   2.994   8.904 -1.5666 -1.3906  2.3024
 5503SOL     OW28144   2.060   2.333   5.041  0.7543  0.2660 -0.8840
 5503SOL    HW128145   1.967   2.324   5.060  1.1643  0.2262  1.0700
 5503SOL    HW228146   2.066   2.428   5.046  0.6625  0.2859 -1.1575
 5504SOL     OW28147   2.010   0.449   3.420 -0.0167 -0.2941  0.0007
 5504SOL    HW128148   1.927   0.413   3.452 -0.5584  0.7443 -0.2167
 5504SOL    HW228149   2.066   0.438   3.496 -1.1051 -2.3379  0.5067
 5505SOL     OW28150   4.681   0.180   7.842  0.0042 -0.3865  0.4445
 5505SOL    HW128151   4.638   0.097   7.824 -0.5022 -0.0749  0.2097
 5505SOL    HW228152   4.602   0.233   7.851  2.0420  2.8505 -0.5812
 5506SOL     OW28153   0.490   1.032  14.817 -0.5901  1.0439 -0.7676
 5506SOL    HW128154   0.574   1.075  14.829 -1.6606  2.9975 -0.2030
 5506SOL    HW228155   0.511   0.951  14.864 -1.2449  0.7320 -1.0123
 5507SOL     OW28156   2.573   0.954   5.912 -0.4051  0.2435 -0.4804
 5507SOL    HW128157   2.654   0.987   5.951 -0.4311 -0.3494  0.0704
 5507SOL    HW228158   2.562   0.870   5.957 -1.6640 -0.5442 -2.2639
 5508SOL     OW28159   2.743   2.105   5.535 -0.5244 -0.5796 -0.0569
 5508SOL    HW128160   2.817   2.166   5.540 -0.0893 -1.1641  0.6915
 5508SOL    HW228161   2.671   2.168   5.529  0.2752  0.5020  1.5487
 5509SOL     OW28162   2.627   4.109   5.505  0.2929 -0.4230 -0.1133
 5509SOL    HW128163   2.711   4.144   5.475  1.3533 -1.4757  1.6306
 5509SOL    HW228164   2.653   4.019   5.522 -0.5168 -0.6909 -0.2972
 5510SOL     OW28165   4.236   4.168   8.458 -0.0699  0.2181 -0.0603
 5510SOL    HW128166   4.202   4.162   8.547  1.1867  3.1797  0.6514
 5510SOL    HW228167   4.312   4.111   8.465 -1.3722 -1.5862 -0.8471
 5511SOL     OW28168   1.877   4.034   3.096  0.0989 -0.0185 -0.5320
 5511SOL    HW128169   1.893   4.005   3.007  3.6370 -0.0324  0.1106
 5511SOL    HW228170   1.783   4.055   3.089 -0.1692 -1.6332 -1.6984
 5512SOL     OW28171   2.201   3.165   2.566  0.0033 -1.0769 -0.6999
 5512SOL    HW128172   2.282   3.207   2.592 -0.8160  1.2991 -1.9290
 5512SOL    HW228173   2.144   3.238   2.538  0.7986  0.2375  1.1230
 5513SOL     OW28174   0.167   2.304   8.813 -0.0727  0.1637  0.0898
 5513SOL    HW128175   0.156   2.306   8.718 -1.0355  0.8536  0.2212
 5513SOL    HW228176   0.143   2.395   8.830  1.3878  0.6133 -0.2351
 5514SOL     OW28177   2.647   1.611   7.127  0.3857  0.1181 -0.2588
 5514SOL    HW128178   2.674   1.687   7.077 -0.6927  1.6698  1.5011
 5514SOL    HW228179   2.727   1.560   7.115 -0.6676 -1.2635 -1.3489
 5515SOL     OW28180   3.938   0.956   2.508  0.3325  0.0940 -0.3298
 5515SOL    HW128181   4.032   0.939   2.499  0.3615  1.4535 -2.5493
 5515SOL    HW228182   3.940   1.025   2.574 -2.9364  0.3505 -0.4913
 5516SOL     OW28183   1.352   1.459   5.405 -0.0367 -0.1477  0.3106
 5516SOL    HW128184   1.346   1.554   5.416 -0.6314 -0.1417 -0.0956
 5516SOL    HW228185   1.302   1.423   5.478 -2.0316 -0.2930 -1.1201
 5517SOL     OW28186   3.709   1.878   7.520  0.5056  0.1041 -0.5041
 5517SOL    HW128187   3.732   1.968   7.543  2.9788 -0.1899 -1.8431
 5517SOL    HW228188   3.789   1.831   7.498  0.1285  0.1197 -1.9296
 5518SOL     OW28189   3.367   0.369   9.108  0.0390 -0.0347 -0.3763
 5518SOL    HW128190   3.431   0.417   9.055 -1.4816  1.0425 -1.2309
 5518SOL    HW228191   3.325   0.437   9.160  0.1536 -2.3440  2.7550
 5519SOL     OW28192   3.098   1.621   3.774  0.3136 -0.5758 -0.4489
 5519SOL    HW128193   3.068   1.657   3.690  0.5895  0.3824 -0.1316
 5519SOL    HW228194   3.187   1.592   3.752  0.9192 -0.5505  1.9793
 5520SOL     OW28195   2.595   2.172   3.916  0.3088  0.3609 -0.3375
 5520SOL    HW128196   2.669   2.168   3.855  0.1510 -1.4252 -0.4136
 5520SOL    HW228197   2.632   2.138   3.998  0.8360 -0.4372 -0.9109
 5521SOL     OW28198   1.121   0.157  10.121  0.1297 -0.0316  0.6386
 5521SOL    HW128199   1.068   0.234  10.100  1.1052  0.1452 -1.2314
 5521SOL    HW228200   1.063   0.111  10.181 -0.4941  0.4166  0.3809
 5522SOL     OW28201   1.905   0.792   4.013  0.3263 -0.4834 -0.5542
 5522SOL    HW128202   1.989   0.751   4.030 -0.3427 -1.6179  0.0291
 5522SOL    HW228203   1.865   0.726   3.957 -0.3689 -1.4293  1.0657
 5523SOL     OW28204   0.089   2.099   4.956  0.0352 -0.0664 -0.9928
 5523SOL    HW128205   0.121   2.014   4.925 -2.3393 -1.8380  1.2835
 5523SOL    HW228206   0.137   2.098   5.039 -0.6448 -1.0399 -0.6070
 5524SOL     OW28207   1.175   3.630   8.018 -0.3219 -0.1238 -0.0723
 5524SOL    HW128208   1.203   3.552   7.969 -1.3022 -0.3968 -0.1851
 5524SOL    HW228209   1.260   3.657   8.053 -0.2535 -0.9398  0.4151
 5525SOL     OW28210   1.401   4.121   8.894  0.0871 -0.2162 -0.3222
 5525SOL    HW128211   1.310   4.093   8.900  0.4267 -1.3103 -0.2932
 5525SOL    HW228212   1.428   4.108   8.984  0.3006  1.2567 -0.1632
 5526SOL     OW28213   1.385   0.263   4.143  0.6230  0.2641 -0.1818
 5526SOL    HW128214   1.296   0.230   4.157  1.5729 -2.1730  0.0474
 5526SOL    HW228215   1.429   0.180   4.127  2.7835  1.4517 -0.3946
 5527SOL     OW28216   0.719   0.335  14.741  0.2757 -0.0929  0.0696
 5527SOL    HW128217   0.713   0.263  14.678 -1.3590 -0.9997  1.2504
 5527SOL    HW228218   0.767   0.283  14.806 -4.1840  0.3258  3.6784
 5528SOL     OW28219   3.764   4.067   9.075 -0.0282  0.3144  0.6608
 5528SOL    HW128220   3.807   4.147   9.046  2.1281 -0.9783  0.2662
 5528SOL    HW228221   3.831   4.027   9.131  0.1333  0.9598  0.9248
 5529SOL     OW28222   4.180   2.385   8.398 -0.4620 -0.0864 -0.1964
 5529SOL    HW128223   4.163   2.372   8.305 -2.5907 -1.5866  0.3935
 5529SOL    HW228224   4.181   2.480   8.401  0.5893 -0.0398 -2.0193
 5530SOL     OW28225   3.153   2.460   5.445 -0.0148  0.1912 -0.2998
 5530SOL    HW128226   3.216   2.441   5.515 -0.5448  1.3941  0.5065
 5530SOL    HW228227   3.168   2.549   5.414 -1.2189  0.7085  0.6150
 5531SOL     OW28228   4.081   1.425  10.179 -0.6059  0.0006  0.0428
 5531SOL    HW128229   4.121   1.504  10.217 -1.5675  0.9696 -0.9699
 5531SOL    HW228230   4.091   1.364  10.253  0.0662  0.5009  0.3736
 5532SOL     OW28231   4.075   4.330   6.194 -0.2522 -0.0033  0.7321
 5532SOL    HW128232   4.162   4.357   6.164 -1.2075  2.3503  0.0853
 5532SOL    HW228233   4.027   4.307   6.114  0.4839  2.7936 -0.5021
 5533SOL     OW28234   3.233   3.694   9.200 -0.0230 -0.9006 -0.3382
 5533SOL    HW128235   3.240   3.613   9.249  1.1530  0.0240  1.0300
 5533SOL    HW228236   3.275   3.678   9.116  0.3417 -0.6135 -0.2085
 5534SOL     OW28237   0.625   4.098   3.002 -0.5635  0.2187  0.0256
 5534SOL    HW128238   0.600   4.169   3.062 -3.7111  0.3909 -1.4564
 5534SOL    HW228239   0.668   4.153   2.937  0.6969 -1.1078 -0.2532
 5535SOL     OW28240   4.409   2.559  12.230 -0.1144  0.5505  0.6819
 5535SOL    HW128241   4.476   2.623  12.204  2.3762 -1.6504  1.6573
 5535SOL    HW228242   4.442   2.533  12.316  0.7784  0.5495  0.3360
 5536SOL     OW28243   4.595   4.547   3.788  0.0654 -0.5681  0.5096
 5536SOL    HW128244   4.547   4.502   3.857  1.6660 -1.4625  1.0330
 5536SOL    HW228245   4.595   4.469   3.732 -1.0678 -0.5633  0.5094
 5537SOL     OW28246   1.674   0.401  14.646  0.1247 -0.1120  0.5403
 5537SOL    HW128247   1.665   0.490  14.613 -0.9502  0.2534  1.8323
 5537SOL    HW228248   1.736   0.411  14.718  1.0627 -1.6820 -0.0471
 5538SOL     OW28249   2.137   2.398   8.791 -0.8468  0.1264  0.0641
 5538SOL    HW128250   2.184   2.480   8.778  1.6364 -0.8986  2.4964
 5538SOL    HW228251   2.143   2.365   8.702  2.7188 -0.8797  0.6811
 5539SOL     OW28252   0.972   2.245   7.817  0.3657  0.0939 -0.3081
 5539SOL    HW128253   1.068   2.245   7.828 -0.0252  0.3317  3.3352
 5539SOL    HW228254   0.956   2.327   7.863  1.1513 -0.9130  1.7788
 5540SOL     OW28255   0.138   2.543   6.131  0.0115  0.3157 -0.5101
 5540SOL    HW128256   0.113   2.484   6.059 -1.5555 -0.7332  0.9066
 5540SOL    HW228257   0.203   2.489   6.176  1.3448  0.3649 -2.3360
 5541SOL     OW28258   1.855   3.877   7.947  1.0713 -0.6418 -0.4737
 5541SOL    HW128259   1.802   3.956   7.952  0.4118 -1.0522 -1.0716
 5541SOL    HW228260   1.783   3.819   7.924 -0.3804  0.9627  0.0162
 5542SOL     OW28261   1.963   3.684   2.980 -0.1222  0.3035 -0.5002
 5542SOL    HW128262   2.015   3.753   2.939  0.5867  0.5453  0.7893
 5542SOL    HW228263   2.036   3.629   3.008 -1.3174 -0.3131  1.4139
 5543SOL     OW28264   0.510   0.031  11.106  0.1608 -0.1105 -0.0939
 5543SOL    HW128265   0.575   0.087  11.063 -1.3489  1.5600 -0.1764
 5543SOL    HW228266   0.547   4.680  11.092 -3.1546 -1.7145  1.2363
 5544SOL     OW28267   3.072   3.879  11.809  0.1517 -0.1499  0.5670
 5544SOL    HW128268   3.000   3.887  11.747  0.5949 -2.2994 -0.2386
 5544SOL    HW228269   3.038   3.930  11.882 -2.9539  1.3613 -1.9315
 5545SOL     OW28270   3.998   1.709  13.328 -0.3832  0.8162  0.0324
 5545SOL    HW128271   3.932   1.656  13.283 -1.3680  0.2131  2.2215
 5545SOL    HW228272   4.053   1.728  13.252 -0.6516 -1.4711 -0.7222
 5546SOL     OW28273   0.985   3.750   3.601 -0.1363  0.6413 -0.4716
 5546SOL    HW128274   0.944   3.804   3.534 -0.5679 -0.6307 -1.2443
 5546SOL    HW228275   0.988   3.658   3.574  1.7797  1.3835 -2.8041
 5547SOL     OW28276   3.984   2.451  12.593  0.7938 -0.0460 -0.3536
 5547SOL    HW128277   3.950   2.489  12.511 -0.6905 -0.5823  0.0220
 5547SOL    HW228278   3.973   2.531  12.645 -2.5166 -0.1678 -0.8949
 5548SOL     OW28279   2.209   2.663  11.144 -0.1542 -0.3510 -0.0278
 5548SOL    HW128280   2.300   2.659  11.116  0.0053  2.3404  0.0987
 5548SOL    HW228281   2.171   2.580  11.116 -1.5058 -0.3472  1.7289
 5549SOL     OW28282   3.858   3.472   7.330  0.0642 -0.5734  0.6402
 5549SOL    HW128283   3.889   3.396   7.378  0.8960 -1.1605 -0.8112
 5549SOL    HW228284   3.886   3.455   7.240 -0.2678  1.0282  0.2233
 5550SOL     OW28285   0.439   4.192   2.529  0.0477  0.6688 -0.2888
 5550SOL    HW128286   0.440   4.162   2.621 -0.4835  0.1806 -0.4418
 5550SOL    HW228287   0.459   4.112   2.481  2.2463  1.0039  0.0824
 5551SOL     OW28288   0.179   4.074   7.349 -0.1335  0.0399  0.1234
 5551SOL    HW128289   0.206   4.152   7.397 -3.1764  0.6569  0.8694
 5551SOL    HW228290   0.085   4.090   7.344  0.0307  1.1876  0.6725
 5552SOL     OW28291   0.988   3.012   8.423  0.3046  0.0678  0.3858
 5552SOL    HW128292   0.931   3.081   8.387 -0.4511 -1.2886 -1.0308
 5552SOL    HW228293   1.075   3.047   8.405  0.3199 -1.3393 -2.3018
 5553SOL     OW28294   2.583   1.477   5.469  0.5026  0.3782  0.2737
 5553SOL    HW128295   2.557   1.439   5.554  0.4174  1.3158  0.6623
 5553SOL    HW228296   2.616   1.398   5.427  0.7559  0.1950  0.8149
 5554SOL     OW28297   1.692   4.216   5.966  0.3538  0.0288  0.4063
 5554SOL    HW128298   1.725   4.137   5.923  2.5203 -0.3463  2.7281
 5554SOL    HW228299   1.764   4.240   6.025 -2.3705  2.4624  2.7060
 5555SOL     OW28300   4.315   2.457  13.139 -0.6113  0.6360  0.3673
 5555SOL    HW128301   4.225   2.483  13.156 -1.5130 -0.6790 -2.2681
 5555SOL    HW228302   4.335   2.476  13.047  1.9857  1.1824  1.0398
 5556SOL     OW28303   2.345   0.432   1.838  0.3988 -0.2805  0.1480
 5556SOL    HW128304   2.414   0.370   1.865  0.9998  1.0962  1.7361
 5556SOL    HW228305   2.348   0.434   1.742  1.7025  0.9272  0.2121
 5557SOL     OW28306   4.009   2.752  15.241  0.2357  0.0978 -0.5928
 5557SOL    HW128307   3.965   2.793  15.166  1.8233  2.8686 -0.0064
 5557SOL    HW228308   4.071   2.700  15.189  0.8288  0.8419 -0.6248
 5558SOL     OW28309   3.927   4.661   5.529 -0.5820 -0.6410 -0.2417
 5558SOL    HW128310   3.970   4.678   5.613 -0.8175 -2.2904  0.2088
 5558SOL    HW228311   3.999   4.684   5.470  0.4317 -0.4131  1.0656
 5559SOL     OW28312   3.545   0.212   4.341  0.0540  0.0592  0.4102
 5559SOL    HW128313   3.548   0.160   4.260  0.3376  1.5502 -0.5323
 5559SOL    HW228314   3.459   0.253   4.334 -0.1482 -0.5660 -0.7920
 5560SOL     OW28315   2.631   1.347   7.515  0.2111 -0.0793  0.0423
 5560SOL    HW128316   2.558   1.345   7.577  0.3378  0.6094  0.2098
 5560SOL    HW228317   2.588   1.378   7.435  0.0229  1.6795  0.8393
 5561SOL     OW28318   2.636   2.393   1.935 -0.4232 -0.2668 -0.1963
 5561SOL    HW128319   2.610   2.451   2.007  1.8557 -2.3443  2.3122
 5561SOL    HW228320   2.594   2.442   1.864 -1.7528  2.6136  2.5722
 5562SOL     OW28321   4.455   0.277   7.608 -0.3050 -0.4998 -0.2637
 5562SOL    HW128322   4.425   0.258   7.697 -1.5707 -0.4880 -0.6860
 5562SOL    HW228323   4.456   0.372   7.596  4.2413  0.2044  5.8217
 5563SOL     OW28324   1.574   1.883   4.347  0.2344  0.8640 -0.7729
 5563SOL    HW128325   1.492   1.887   4.397  0.5623  1.8785 -0.3325
 5563SOL    HW228326   1.592   1.789   4.351 -0.7318  0.7260  0.5567
 5564SOL     OW28327   3.114   4.397   9.387  0.0026 -0.3880 -0.4752
 5564SOL    HW128328   3.177   4.359   9.326  0.7010 -1.9066  1.1992
 5564SOL    HW228329   3.161   4.478   9.407 -1.5183  0.3401  0.0778
 5565SOL     OW28330   1.362   2.476   4.996  0.1169 -0.3642  0.2801
 5565SOL    HW128331   1.439   2.494   5.050  1.6628 -2.1795 -1.3489
 5565SOL    HW228332   1.392   2.409   4.935  0.8512  0.3349 -0.1296
 5566SOL     OW28333   1.519   0.318   9.826  0.5773 -0.0596  0.0144
 5566SOL    HW128334   1.566   0.340   9.906 -0.6048  1.7591  0.2106
 5566SOL    HW228335   1.430   0.342   9.852  1.2469  0.6966  1.6082
 5567SOL     OW28336   1.292   2.602   8.755  0.3652  0.3827 -0.0342
 5567SOL    HW128337   1.243   2.520   8.756  0.3830  0.3757  0.8000
 5567SOL    HW228338   1.252   2.644   8.832  1.7231  0.4602  0.6345
 5568SOL     OW28339   1.665   4.672   0.363  0.6768 -0.5532  0.3764
 5568SOL    HW128340   1.617   4.595   0.333  0.3167 -1.0927  2.3360
 5568SOL    HW228341   1.623   0.010   0.319  2.1063  0.7958  1.3221
 5569SOL     OW28342   2.283   4.116   7.579  0.3045  0.1517  0.1760
 5569SOL    HW128343   2.295   4.022   7.568  0.0713 -0.0179  1.3743
 5569SOL    HW228344   2.354   4.128   7.643 -0.0454  1.5781  0.3034
 5570SOL     OW28345   1.055   3.200  14.196 -0.0948 -0.1020  0.0369
 5570SOL    HW128346   1.016   3.214  14.282  1.4286 -0.3916  0.7674
 5570SOL    HW228347   0.980   3.223  14.141 -0.1294 -0.1641  0.0581
 5571SOL     OW28348   4.458   1.709  16.843 -0.8872  0.2964 -0.3877
 5571SOL    HW128349   4.541   1.742  16.876 -1.7023  0.8303  1.1688
 5571SOL    HW228350   4.482   1.685  16.754 -1.0622  1.5250 -0.7592
 5572SOL     OW28351   3.953   1.269   9.014  0.1860  0.0573  0.6652
 5572SOL    HW128352   4.046   1.290   9.018  0.7544 -2.4512  1.2793
 5572SOL    HW228353   3.956   1.176   8.991 -0.2692  0.6449 -1.7963
 5573SOL     OW28354   4.045   2.892   8.459 -0.0982  0.5292 -0.1578
 5573SOL    HW128355   3.967   2.915   8.511  0.6606  0.6409  0.9388
 5573SOL    HW228356   4.081   2.979   8.444  1.2678  0.0920  0.6428
 5574SOL     OW28357   2.867   1.748  12.667  0.1049 -0.2554 -0.1973
 5574SOL    HW128358   2.830   1.815  12.724  0.2984  0.1962 -0.6013
 5574SOL    HW228359   2.957   1.751  12.698 -0.4782 -0.5893  1.4927
 5575SOL     OW28360   0.705   1.539   0.070 -0.4748 -0.5363  0.6194
 5575SOL    HW128361   0.723   1.626   0.107  3.3837 -1.3749  0.7798
 5575SOL    HW228362   0.651   1.565  17.740  1.0664  1.6481  0.2497
 5576SOL     OW28363   4.001   2.120   9.764  0.3782 -0.3484  0.0424
 5576SOL    HW128364   4.076   2.084   9.716  1.3241 -0.5165  1.6337
 5576SOL    HW228365   4.042   2.183   9.823 -3.1883 -0.8599  3.0676
 5577SOL     OW28366   3.792   3.714   4.621  0.4982  0.0973  0.5213
 5577SOL    HW128367   3.885   3.738   4.624  0.7487 -0.6705 -1.3638
 5577SOL    HW228368   3.757   3.735   4.708  0.9301 -0.3192  0.7952
 5578SOL     OW28369   2.700   3.866  16.841  0.4572  0.3108 -0.5263
 5578SOL    HW128370   2.689   3.799  16.908 -0.5089  1.7508  0.7397
 5578SOL    HW228371   2.781   3.913  16.864 -1.3437  3.6783 -1.0405
 5579SOL     OW28372   3.184   0.744   7.728  0.0272  0.4499 -0.0044
 5579SOL    HW128373   3.093   0.736   7.701 -0.8367  1.8899  2.4210
 5579SOL    HW228374   3.230   0.721   7.648 -0.0831  1.3099 -0.3159
 5580SOL     OW28375   2.250   0.555   5.201 -0.1822 -0.4022 -0.3026
 5580SOL    HW128376   2.197   0.619   5.248 -0.3072 -0.7430  0.0135
 5580SOL    HW228377   2.189   0.482   5.202 -0.2889 -0.3149 -0.3867
 5581SOL     OW28378   2.951   0.560   1.640  0.5537  0.1238  0.5591
 5581SOL    HW128379   2.938   0.568   1.546  1.5970 -2.5138  0.1958
 5581SOL    HW228380   2.868   0.593   1.675  1.2930  2.2584  0.3088
 5582SOL     OW28381   4.222   0.461   7.286 -0.0083  0.0397  0.2075
 5582SOL    HW128382   4.242   0.456   7.192 -0.3866  0.1370  0.1248
 5582SOL    HW228383   4.229   0.554   7.308 -0.5218  0.6375 -2.1363
 5583SOL     OW28384   3.417   4.248  10.793 -0.6957 -0.3262 -0.5396
 5583SOL    HW128385   3.482   4.316  10.812  0.3969 -0.5931 -3.2826
 5583SOL    HW228386   3.473   4.171  10.797 -1.5417 -0.8679  0.6389
 5584SOL     OW28387   2.319   2.625   2.965 -0.1582  0.0623 -0.4573
 5584SOL    HW128388   2.237   2.579   2.983 -0.2619  0.3707 -0.1572
 5584SOL    HW228389   2.305   2.698   3.025 -1.1341 -0.4636 -0.0335
 5585SOL     OW28390   4.130   0.045   7.048 -0.3185 -0.5223  0.1420
 5585SOL    HW128391   4.182   0.021   7.125 -0.0120  0.6368  0.2903
 5585SOL    HW228392   4.049   4.731   7.049 -0.2594 -0.6064  0.7579
 5586SOL     OW28393   3.751   2.267  12.971 -0.5730 -0.2433  0.7546
 5586SOL    HW128394   3.756   2.334  13.039  0.2386  0.4217  0.0264
 5586SOL    HW228395   3.843   2.272  12.947 -1.5308  0.5574 -2.8887
 5587SOL     OW28396   0.896   1.153   1.811 -0.0926 -0.6206 -0.5769
 5587SOL    HW128397   0.835   1.144   1.737 -0.2702  0.8745 -0.6159
 5587SOL    HW228398   0.897   1.063   1.842 -1.8273 -0.8009 -1.0001
 5588SOL     OW28399   1.054   1.129   3.028  0.3167 -0.0554  0.1424
 5588SOL    HW128400   1.021   1.071   3.096  0.1765 -1.1211 -0.8233
 5588SOL    HW228401   0.983   1.193   3.025 -0.2707 -0.5886  3.1572
 5589SOL     OW28402   2.029   1.813   5.525 -0.2144 -0.5165 -0.0227
 5589SOL    HW128403   2.103   1.760   5.496 -0.4590 -0.4737 -0.7130
 5589SOL    HW228404   2.016   1.869   5.449  0.9401  2.4161  1.9258
 5590SOL     OW28405   0.948   2.743   3.563  0.2281 -0.4132 -0.0161
 5590SOL    HW128406   1.029   2.738   3.614  0.3257  0.2998 -0.1002
 5590SOL    HW228407   0.882   2.726   3.630  1.3380  0.5973  1.3250
 5591SOL     OW28408   3.774   3.776   3.398  0.4627 -0.4804 -0.2573
 5591SOL    HW128409   3.762   3.812   3.486 -1.1607  0.2836 -0.7979
 5591SOL    HW228410   3.744   3.687   3.415 -0.4920 -0.0792  0.1786
 5592SOL     OW28411   3.070   3.237   2.628  0.3033 -0.0792  0.4097
 5592SOL    HW128412   2.985   3.203   2.600  2.3203 -3.2821 -1.9032
 5592SOL    HW228413   3.047   3.277   2.711 -0.8428  0.5398 -0.2063
 5593SOL     OW28414   0.664   0.279  11.035 -0.2140  0.0657  0.2108
 5593SOL    HW128415   0.734   0.245  11.090 -1.1513 -2.4753 -0.1700
 5593SOL    HW228416   0.700   0.366  11.015  2.9998 -0.6943  2.7918
 5594SOL     OW28417   2.590   4.275   8.190 -0.3508 -0.1247  0.0282
 5594SOL    HW128418   2.610   4.203   8.249 -1.0568  0.2458  0.7136
 5594SOL    HW228419   2.558   4.341   8.252  2.1231  1.9275 -0.8742
 5595SOL     OW28420   1.877   0.343   6.750  0.4420 -0.3961 -0.5775
 5595SOL    HW128421   1.933   0.273   6.785  0.8124 -0.4586 -1.2882
 5595SOL    HW228422   1.805   0.343   6.812 -2.2672  3.3495 -3.7694
 5596SOL     OW28423   2.962   1.915  14.351 -0.3586  0.4209  0.1535
 5596SOL    HW128424   3.001   1.979  14.411 -0.0764  0.8469 -0.4963
 5596SOL    HW228425   3.039   1.876  14.312 -0.1008 -0.7273  1.8134
 5597SOL     OW28426   4.111   0.848   4.126 -0.1394  0.3661 -0.2166
 5597SOL    HW128427   4.205   0.857   4.112  0.0728 -0.0906  0.9439
 5597SOL    HW228428   4.108   0.754   4.147  0.8275  0.4557  0.3268
 5598SOL     OW28429   0.504   0.314   7.736 -0.3465  0.3192 -0.2155
 5598SOL    HW128430   0.493   0.276   7.649  0.1034 -0.6991  0.1746
 5598SOL    HW228431   0.581   0.369   7.722  0.0500 -0.0000  0.7517
 5599SOL     OW28432   3.036   2.373  13.562 -0.4296  0.4964 -0.5542
 5599SOL    HW128433   3.086   2.292  13.552 -0.8333  0.3307 -1.2738
 5599SOL    HW228434   2.993   2.382  13.477 -1.6179  0.8359  0.0808
 5600SOL     OW28435   1.365   3.060   5.409 -0.7183 -0.2921 -0.3465
 5600SOL    HW128436   1.317   3.017   5.339 -0.0411 -0.3835 -0.7592
 5600SOL    HW228437   1.298   3.109   5.456  0.4130 -1.0559  2.0444
 5601SOL     OW28438   1.440   4.503  12.526  0.2528  0.4930 -0.3073
 5601SOL    HW128439   1.417   4.471  12.613  0.9584  2.2126  0.5160
 5601SOL    HW228440   1.425   4.423  12.475  0.0734  0.4162 -0.1298
 5602SOL     OW28441   4.589   0.824   9.821  0.2765  0.2211 -0.5606
 5602SOL    HW128442   4.622   0.891   9.882  1.8857 -1.6433  0.6018
 5602SOL    HW228443   4.501   0.858   9.801 -0.7774 -2.2964 -0.2145
 5603SOL     OW28444   2.233   1.205   1.769 -0.5326 -0.1449 -0.5874
 5603SOL    HW128445   2.194   1.286   1.734  1.1010  0.0917 -1.8586
 5603SOL    HW228446   2.198   1.138   1.710 -0.7460 -0.9904  0.4967
 5604SOL     OW28447   0.047   0.256   1.935 -0.7255  0.0509 -0.1146
 5604SOL    HW128448   0.002   0.178   1.901  1.0793 -0.7389 -0.6944
 5604SOL    HW228449   0.140   0.242   1.919 -0.6403 -0.5645  0.9065
 5605SOL     OW28450   3.161   3.940   0.731  0.2993 -0.4031  0.1385
 5605SOL    HW128451   3.246   3.929   0.687 -1.0121 -2.8058 -1.8107
 5605SOL    HW228452   3.111   3.985   0.662  0.4959 -1.5914 -0.7877
 5606SOL     OW28453   3.056   3.555   5.032  0.4524 -0.4321  0.2134
 5606SOL    HW128454   3.027   3.569   4.942  1.4715 -0.8916 -0.1882
 5606SOL    HW228455   3.001   3.620   5.076  3.8752  0.7452  2.7536
 5607SOL     OW28456   2.669   0.523  11.485 -0.5710 -0.7001  0.3370
 5607SOL    HW128457   2.599   0.463  11.459 -1.1226 -0.3764  1.0832
 5607SOL    HW228458   2.630   0.544  11.569  0.5359  0.6615  0.5148
 5608SOL     OW28459   4.606   1.484  17.374 -0.4433  0.0981  0.0373
 5608SOL    HW128460   4.564   1.466  17.458  2.6662  1.9007  1.9948
 5608SOL    HW228461   4.647   1.399  17.361 -0.4853 -0.0199  0.6747
 5609SOL     OW28462   4.199   2.548  16.977 -0.4476  0.6219 -0.1521
 5609SOL    HW128463   4.124   2.606  16.964 -0.1042  1.5074  1.9492
 5609SOL    HW228464   4.265   2.615  16.994  0.8824 -1.1348  1.5214
 5610SOL     OW28465   3.451   3.526   0.049 -0.1465  0.3086 -0.0173
 5610SOL    HW128466   3.511   3.451   0.042 -0.7531 -0.0313 -1.7899
 5610SOL    HW228467   3.519   3.590   0.069 -1.7023  1.2931  1.9779
 5611SOL     OW28468   3.509   3.514  12.831 -0.1299 -0.2340  0.3132
 5611SOL    HW128469   3.594   3.548  12.800 -0.2504 -0.3451 -0.1315
 5611SOL    HW228470   3.470   3.507  12.744 -0.3705 -0.2236  0.4204
 5612SOL     OW28471   2.516   4.497  13.492 -0.5525 -0.3764  0.3245
 5612SOL    HW128472   2.560   4.564  13.544 -0.8216 -0.2875  0.4403
 5612SOL    HW228473   2.442   4.465  13.544  1.8861 -2.2657  2.6170
 5613SOL     OW28474   2.401   4.531   9.343  0.0037 -0.6005 -0.3248
 5613SOL    HW128475   2.320   4.488   9.315  0.1347 -0.2167 -1.3076
 5613SOL    HW228476   2.383   4.625   9.346 -0.1003 -0.6218 -0.2882
 5614SOL     OW28477   3.890   3.704   4.336  0.5260 -0.9038 -0.2607
 5614SOL    HW128478   3.983   3.726   4.350 -0.3669  1.4833  1.8727
 5614SOL    HW228479   3.881   3.728   4.244 -1.1028 -1.0608 -0.1253
 5615SOL     OW28480   0.129   0.826   1.688 -0.2072 -0.4863  0.1647
 5615SOL    HW128481   0.106   0.848   1.598  3.2669 -0.4550 -0.6928
 5615SOL    HW228482   0.044   0.837   1.732 -0.6134 -2.4965 -0.1125
 5616SOL     OW28483   2.639   2.107  12.955 -0.2714  0.1488  0.5614
 5616SOL    HW128484   2.671   2.125  13.044  0.6246  2.3411 -0.1983
 5616SOL    HW228485   2.651   2.197  12.923 -3.9972 -0.3648 -2.2867
 5617SOL     OW28486   2.302   4.658   4.639 -0.0215  0.1139  0.4883
 5617SOL    HW128487   2.272   4.663   4.730  0.3026 -0.6391  0.6354
 5617SOL    HW228488   2.346   0.007   4.627  0.1501  0.0415  0.6001
 5618SOL     OW28489   0.511   0.788   4.602  0.3660 -0.2592 -0.4978
 5618SOL    HW128490   0.441   0.782   4.537  1.5284  0.4505 -1.8278
 5618SOL    HW228491   0.526   0.696   4.622 -1.1054  0.0715  2.0404
 5619SOL     OW28492   1.895   2.831  14.426 -0.1949 -0.5739 -0.2080
 5619SOL    HW128493   1.861   2.905  14.375 -1.4261  0.2939  1.8453
 5619SOL    HW228494   1.813   2.790  14.453 -0.2923 -0.5585 -0.4830
 5620SOL     OW28495   2.006   0.794   8.400 -0.5520 -0.1285  0.2703
 5620SOL    HW128496   2.044   0.864   8.453 -0.6951 -0.0322  0.2449
 5620SOL    HW228497   2.071   0.724   8.401 -1.4436 -1.0237 -2.7368
 5621SOL     OW28498   3.452   2.089   5.657  0.2438 -0.3894 -0.4461
 5621SOL    HW128499   3.444   2.184   5.648 -0.0972 -0.4126 -0.3850
 5621SOL    HW228500   3.361   2.067   5.677  1.0547 -2.4019  1.0131
 5622SOL     OW28501   1.681   1.908   4.991 -0.2848  0.2788  0.0911
 5622SOL    HW128502   1.777   1.908   4.995 -0.3294  2.4573  1.3983
 5622SOL    HW228503   1.669   1.979   4.928 -1.9781 -0.7728 -0.7634
 5623SOL     OW28504   1.863   1.680  14.745 -0.4718 -0.1287 -0.2175
 5623SOL    HW128505   1.855   1.613  14.677 -0.9815  1.9508 -2.2284
 5623SOL    HW228506   1.772   1.683  14.773 -0.9492  0.4744 -1.8088
 5624SOL     OW28507   2.433   1.396  12.315 -0.3242  0.7105 -0.2517
 5624SOL    HW128508   2.362   1.396  12.379 -1.3600  0.5624 -1.4228
 5624SOL    HW228509   2.403   1.323  12.261  1.3879  0.6128 -1.0728
 5625SOL     OW28510   2.389   1.709   7.074 -0.1758 -0.2879  1.0551
 5625SOL    HW128511   2.427   1.653   7.141  2.6004  1.6735  1.1077
 5625SOL    HW228512   2.461   1.764   7.042 -0.7437 -1.6706 -2.5945
 5626SOL     OW28513   1.472   3.959   2.560 -0.1238 -0.0552  0.2992
 5626SOL    HW128514   1.386   3.945   2.520  0.0185 -1.3770  0.4242
 5626SOL    HW228515   1.443   4.006   2.638 -0.0831  1.4797 -0.6212
 5627SOL     OW28516   3.026   2.425   2.031  0.0057  0.2784  0.0255
 5627SOL    HW128517   2.975   2.361   1.981  0.9537  0.0496 -0.6490
 5627SOL    HW228518   3.113   2.396   2.004 -0.3074  1.5153 -2.3003
 5628SOL     OW28519   2.989   1.543   7.310 -0.4712 -0.1631 -0.1874
 5628SOL    HW128520   2.936   1.594   7.371 -2.8180  0.2317 -2.5865
 5628SOL    HW228521   3.035   1.477   7.362 -0.0997  1.6076  1.7144
 5629SOL     OW28522   3.876   4.234  12.028  0.3409  0.2535 -0.1937
 5629SOL    HW128523   3.831   4.224  11.944 -0.3439 -0.9601  0.3165
 5629SOL    HW228524   3.938   4.162  12.020 -0.9301 -0.9228  0.4804
 5630SOL     OW28525   3.352   3.323  13.637  0.2037 -1.1334  0.1317
 5630SOL    HW128526   3.357   3.296  13.728 -2.2040 -1.3858  0.1894
 5630SOL    HW228527   3.353   3.237  13.595  0.1014 -0.4405 -1.2895
 5631SOL     OW28528   3.444   0.875   1.859  0.2460 -0.1477 -0.0847
 5631SOL    HW128529   3.412   0.916   1.779 -1.2662  0.1922  0.6947
 5631SOL    HW228530   3.507   0.943   1.880  0.4410 -0.3114 -0.1372
 5632SOL     OW28531   3.530   1.546   8.469  0.6968  0.4561 -0.0536
 5632SOL    HW128532   3.452   1.496   8.493  1.5948 -0.7852  0.2962
 5632SOL    HW228533   3.604   1.498   8.509 -0.9460  0.9703  3.6246
 5633SOL     OW28534   1.462   1.524   9.256  0.3226 -0.5611 -0.0417
 5633SOL    HW128535   1.533   1.578   9.224  0.1875 -0.0357  0.5539
 5633SOL    HW228536   1.391   1.566   9.208 -0.7486 -1.4029  0.7773
 5634SOL     OW28537   3.241   0.180   4.319  0.0360 -0.2600  0.1337
 5634SOL    HW128538   3.253   0.161   4.412 -1.9187  0.6657  0.5706
 5634SOL    HW228539   3.261   0.093   4.283 -2.2931  0.1859 -2.2151
 5635SOL     OW28540   3.286   4.202   6.773 -0.3785 -0.4192 -0.2813
 5635SOL    HW128541   3.302   4.147   6.696  0.7052  0.8377 -0.9716
 5635SOL    HW228542   3.339   4.281   6.757  0.7622 -1.1906 -0.3205
 5636SOL     OW28543   0.311   1.801   2.610 -0.2493 -0.0007 -0.2523
 5636SOL    HW128544   0.231   1.835   2.570  0.3964  0.3725 -1.2249
 5636SOL    HW228545   0.376   1.869   2.592  1.4098 -1.4223  0.3298
 5637SOL     OW28546   4.592   4.294  16.750 -0.1498  0.1343 -0.2906
 5637SOL    HW128547   4.654   4.232  16.788  1.6399  1.8078 -0.4582
 5637SOL    HW228548   4.532   4.305  16.823  1.1629  1.3178  0.6010
 5638SOL     OW28549   4.370   3.277   8.582  0.4050 -0.2315  0.3007
 5638SOL    HW128550   4.280   3.268   8.615 -0.2532  1.3433 -1.0653
 5638SOL    HW228551   4.410   3.302   8.665 -2.7836  0.6663  1.5577
 5639SOL     OW28552   0.751   4.353   8.742 -0.0251  0.6255 -0.0661
 5639SOL    HW128553   0.712   4.404   8.671 -4.8327 -2.1654  0.5956
 5639SOL    HW228554   0.823   4.405   8.777  0.4850 -0.5192  0.5769
 5640SOL     OW28555   4.089   3.224  17.139 -0.0221  0.2543 -0.3924
 5640SOL    HW128556   4.062   3.299  17.192 -2.3443 -0.2953 -0.8024
 5640SOL    HW228557   4.180   3.210  17.167 -0.8423 -1.7426  1.2831
 5641SOL     OW28558   3.200   1.446  11.951 -0.0595  0.5811  0.1570
 5641SOL    HW128559   3.258   1.519  11.975  1.8719 -1.0479  0.4474
 5641SOL    HW228560   3.253   1.413  11.879  0.1029  1.2134 -0.0112
 5642SOL     OW28561   2.650   1.254   5.357 -0.2233  0.2703  0.2908
 5642SOL    HW128562   2.711   1.204   5.412  0.0580  1.1155  0.7508
 5642SOL    HW228563   2.578   1.192   5.342 -1.0712  1.7060 -1.5731
 5643SOL     OW28564   2.587   1.353   4.477  0.0860  0.4234  0.6595
 5643SOL    HW128565   2.657   1.289   4.491  0.1357  0.5159  0.8326
 5643SOL    HW228566   2.634   1.436   4.482  2.0649 -0.7053  0.8076
 5644SOL     OW28567   4.324   3.677   0.678 -0.3215  0.0612 -0.0355
 5644SOL    HW128568   4.319   3.750   0.739 -0.1893 -0.9210  1.1576
 5644SOL    HW228569   4.375   3.729   0.617  0.2985 -0.2708  0.1928
 5645SOL     OW28570   1.618   3.277   8.918  0.1860 -0.2474 -0.4154
 5645SOL    HW128571   1.628   3.350   8.979 -2.4449  0.6316 -1.0317
 5645SOL    HW228572   1.711   3.253   8.913 -0.4747 -2.6462 -1.1041
 5646SOL     OW28573   1.881   0.216   2.028 -0.7856 -0.2794  0.2361
 5646SOL    HW128574   1.906   0.142   1.973 -0.6641 -0.3438  0.3759
 5646SOL    HW228575   1.952   0.273   1.998  1.6590 -4.1354 -1.2386
 5647SOL     OW28576   4.392   2.660  12.641 -0.5047 -0.0599  0.4073
 5647SOL    HW128577   4.428   2.598  12.577 -0.5039 -0.1007  0.4473
 5647SOL    HW228578   4.450   2.736  12.641 -0.5029 -0.0584  1.2124
 5648SOL     OW28579   3.320   2.021   4.712  0.2098 -0.3470 -0.4178
 5648SOL    HW128580   3.366   2.036   4.795  0.2478 -3.1122  0.0516
 5648SOL    HW228581   3.340   1.928   4.720 -1.0694 -0.6480 -0.7609
 5649SOL     OW28582   3.627   1.171   6.683 -0.1217 -0.2127  0.1154
 5649SOL    HW128583   3.718   1.152   6.659  0.6396 -0.1560  2.9262
 5649SOL    HW228584   3.587   1.177   6.596 -4.4404 -1.0456  2.0470
 5650SOL     OW28585   3.608   1.038  15.110  0.4416  0.1251  0.0907
 5650SOL    HW128586   3.565   1.015  15.027  0.7175  0.4104 -0.1334
 5650SOL    HW228587   3.625   0.949  15.139 -0.3790 -0.4776 -1.2575
 5651SOL     OW28588   3.007   1.170   1.641 -0.5128 -0.5236  0.1294
 5651SOL    HW128589   3.068   1.139   1.708  0.1159  1.4144  0.4322
 5651SOL    HW228590   3.068   1.211   1.580 -1.0368  0.2797  0.1543
 5652SOL     OW28591   4.133   0.100  15.151 -0.6541  0.2757 -0.0943
 5652SOL    HW128592   4.049   0.082  15.193 -0.8368  1.1003 -0.1105
 5652SOL    HW228593   4.114   0.095  15.058  1.4632 -2.4646 -0.3972
 5653SOL     OW28594   0.271   0.418  15.048 -0.6844  0.1133 -0.6267
 5653SOL    HW128595   0.331   0.436  15.120 -0.6876  0.1457 -0.6322
 5653SOL    HW228596   0.271   0.323  15.041  1.3296 -0.0376  1.4581
 5654SOL     OW28597   1.619   2.362   8.674 -0.4126 -0.2478 -0.0337
 5654SOL    HW128598   1.590   2.360   8.583 -1.1013  0.2044  0.1771
 5654SOL    HW228599   1.650   2.452   8.685 -0.6625 -0.1960  0.2528
 5655SOL     OW28600   2.863   2.197  15.092 -0.1697 -0.1278  0.1667
 5655SOL    HW128601   2.954   2.224  15.099 -0.3560  1.1217 -2.0844
 5655SOL    HW228602   2.871   2.102  15.105 -0.6209  0.2041  2.6967
 5656SOL     OW28603   0.026   2.269  10.597 -0.0397  0.6778 -0.2383
 5656SOL    HW128604   0.116   2.262  10.564  0.1392 -3.4221  1.1898
 5656SOL    HW228605   4.716   2.208  10.540 -2.0685 -0.2980  2.4463
 5657SOL     OW28606   2.179   4.135  13.133  0.0854  0.4834 -0.0052
 5657SOL    HW128607   2.181   4.052  13.179  0.3726 -0.3176 -1.4492
 5657SOL    HW228608   2.092   4.135  13.094  0.1709  1.7906 -0.2038
 5658SOL     OW28609   0.492   1.254   1.592 -0.4019 -0.4367 -0.5080
 5658SOL    HW128610   0.427   1.211   1.536 -0.1542 -0.5048 -0.7446
 5658SOL    HW228611   0.448   1.337   1.607 -1.1712 -0.9387 -0.0210
 5659SOL     OW28612   3.804   2.480   3.139  0.7244 -0.1008  0.6152
 5659SOL    HW128613   3.765   2.394   3.121  0.9772  0.0832 -0.8489
 5659SOL    HW228614   3.830   2.466   3.230  1.2919  1.4158  0.6822
 5660SOL     OW28615   3.098   3.863   3.807  0.1264 -0.1036 -0.2488
 5660SOL    HW128616   3.018   3.865   3.860  0.3579  2.4981  0.0187
 5660SOL    HW228617   3.071   3.917   3.732  2.4226  3.8483  1.7777
 5661SOL     OW28618   4.567   1.730  15.722  0.2993 -0.4626 -0.3960
 5661SOL    HW128619   4.569   1.817  15.681 -1.3539  1.0356  2.7906
 5661SOL    HW228620   4.506   1.701  15.655  0.6643  0.5437 -1.1734
 5662SOL     OW28621   1.921   0.667   6.775  0.3287 -0.8317 -0.1756
 5662SOL    HW128622   1.991   0.728   6.750 -1.1757  1.0995  0.3182
 5662SOL    HW228623   1.969   0.612   6.837  1.4263 -1.1882 -1.3318
 5663SOL     OW28624   3.942   4.636  12.538 -0.2880  0.0605 -0.2934
 5663SOL    HW128625   4.004   4.583  12.588  0.0904  0.6142 -0.1751
 5663SOL    HW228626   3.979   4.644  12.450 -0.0680  1.2194 -0.1008
 5664SOL     OW28627   2.880   2.845   1.225  0.1421  0.0185  0.0876
 5664SOL    HW128628   2.914   2.920   1.274 -2.1380  0.8558  0.3658
 5664SOL    HW228629   2.789   2.874   1.221 -0.2318 -0.5809  3.7678
 5665SOL     OW28630   0.749   4.110   6.505  0.4795  0.2740  0.4178
 5665SOL    HW128631   0.784   4.073   6.586  1.0828 -2.1812 -0.9670
 5665SOL    HW228632   0.821   4.149   6.456 -0.0395  0.4499 -0.2027
 5666SOL     OW28633   2.617   0.070  15.504 -0.2796  0.2828 -0.1697
 5666SOL    HW128634   2.576   4.723  15.526 -0.1877  0.5519  1.0238
 5666SOL    HW228635   2.652   0.100  15.588 -1.5601  1.0960  0.0676
 5667SOL     OW28636   3.592   2.205  11.281 -0.0572 -0.0990  0.0403
 5667SOL    HW128637   3.497   2.203  11.272  0.1270 -1.4406 -1.6022
 5667SOL    HW228638   3.616   2.213  11.189  2.0078 -0.8592  0.4948
 5668SOL     OW28639   0.785   0.243   7.998  1.2494  0.2697 -0.7251
 5668SOL    HW128640   0.840   0.310   7.957  1.3531  0.6415  0.0309
 5668SOL    HW228641   0.849   0.173   8.007  2.7387  1.8244  0.8030
 5669SOL     OW28642   4.333   4.523   5.638  0.0220  0.4186 -0.1096
 5669SOL    HW128643   4.262   4.480   5.592  1.0927  0.3429 -1.6672
 5669SOL    HW228644   4.379   4.563   5.565 -0.3272  0.8840 -0.0735
 5670SOL     OW28645   3.130   1.269   7.360  0.1915  0.3541  0.8811
 5670SOL    HW128646   3.197   1.247   7.296 -0.4457  1.1072 -0.0494
 5670SOL    HW228647   3.053   1.223   7.324  0.8016  1.3442 -1.6910
 5671SOL     OW28648   3.243   0.457   8.583 -0.1039 -0.1703 -0.1472
 5671SOL    HW128649   3.161   0.429   8.543 -0.6868  0.6933  0.4400
 5671SOL    HW228650   3.226   0.519   8.654 -1.3186  2.1287 -2.4174
 5672SOL     OW28651   4.510   2.283   1.893  0.2795  0.4490 -0.5246
 5672SOL    HW128652   4.419   2.265   1.869 -0.3773  0.4988  1.8629
 5672SOL    HW228653   4.503   2.366   1.940  2.1084  0.7389 -0.7854
 5673SOL     OW28654   4.088   0.084   9.412 -0.0291  0.0178 -0.2650
 5673SOL    HW128655   4.000   0.080   9.449  1.2428 -0.8200  2.5988
 5673SOL    HW228656   4.130   0.135   9.481  1.9662 -0.4538 -1.1446
 5674SOL     OW28657   4.659   0.875  13.050 -0.6445  0.8565 -0.8487
 5674SOL    HW128658   4.619   0.896  12.966  0.4376  2.8045 -0.8757
 5674SOL    HW228659   0.013   0.895  13.025  0.4214  0.8022  2.8844
 5675SOL     OW28660   2.009   0.223  17.072  0.1273 -0.0465  0.1315
 5675SOL    HW128661   1.924   0.261  17.096  0.2176 -0.2252  0.7211
 5675SOL    HW228662   1.996   0.209  16.978 -0.2995 -0.0325  0.1879
 5676SOL     OW28663   1.380   0.809   8.616  0.5038 -0.6091  0.3810
 5676SOL    HW128664   1.459   0.816   8.669  1.9261 -1.1941 -1.6609
 5676SOL    HW228665   1.346   0.721   8.632 -0.8128  0.0424  1.2083
 5677SOL     OW28666   2.869   1.332   5.212  0.6340  0.1325 -0.2423
 5677SOL    HW128667   2.850   1.361   5.123  0.9551 -0.4060 -0.4889
 5677SOL    HW228668   2.783   1.303   5.244  1.3308 -0.4748  1.0373
 5678SOL     OW28669   1.673   3.923  11.123  0.2594 -0.3093 -0.5868
 5678SOL    HW128670   1.617   3.872  11.182  1.0533 -0.6729 -0.1446
 5678SOL    HW228671   1.676   4.007  11.169  0.2714 -0.7733  0.2707
 5679SOL     OW28672   0.644   0.616   5.195  0.0090 -0.3617 -0.3443
 5679SOL    HW128673   0.606   0.702   5.214  0.7441  0.7779 -4.0846
 5679SOL    HW228674   0.693   0.648   5.119 -1.5818 -0.0358 -1.2439
 5680SOL     OW28675   2.486   3.452   8.370  0.7150  0.5156  0.4275
 5680SOL    HW128676   2.392   3.461   8.356  1.0350  3.0892 -0.0499
 5680SOL    HW228677   2.502   3.521   8.434  3.7005  0.2921 -0.0650
 5681SOL     OW28678   2.867   1.452   7.077  0.4784 -0.5691 -0.0598
 5681SOL    HW128679   2.909   1.472   7.161 -2.5765  0.0742  1.3169
 5681SOL    HW228680   2.854   1.358   7.084  0.8989 -0.5822  0.6130
 5682SOL     OW28681   2.860   3.492   2.588 -0.6652  0.4901  0.0496
 5682SOL    HW128682   2.773   3.456   2.604  0.9584 -2.8266  1.3644
 5682SOL    HW228683   2.905   3.468   2.668 -0.2473 -1.1828 -0.6905
 5683SOL     OW28684   4.284   0.269   0.074 -0.0828 -0.2321 -0.3404
 5683SOL    HW128685   4.330   0.211   0.134  1.6864  2.1217  0.5879
 5683SOL    HW228686   4.328   0.353   0.089 -1.7471  0.3909  0.9993
 5684SOL     OW28687   0.047   1.526   1.656 -0.4840 -0.5179 -0.1763
 5684SOL    HW128688   4.696   1.503   1.687 -0.4719 -0.7723 -0.3302
 5684SOL    HW228689   0.108   1.493   1.721  1.1568  0.1553 -1.3626
 5685SOL     OW28690   2.406   2.840  12.496  0.4876 -0.7837 -0.3866
 5685SOL    HW128691   2.315   2.861  12.518  0.6908 -1.0169  0.6727
 5685SOL    HW228692   2.409   2.756  12.540  1.6124  0.0176  1.0711
 5686SOL     OW28693   1.657   3.432   6.860  0.3202  0.6299  0.1792
 5686SOL    HW128694   1.567   3.401   6.876  0.8478  0.1234  2.2141
 5686SOL    HW228695   1.703   3.396   6.936  2.2158 -0.3553 -1.4348
 5687SOL     OW28696   0.988   3.829   7.849 -0.5644  0.7031 -0.3507
 5687SOL    HW128697   0.895   3.806   7.857 -0.1754 -1.4387 -2.0660
 5687SOL    HW228698   1.030   3.760   7.900 -1.1661  0.5255 -0.1013
 5688SOL     OW28699   0.509   3.273  16.185  0.0490 -0.3932 -0.1179
 5688SOL    HW128700   0.478   3.347  16.132  0.0757 -0.1586  0.1920
 5688SOL    HW228701   0.436   3.250  16.243  0.6694 -1.1408  0.3633
 5689SOL     OW28702   4.346   4.243   5.885  0.3102  0.0454 -0.1360
 5689SOL    HW128703   4.365   4.283   5.970  0.7239 -2.2778  0.8551
 5689SOL    HW228704   4.251   4.254   5.888  0.3044 -0.6270  1.9510
 5690SOL     OW28705   2.960   0.634   8.487  0.2061 -0.3299 -0.2264
 5690SOL    HW128706   2.964   0.599   8.398 -2.2421 -0.2954 -0.3463
 5690SOL    HW228707   2.868   0.611   8.498  0.5029 -2.8549 -3.1532
 5691SOL     OW28708   2.232   4.478   8.741  0.4118  0.3676  0.0238
 5691SOL    HW128709   2.288   4.553   8.723 -0.2105  1.4204  2.5481
 5691SOL    HW228710   2.155   4.493   8.686  1.4762  0.8717 -1.3346
 5692SOL     OW28711   0.965   2.273  15.332 -0.2989 -0.4004  0.1108
 5692SOL    HW128712   0.994   2.346  15.278  1.2171 -3.0395 -2.6609
 5692SOL    HW228713   1.049   2.234  15.354  0.8410  0.5364 -2.7145
 5693SOL     OW28714   4.140   4.624   7.736  0.0062  0.5386 -0.6127
 5693SOL    HW128715   4.056   4.624   7.782  0.4228 -1.4086  0.1443
 5693SOL    HW228716   4.159   4.532   7.717  0.8262  1.1408 -2.6907
 5694SOL     OW28717   2.607   0.200   2.864 -0.0213 -0.1823  0.0920
 5694SOL    HW128718   2.696   0.233   2.866  0.7880 -2.3473  0.2009
 5694SOL    HW228719   2.583   0.225   2.774  0.0947  0.4672  0.2457
 5695SOL     OW28720   2.130   3.231   3.766  0.2491 -0.0046 -0.6498
 5695SOL    HW128721   2.173   3.308   3.804 -2.8139  0.4543  1.9404
 5695SOL    HW228722   2.036   3.238   3.784  0.0764  0.6306 -1.8194
 5696SOL     OW28723   2.836   1.040   4.619  0.2009 -0.0565  0.3643
 5696SOL    HW128724   2.780   1.015   4.546  0.7100  0.3899 -0.1716
 5696SOL    HW228725   2.906   0.978   4.597  1.0824  1.2197 -0.3961
 5697SOL     OW28726   0.772   3.209   6.009  0.5915 -0.1391  0.0667
 5697SOL    HW128727   0.827   3.156   6.067  0.5595  0.7919  0.9379
 5697SOL    HW228728   0.744   3.281   6.066 -3.2894 -0.5049 -1.3333
 5698SOL     OW28729   3.572   3.150   2.395 -0.5062 -0.3737  0.7733
 5698SOL    HW128730   3.552   3.223   2.335  1.2818  0.4202  1.1393
 5698SOL    HW228731   3.502   3.161   2.459 -0.8343 -0.8537  0.4911
 5699SOL     OW28732   2.608   3.550   0.376  0.0461  0.1289  0.1581
 5699SOL    HW128733   2.550   3.625   0.369  0.8920  0.8088  0.3497
 5699SOL    HW228734   2.613   3.545   0.472  0.7683  1.8660  0.2069
 5700SOL     OW28735   3.237   2.975  14.196 -0.2204 -0.4213  0.0622
 5700SOL    HW128736   3.321   3.020  14.190  0.4193 -1.2418  2.7261
 5700SOL    HW228737   3.171   3.044  14.204  0.4810  0.0018  2.2191
 5701SOL     OW28738   3.900   2.290   1.137 -0.1659  0.1617  0.1449
 5701SOL    HW128739   3.956   2.240   1.078  0.5617 -0.2652  1.1900
 5701SOL    HW228740   3.818   2.241   1.132  0.6087 -1.1928  0.9762
 5702SOL     OW28741   1.657   4.436   5.780 -0.5435  0.0671 -0.3120
 5702SOL    HW128742   1.581   4.411   5.728 -3.2655 -1.0711  4.2726
 5702SOL    HW228743   1.652   4.364   5.843  2.8642  1.1984  1.2479
 5703SOL     OW28744   2.491   4.095   8.612  0.1247 -0.3267 -0.6607
 5703SOL    HW128745   2.452   4.110   8.526 -0.5005  1.2327 -0.1163
 5703SOL    HW228746   2.556   4.026   8.602  0.1364 -0.2680 -1.0121
 5704SOL     OW28747   1.887   1.615  15.558  0.3370  0.2643  0.5314
 5704SOL    HW128748   1.867   1.525  15.531  0.8374 -0.0736  1.2784
 5704SOL    HW228749   1.811   1.633  15.614  0.1369  1.3544 -0.1027
 5705SOL     OW28750   0.611   0.056   9.123 -0.1439  0.5361  0.0592
 5705SOL    HW128751   0.595   0.077   9.215 -0.1725  0.7215  0.0135
 5705SOL    HW228752   0.697   0.096   9.110  0.1437 -0.0994  0.0075
 5706SOL     OW28753   3.033   0.821   6.384  0.3475  0.3381  0.5099
 5706SOL    HW128754   3.015   0.755   6.317 -1.6552  2.1570 -0.7410
 5706SOL    HW228755   2.988   0.902   6.360 -1.9015 -0.8882  0.5817
 5707SOL     OW28756   2.701   2.456   8.517  0.0218  0.2076  0.2229
 5707SOL    HW128757   2.654   2.480   8.597  0.0266 -1.3067  0.6658
 5707SOL    HW228758   2.664   2.372   8.490  0.8510 -0.7290  1.9539
 5708SOL     OW28759   2.390   3.172   0.168  0.5425 -0.0247  0.1896
 5708SOL    HW128760   2.455   3.243   0.172  0.7863 -0.2070 -0.4910
 5708SOL    HW228761   2.345   3.186   0.085  1.0260 -0.4238 -0.1426
 5709SOL     OW28762   3.709   1.549  14.612 -0.3008  0.2534 -0.8140
 5709SOL    HW128763   3.679   1.556  14.703  0.6562 -1.4355 -0.3772
 5709SOL    HW228764   3.793   1.504  14.613  1.0385  2.7994 -0.2746
 5710SOL     OW28765   0.243   1.353  13.639 -0.0834 -0.2120  0.1160
 5710SOL    HW128766   0.209   1.274  13.681  0.2289 -1.2078 -1.5421
 5710SOL    HW228767   0.333   1.320  13.646  0.4621  1.1480 -0.5055
 5711SOL     OW28768   3.560   1.676  11.309 -0.1317 -0.1517  0.2468
 5711SOL    HW128769   3.541   1.740  11.378  0.0576 -0.3469  0.4774
 5711SOL    HW228770   3.586   1.734  11.237  1.0734  0.4152  1.1455
 5712SOL     OW28771   0.421   4.307   8.618  0.2326 -0.9001 -0.2211
 5712SOL    HW128772   0.428   4.327   8.711 -2.0531  1.3240 -0.5261
 5712SOL    HW228773   0.395   4.215   8.626  0.8370 -0.7967  2.9802
 5713SOL     OW28774   1.466   2.207  10.109 -0.1011 -0.0708  0.5847
 5713SOL    HW128775   1.415   2.287  10.118  1.1516  0.7233  0.6413
 5713SOL    HW228776   1.402   2.153  10.062 -1.5045 -0.0777  2.5330
 5714SOL     OW28777   0.198   1.563   2.737  0.3282  0.3688  0.6950
 5714SOL    HW128778   0.254   1.627   2.692 -0.7497 -0.3070 -1.6284
 5714SOL    HW228779   0.159   1.529   2.656 -0.8913  3.2464  0.0614
 5715SOL     OW28780   1.303   3.154   5.753 -0.2844 -0.0535  0.1118
 5715SOL    HW128781   1.366   3.113   5.812 -0.3225  0.5696  0.5861
 5715SOL    HW228782   1.366   3.185   5.688 -0.6361 -0.4679 -0.4293
 5716SOL     OW28783   0.118   0.258   5.966 -0.2347  0.0517 -0.0641
 5716SOL    HW128784   0.044   0.273   5.908 -1.3034 -0.4207  1.1921
 5716SOL    HW228785   0.084   0.209   6.041 -3.5488  0.2386 -1.4743
 5717SOL     OW28786   3.877   0.626   9.105 -0.2798 -0.3133 -0.6415
 5717SOL    HW128787   3.828   0.545   9.119 -2.0736  1.2210  1.8048
 5717SOL    HW228788   3.940   0.596   9.039  0.1471  0.4093 -0.5596
 5718SOL     OW28789   1.847   2.728   3.904  0.0029  0.1257 -0.2694
 5718SOL    HW128790   1.907   2.786   3.858 -1.5323  1.9323 -0.0245
 5718SOL    HW228791   1.785   2.795   3.934 -1.2087 -1.2912  0.3915
 5719SOL     OW28792   4.063   2.601   8.164  0.0928 -0.7697 -0.0235
 5719SOL    HW128793   3.973   2.570   8.171 -0.2561  0.3191  0.3355
 5719SOL    HW228794   4.088   2.616   8.255  2.4914  0.3059 -0.8477
 5720SOL     OW28795   2.641   3.355   2.850 -0.1842 -0.2742 -0.3331
 5720SOL    HW128796   2.660   3.305   2.929  1.1074  0.7429 -0.0096
 5720SOL    HW228797   2.590   3.427   2.886  0.3558  0.1532 -0.4262
 5721SOL     OW28798   2.729   1.440   2.112  0.1209  0.1549  0.9418
 5721SOL    HW128799   2.819   1.458   2.139 -0.5121  2.9065  1.1936
 5721SOL    HW228800   2.710   1.352   2.145 -1.4271  0.7545  1.6234
 5722SOL     OW28801   3.412   2.080   2.925  0.1510  0.1454  0.1203
 5722SOL    HW128802   3.408   2.042   3.013  0.4340 -1.0126 -0.3622
 5722SOL    HW228803   3.503   2.061   2.904 -0.0779 -0.5042 -0.2913
 5723SOL     OW28804   1.122   0.938   1.721 -0.1483  0.9593 -0.1633
 5723SOL    HW128805   1.213   0.921   1.742 -0.5841 -0.5517  0.4759
 5723SOL    HW228806   1.132   0.952   1.626 -0.3702  1.3719 -0.1267
 5724SOL     OW28807   4.297   4.010   4.775 -0.3893  0.1236 -0.5899
 5724SOL    HW128808   4.322   3.968   4.857 -1.9605  1.2359  0.4613
 5724SOL    HW228809   4.247   4.089   4.796 -1.6169 -0.9665  0.6808
 5725SOL     OW28810   0.368   2.075   9.553 -0.1556  0.3937 -0.1526
 5725SOL    HW128811   0.431   2.039   9.615  0.2909 -1.4649 -1.6666
 5725SOL    HW228812   0.370   2.029   9.469  1.6933  0.6227 -0.2210
 5726SOL     OW28813   0.119   0.007  15.925 -0.0807 -0.0235  0.0073
 5726SOL    HW128814   0.093   4.680  15.993 -2.0995  0.3523 -0.3967
 5726SOL    HW228815   0.151   4.682  15.859 -1.7851  1.7932 -2.4925
 5727SOL     OW28816   2.258   4.695   4.255 -0.0123 -0.0316  0.7123
 5727SOL    HW128817   2.319   4.723   4.187  0.6112 -1.7855  0.5502
 5727SOL    HW228818   2.252   0.032   4.317  0.2870  1.1513 -0.6774
 5728SOL     OW28819   4.279   3.934   6.747  0.1917 -0.1978  0.7522
 5728SOL    HW128820   4.257   3.986   6.824 -0.0674  1.0135 -0.1399
 5728SOL    HW228821   4.198   3.945   6.697  0.9544 -1.3276 -0.7015
 5729SOL     OW28822   0.885   0.785   3.054  0.1493  0.0306  0.1910
 5729SOL    HW128823   0.970   0.742   3.065  1.1051  2.3130  1.7165
 5729SOL    HW228824   0.834   0.737   2.989 -0.4155  0.1277  0.5571
 5730SOL     OW28825   1.434   1.475  16.230 -0.4965  0.2866 -0.2735
 5730SOL    HW128826   1.429   1.533  16.306 -0.7780 -1.4325  1.0229
 5730SOL    HW228827   1.415   1.534  16.157  0.8557  1.2041  0.1154
 5731SOL     OW28828   3.732   4.700   8.450 -0.1032  0.3491 -0.3834
 5731SOL    HW128829   3.752   0.039   8.505  0.5903  0.2063 -0.4375
 5731SOL    HW228830   3.774   4.626   8.494 -0.8752  1.1271  1.6547
 5732SOL     OW28831   0.391   0.882   7.382 -0.3723  0.3216  0.3710
 5732SOL    HW128832   0.373   0.969   7.416  1.1201  0.5744  0.5476
 5732SOL    HW228833   0.336   0.828   7.439 -0.5897  0.5812  0.4013
 5733SOL     OW28834   1.761   2.303   4.565 -0.4113 -0.3870  0.2923
 5733SOL    HW128835   1.721   2.259   4.490 -1.4802  1.3965 -0.1862
 5733SOL    HW228836   1.683   2.355   4.588 -0.7446 -0.2778 -1.0645
 5734SOL     OW28837   4.181   1.154  14.580  1.1197  0.0226 -0.1939
 5734SOL    HW128838   4.230   1.213  14.523  1.0556  0.7936  0.5445
 5734SOL    HW228839   4.249   1.086  14.576 -0.6300 -1.7792  0.6188
 5735SOL     OW28840   0.893   1.823   5.965 -0.2679  0.2308 -0.1324
 5735SOL    HW128841   0.847   1.767   5.903  0.9495 -0.7898 -0.1167
 5735SOL    HW228842   0.836   1.830   6.042 -2.9393 -2.2236 -1.8739
 5736SOL     OW28843   0.927   3.654   6.352  0.0951  0.3955  0.6508
 5736SOL    HW128844   0.943   3.742   6.387  1.4510 -0.2288  1.5909
 5736SOL    HW228845   0.991   3.638   6.283  0.4208  3.2929  0.2890
 5737SOL     OW28846   4.713   1.256  17.449  0.2485 -0.6454 -0.4866
 5737SOL    HW128847   0.030   1.200  17.392  0.4199 -0.9522 -0.0319
 5737SOL    HW228848   4.646   1.198  17.486  1.0710 -0.8314  0.7394
 5738SOL     OW28849   0.761   0.025   2.689  0.5208 -0.1044 -0.3992
 5738SOL    HW128850   0.741   0.103   2.741  1.0228  0.0468 -0.4337
 5738SOL    HW228851   0.745   0.062   2.602  0.5291 -3.2529 -1.7369
 5739SOL     OW28852   0.718   2.882   5.086  0.3549 -0.0139  0.4721
 5739SOL    HW128853   0.718   2.955   5.148  1.3268  0.0604  0.3893
 5739SOL    HW228854   0.801   2.837   5.103  0.6952  1.0639  1.6704
 5740SOL     OW28855   4.685   1.903   2.580  0.4566 -0.3630 -0.3086
 5740SOL    HW128856   4.711   1.815   2.555  0.9466 -0.0766 -0.8174
 5740SOL    HW228857   0.009   1.954   2.526 -0.6289  1.2971  0.0148
 5741SOL     OW28858   3.863   3.427   8.612 -0.6043  0.1716  0.4135
 5741SOL    HW128859   3.835   3.343   8.647  1.5961  0.5618  3.0711
 5741SOL    HW228860   3.857   3.419   8.516 -0.4101  1.2976  0.3096
 5742SOL     OW28861   0.091   0.557   7.920  0.2717  0.1239  0.0088
 5742SOL    HW128862   0.005   0.560   7.878 -0.6396 -1.1654  1.7617
 5742SOL    HW228863   0.148   0.515   7.856 -0.9697 -0.5092 -0.6892
 5743SOL     OW28864   4.593   4.001   6.726 -0.4367 -0.8081  0.0792
 5743SOL    HW128865   4.636   3.994   6.811  0.7921 -1.4273 -0.5893
 5743SOL    HW228866   4.516   3.945   6.730 -1.4657  0.6451  0.2996
 5744SOL     OW28867   1.418   3.276   8.735 -0.3680  0.2485 -0.3224
 5744SOL    HW128868   1.486   3.304   8.795  0.0530  0.4093 -0.8804
 5744SOL    HW228869   1.442   3.186   8.714 -0.4525 -0.0575  0.8785
 5745SOL     OW28870   3.941   4.352   2.186  0.0379 -0.0002 -0.1050
 5745SOL    HW128871   3.866   4.338   2.243 -0.7244  1.8545 -0.6342
 5745SOL    HW228872   3.907   4.312   2.106  0.5760 -1.0483  0.1926
 5746SOL     OW28873   2.131   0.368   9.791  0.1381  0.0823 -0.6998
 5746SOL    HW128874   2.080   0.338   9.716 -0.4571 -0.3103 -0.1481
 5746SOL    HW228875   2.091   0.308   9.854  1.2815 -0.0680 -0.1210
 5747SOL     OW28876   4.121   3.211   8.710 -0.4339 -0.2696  0.2369
 5747SOL    HW128877   4.100   3.284   8.768  1.4982  0.2175  0.3376
 5747SOL    HW228878   4.041   3.200   8.660  1.2760 -0.2472 -2.4917
 5748SOL     OW28879   4.081   4.392  12.654  0.0989 -0.6288 -0.3903
 5748SOL    HW128880   4.147   4.344  12.705 -0.4986 -2.1088 -1.0214
 5748SOL    HW228881   4.026   4.425  12.725  4.3282  1.5391  1.9492
 5749SOL     OW28882   1.158   2.448  16.579 -0.2640  0.5104  0.2042
 5749SOL    HW128883   1.128   2.526  16.533 -0.6117 -0.0661 -0.5626
 5749SOL    HW228884   1.077   2.401  16.599 -1.1922  2.1636  0.2712
 5750SOL     OW28885   4.247   1.767   8.575  0.4644  0.1430 -0.6079
 5750SOL    HW128886   4.234   1.673   8.558  2.2678 -0.2659  0.2667
 5750SOL    HW228887   4.329   1.762   8.625 -0.4690  1.6330  1.0530
 5751SOL     OW28888   2.972   2.458   7.548  0.4259 -0.0196  0.5961
 5751SOL    HW128889   2.901   2.448   7.485  0.3849 -1.4613  0.8637
 5751SOL    HW228890   2.936   2.402   7.617 -0.7791  0.9069  0.7239
 5752SOL     OW28891   0.242   1.623   3.927  0.1123  0.7740 -0.0479
 5752SOL    HW128892   0.173   1.573   3.970 -1.5932  2.5096 -0.7479
 5752SOL    HW228893   0.187   1.685   3.878 -1.2870  0.7783  1.5398
 5753SOL     OW28894   2.202   0.558   5.975 -0.5609  0.3459  0.1344
 5753SOL    HW128895   2.164   0.606   5.901 -0.9698  1.2831  0.9592
 5753SOL    HW228896   2.207   0.467   5.944 -2.3907 -0.5766  2.5266
 5754SOL     OW28897   1.178   4.084   1.690 -0.5818  0.1022 -0.2581
 5754SOL    HW128898   1.162   3.990   1.680  2.2893 -0.1357 -2.8908
 5754SOL    HW228899   1.113   4.109   1.755  0.4119  1.7017  0.0988
 5755SOL     OW28900   0.727   0.645   1.935  0.6809  0.7949  0.2103
 5755SOL    HW128901   0.723   0.553   1.961  1.2176  1.1784  1.6990
 5755SOL    HW228902   0.773   0.641   1.852 -1.3817  1.0683 -0.9452
 5756SOL     OW28903   2.888   1.025   4.118 -0.5952  0.2883 -0.0087
 5756SOL    HW128904   2.880   0.941   4.164 -0.8693  0.0527 -0.4917
 5756SOL    HW228905   2.896   1.086   4.192  0.7877 -1.3825  1.2035
 5757SOL     OW28906   0.710   0.013   6.717  0.2087  0.3889  0.3976
 5757SOL    HW128907   0.785   0.035   6.771  1.1613 -0.4771 -0.5568
 5757SOL    HW228908   0.735   4.666   6.675 -0.2529 -0.1400  1.1765
 5758SOL     OW28909   3.017   0.510   8.959 -0.3077  0.0549  0.0033
 5758SOL    HW128910   3.006   0.424   9.000 -1.4485  0.4503  0.5293
 5758SOL    HW228911   2.952   0.508   8.889 -1.5134 -0.7534  1.1444
 5759SOL     OW28912   3.503   3.760   3.722 -0.2425 -0.9854  0.2770
 5759SOL    HW128913   3.449   3.733   3.797  0.1832  0.1987  1.0170
 5759SOL    HW228914   3.591   3.733   3.748  1.2408  1.0694 -2.6471
 5760SOL     OW28915   1.071   2.586  17.541  0.5551 -0.1447  0.7355
 5760SOL    HW128916   1.130   2.621  17.608  0.4534 -2.1005  1.8512
 5760SOL    HW228917   1.124   2.529  17.485  0.6744 -0.4997  1.2069
 5761SOL     OW28918   3.026   4.513   1.562  0.2337  0.3892  0.8009
 5761SOL    HW128919   2.971   4.545   1.634 -1.2106 -2.6305  1.0553
 5761SOL    HW228920   3.009   4.586   1.502 -0.4861 -0.1096  0.4001
 5762SOL     OW28921   2.081   3.989   7.298 -0.1353  0.0830  0.0485
 5762SOL    HW128922   2.130   4.056   7.251 -1.5325  2.0769  1.4605
 5762SOL    HW228923   2.134   3.912   7.278 -0.8773 -0.4355  0.0729
 5763SOL     OW28924   1.196   4.159  16.433  0.2042 -0.2956  0.0095
 5763SOL    HW128925   1.140   4.182  16.507  0.8591  1.6873 -0.1394
 5763SOL    HW228926   1.177   4.065  16.438  0.3479 -0.2099  2.4754
 5764SOL     OW28927   3.817   0.631   6.093  0.3236  0.0597  0.0770
 5764SOL    HW128928   3.729   0.611   6.126 -0.8067  1.6417 -1.9186
 5764SOL    HW228929   3.803   0.707   6.036 -1.0789  0.6059  1.1657
 5765SOL     OW28930   4.529   0.146   6.721 -0.2562 -0.1591  0.5042
 5765SOL    HW128931   4.522   0.083   6.649  0.2614 -0.0651  0.3730
 5765SOL    HW228932   4.621   0.129   6.740  0.3567  1.8873 -0.5352
 5766SOL     OW28933   0.517   2.929   9.095  0.0101 -0.6433 -0.3558
 5766SOL    HW128934   0.589   2.977   9.054  0.7925 -1.8079 -0.3478
 5766SOL    HW228935   0.557   2.898   9.176 -1.8418 -0.7672  0.4934
 5767SOL     OW28936   4.689   3.973  17.175  0.4569  0.0690 -0.3789
 5767SOL    HW128937   4.614   3.991  17.118 -0.2714  0.4219  0.6850
 5767SOL    HW228938   4.712   3.887  17.140  1.2088 -0.1831  0.7442
 5768SOL     OW28939   1.462   2.974   3.023  0.1664  0.3492  0.2817
 5768SOL    HW128940   1.535   2.922   2.990 -0.2979 -0.2416  0.1983
 5768SOL    HW228941   1.402   2.971   2.948  1.2927  1.1644 -0.6653
 5769SOL     OW28942   4.734   3.715   6.348 -0.3346 -0.2217  0.3625
 5769SOL    HW128943   0.038   3.756   6.425  0.8110  1.8215 -1.3339
 5769SOL    HW228944   4.694   3.789   6.302 -1.1694 -0.5242  0.6127
 5770SOL     OW28945   3.254   0.778   2.267 -0.2292  0.1027 -0.0773
 5770SOL    HW128946   3.198   0.701   2.265  1.0227 -0.7841 -1.1660
 5770SOL    HW228947   3.341   0.740   2.276 -0.3772 -0.3341 -0.4774
 5771SOL     OW28948   2.835   2.569   0.562  0.6963  0.4742  0.1677
 5771SOL    HW128949   2.743   2.549   0.575  1.2615  0.5223  4.3237
 5771SOL    HW228950   2.868   2.564   0.652 -1.6294 -0.8772  0.9416
 5772SOL     OW28951   1.317   2.626   6.490  0.2523 -0.0528  0.2824
 5772SOL    HW128952   1.411   2.613   6.476  0.2038 -0.5032  0.3724
 5772SOL    HW228953   1.322   2.655   6.581  0.5338  0.1396  0.2078
 5773SOL     OW28954   4.627   3.154   8.826  0.0927  0.5356 -0.2717
 5773SOL    HW128955   4.598   3.178   8.738 -2.3785  3.4897  1.3176
 5773SOL    HW228956   4.627   3.237   8.874 -1.9317 -0.0635  0.7875
 5774SOL     OW28957   4.580   0.034  13.593  0.2388 -0.9494  0.1975
 5774SOL    HW128958   4.651   0.067  13.648  0.0787 -0.6517  0.2277
 5774SOL    HW228959   4.519   0.007  13.662 -1.2547  0.3840 -0.6022
 5775SOL     OW28960   1.096   0.366   9.645  0.4775  0.0411 -0.0756
 5775SOL    HW128961   1.148   0.288   9.663  0.2612 -0.4897 -1.7449
 5775SOL    HW228962   1.161   0.434   9.664 -0.6874  1.7416 -2.1406
 5776SOL     OW28963   4.092   0.090   5.737  0.0661  0.2392  0.4415
 5776SOL    HW128964   4.184   0.118   5.741 -0.6413  2.6682 -0.7725
 5776SOL    HW228965   4.043   0.169   5.757 -0.5621  0.0653 -0.4196
 5777SOL     OW28966   0.796   2.695   3.778 -0.1118 -0.2622 -0.2640
 5777SOL    HW128967   0.783   2.636   3.852 -0.9024 -0.2907 -0.4282
 5777SOL    HW228968   0.816   2.777   3.822  1.5932 -0.4557 -0.6744
 5778SOL     OW28969   1.557   3.686   5.030 -0.0669  0.0468 -0.4747
 5778SOL    HW128970   1.571   3.726   5.116  0.1700  1.2398 -1.0642
 5778SOL    HW228971   1.472   3.645   5.042 -0.2065  0.4851  0.0191
 5779SOL     OW28972   2.247   2.297  12.106  0.0586  0.3347  0.4229
 5779SOL    HW128973   2.313   2.362  12.081  0.3713  0.5722  1.8240
 5779SOL    HW228974   2.204   2.276  12.024  0.5505 -2.1595  0.7967
 5780SOL     OW28975   3.542   2.564   0.887 -0.2765  0.0486  0.1808
 5780SOL    HW128976   3.561   2.566   0.794 -1.5501  0.1926 -0.0812
 5780SOL    HW228977   3.564   2.473   0.905  0.7731 -0.1997 -2.4226
 5781SOL     OW28978   0.862   1.269   2.050 -0.4364  0.2046  0.4152
 5781SOL    HW128979   0.884   1.190   2.098  0.7700  0.5558  0.4193
 5781SOL    HW228980   0.856   1.237   1.959  1.2729  1.2629 -0.0522
 5782SOL     OW28981   2.402   3.434   3.960 -0.5316  0.7524  0.2213
 5782SOL    HW128982   2.452   3.370   3.909 -0.8277  0.9234 -0.2830
 5782SOL    HW228983   2.353   3.467   3.884 -2.4433  0.8648  1.4941
 5783SOL     OW28984   1.631   4.130  16.676 -0.2089  0.1441  0.1506
 5783SOL    HW128985   1.648   4.218  16.707  1.2935 -0.4494  1.0048
 5783SOL    HW228986   1.594   4.142  16.589  0.6890  0.8816 -0.1226
 5784SOL     OW28987   2.682   0.166   1.519 -0.3673 -0.3487 -0.1876
 5784SOL    HW128988   2.726   0.176   1.434 -0.3179  0.5436 -0.0631
 5784SOL    HW228989   2.618   0.098   1.498 -1.0455  0.0026  0.7420
 5785SOL     OW28990   3.251   4.728   5.320 -0.0594  0.1312  0.3841
 5785SOL    HW128991   3.204   0.057   5.373  2.5584  0.5616  2.1620
 5785SOL    HW228992   3.178   4.670   5.296  1.5663 -2.2742  1.2529
 5786SOL     OW28993   4.627   0.700   8.403  0.0288  0.2957  0.4111
 5786SOL    HW128994   4.636   0.790   8.371 -0.1359  0.0649 -0.2654
 5786SOL    HW228995   4.673   0.653   8.334 -2.0622  1.0746 -1.5055
 5787SOL     OW28996   2.336   3.854   7.253 -0.6402  0.0958  0.0745
 5787SOL    HW128997   2.419   3.894   7.227  0.6245 -0.8357  2.5824
 5787SOL    HW228998   2.318   3.800   7.177 -2.0250 -0.5785  0.8709
 5788SOL     OW28999   2.003   0.149   7.285  0.3020 -0.0672  0.3418
 5788SOL    HW129000   2.069   0.098   7.331  0.4818  2.2177  2.6209
 5788SOL    HW229001   1.948   0.181   7.357 -0.3711 -1.0503  0.2636
 5789SOL     OW29002   0.382   3.149  10.733 -0.4119 -0.1039  0.2969
 5789SOL    HW129003   0.460   3.094  10.729 -0.5947 -0.4482  1.5170
 5789SOL    HW229004   0.353   3.139  10.642 -0.0953  1.2468  0.0551
 5790SOL     OW29005   0.333   0.460   3.920  0.4266 -0.7851 -0.4393
 5790SOL    HW129006   0.361   0.520   3.850 -0.1833  0.9304  0.7686
 5790SOL    HW229007   0.319   0.377   3.875  1.3966 -1.5109  0.5831
 5791SOL     OW29008   4.720   1.064   6.751  0.0219 -0.0157 -0.2452
 5791SOL    HW129009   0.030   1.148   6.752  0.0379 -0.0498  1.4790
 5791SOL    HW229010   4.649   1.083   6.689 -0.1335 -0.2476 -0.1399
 5792SOL     OW29011   1.568   0.563   9.152 -0.2187  0.3678 -0.3623
 5792SOL    HW129012   1.567   0.656   9.129 -1.1858  0.4448  0.0105
 5792SOL    HW229013   1.648   0.528   9.113 -0.4040 -1.3412  0.7834
 5793SOL     OW29014   3.421   1.164   5.625  0.4167 -0.5936 -0.2398
 5793SOL    HW129015   3.477   1.099   5.583  0.0027 -2.0252  1.4255
 5793SOL    HW229016   3.382   1.204   5.547  0.6330 -0.1068 -0.0943
 5794SOL     OW29017   4.186   2.898  10.883  0.6129 -0.9375 -0.1913
 5794SOL    HW129018   4.273   2.936  10.898 -0.0543  1.1448 -1.6344
 5794SOL    HW229019   4.191   2.865  10.793  0.0509  0.7742 -0.8344
 5795SOL     OW29020   0.948   0.011   6.374  0.2766  0.0525  0.0228
 5795SOL    HW129021   0.970   4.688   6.446  0.4921  1.5196  1.1950
 5795SOL    HW229022   0.978   4.700   6.297  0.0142  0.3961 -0.2887
 5796SOL     OW29023   0.635   4.131   5.651  0.1023  0.1602  0.8448
 5796SOL    HW129024   0.561   4.150   5.592  1.2670  2.8993  0.2970
 5796SOL    HW229025   0.689   4.201   5.615  0.6781 -0.5526  0.3251
 5797SOL     OW29026   3.570   3.928  11.589  0.5064  0.6979  0.1626
 5797SOL    HW129027   3.592   3.939  11.496  0.1839  0.5985  0.0744
 5797SOL    HW229028   3.647   3.970  11.628  2.6830 -3.1139  0.0432
 5798SOL     OW29029   0.907   2.360   5.275 -0.2349 -0.8890  0.3672
 5798SOL    HW129030   0.941   2.368   5.186 -0.3439 -1.3234  0.2853
 5798SOL    HW229031   0.958   2.284   5.305  1.4439 -0.0586 -0.3841
 5799SOL     OW29032   2.832   2.227   1.040 -0.2268 -0.1072  1.2455
 5799SOL    HW129033   2.873   2.300   1.087 -0.0363  2.0233 -2.1747
 5799SOL    HW229034   2.790   2.266   0.963  1.5971  0.1620  0.3874
 5800SOL     OW29035   3.911   3.930   8.522 -0.0399  0.3544  0.2798
 5800SOL    HW129036   3.951   3.954   8.439  0.8053 -1.4671  0.1582
 5800SOL    HW229037   3.841   3.993   8.538  1.0262  0.7855  3.4029
 5801SOL     OW29038   3.353   2.428   0.120  1.1374 -0.0437  0.0999
 5801SOL    HW129039   3.403   2.417   0.039 -0.5193  0.0515 -0.9348
 5801SOL    HW229040   3.264   2.407   0.091  1.7241 -0.7851 -1.1460
 5802SOL     OW29041   1.405   0.729   0.680  0.2357 -0.5815  0.0170
 5802SOL    HW129042   1.374   0.680   0.604 -0.8014 -0.9977  0.7188
 5802SOL    HW229043   1.334   0.794   0.683  0.3704 -0.4031 -0.7125
 5803SOL     OW29044   1.247   0.001  13.045  0.4648 -0.1712  0.6592
 5803SOL    HW129045   1.321   0.036  13.094  0.7486 -1.8723  1.4411
 5803SOL    HW229046   1.182   0.071  13.040 -0.3897 -0.9566  0.7563
 5804SOL     OW29047   4.073   4.599  10.671 -0.0307  0.1908  0.3254
 5804SOL    HW129048   4.143   4.548  10.714  1.2175  0.4340 -1.4151
 5804SOL    HW229049   4.118   4.682  10.686 -2.9886  2.2017 -1.9326
 5805SOL     OW29050   1.830   1.680   6.156 -0.1649 -0.0928  0.4352
 5805SOL    HW129051   1.834   1.766   6.114 -1.9388  0.4736  1.4363
 5805SOL    HW229052   1.736   1.672   6.167 -0.2630  1.0653  0.4318
 5806SOL     OW29053   0.570   1.184   6.138 -0.0119 -0.7096 -0.9610
 5806SOL    HW129054   0.500   1.146   6.192  0.1417 -1.0076 -0.9710
 5806SOL    HW229055   0.639   1.198   6.204  0.0969  2.0220 -1.6505
 5807SOL     OW29056   0.523   1.463  17.454 -0.3129 -0.3219 -0.1909
 5807SOL    HW129057   0.558   1.536  17.504 -2.0949  0.9701 -0.8114
 5807SOL    HW229058   0.498   1.512  17.375 -0.2252  0.3463  0.1975
 5808SOL     OW29059   0.906   3.870   6.995 -0.1823 -0.7835  0.1450
 5808SOL    HW129060   0.864   3.786   7.013 -2.6191 -0.0253 -1.9406
 5808SOL    HW229061   0.987   3.864   7.045 -1.9391 -0.0036  3.1151
 5809SOL     OW29062   2.490   3.649   4.814 -0.0582 -0.7225  0.2999
 5809SOL    HW129063   2.580   3.671   4.837 -0.1275  1.0875 -1.1528
 5809SOL    HW229064   2.458   3.738   4.796 -0.3741 -1.4277 -2.5817
 5810SOL     OW29065   2.346   4.117   5.568 -0.2802  0.0198 -0.2554
 5810SOL    HW129066   2.421   4.173   5.547  0.2050 -0.0644  1.2384
 5810SOL    HW229067   2.357   4.090   5.659 -0.3863 -0.0079 -0.2509
 5811SOL     OW29068   2.282   2.360   5.198  0.6072 -0.1150 -0.0515
 5811SOL    HW129069   2.226   2.334   5.125 -1.1701 -0.8524  1.5722
 5811SOL    HW229070   2.364   2.364   5.149  0.2918  3.5583 -0.2573
 5812SOL     OW29071   1.507   1.558  16.918 -0.1327 -0.1411  0.3138
 5812SOL    HW129072   1.539   1.492  16.857  2.2124  0.8856  0.4189
 5812SOL    HW229073   1.525   1.513  17.000  1.6254 -2.0481 -1.1043
 5813SOL     OW29074   0.603   1.675  10.727 -0.0509 -0.0369 -0.1240
 5813SOL    HW129075   0.673   1.694  10.665 -0.9460  2.0730 -0.4994
 5813SOL    HW229076   0.603   1.581  10.743  1.5679  0.0267  0.1808
 5814SOL     OW29077   4.271   4.350   8.256  0.3747 -0.3641 -0.0022
 5814SOL    HW129078   4.294   4.300   8.334 -0.6749  1.9345  1.7807
 5814SOL    HW229079   4.193   4.395   8.288 -0.1723 -1.6821  0.5087
 5815SOL     OW29080   2.643   0.995   4.428  0.1977 -0.4217  0.5245
 5815SOL    HW129081   2.635   0.899   4.435 -1.1762 -0.3957 -0.6449
 5815SOL    HW229082   2.558   1.022   4.395  0.7263 -0.7373 -1.1124
 5816SOL     OW29083   3.914   1.883   8.947 -0.4775 -0.2067  0.1605
 5816SOL    HW129084   3.967   1.853   8.873  0.3005 -0.6398  0.8729
 5816SOL    HW229085   3.988   1.897   9.007 -1.2116  0.1763  0.9771
 5817SOL     OW29086   1.574   0.939   5.034 -0.5360  0.1286  0.4827
 5817SOL    HW129087   1.623   0.987   4.966 -0.3096  1.0634  1.2994
 5817SOL    HW229088   1.497   0.922   4.981 -1.4184  0.1074  1.7696
 5818SOL     OW29089   2.795   3.650   6.013  0.1802 -0.1392 -0.3500
 5818SOL    HW129090   2.885   3.621   5.998  0.9162  1.8506  0.2417
 5818SOL    HW229091   2.745   3.603   5.947 -0.0793 -0.4761  0.0859
 5819SOL     OW29092   4.105   0.235  13.538 -0.2293 -0.4374  0.3850
 5819SOL    HW129093   4.093   0.230  13.443  0.7080 -3.2116  0.4019
 5819SOL    HW229094   4.074   0.148  13.564 -0.2940 -0.6415 -0.3761
 5820SOL     OW29095   0.877   1.588  10.216 -0.0292 -0.1733  0.5047
 5820SOL    HW129096   0.935   1.608  10.143 -0.5868  2.5413  0.8158
 5820SOL    HW229097   0.868   1.495  10.193 -1.1257 -0.4627  2.1545
 5821SOL     OW29098   0.155   3.700   8.579  0.3816 -0.5455 -0.1272
 5821SOL    HW129099   0.189   3.689   8.668 -0.1866 -0.9432  0.0399
 5821SOL    HW229100   0.060   3.696   8.580  0.3952 -0.9139 -1.1130
 5822SOL     OW29101   0.122   1.630   8.553  0.4991  0.3104  0.1025
 5822SOL    HW129102   0.147   1.680   8.474 -0.6797  0.5616 -0.1125
 5822SOL    HW229103   0.033   1.603   8.533  0.6300 -0.4850  0.6332
 5823SOL     OW29104   3.767   4.673   1.539 -0.1759 -0.5002  0.0002
 5823SOL    HW129105   3.804   4.721   1.465  2.4377 -4.0147 -0.9904
 5823SOL    HW229106   3.690   4.630   1.501  0.1514 -0.7459 -0.3839
 5824SOL     OW29107   3.621   1.571   0.351 -0.9225  0.5544  0.2604
 5824SOL    HW129108   3.534   1.578   0.312 -0.8054  0.3707 -0.0351
 5824SOL    HW229109   3.617   1.635   0.422  1.0713 -0.6133  1.4081
 5825SOL     OW29110   3.875   2.591   7.944  0.6880 -0.1101  0.0583
 5825SOL    HW129111   3.826   2.511   7.964 -1.5032  1.0340 -0.8564
 5825SOL    HW229112   3.966   2.561   7.949  0.6443 -0.7511 -3.0523
 5826SOL     OW29113   0.992   3.683   4.784  0.4666  0.1685 -0.3660
 5826SOL    HW129114   1.025   3.655   4.699  0.6799 -0.8429  0.0468
 5826SOL    HW229115   1.061   3.745   4.807 -0.1625  0.4061  0.9051
 5827SOL     OW29116   3.845   1.823   2.196 -0.3466 -0.1157 -0.0881
 5827SOL    HW129117   3.787   1.876   2.251 -1.3379  0.6701 -1.9175
 5827SOL    HW229118   3.924   1.825   2.251 -0.9339  2.6878  0.6467
 5828SOL     OW29119   1.924   0.260   9.094 -0.2655  0.2821 -0.0615
 5828SOL    HW129120   1.975   0.341   9.085 -0.9913  1.1227  3.2231
 5828SOL    HW229121   1.909   0.235   9.003  1.1181 -0.1258 -0.1673
 5829SOL     OW29122   4.087   4.680   8.815 -0.2130 -0.1546 -0.0165
 5829SOL    HW129123   4.011   4.691   8.873 -0.0321 -2.6189  0.6818
 5829SOL    HW229124   4.104   0.038   8.803 -0.6669  0.3053  2.9608
 5830SOL     OW29125   3.851   2.693   1.300 -0.1383  0.1301 -0.2632
 5830SOL    HW129126   3.901   2.613   1.283  0.9720  1.0705 -1.4406
 5830SOL    HW229127   3.768   2.657   1.267  0.0726  2.3097 -3.1124
 5831SOL     OW29128   1.599   3.309   5.954 -0.0210 -0.3890  0.5407
 5831SOL    HW129129   1.645   3.233   5.919  0.2303  0.3791 -0.8139
 5831SOL    HW229130   1.675   3.365   5.968  0.6544 -0.9051 -1.0904
 5832SOL     OW29131   1.471   4.594   3.390  0.5860 -0.1832  0.5277
 5832SOL    HW129132   1.546   4.647   3.362  1.1696 -0.2385  1.9635
 5832SOL    HW229133   1.519   4.515   3.418  1.7409  0.7467  1.2111
 5833SOL     OW29134   0.039   3.526   5.046 -0.2732  0.2234  0.0091
 5833SOL    HW129135   4.727   3.444   5.050 -0.5186  0.2278 -2.5575
 5833SOL    HW229136   0.124   3.506   5.008  0.2284 -1.2383  1.9162
 5834SOL     OW29137   1.912   0.526   4.584 -0.2839 -0.4858  0.3878
 5834SOL    HW129138   1.879   0.556   4.500  0.6713 -3.7245 -1.1140
 5834SOL    HW229139   1.857   0.448   4.590 -0.1841 -0.5950 -0.1178
 5835SOL     OW29140   3.295   3.967   6.278 -0.2279 -0.2011 -0.0497
 5835SOL    HW129141   3.276   3.889   6.226 -2.1914  0.8378 -0.8993
 5835SOL    HW229142   3.333   4.030   6.217 -0.8890  0.3136  0.0621
 5836SOL     OW29143   3.878   0.180   9.988  0.6867 -0.3069  0.1417
 5836SOL    HW129144   3.896   0.093  10.024 -0.1519 -1.1112 -1.3864
 5836SOL    HW229145   3.933   0.183   9.910  1.1303 -1.7099  0.3844
 5837SOL     OW29146   3.392   2.258  10.770 -0.2305  0.4537 -0.4048
 5837SOL    HW129147   3.452   2.185  10.785 -0.1608  0.1494 -2.2385
 5837SOL    HW229148   3.315   2.222  10.727  0.2628  1.0692 -1.8257
 5838SOL     OW29149   1.271   0.204  14.739  0.2158 -0.1427  0.0784
 5838SOL    HW129150   1.361   0.237  14.751  0.3633 -1.2032  1.9286
 5838SOL    HW229151   1.290   0.114  14.712 -1.2917 -0.4074 -0.0920
 5839SOL     OW29152   1.665   1.612   8.512  0.5183  0.0556 -0.1861
 5839SOL    HW129153   1.650   1.665   8.433 -2.5181  2.3808  1.9357
 5839SOL    HW229154   1.587   1.558   8.516  0.0618  0.7302  0.0871
 5840SOL     OW29155   0.492   3.599   7.695  0.2394 -0.2266  0.3190
 5840SOL    HW129156   0.400   3.584   7.713 -0.2179  1.3847 -0.7195
 5840SOL    HW229157   0.486   3.635   7.607  1.4025  2.2817  1.2690
 5841SOL     OW29158   3.718   0.052   5.197  0.3102  0.5561  0.5293
 5841SOL    HW129159   3.737   0.004   5.117 -0.6374 -1.7160  1.6696
 5841SOL    HW229160   3.625   0.064   5.178  0.0622 -0.3622  1.1572
 5842SOL     OW29161   4.408   1.730   0.416  0.0051 -0.2468  0.2188
 5842SOL    HW129162   4.461   1.765   0.344  1.0040  0.3723  1.2554
 5842SOL    HW229163   4.407   1.636   0.398  0.3301 -0.4307  1.1862
 5843SOL     OW29164   3.521   2.320   6.873  0.0346  0.3620  0.1826
 5843SOL    HW129165   3.445   2.280   6.916  1.1713 -2.7799 -0.7593
 5843SOL    HW229166   3.502   2.414   6.877  0.3286  0.4450 -0.4924
 5844SOL     OW29167   3.399   4.264   1.047  0.1827  0.1251  0.5867
 5844SOL    HW129168   3.313   4.237   1.017  0.6740  1.7182 -2.2324
 5844SOL    HW229169   3.380   4.357   1.040  2.0539  0.3710 -1.4486
 5845SOL     OW29170   2.687   0.710   4.480  0.2268 -0.3484  0.4315
 5845SOL    HW129171   2.709   0.621   4.452 -2.1376 -1.4349  2.1082
 5845SOL    HW229172   2.690   0.695   4.574 -1.6227 -2.2328  0.1748
 5846SOL     OW29173   3.850   1.548   8.918 -0.1823  0.0071 -0.1542
 5846SOL    HW129174   3.855   1.468   8.970 -1.5773 -0.5024 -0.8072
 5846SOL    HW229175   3.758   1.545   8.890 -0.2567 -0.2737  0.1236
 5847SOL     OW29176   2.656   1.868   6.975 -0.6221 -0.2466  0.2231
 5847SOL    HW129177   2.628   1.949   7.017  2.7584  0.6972  0.6772
 5847SOL    HW229178   2.651   1.892   6.883 -1.4269 -0.7037  0.1481
 5848SOL     OW29179   2.107   2.727   7.718  0.2915 -0.0541  0.3087
 5848SOL    HW129180   2.173   2.705   7.783  0.1914  0.7261  0.6775
 5848SOL    HW229181   2.026   2.704   7.765  0.8295 -0.0860  1.2055
 5849SOL     OW29182   1.478   3.008  15.813  0.0953 -0.1637  0.2027
 5849SOL    HW129183   1.419   2.984  15.741 -0.3463  2.1902 -0.2090
 5849SOL    HW229184   1.477   3.103  15.806  0.8762 -0.1356  0.5177
 5850SOL     OW29185   2.564   1.690   8.860  0.1730  0.3387  0.3243
 5850SOL    HW129186   2.586   1.597   8.867 -1.7922  0.0822  2.9476
 5850SOL    HW229187   2.480   1.698   8.904  1.1205  5.1859  1.1861
 5851SOL     OW29188   4.232   0.319   2.739  0.4064  1.0768  0.1508
 5851SOL    HW129189   4.196   0.346   2.655  0.0971  0.5210  0.1063
 5851SOL    HW229190   4.320   0.357   2.739  0.8552  0.0358  1.2498
 5852SOL     OW29191   3.775   1.003  11.093 -0.4367  0.0185  0.4624
 5852SOL    HW129192   3.690   1.005  11.050 -0.3402  1.1481  0.3327
 5852SOL    HW229193   3.748   1.017  11.184 -0.8125  2.0081  0.0448
 5853SOL     OW29194   2.766   4.109   7.188  0.3287  0.2618 -0.5663
 5853SOL    HW129195   2.823   4.095   7.263 -1.4324 -1.4521  0.4671
 5853SOL    HW229196   2.692   4.050   7.206 -0.8528  2.0452  0.4921
 5854SOL     OW29197   1.362   3.977   3.756  0.8418  0.0978 -0.1919
 5854SOL    HW129198   1.428   4.045   3.774  0.1427 -0.3495  3.8439
 5854SOL    HW229199   1.280   4.020   3.779 -0.6351 -1.8211 -1.9267
 5855SOL     OW29200   3.449   2.613   6.837 -0.1271 -0.4333  0.8490
 5855SOL    HW129201   3.392   2.685   6.865 -0.3001  0.3213 -1.4488
 5855SOL    HW229202   3.402   2.577   6.763 -1.7915  0.0960  1.6502
 5856SOL     OW29203   0.343   4.323   6.268 -0.4837  0.0220  0.1874
 5856SOL    HW129204   0.402   4.394   6.243 -1.0562  0.3533 -0.2260
 5856SOL    HW229205   0.385   4.267   6.333  0.4082 -0.5194 -0.8620
 5857SOL     OW29206   1.217   2.235  14.746  0.1004 -0.4478  0.3271
 5857SOL    HW129207   1.234   2.257  14.837  0.6289  0.1620  0.0765
 5857SOL    HW229208   1.126   2.265  14.756  0.7890  1.4356  0.9566
 5858SOL     OW29209   0.404   2.854  11.665 -0.4741  0.1422 -0.3185
 5858SOL    HW129210   0.464   2.830  11.595  1.2005  0.1079  1.1413
 5858SOL    HW229211   0.390   2.948  11.649 -1.1113  0.4159  1.8467
 5859SOL     OW29212   3.536   2.916   8.382  0.6322 -0.1258  0.7126
 5859SOL    HW129213   3.463   2.973   8.407  1.2809 -0.1690  2.6644
 5859SOL    HW229214   3.489   2.860   8.321  2.8402 -0.4871 -0.6809
 5860SOL     OW29215   1.430   2.025   3.791 -0.0786  0.1195  0.3218
 5860SOL    HW129216   1.376   1.969   3.847 -0.6874 -0.3570 -0.7413
 5860SOL    HW229217   1.479   1.961   3.739 -1.2319  0.4194 -1.1584
 5861SOL     OW29218   3.823   3.902   3.638 -0.0366  0.2145 -0.1759
 5861SOL    HW129219   3.770   3.917   3.717  1.5941 -0.4897  1.0530
 5861SOL    HW229220   3.837   3.993   3.614 -0.7864 -0.2220 -2.1939
 5862SOL     OW29221   4.284   2.077   7.597  0.0702 -0.4078 -0.6155
 5862SOL    HW129222   4.228   2.084   7.674 -1.0354  0.3666 -1.4979
 5862SOL    HW229223   4.359   2.030   7.634  0.0755  0.5151  0.5609
 5863SOL     OW29224   3.671   4.668  10.091  0.3284  0.1096 -0.0495
 5863SOL    HW129225   3.763   4.658  10.115  0.1940 -0.0373  0.4063
 5863SOL    HW229226   3.650   4.705  10.177 -0.0045  0.5618 -0.3260
 5864SOL     OW29227   4.076   1.586   5.507 -0.1483 -0.2425 -0.2623
 5864SOL    HW129228   4.014   1.659   5.510 -0.2376 -0.2959 -0.8431
 5864SOL    HW229229   4.149   1.621   5.456  0.0338  0.0184  0.1817
 5865SOL     OW29230   0.125   2.870   2.698 -0.4939 -0.4852 -0.1794
 5865SOL    HW129231   0.110   2.786   2.741  0.3755 -0.3235  0.4306
 5865SOL    HW229232   0.110   2.848   2.606  1.2729 -0.0446 -0.5734
 5866SOL     OW29233   0.485   0.875  16.028  0.6851  0.3490  0.4072
 5866SOL    HW129234   0.541   0.799  16.010 -1.3316 -1.6929  2.7344
 5866SOL    HW229235   0.436   0.844  16.104  3.1772 -3.3505  0.5373
 5867SOL     OW29236   3.307   1.627   2.172 -0.1407  0.2781  0.1845
 5867SOL    HW129237   3.351   1.613   2.256  0.6975  2.5289  0.1388
 5867SOL    HW229238   3.340   1.714   2.150 -0.8400  1.0107  2.0286
 5868SOL     OW29239   2.476   2.411   9.343 -0.1355  0.2231 -0.1687
 5868SOL    HW129240   2.412   2.467   9.386  1.2675  1.7341 -0.0625
 5868SOL    HW229241   2.556   2.432   9.392  0.2702 -0.4430 -0.5323
 5869SOL     OW29242   2.584   1.686   7.392 -0.4472 -0.1487 -0.0001
 5869SOL    HW129243   2.665   1.715   7.434 -0.3324  0.3567 -0.5655
 5869SOL    HW229244   2.619   1.678   7.304  0.9034 -1.5154  0.6544
 5870SOL     OW29245   1.245   2.323  11.120  0.4611 -0.6766 -0.2191
 5870SOL    HW129246   1.256   2.241  11.072  1.3450  0.3211 -1.7445
 5870SOL    HW229247   1.155   2.314  11.153  0.3566  1.0390 -0.0060
 5871SOL     OW29248   2.166   0.659   6.621  0.0508 -0.0839 -0.1838
 5871SOL    HW129249   2.191   0.604   6.695 -1.0705 -1.5294 -0.8835
 5871SOL    HW229250   2.228   0.732   6.623 -0.7018  0.6176 -1.8784
 5872SOL     OW29251   0.946   0.884   0.555 -0.2543 -0.0741  0.2746
 5872SOL    HW129252   0.874   0.827   0.528  0.3843 -1.1221  0.7788
 5872SOL    HW229253   0.998   0.884   0.474 -1.0494 -1.2812 -0.2336
 5873SOL     OW29254   2.777   2.623  11.044 -0.4736  0.6433 -0.6003
 5873SOL    HW129255   2.734   2.613  11.128 -0.3806  0.2608 -0.5995
 5873SOL    HW229256   2.760   2.716  11.032  0.3210  0.9216  0.3919
 5874SOL     OW29257   4.190   0.974   1.283  0.3263 -0.4559 -0.3193
 5874SOL    HW129258   4.129   0.916   1.238  2.5269 -0.5227 -3.2377
 5874SOL    HW229259   4.162   0.964   1.374  1.6717 -1.9561 -0.0676
 5875SOL     OW29260   1.865   1.076   2.038 -0.0327 -0.0874 -0.1282
 5875SOL    HW129261   1.943   1.022   2.033  0.8965  1.5291 -2.9729
 5875SOL    HW229262   1.889   1.169   2.034 -0.5444  0.1290  1.6579
 5876SOL     OW29263   3.497   4.526  17.213  0.2835  0.5518 -0.2877
 5876SOL    HW129264   3.416   4.578  17.218  0.3422  1.0778 -4.6270
 5876SOL    HW229265   3.539   4.510  17.297 -4.1626  0.0390  1.8131
 5877SOL     OW29266   0.491   3.138   7.810  0.2322  0.2219  0.4873
 5877SOL    HW129267   0.549   3.064   7.791  2.9228  2.3708  0.2645
 5877SOL    HW229268   0.546   3.203   7.766 -1.5811  1.4000 -0.0024
 5878SOL     OW29269   2.935   1.500  17.508 -0.4863  0.1138  0.2840
 5878SOL    HW129270   2.853   1.478  17.463 -0.7994  2.1649 -0.1633
 5878SOL    HW229271   2.957   1.563  17.439 -1.4883 -1.3139 -1.3677
 5879SOL     OW29272   3.232   2.472   6.706 -0.3632 -0.1265 -0.0349
 5879SOL    HW129273   3.232   2.377   6.700 -0.4435 -0.1660  0.5750
 5879SOL    HW229274   3.205   2.490   6.796 -0.3448  2.2889 -0.4921
 5880SOL     OW29275   2.532   0.324   8.832 -0.0243 -0.0119 -0.3167
 5880SOL    HW129276   2.562   0.367   8.912  5.1036 -2.3877 -0.9498
 5880SOL    HW229277   2.502   0.238   8.862  0.3362  0.4133  1.2459
 5881SOL     OW29278   3.762   4.683  12.743 -0.0247 -0.8872  0.3809
 5881SOL    HW129279   3.817   4.671  12.821  0.0816 -1.5236  0.2070
 5881SOL    HW229280   3.827   4.692  12.674  0.3569  4.2922  1.3936
 5882SOL     OW29281   1.576   1.562  17.671  0.1275  0.2184 -0.4992
 5882SOL    HW129282   1.560   1.649  17.708 -3.0435 -0.8575  0.6532
 5882SOL    HW229283   1.483   1.540  17.666  0.7090 -1.9218 -1.7586
 5883SOL     OW29284   0.659   3.072  16.638 -0.3279  0.2394 -0.5126
 5883SOL    HW129285   0.681   3.073  16.545 -1.5880  1.4632 -0.7946
 5883SOL    HW229286   0.661   3.165  16.659 -0.6973  0.4536 -1.4298
 5884SOL     OW29287   1.172   3.125  13.094 -0.7228 -0.1339  0.6509
 5884SOL    HW129288   1.087   3.147  13.133 -0.6268 -0.6396  1.1512
 5884SOL    HW229289   1.237   3.144  13.161 -0.5052 -0.9019  0.6630
 5885SOL     OW29290   2.044   0.601  15.406  0.2143  0.7944  0.0323
 5885SOL    HW129291   2.005   0.683  15.437  0.4327  0.8943  0.0400
 5885SOL    HW229292   1.967   0.545  15.399  0.2391  0.7773 -0.1002
 5886SOL     OW29293   2.285   3.399   7.977  0.4875 -0.0484 -0.1449
 5886SOL    HW129294   2.286   3.311   7.941  2.4197  0.2449 -0.7820
 5886SOL    HW229295   2.352   3.444   7.926  0.2496  0.7797  0.2596
 5887SOL     OW29296   1.295   0.292  11.027 -0.6445 -0.2937 -0.1466
 5887SOL    HW129297   1.315   0.295  10.934  0.3005  2.1354  0.1450
 5887SOL    HW229298   1.378   0.325  11.061 -1.4716  0.2608  1.3745
 5888SOL     OW29299   0.120   4.210   8.715 -0.5761 -0.2295  0.0745
 5888SOL    HW129300   0.057   4.154   8.761 -0.2564 -1.0360 -0.4831
 5888SOL    HW229301   0.163   4.152   8.652  2.2835  2.9503 -0.8815
 5889SOL     OW29302   2.604   4.180  10.545  0.1843 -0.1769 -0.0646
 5889SOL    HW129303   2.586   4.087  10.561 -0.3690 -0.2615 -1.1812
 5889SOL    HW229304   2.615   4.178  10.450  0.1399 -1.2166 -0.0469
 5890SOL     OW29305   3.362   4.639   0.526 -0.0213 -0.0908 -0.3390
 5890SOL    HW129306   3.293   4.607   0.468  1.4178  0.0302 -2.1681
 5890SOL    HW229307   3.369   4.576   0.597  3.2266  3.3114  2.3715
 5891SOL     OW29308   0.603   3.463  11.560  1.1368 -0.5787 -0.5352
 5891SOL    HW129309   0.524   3.499  11.600  1.9172  0.3665  0.1382
 5891SOL    HW229310   0.576   3.374  11.537 -1.2438  0.0478 -0.0979
 5892SOL     OW29311   1.904   1.163   8.063  0.2268 -0.3400 -0.1266
 5892SOL    HW129312   1.968   1.215   8.014 -0.2236 -0.2876 -0.6572
 5892SOL    HW229313   1.923   1.070   8.050  1.1384 -0.2308  0.4222
 5893SOL     OW29314   4.396   3.246  10.407 -0.2027  0.2127  0.4858
 5893SOL    HW129315   4.368   3.175  10.464 -0.9039  0.6968  0.7491
 5893SOL    HW229316   4.313   3.281  10.373 -0.2967  0.3626  0.8679
 5894SOL     OW29317   1.484   3.505   0.423  0.1030  0.3767  0.3291
 5894SOL    HW129318   1.527   3.434   0.470 -0.3870  0.9324  1.6170
 5894SOL    HW229319   1.559   3.558   0.394  1.3749 -0.2604  2.4220
 5895SOL     OW29320   2.827   2.434   9.257 -0.3415  0.2055 -0.3128
 5895SOL    HW129321   2.787   2.373   9.195 -0.9052  0.8447 -0.5761
 5895SOL    HW229322   2.783   2.518   9.242 -0.9657  0.0886  0.8412
 5896SOL     OW29323   1.471   4.664  10.743  0.2460 -0.0612  0.2880
 5896SOL    HW129324   1.519   4.679  10.824  1.1178 -0.6606 -0.1223
 5896SOL    HW229325   1.393   4.623  10.779 -0.6802  1.1358 -0.3593
 5897SOL     OW29326   4.394   3.962   4.358 -0.6872 -0.1422 -0.0059
 5897SOL    HW129327   4.372   4.050   4.390  0.1827  0.1476 -0.2118
 5897SOL    HW229328   4.429   3.926   4.440 -1.7916 -2.6005 -0.6189
 5898SOL     OW29329   1.841   2.956   8.742 -0.2523  0.2447 -0.1901
 5898SOL    HW129330   1.887   3.040   8.745 -0.6135  0.3451  2.8827
 5898SOL    HW229331   1.861   2.912   8.825  0.5938  0.7392 -0.1425
 5899SOL     OW29332   1.534   1.002   6.388 -0.2648  0.5467  0.1906
 5899SOL    HW129333   1.610   0.955   6.352 -1.2952 -0.6124 -0.4781
 5899SOL    HW229334   1.489   0.927   6.428 -1.6231  0.4402 -1.5396
 5900SOL     OW29335   0.737   3.233  16.387 -0.0304  0.0988  0.0991
 5900SOL    HW129336   0.823   3.213  16.349  0.1044  1.6929 -0.4295
 5900SOL    HW229337   0.676   3.269  16.322  0.4251 -0.2167 -0.5139
 5901SOL     OW29338   0.767   1.283   7.342  0.7765  0.0705  0.6573
 5901SOL    HW129339   0.847   1.291   7.290  0.6444  0.2147  0.4748
 5901SOL    HW229340   0.771   1.371   7.380 -3.2276 -0.4321  2.2221
 5902SOL     OW29341   4.221   3.161   5.422 -0.1595 -0.4959  0.2017
 5902SOL    HW129342   4.253   3.211   5.347 -2.6534 -0.4420 -0.7974
 5902SOL    HW229343   4.190   3.080   5.381 -1.3684  0.8932 -1.5979
 5903SOL     OW29344   2.307   0.150  10.467 -0.1486 -0.1315 -0.2759
 5903SOL    HW129345   2.398   0.180  10.470 -0.6945  1.6741 -2.2081
 5903SOL    HW229346   2.292   0.150  10.373 -0.3190 -0.7349 -0.2491
 5904SOL     OW29347   3.838   3.766   5.869 -0.8096  0.4543 -0.0723
 5904SOL    HW129348   3.930   3.752   5.890 -0.1474  3.1954 -1.1105
 5904SOL    HW229349   3.834   3.860   5.887  0.3215  0.5130 -0.1145
 5905SOL     OW29350   1.828   0.884  11.174  0.5700  0.2888  0.1061
 5905SOL    HW129351   1.844   0.851  11.263 -0.6998 -0.7942 -0.0570
 5905SOL    HW229352   1.909   0.934  11.164  1.2341 -0.6869  0.5701
 5906SOL     OW29353   3.269   3.017   8.284  0.1273  0.7651  0.7022
 5906SOL    HW129354   3.234   2.965   8.357 -0.1157 -0.0324  0.0078
 5906SOL    HW229355   3.292   3.095   8.335  0.2489  0.9042  0.4328
 5907SOL     OW29356   3.295   1.747   7.035 -0.3609 -0.7902 -0.0974
 5907SOL    HW129357   3.338   1.662   7.029  0.0087 -0.5226 -1.1452
 5907SOL    HW229358   3.296   1.767   6.941 -0.7283  0.3466  0.1438
 5908SOL     OW29359   2.763   2.859   7.725 -0.2143 -0.0754 -0.2748
 5908SOL    HW129360   2.800   2.946   7.738 -3.7067  1.2550  0.6987
 5908SOL    HW229361   2.837   2.828   7.672 -1.0008 -0.7312 -0.9981
 5909SOL     OW29362   1.840   2.542  13.167  0.2125 -0.2248  0.4871
 5909SOL    HW129363   1.746   2.555  13.185 -0.5059 -2.8702 -1.4273
 5909SOL    HW229364   1.860   2.497  13.249  0.6728 -2.1356 -0.6789
 5910SOL     OW29365   1.111   3.108   3.633  0.3118 -0.2489  0.0921
 5910SOL    HW129366   1.070   3.022   3.635 -0.2088 -0.0077 -0.0339
 5910SOL    HW229367   1.163   3.100   3.553  0.4116  0.7581  0.0486
 5911SOL     OW29368   3.535   3.383   8.190 -0.0536  0.2419  1.1441
 5911SOL    HW129369   3.568   3.333   8.264  2.3227 -1.9493 -1.3744
 5911SOL    HW229370   3.509   3.461   8.238 -1.2633 -0.0926  1.0390
 5912SOL     OW29371   0.155   0.168  14.969  0.1575 -0.4604 -0.0235
 5912SOL    HW129372   0.154   0.081  15.009  1.5296 -0.7665 -0.6499
 5912SOL    HW229373   0.165   0.150  14.876  0.0227  2.1836 -0.5410
 5913SOL     OW29374   0.557   4.016   9.079 -0.3783 -0.0859  0.0855
 5913SOL    HW129375   0.632   4.066   9.048  0.0519 -0.2337  0.9031
 5913SOL    HW229376   0.582   3.924   9.068  0.0778  0.2913 -1.9794
 5914SOL     OW29377   3.989   4.027   9.225  0.6078  0.3912  0.0106
 5914SOL    HW129378   3.963   4.041   9.316  0.4761 -0.7171  0.1557
 5914SOL    HW229379   4.023   3.938   9.241 -0.2615  0.3832  1.8890
 5915SOL     OW29380   0.631   2.549   7.505 -0.3897 -0.5900 -0.6660
 5915SOL    HW129381   0.572   2.619   7.533  0.1689  0.9986 -3.5346
 5915SOL    HW229382   0.683   2.596   7.441 -0.3164  0.7126  0.3384
 5916SOL     OW29383   3.145   1.086   3.747 -0.2230 -0.1484  0.0602
 5916SOL    HW129384   3.129   0.995   3.773  0.1887 -0.6553 -1.4664
 5916SOL    HW229385   3.076   1.091   3.681 -2.3454  0.9196  2.3266
 5917SOL     OW29386   4.344   2.109   1.606 -0.1715  0.5542  0.4014
 5917SOL    HW129387   4.278   2.128   1.672  0.6178  2.1605  0.7135
 5917SOL    HW229388   4.286   2.088   1.533 -1.3629  0.4604  1.3923
 5918SOL     OW29389   4.262   0.622   3.842  0.2936 -0.3866  0.2462
 5918SOL    HW129390   4.348   0.662   3.858  0.2612  0.4448 -1.6726
 5918SOL    HW229391   4.252   0.584   3.929 -0.5514  1.0046  0.7569
 5919SOL     OW29392   2.493   2.483   9.696  0.4823  0.3149  0.2400
 5919SOL    HW129393   2.501   2.570   9.658  2.3401  0.8628  1.8834
 5919SOL    HW229394   2.502   2.511   9.788  0.8670  0.7566  0.0641
 5920SOL     OW29395   2.573   1.160   3.148 -0.1777  0.2776  0.3530
 5920SOL    HW129396   2.484   1.161   3.183 -1.2683  0.6774 -2.4028
 5920SOL    HW229397   2.601   1.252   3.145 -1.9392  0.8105  0.4188
 5921SOL     OW29398   3.352   0.215   7.786  0.6110  0.0367 -0.1810
 5921SOL    HW129399   3.372   0.163   7.864  2.9229 -0.2261 -0.9558
 5921SOL    HW229400   3.308   0.288   7.831 -0.2305  1.0009 -2.5730
 5922SOL     OW29401   3.353   4.684   6.358 -0.2519  0.2090  0.2503
 5922SOL    HW129402   3.354   4.694   6.453  0.8144 -0.9356  0.3611
 5922SOL    HW229403   3.261   4.661   6.348 -0.7073  0.7985  2.9738
 5923SOL     OW29404   3.208   4.363   4.569  0.0629  0.0538  0.4036
 5923SOL    HW129405   3.255   4.293   4.524 -1.1180 -0.2762 -0.3238
 5923SOL    HW229406   3.142   4.310   4.615  1.3363 -1.8870 -0.0172
 5924SOL     OW29407   4.185   2.601   6.984  0.2404  0.7069  0.2932
 5924SOL    HW129408   4.154   2.691   6.991 -1.0327  0.4197 -1.9635
 5924SOL    HW229409   4.111   2.550   7.015 -0.0052  2.0374  1.9008
 5925SOL     OW29410   1.414   2.262   4.791  0.8465 -0.2088 -0.0487
 5925SOL    HW129411   1.507   2.239   4.788  0.4345 -2.2170  2.5834
 5925SOL    HW229412   1.369   2.191   4.746  1.2378 -1.6287  1.7867
 5926SOL     OW29413   0.597   2.758   9.611  0.0292  0.1623 -0.2649
 5926SOL    HW129414   0.636   2.671   9.615  1.0588  0.7030  1.0066
 5926SOL    HW229415   0.547   2.736   9.532  1.0309 -1.4327 -0.4462
 5927SOL     OW29416   4.062   3.691  14.570  0.2038  0.4267  0.4657
 5927SOL    HW129417   4.113   3.754  14.521 -0.4381  0.5896 -0.0007
 5927SOL    HW229418   3.984   3.736  14.603  0.5487  1.1259  0.3102
 5928SOL     OW29419   1.216   1.378   6.325 -0.0446 -0.1292  0.2888
 5928SOL    HW129420   1.245   1.309   6.385  4.0942  2.2956  1.0695
 5928SOL    HW229421   1.297   1.401   6.279  0.2518  0.5444  1.1360
 5929SOL     OW29422   1.954   3.014   2.186  0.0521  0.1297  0.4527
 5929SOL    HW129423   1.970   3.107   2.199 -2.4502  0.2125  2.8504
 5929SOL    HW229424   2.036   2.975   2.216  0.7539  1.8320  0.7657
 5930SOL     OW29425   1.476   3.020   7.171 -0.4020 -0.1114  0.2858
 5930SOL    HW129426   1.488   2.962   7.096  0.4452 -1.2621  1.3321
 5930SOL    HW229427   1.565   3.026   7.204 -0.4298  0.0059  0.3383
 5931SOL     OW29428   1.695   4.229  15.625 -1.4382 -0.5900 -0.5491
 5931SOL    HW129429   1.668   4.157  15.681 -0.4518 -0.5634 -0.0357
 5931SOL    HW229430   1.611   4.267  15.602 -1.1336  0.6280  0.3339
 5932SOL     OW29431   3.301   0.129   2.728 -0.5705 -0.3931 -0.1934
 5932SOL    HW129432   3.316   0.180   2.649 -0.9455 -0.9043 -0.5900
 5932SOL    HW229433   3.352   0.184   2.789 -2.3883 -0.0447  1.0189
 5933SOL     OW29434   1.035   4.082  11.507  0.5462 -0.2441 -0.0950
 5933SOL    HW129435   1.079   4.037  11.435 -0.4427  0.5575 -1.1924
 5933SOL    HW229436   1.038   4.006  11.566 -0.4808  0.5073  0.9112
 5934SOL     OW29437   1.060   4.674   4.302  0.5419  0.7786  0.4838
 5934SOL    HW129438   1.010   0.017   4.321 -1.0614 -0.5538  1.7632
 5934SOL    HW229439   1.104   4.699   4.220  1.6483 -3.3218 -0.1442
 5935SOL     OW29440   3.378   3.001   2.946 -0.4883  0.1999 -0.2870
 5935SOL    HW129441   3.403   2.920   2.991 -1.4339  0.0018 -0.1040
 5935SOL    HW229442   3.301   3.031   2.994 -0.1520 -0.0022  0.3783
 5936SOL     OW29443   3.175   2.823   1.823 -0.2278  0.0303  0.3233
 5936SOL    HW129444   3.127   2.760   1.877  0.1930  0.0554  0.7225
 5936SOL    HW229445   3.259   2.831   1.868  0.2779 -1.4449 -0.3571
 5937SOL     OW29446   3.383   2.639   5.424 -0.3929 -0.5870 -0.1209
 5937SOL    HW129447   3.393   2.733   5.436 -0.2006 -0.4875 -1.0048
 5937SOL    HW229448   3.350   2.627   5.513 -0.8346  1.0762 -0.0717
 5938SOL     OW29449   3.929   1.383  14.592  0.0532 -0.0937 -0.4747
 5938SOL    HW129450   3.989   1.457  14.585  1.4160 -0.9700  1.7196
 5938SOL    HW229451   3.986   1.336  14.653 -0.2961 -0.5742 -0.5128
 5939SOL     OW29452   3.128   0.033   9.157 -0.0007  0.0509 -0.2639
 5939SOL    HW129453   3.153   0.019   9.248 -0.6069  1.6390  0.1477
 5939SOL    HW229454   3.053   4.712   9.144  0.3245 -0.7467  1.3640
 5940SOL     OW29455   1.587   0.883   0.238 -0.2412 -0.5020 -0.0864
 5940SOL    HW129456   1.517   0.947   0.222 -0.1685 -0.3154  0.3460
 5940SOL    HW229457   1.574   0.858   0.329 -1.9183  0.9797  0.0984
 5941SOL     OW29458   0.499   0.612   2.799  0.4135 -0.4507  0.1344
 5941SOL    HW129459   0.426   0.596   2.739 -0.5334  0.8646  0.9553
 5941SOL    HW229460   0.449   0.613   2.881 -1.0236 -0.4936 -0.7331
 5942SOL     OW29461   1.286   2.283   9.167 -0.4935  0.3453  0.2653
 5942SOL    HW129462   1.203   2.296   9.122 -0.9752  0.0469  1.0739
 5942SOL    HW229463   1.305   2.372   9.196 -0.2690  0.2243  0.4935
 5943SOL     OW29464   1.534   2.463   7.464  0.3671 -0.2149  0.0713
 5943SOL    HW129465   1.465   2.414   7.509  1.4220 -1.2807  0.5107
 5943SOL    HW229466   1.543   2.539   7.522  1.1943  0.3112 -0.7430
 5944SOL     OW29467   4.519   3.059   4.218 -0.4453 -0.5481  0.4396
 5944SOL    HW129468   4.512   3.137   4.273  1.9382  0.9715 -1.4720
 5944SOL    HW229469   4.457   3.004   4.267 -1.1433  0.8411  1.1149
 5945SOL     OW29470   0.368   1.351   1.083 -0.3323 -0.0331  0.6203
 5945SOL    HW129471   0.339   1.442   1.095 -0.9941 -0.0019 -1.2129
 5945SOL    HW229472   0.345   1.345   0.990  1.9898 -2.4501  0.2077
 5946SOL     OW29473   0.892   1.178   3.991  0.5245 -0.4018  0.2147
 5946SOL    HW129474   0.838   1.257   3.994  0.0550 -0.7220  0.2243
 5946SOL    HW229475   0.845   1.132   3.922  0.7940 -0.1249 -0.1498
 5947SOL     OW29476   2.924   0.884   3.431 -0.0702  0.0159 -0.0643
 5947SOL    HW129477   2.837   0.900   3.394 -0.4509 -0.0219  0.8140
 5947SOL    HW229478   2.938   0.975   3.458 -1.2088 -0.0911  0.8947
 5948SOL     OW29479   1.991   3.373   3.152 -0.1000 -0.1859 -0.3147
 5948SOL    HW129480   2.065   3.404   3.099  1.8278 -0.0475  2.4660
 5948SOL    HW229481   2.030   3.291   3.182  0.1401  0.1919  0.3916
 5949SOL     OW29482   0.648   1.387   3.926  0.4141  0.1935 -0.1118
 5949SOL    HW129483   0.630   1.439   3.848  1.0367 -1.2252 -1.2045
 5949SOL    HW229484   0.587   1.314   3.908  0.1939 -0.1231  1.9596
 5950SOL     OW29485   1.700   2.342   9.472 -0.1555 -0.4047  0.5454
 5950SOL    HW129486   1.612   2.329   9.437 -0.1182  0.6114  0.0932
 5950SOL    HW229487   1.762   2.295   9.415 -1.8544  0.0937 -1.7489
 5951SOL     OW29488   4.269   0.351   9.625  0.6524 -0.4162 -0.0215
 5951SOL    HW129489   4.188   0.301   9.637 -0.0463  0.8624  0.6181
 5951SOL    HW229490   4.315   0.310   9.699  3.7098  1.0382 -1.1410
 5952SOL     OW29491   1.418   0.695   9.879 -0.0732  0.0028 -0.1904
 5952SOL    HW129492   1.446   0.641   9.953  1.2333 -0.5476 -1.0959
 5952SOL    HW229493   1.329   0.723   9.903  0.8751  0.6195  2.5790
 5953SOL     OW29494   4.473   4.101   3.904  0.1204  0.0946  0.3563
 5953SOL    HW129495   4.452   4.159   3.977 -0.6339  0.3423 -0.0482
 5953SOL    HW229496   4.394   4.048   3.916 -0.8304  0.3394 -4.4542
 5954SOL     OW29497   2.450   1.288   7.738  0.5643 -0.2817  0.0195
 5954SOL    HW129498   2.485   1.212   7.691  0.8478 -1.1687  1.6498
 5954SOL    HW229499   2.445   1.248   7.825 -1.5288  0.3418  0.1823
 5955SOL     OW29500   3.726   3.060   3.941  0.2711 -0.1264  0.8879
 5955SOL    HW129501   3.790   3.076   4.011 -0.3008  2.3299  0.8445
 5955SOL    HW229502   3.766   3.130   3.890 -0.2311 -0.6747 -0.2563
 5956SOL     OW29503   1.592   1.294   2.231  0.6247  0.1684 -0.6087
 5956SOL    HW129504   1.503   1.290   2.195 -0.1374  0.2589  1.2985
 5956SOL    HW229505   1.644   1.324   2.155 -0.7074  0.6224 -1.3405
 5957SOL     OW29506   4.457   0.406   4.466 -0.3656  0.1444  0.1210
 5957SOL    HW129507   4.436   0.449   4.383  0.3407  3.0277  1.4363
 5957SOL    HW229508   4.470   0.486   4.517  0.6627  0.6412 -0.9095
 5958SOL     OW29509   2.426   1.103   2.148 -0.4976 -0.2986  0.8968
 5958SOL    HW129510   2.375   1.181   2.171 -0.6388  0.4870 -2.0946
 5958SOL    HW229511   2.357   1.042   2.123 -0.2819  0.3446 -1.2922
 5959SOL     OW29512   1.895   1.718   7.693 -0.4917  0.2080  0.0922
 5959SOL    HW129513   1.976   1.682   7.658 -0.3678  1.8219 -1.2780
 5959SOL    HW229514   1.939   1.772   7.760 -4.8305  1.5154  1.8969
 5960SOL     OW29515   2.017   3.100  11.921 -0.1610  0.2142  0.3071
 5960SOL    HW129516   1.927   3.068  11.918  0.1558 -0.4702 -1.4184
 5960SOL    HW229517   2.011   3.125  11.829  1.1567 -1.7835 -0.3306
 5961SOL     OW29518   0.689   3.480   6.024 -0.0729  0.4445  1.1263
 5961SOL    HW129519   0.650   3.398   5.994  0.4061  0.8101 -0.4659
 5961SOL    HW229520   0.607   3.522   6.051 -0.0595  1.8501 -0.9731
 5962SOL     OW29521   2.367   2.207   6.307  0.1927 -0.0241 -0.2278
 5962SOL    HW129522   2.374   2.218   6.401 -1.7578  1.0141 -0.2102
 5962SOL    HW229523   2.388   2.114   6.298 -2.8267 -0.7674  0.4280
 5963SOL     OW29524   3.505   4.394   2.404  0.5322  0.5886 -0.0474
 5963SOL    HW129525   3.435   4.340   2.368  1.5935 -0.2587 -0.8515
 5963SOL    HW229526   3.468   4.483   2.402 -3.1904 -0.9812 -0.0057
 5964SOL     OW29527   4.326   4.496   5.276 -0.0455  0.0466  0.1272
 5964SOL    HW129528   4.299   4.475   5.187 -2.0105  2.8336  0.0691
 5964SOL    HW229529   4.254   4.456   5.326  0.1726 -0.2307  0.2196
 5965SOL     OW29530   0.269   3.116   7.463 -0.0438  0.0224 -0.1763
 5965SOL    HW129531   0.342   3.177   7.472 -0.1542 -0.1141  1.4912
 5965SOL    HW229532   0.286   3.095   7.371  0.1289  1.4609 -0.4709
 5966SOL     OW29533   0.777   3.469   2.536 -0.3316 -0.4810 -0.2061
 5966SOL    HW129534   0.824   3.424   2.606 -0.1577 -1.9503 -1.2864
 5966SOL    HW229535   0.686   3.439   2.531 -0.4919  0.2840 -1.7207
 5967SOL     OW29536   0.191   3.152   4.046  0.1049 -0.2326 -0.1736
 5967SOL    HW129537   0.109   3.199   4.062  0.6203  0.3690  0.6881
 5967SOL    HW229538   0.205   3.142   4.140  0.9068 -2.0454 -0.4700
 5968SOL     OW29539   2.337   4.082   2.134  0.1093 -0.2121  0.5995
 5968SOL    HW129540   2.251   4.114   2.110  0.1289  1.0388  2.1933
 5968SOL    HW229541   2.393   4.154   2.104 -0.8462  1.2926  2.4630
 5969SOL     OW29542   4.030   2.548  13.171  0.4662  0.1559  0.4473
 5969SOL    HW129543   3.946   2.503  13.185 -0.4418  2.4724  2.4015
 5969SOL    HW229544   4.024   2.617  13.237 -1.5663  0.2471  0.1699
 5970SOL     OW29545   2.765   0.590   7.358  0.2391  0.4842  0.6310
 5970SOL    HW129546   2.833   0.626   7.301 -0.9758  0.7110 -0.6744
 5970SOL    HW229547   2.717   0.673   7.362  0.0651  0.3305  1.7742
 5971SOL     OW29548   3.864   1.928  12.021 -0.2878 -0.2683  0.4606
 5971SOL    HW129549   3.923   1.950  11.950  0.0140  0.5988  0.9813
 5971SOL    HW229550   3.918   1.889  12.090 -1.9706 -2.1788  0.7237
 5972SOL     OW29551   1.318   1.037   0.154  0.1104  0.7605  0.1018
 5972SOL    HW129552   1.285   1.121   0.122  0.5638  0.7484 -0.4031
 5972SOL    HW229553   1.272   0.980   0.093 -2.0968  1.5966  0.9990
 5973SOL     OW29554   3.126   3.637  12.290 -1.0333 -0.2886 -0.5426
 5973SOL    HW129555   3.194   3.704  12.290 -0.1238 -1.2131 -1.1740
 5973SOL    HW229556   3.044   3.686  12.278 -0.7034  0.6618  1.0685
 5974SOL     OW29557   3.072   2.654  16.410 -0.1158 -0.4959 -0.1855
 5974SOL    HW129558   3.025   2.679  16.331  2.1518 -0.8578 -1.6655
 5974SOL    HW229559   3.026   2.573  16.435 -1.0047  0.6487  1.8779
 5975SOL     OW29560   2.729   4.647   2.005 -0.4421 -0.2813 -0.0875
 5975SOL    HW129561   2.811   4.621   2.045 -1.8949 -0.2519  2.9060
 5975SOL    HW229562   2.732   0.004   2.027 -1.2992 -0.0298 -0.9882
 5976SOL     OW29563   4.265   1.921  15.376 -0.7932 -0.1496  0.4724
 5976SOL    HW129564   4.264   1.957  15.465 -2.1218 -0.0461  0.4165
 5976SOL    HW229565   4.175   1.892  15.360 -1.5687  0.9404  2.7977
 5977SOL     OW29566   2.389   3.578  14.089 -0.1811 -0.2944 -0.5658
 5977SOL    HW129567   2.388   3.656  14.144  0.8025 -1.3046  0.8913
 5977SOL    HW229568   2.328   3.588  14.016  0.4680  1.3665 -0.8779
 5978SOL     OW29569   3.630   2.404   4.192 -0.0695 -0.2333 -0.1594
 5978SOL    HW129570   3.570   2.342   4.150 -1.9292  1.5226 -0.0727
 5978SOL    HW229571   3.715   2.360   4.202 -0.4406 -0.8560  0.2759
 5979SOL     OW29572   3.189   1.794   7.287 -0.0068 -0.0546  0.7086
 5979SOL    HW129573   3.222   1.773   7.200  0.1201  0.0071  0.7421
 5979SOL    HW229574   3.205   1.709   7.328 -0.5317 -1.1892 -1.4093
 5980SOL     OW29575   0.208   0.148   0.959  0.7222  0.1107 -0.5721
 5980SOL    HW129576   0.132   0.200   0.934 -1.6704 -2.8848  0.4261
 5980SOL    HW229577   0.277   0.202   0.921  1.9167 -0.5478  0.6407
 5981SOL     OW29578   0.377   4.687   6.752 -0.0126 -0.3671  0.4480
 5981SOL    HW129579   0.400   0.040   6.778 -2.3380  0.7638 -1.4301
 5981SOL    HW229580   0.432   4.648   6.684 -2.6842 -2.0813 -0.7408
 5982SOL     OW29581   1.650   3.697   2.840  0.3052 -0.5873  0.2268
 5982SOL    HW129582   1.673   3.616   2.887  1.2007 -0.6741 -0.3548
 5982SOL    HW229583   1.568   3.712   2.886  1.0920  1.1660  1.0599
 5983SOL     OW29584   1.358   4.452   5.117  0.6681 -0.1458 -0.0214
 5983SOL    HW129585   1.279   4.428   5.164  0.3465  0.2354 -0.3643
 5983SOL    HW229586   1.323   4.512   5.051 -1.9700 -0.9436  0.6511
 5984SOL     OW29587   2.895   0.855   2.627  0.2945 -1.2296  0.1056
 5984SOL    HW129588   2.816   0.828   2.674  0.9009 -1.4603  0.9843
 5984SOL    HW229589   2.846   0.912   2.568  1.0922 -1.3482 -0.6757
 5985SOL     OW29590   0.857   0.014  15.832  0.2504 -0.5157 -0.3435
 5985SOL    HW129591   0.873   0.063  15.913  0.1932 -2.2241  0.7109
 5985SOL    HW229592   0.851   0.087  15.772 -0.2207 -0.6359 -0.4389
 5986SOL     OW29593   0.175   4.023   3.534  0.1637  0.1238 -0.1949
 5986SOL    HW129594   0.084   4.044   3.513  0.1067  1.4892  1.3842
 5986SOL    HW229595   0.223   4.046   3.454 -0.0153 -1.2573 -0.6901
 5987SOL     OW29596   2.266   1.973   2.081 -0.5683  0.0840  0.5758
 5987SOL    HW129597   2.317   1.933   2.010  0.1046  1.1219  0.4651
 5987SOL    HW229598   2.204   1.902   2.095 -1.1584  0.0819 -1.9135
 5988SOL     OW29599   3.625   2.651  12.505  0.8328 -1.0664 -0.4174
 5988SOL    HW129600   3.637   2.614  12.593  1.0967  2.4011  1.0202
 5988SOL    HW229601   3.698   2.618  12.453  0.4659 -0.8984 -1.0313
 5989SOL     OW29602   3.476   3.473   6.848  0.5708 -0.0054 -0.8712
 5989SOL    HW129603   3.462   3.567   6.834 -0.4686  0.1557  1.3635
 5989SOL    HW229604   3.510   3.451   6.761  1.1290 -2.6767  0.0306
 5990SOL     OW29605   1.930   2.113   4.725  0.5135  0.0345  0.8029
 5990SOL    HW129606   1.897   2.184   4.669  0.9441 -0.6611 -0.3367
 5990SOL    HW229607   2.017   2.142   4.752 -0.0916  0.9568  1.7814
 5991SOL     OW29608   1.145   3.352   8.819  0.2356  0.2702 -0.1289
 5991SOL    HW129609   1.084   3.404   8.764  1.7837  0.2041 -1.9102
 5991SOL    HW229610   1.216   3.330   8.759  0.1715 -0.0471 -0.0891
 5992SOL     OW29611   3.616   2.595   1.165 -0.0053 -0.8487 -0.5710
 5992SOL    HW129612   3.535   2.645   1.166 -0.5916 -1.7791 -1.3474
 5992SOL    HW229613   3.622   2.572   1.072 -1.2677  0.3650 -0.9455
 5993SOL     OW29614   0.072   0.767   5.870 -0.2893 -0.1976 -0.2400
 5993SOL    HW129615   0.157   0.728   5.849 -0.2763 -0.1487 -0.2774
 5993SOL    HW229616   0.089   0.859   5.886 -3.2649 -0.3230  3.5336
 5994SOL     OW29617   3.948   1.417   8.556 -0.3612  0.6464  0.7364
 5994SOL    HW129618   3.962   1.469   8.635 -1.3796 -0.3519  1.5570
 5994SOL    HW229619   3.985   1.337   8.591  1.3935  0.4879 -1.4594
 5995SOL     OW29620   1.210   3.663   5.412  0.6677 -0.3551  0.2226
 5995SOL    HW129621   1.196   3.569   5.401  2.0628 -0.0634 -4.1493
 5995SOL    HW229622   1.135   3.681   5.356 -0.3060 -3.7466  0.4514
 5996SOL     OW29623   2.303   0.059   7.218 -0.2150 -0.1217  0.3043
 5996SOL    HW129624   2.272   4.726   7.159  0.8600 -1.2413  1.0320
 5996SOL    HW229625   2.294   0.019   7.304  1.3226 -0.3483  0.3608
 5997SOL     OW29626   0.114   1.456  16.127 -0.0039  0.0707 -0.0956
 5997SOL    HW129627   0.159   1.534  16.161  1.5673 -0.0972 -1.8220
 5997SOL    HW229628   0.095   1.485  16.038 -1.2354 -0.5800 -0.0453
 5998SOL     OW29629   2.636   2.113   7.283  0.4025 -0.4332 -0.0912
 5998SOL    HW129630   2.703   2.100   7.215  0.0622 -1.8696 -0.1556
 5998SOL    HW229631   2.691   2.081   7.355  0.2870 -0.2871  0.0592
 5999SOL     OW29632   0.190   4.359   3.136 -0.1931 -0.1787 -0.0127
 5999SOL    HW129633   0.254   4.349   3.065 -0.4081  0.7499 -0.3380
 5999SOL    HW229634   0.216   4.447   3.164 -2.1652  0.7359 -1.0761
 6000SOL     OW29635   4.413   3.885   7.173  0.2195 -0.2630 -0.1275
 6000SOL    HW129636   4.426   3.868   7.266 -3.1872 -4.5967 -0.3953
 6000SOL    HW229637   4.335   3.831   7.157 -0.5804  0.7043  0.5220
 6001SOL     OW29638   0.817   2.938   7.037 -0.0159  0.5742 -0.0517
 6001SOL    HW129639   0.769   2.968   6.960 -0.3747 -0.1998 -0.1326
 6001SOL    HW229640   0.784   2.986   7.113  2.2458  2.4157 -0.2547
 6002SOL     OW29641   4.641   1.079   5.779  0.1792  0.0784 -0.0994
 6002SOL    HW129642   4.646   1.143   5.708 -1.3093  0.1369 -0.1488
 6002SOL    HW229643   4.732   1.074   5.808 -0.1180  0.1049  0.8364
 6003SOL     OW29644   2.434   2.361  12.812  0.4211  0.1872  0.7662
 6003SOL    HW129645   2.349   2.396  12.785  1.9596  2.1615 -1.5265
 6003SOL    HW229646   2.419   2.268  12.794  0.7650 -0.0191  1.5342
 6004SOL     OW29647   3.121   2.538   6.985  0.2827 -0.1810  0.4668
 6004SOL    HW129648   3.087   2.459   7.026 -0.4010  0.1761  0.5846
 6004SOL    HW229649   3.153   2.576   7.067  0.6062  2.3584 -0.8515
 6005SOL     OW29650   0.172   0.682   5.292 -0.1571 -0.2319 -0.1158
 6005SOL    HW129651   0.096   0.658   5.346 -0.3336 -2.3247 -1.3066
 6005SOL    HW229652   0.236   0.718   5.353 -0.1040  2.1616 -1.5829
 6006SOL     OW29653   3.541   0.386   8.697  0.1214  0.1638 -0.3267
 6006SOL    HW129654   3.605   0.455   8.712  0.7323 -0.5215  0.2590
 6006SOL    HW229655   3.487   0.444   8.644  0.6521  0.6628 -0.3142
 6007SOL     OW29656   1.548   3.953   5.648  0.3500  0.4307  0.7276
 6007SOL    HW129657   1.639   3.948   5.620 -0.2992 -0.8979 -1.1872
 6007SOL    HW229658   1.504   3.897   5.584  0.3260  0.7822  0.4382
 6008SOL     OW29659   2.966   0.108   3.362 -0.4445  0.0590 -0.3430
 6008SOL    HW129660   3.051   0.081   3.396 -0.0534  3.7896  1.6271
 6008SOL    HW229661   2.956   0.061   3.279 -3.1188  0.6170 -0.3508
 6009SOL     OW29662   0.142   0.266   7.573  0.2033  0.6144  0.2141
 6009SOL    HW129663   0.174   0.348   7.611 -0.2911  0.4297  1.0122
 6009SOL    HW229664   0.148   0.295   7.481 -0.4468 -1.4902 -0.4907
 6010SOL     OW29665   3.419   3.893   2.721  0.5250  1.0551 -0.2263
 6010SOL    HW129666   3.493   3.833   2.712  1.4033  1.9024  1.3108
 6010SOL    HW229667   3.420   3.930   2.632 -0.5420  0.3990 -0.5144
 6011SOL     OW29668   2.176   2.849  12.824  0.0474 -0.2853  0.4679
 6011SOL    HW129669   2.140   2.783  12.883 -0.7529  1.0913  1.5279
 6011SOL    HW229670   2.164   2.819  12.734  1.2359 -0.7841  0.4749
 6012SOL     OW29671   3.116   0.184   8.709  0.3804 -0.1379 -0.4635
 6012SOL    HW129672   3.121   0.212   8.801 -1.7591 -1.4048  0.0226
 6012SOL    HW229673   3.209   0.187   8.686 -0.2535 -0.0092 -2.9927
 6013SOL     OW29674   3.716   3.618   8.747 -0.1999  0.3867  0.3162
 6013SOL    HW129675   3.755   3.559   8.683 -0.9571  0.6493 -0.3948
 6013SOL    HW229676   3.771   3.696   8.756 -1.0884  1.0852 -0.2034
 6014SOL     OW29677   1.189   2.424   4.761 -0.1672 -0.7104  0.6190
 6014SOL    HW129678   1.270   2.433   4.712 -0.3301  0.7136  0.5937
 6014SOL    HW229679   1.221   2.359   4.824  0.9322  0.9278  1.7423
 6015SOL     OW29680   1.822   3.087   0.775  0.2276  0.0491  0.2281
 6015SOL    HW129681   1.743   3.096   0.829 -0.3683 -1.1354 -0.4329
 6015SOL    HW229682   1.781   3.065   0.692 -1.8702 -0.8727  1.4882
 6016SOL     OW29683   1.488   4.216   6.956  0.4212 -0.1447  0.2824
 6016SOL    HW129684   1.411   4.176   6.996  1.6531 -2.7270  0.1177
 6016SOL    HW229685   1.450   4.261   6.882  0.2518 -1.6354 -0.5436
 6017SOL     OW29686   3.638   0.285   4.883  0.1369 -0.0520  0.0969
 6017SOL    HW129687   3.687   0.302   4.803 -0.4520  1.1020 -0.0141
 6017SOL    HW229688   3.711   0.279   4.944  0.1224  2.0164  0.3260
 6018SOL     OW29689   0.129   4.226   6.492 -0.0793 -0.3908 -0.2867
 6018SOL    HW129690   0.195   4.216   6.560  1.3442  1.3477 -1.4346
 6018SOL    HW229691   0.183   4.259   6.421  0.0513 -2.1007 -0.9872
 6019SOL     OW29692   2.493   1.825   4.567 -0.2495  0.1189 -0.3489
 6019SOL    HW129693   2.513   1.904   4.515 -0.5305  1.1161  1.0503
 6019SOL    HW229694   2.514   1.852   4.657  0.4493 -0.5604 -0.3140
 6020SOL     OW29695   3.239   2.879   7.008 -0.3005  0.6775 -0.0674
 6020SOL    HW129696   3.183   2.813   7.048 -2.8278  3.0210  0.3144
 6020SOL    HW229697   3.271   2.924   7.087  1.1014 -0.4887  0.0312
 6021SOL     OW29698   0.484   0.940  11.253  0.3315 -0.8537 -0.4724
 6021SOL    HW129699   0.445   0.955  11.167 -1.7386  1.6707  0.8897
 6021SOL    HW229700   0.409   0.914  11.307  0.0011  0.5297 -0.2625
 6022SOL     OW29701   3.192   3.212  10.048 -0.6065 -0.3261 -0.1367
 6022SOL    HW129702   3.218   3.180  10.134 -3.1575 -0.8174  0.4344
 6022SOL    HW229703   3.258   3.181   9.986 -1.0873 -1.2315 -0.1910
 6023SOL     OW29704   0.548   2.974  16.127 -0.2587 -0.7109 -0.2432
 6023SOL    HW129705   0.638   3.002  16.112  0.6439 -2.2243  2.3417
 6023SOL    HW229706   0.496   3.052  16.105  0.4711 -0.2590 -0.3466
 6024SOL     OW29707   2.691   4.678  17.050 -0.1443  0.0651  0.0315
 6024SOL    HW129708   2.734   4.652  17.131 -0.7494 -2.5526 -0.5060
 6024SOL    HW229709   2.668   0.029  17.082  2.7271  0.8511 -0.0476
 6025SOL     OW29710   4.226   2.910  15.464  0.4472 -0.4565 -0.2521
 6025SOL    HW129711   4.137   2.929  15.435  0.9990  2.4183 -0.1026
 6025SOL    HW229712   4.209   2.922  15.558  1.0952  0.5119 -0.2601
 6026SOL     OW29713   4.473   2.166   7.937 -0.6266 -0.0296  0.1121
 6026SOL    HW129714   4.429   2.243   7.972  0.4127  0.7865 -0.3485
 6026SOL    HW229715   4.529   2.138   8.009  0.6530 -1.1099 -1.2851
 6027SOL     OW29716   3.492   2.758  11.442 -0.2848 -0.7353 -0.6132
 6027SOL    HW129717   3.551   2.826  11.410  0.9349 -1.7035 -0.4170
 6027SOL    HW229718   3.536   2.677  11.414 -1.7615 -1.1756 -1.6599
 6028SOL     OW29719   3.097   2.485   5.146 -0.2299 -0.2054  0.2557
 6028SOL    HW129720   3.097   2.563   5.201 -0.6895  2.0353 -2.9392
 6028SOL    HW229721   3.167   2.436   5.188  0.0116  0.8036  1.0175
 6029SOL     OW29722   0.584   2.396   7.791 -0.3601 -0.8193  0.1880
 6029SOL    HW129723   0.610   2.431   7.876  0.9137 -1.6236  0.1304
 6029SOL    HW229724   0.565   2.471   7.734 -2.3044 -1.4818 -0.0239
 6030SOL     OW29725   0.755   3.952   4.109 -0.1452 -0.2295 -0.0497
 6030SOL    HW129726   0.667   3.940   4.146 -0.3587 -0.3736 -0.5958
 6030SOL    HW229727   0.745   3.911   4.023  0.5331 -1.3988  0.4250
 6031SOL     OW29728   2.210   1.162   4.208 -0.2226  0.6366  0.1257
 6031SOL    HW129729   2.239   1.083   4.255  0.3431  1.4517  1.1619
 6031SOL    HW229730   2.263   1.231   4.249  1.2770 -1.4484  1.7228
 6032SOL     OW29731   1.069   1.526   0.636 -1.0081 -0.1137 -0.1341
 6032SOL    HW129732   1.150   1.556   0.594 -2.1949  2.2292 -0.7625
 6032SOL    HW229733   1.006   1.549   0.567  0.1787  1.3984 -0.7357
 6033SOL     OW29734   3.659   2.165   4.427  0.1192 -0.3155  0.7476
 6033SOL    HW129735   3.627   2.079   4.400  2.7813 -0.7159 -1.1732
 6033SOL    HW229736   3.725   2.181   4.359  1.8766 -0.2758  2.4438
 6034SOL     OW29737   2.705   1.247  15.981  0.2319  0.2083  0.1521
 6034SOL    HW129738   2.713   1.293  16.064  0.3667  1.1656 -0.3927
 6034SOL    HW229739   2.663   1.308  15.920 -0.7845 -0.7481 -0.1175
 6035SOL     OW29740   3.246   4.497   3.449 -0.0963 -0.0742  0.4000
 6035SOL    HW129741   3.205   4.455   3.526  0.8484 -0.0859  0.8935
 6035SOL    HW229742   3.250   4.419   3.394 -0.3535  1.6423 -2.0275
 6036SOL     OW29743   0.401   1.276  16.963 -0.0535 -0.4268 -0.3730
 6036SOL    HW129744   0.313   1.299  16.932 -0.2775 -1.4316 -0.4923
 6036SOL    HW229745   0.378   1.224  17.040 -1.3009  0.6919  0.0196
 6037SOL     OW29746   1.232   1.737  10.939  0.1865 -0.9555  0.2372
 6037SOL    HW129747   1.256   1.660  10.889  0.7464 -0.5638 -0.0907
 6037SOL    HW229748   1.274   1.717  11.022 -1.1872 -0.9025  0.9426
 6038SOL     OW29749   3.816   0.093   1.750 -0.3000 -0.4671 -0.4084
 6038SOL    HW129750   3.763   0.019   1.780  0.0024 -1.7388 -3.0541
 6038SOL    HW229751   3.836   0.050   1.667 -1.6229 -1.3464 -0.2801
 6039SOL     OW29752   1.462   4.314   2.994 -0.5721  0.4515 -0.3998
 6039SOL    HW129753   1.430   4.285   3.079  2.4710 -0.8813  0.2673
 6039SOL    HW229754   1.534   4.374   3.015  2.1291 -1.9368 -2.8934
 6040SOL     OW29755   1.570   0.663   2.896 -0.2162  0.2504 -0.2869
 6040SOL    HW129756   1.488   0.713   2.896 -0.9089 -0.8632  0.4924
 6040SOL    HW229757   1.550   0.594   2.832 -1.2979  0.2022  0.1033
 6041SOL     OW29758   1.808   2.526   0.265 -0.3135  0.2088 -0.7017
 6041SOL    HW129759   1.846   2.445   0.298  3.1967  0.7638 -3.3236
 6041SOL    HW229760   1.806   2.585   0.340  1.0679  1.5681 -1.7287
 6042SOL     OW29761   4.082   0.612  15.485  0.5941  0.2623  0.0412
 6042SOL    HW129762   4.070   0.642  15.395 -0.6125  0.3894  0.2329
 6042SOL    HW229763   4.078   0.519  15.460 -1.3530  0.1486  0.7163
 6043SOL     OW29764   3.554   0.174   1.498  0.1543  0.3744  0.3229
 6043SOL    HW129765   3.547   0.120   1.420 -0.0769  2.0812 -0.8486
 6043SOL    HW229766   3.509   0.116   1.560 -0.3966 -0.3816 -0.7844
 6044SOL     OW29767   0.643   3.729  17.217 -0.1443  0.1737  0.0352
 6044SOL    HW129768   0.625   3.786  17.292  3.1571  3.0169 -1.3378
 6044SOL    HW229769   0.605   3.644  17.240  0.5957 -0.1865 -0.0585
 6045SOL     OW29770   0.445   0.319   2.985 -0.5786  0.8174  0.4382
 6045SOL    HW129771   0.485   0.348   3.067  0.7175  1.6293 -0.4885
 6045SOL    HW229772   0.517   0.304   2.924  0.7263  0.1314  2.1481
 6046SOL     OW29773   3.227   0.025  15.070  0.0283 -0.0174 -0.0956
 6046SOL    HW129774   3.208   0.073  15.150  1.7405  1.5010 -0.6041
 6046SOL    HW229775   3.136   0.016  15.042 -0.6185  1.5737  1.5101
 6047SOL     OW29776   4.223   2.759   3.445 -0.0738  0.2440  1.0613
 6047SOL    HW129777   4.190   2.830   3.501 -2.3426  0.7179 -0.8787
 6047SOL    HW229778   4.154   2.752   3.379  1.5670  1.8099 -0.8176
 6048SOL     OW29779   4.399   2.445   0.441  0.1987  0.1340 -0.0206
 6048SOL    HW129780   4.341   2.434   0.366  0.7561 -3.1695  0.0428
 6048SOL    HW229781   4.415   2.538   0.460 -2.2772  1.0535 -2.6045
 6049SOL     OW29782   4.440   2.388  13.592 -0.2978 -0.2096 -0.1543
 6049SOL    HW129783   4.430   2.431  13.507  1.2062  2.7241  1.1578
 6049SOL    HW229784   4.473   2.301  13.570 -1.0299 -0.8208  1.1894
 6050SOL     OW29785   4.497   1.176   9.781 -0.2195 -0.4612  0.2873
 6050SOL    HW129786   4.453   1.222   9.852  0.1695 -1.2116  1.0206
 6050SOL    HW229787   4.425   1.163   9.720  0.2407  5.3788 -1.5189
 6051SOL     OW29788   0.617   3.291   9.275  0.2322  0.3883 -0.0622
 6051SOL    HW129789   0.688   3.228   9.259 -0.8208 -1.4929  2.7496
 6051SOL    HW229790   0.552   3.260   9.212 -0.2303  0.4322  0.3910
 6052SOL     OW29791   2.459   4.075   3.975 -0.0749 -0.1536  0.2027
 6052SOL    HW129792   2.454   4.016   4.051  3.9057 -1.7654 -0.7953
 6052SOL    HW229793   2.372   4.063   3.939 -0.2400 -2.6328  1.4100
 6053SOL     OW29794   2.836   3.061  14.527  0.3109 -0.0121 -0.0051
 6053SOL    HW129795   2.776   3.131  14.502 -0.0069 -0.5499 -0.7542
 6053SOL    HW229796   2.765   3.002  14.551  1.3144 -0.4678  1.8330
 6054SOL     OW29797   0.101   1.066  15.758 -0.7820  0.4866 -0.4085
 6054SOL    HW129798   0.051   1.140  15.792  0.4241  0.5088  1.3232
 6054SOL    HW229799   0.062   1.043  15.674 -3.3111  1.3132  0.5420
 6055SOL     OW29800   4.109   2.151   1.018 -0.3619  0.4557 -0.1219
 6055SOL    HW129801   4.204   2.146   1.013 -0.3134 -0.9397  2.4348
 6055SOL    HW229802   4.096   2.082   1.083 -0.4133  1.7116  1.2028
 6056SOL     OW29803   3.869   4.377   4.451 -0.6529  0.0527  0.0319
 6056SOL    HW129804   3.785   4.408   4.484 -0.8993 -1.0370  0.4531
 6056SOL    HW229805   3.859   4.391   4.357 -0.3230 -1.4057 -0.2253
 6057SOL     OW29806   3.830   3.470   5.812 -0.6488 -0.5104  0.5597
 6057SOL    HW129807   3.836   3.453   5.718  0.4757 -0.5243  0.6346
 6057SOL    HW229808   3.840   3.565   5.815  0.6835 -0.5987 -0.7638
 6058SOL     OW29809   4.024   1.230   2.303  0.2368  0.2028  0.4626
 6058SOL    HW129810   3.938   1.189   2.301  0.9651 -1.2934 -0.0430
 6058SOL    HW229811   4.018   1.288   2.227 -2.1404 -0.4192  0.1816
 6059SOL     OW29812   4.044   3.611   5.664  0.0253  0.0711 -0.0781
 6059SOL    HW129813   4.098   3.543   5.623  0.9330 -1.1969  3.2757
 6059SOL    HW229814   4.072   3.614   5.755 -1.3920  0.5530  0.3330
 6060SOL     OW29815   2.004   0.017   6.148 -0.3109  0.2074 -0.3713
 6060SOL    HW129816   1.933   0.033   6.086 -1.5293 -1.6100  0.5336
 6060SOL    HW229817   2.021   0.100   6.193 -0.6108 -0.3189  0.7191
 6061SOL     OW29818   1.465   2.337  10.435 -0.4823  0.0192 -0.1152
 6061SOL    HW129819   1.550   2.377  10.421  0.2565 -1.7207 -0.7207
 6061SOL    HW229820   1.430   2.337  10.345  0.7809 -0.2448 -0.6085
 6062SOL     OW29821   0.729   1.480   2.179 -0.3034 -0.0936 -0.0359
 6062SOL    HW129822   0.738   1.429   2.099  3.0811  0.2108  0.1667
 6062SOL    HW229823   0.821   1.506   2.185 -0.2390  0.4553 -3.4986
 6063SOL     OW29824   1.334   1.979  11.247 -0.7198 -0.7212  0.5361
 6063SOL    HW129825   1.429   1.972  11.258 -0.7309 -1.1615  0.3842
 6063SOL    HW229826   1.301   1.997  11.335 -1.2068  0.9055  0.0193
 6064SOL     OW29827   0.365   3.128   7.197 -0.3347  0.0353  0.3942
 6064SOL    HW129828   0.372   3.045   7.149 -0.7042  0.0222  0.3647
 6064SOL    HW229829   0.324   3.185   7.132  1.5109  1.2655  0.3319
 6065SOL     OW29830   0.426   1.272   1.333 -0.1383  0.3037 -0.4287
 6065SOL    HW129831   0.400   1.289   1.243 -1.7072 -1.2003 -0.2672
 6065SOL    HW229832   0.501   1.215   1.315 -1.9171 -1.3808 -2.4418
 6066SOL     OW29833   1.622   0.083   6.428  0.3773  0.5163 -0.8178
 6066SOL    HW129834   1.528   0.086   6.449  0.2346 -1.0542 -1.1936
 6066SOL    HW229835   1.620   0.011   6.365 -1.1849  2.5122 -3.0133
 6067SOL     OW29836   4.003   3.213  13.491 -0.4259 -0.2322  0.0748
 6067SOL    HW129837   3.933   3.241  13.432 -0.2261  1.0607  0.4471
 6067SOL    HW229838   4.084   3.230  13.442  0.1188  1.7658  1.6648
 6068SOL     OW29839   2.956   2.732   7.586 -0.0370  0.0071 -0.0972
 6068SOL    HW129840   2.959   2.638   7.569 -0.1126 -0.1033  0.5015
 6068SOL    HW229841   3.048   2.753   7.575 -0.3873  0.5799 -1.9165
 6069SOL     OW29842   4.275   1.990   2.651  0.0107  0.4376  0.6752
 6069SOL    HW129843   4.228   2.065   2.615  0.6865  1.1666  1.2965
 6069SOL    HW229844   4.349   1.974   2.592  0.4606  1.6005  0.9349
 6070SOL     OW29845   2.895   0.186   5.763 -0.1433 -0.2781 -0.8751
 6070SOL    HW129846   2.854   0.139   5.836  2.8411 -1.7078 -0.1290
 6070SOL    HW229847   2.977   0.216   5.802  0.0283 -1.9035 -0.0010
 6071SOL     OW29848   3.069   0.342  15.483 -0.1055  0.0858 -0.6447
 6071SOL    HW129849   3.046   0.265  15.432 -1.0683 -0.2872  0.3588
 6071SOL    HW229850   3.012   0.329  15.559  0.7129 -0.6269 -0.1431
 6072SOL     OW29851   3.877   2.663   5.309  0.1039 -0.3365  0.3516
 6072SOL    HW129852   3.894   2.656   5.215 -2.6404 -1.4801 -0.0345
 6072SOL    HW229853   3.803   2.723   5.318  0.0501 -0.4366  0.5735
 6073SOL     OW29854   2.654   3.639   6.282  0.0999 -0.0901  0.0194
 6073SOL    HW129855   2.671   3.630   6.188 -0.2793 -0.2139 -0.0377
 6073SOL    HW229856   2.716   3.578   6.322  1.0545  1.8513  1.5018
 6074SOL     OW29857   1.865   1.559   4.543 -0.0646  0.2269 -0.5019
 6074SOL    HW129858   1.908   1.475   4.562 -1.6390 -0.4934 -0.0430
 6074SOL    HW229859   1.923   1.623   4.584  0.3675  0.9815 -2.3253
 6075SOL     OW29860   0.116   4.109   1.480 -0.5560 -0.3592  0.1177
 6075SOL    HW129861   0.052   4.180   1.491 -1.6229 -1.0307 -1.6631
 6075SOL    HW229862   0.141   4.139   1.392  2.3135 -2.9475  0.0608
 6076SOL     OW29863   1.047   0.072   9.342 -0.0709  0.3997  0.4280
 6076SOL    HW129864   1.087   4.735   9.389  0.2502  0.2934 -0.0066
 6076SOL    HW229865   1.124   0.128   9.341 -0.0642  0.3878  0.2794
 6077SOL     OW29866   2.448   0.665   5.067 -0.3294 -0.2993 -0.8354
 6077SOL    HW129867   2.382   0.617   5.116 -0.2197 -0.1073 -0.5013
 6077SOL    HW229868   2.532   0.637   5.104 -1.2722  0.4328  1.8499
 6078SOL     OW29869   2.841   0.702   3.989  0.3444 -0.2373 -0.3349
 6078SOL    HW129870   2.787   0.653   4.051 -0.0655  1.2604  0.4852
 6078SOL    HW229871   2.863   0.634   3.925 -1.6915 -0.6813 -0.5544
 6079SOL     OW29872   1.722   4.344  14.687 -0.1251 -0.5108 -0.1311
 6079SOL    HW129873   1.781   4.389  14.627 -0.4858  2.2165  1.5533
 6079SOL    HW229874   1.697   4.270  14.631  0.8215 -0.0767 -1.1185
 6080SOL     OW29875   1.648   2.733   7.258 -0.0005 -0.0318 -0.2137
 6080SOL    HW129876   1.611   2.698   7.338 -0.0915  0.5684  0.0081
 6080SOL    HW229877   1.734   2.764   7.286  0.3262  0.7619 -2.0274
 6081SOL     OW29878   4.676   4.253   3.080  0.4310  0.0148 -0.2316
 6081SOL    HW129879   0.028   4.290   3.085  0.7814 -0.6094 -1.6943
 6081SOL    HW229880   4.630   4.330   3.047  1.4779  0.7575  0.0427
 6082SOL     OW29881   3.927   2.576   2.112 -0.1135 -0.0780 -0.1355
 6082SOL    HW129882   3.871   2.585   2.190  0.8864 -1.5130  0.7395
 6082SOL    HW229883   3.913   2.655   2.061 -1.7707  0.7644  1.6016
 6083SOL     OW29884   1.138   1.404   2.344  0.0721  0.1200 -0.1536
 6083SOL    HW129885   1.193   1.414   2.422  0.5898 -1.0121 -0.3830
 6083SOL    HW229886   1.080   1.335   2.376 -2.8406  2.1786 -1.0025
 6084SOL     OW29887   1.490   1.674  16.412  0.2692  0.4636  0.0996
 6084SOL    HW129888   1.576   1.633  16.398  0.7624  1.3650  0.4870
 6084SOL    HW229889   1.502   1.758  16.455  0.9435  0.5527 -0.2501
 6085SOL     OW29890   1.299   3.884   7.918 -0.2218  0.0614  0.4277
 6085SOL    HW129891   1.298   3.921   8.006 -0.5877  0.7635  0.1285
 6085SOL    HW229892   1.229   3.819   7.929  1.0440 -1.5342 -0.9400
 6086SOL     OW29893   1.003   1.470   6.882 -0.8849 -0.2604  0.4125
 6086SOL    HW129894   1.059   1.476   6.805 -0.9484  0.3451  0.4164
 6086SOL    HW229895   1.057   1.434   6.953 -1.4528  0.3069  1.1362
 6087SOL     OW29896   2.879   1.737   1.610 -0.5544  0.5785  0.5567
 6087SOL    HW129897   2.807   1.798   1.625 -1.6446 -0.3026 -1.0961
 6087SOL    HW229898   2.943   1.777   1.668 -0.0582  0.8022 -0.1509
 6088SOL     OW29899   4.058   3.188   0.141  0.1464  0.0447 -0.2173
 6088SOL    HW129900   4.079   3.256   0.076 -2.2000 -2.7336 -3.8401
 6088SOL    HW229901   4.054   3.114   0.081 -0.8413  0.6132 -0.8479
 6089SOL     OW29902   3.944   3.137  15.284 -0.2175  0.6694  0.3572
 6089SOL    HW129903   3.863   3.093  15.310 -1.7937  2.6389 -1.1899
 6089SOL    HW229904   3.916   3.159  15.195 -1.5747  1.8217  1.0684
 6090SOL     OW29905   0.996   4.214   2.529  0.1101  0.4300 -0.2117
 6090SOL    HW129906   1.083   4.220   2.488 -0.0700  2.4924 -0.3350
 6090SOL    HW229907   0.940   4.259   2.465 -0.6776 -0.1712  0.0613
 6091SOL     OW29908   2.341   3.646   5.948 -0.4602  0.7898  0.2842
 6091SOL    HW129909   2.427   3.609   5.970 -1.0543  0.2703  1.7331
 6091SOL    HW229910   2.290   3.565   5.956 -0.9208  0.9867 -0.6324
 6092SOL     OW29911   3.068   1.240   8.111 -0.6987  0.1667 -0.1159
 6092SOL    HW129912   3.142   1.231   8.172 -0.5542 -0.5273 -0.3879
 6092SOL    HW229913   3.109   1.208   8.031  1.3884  2.3128  0.0864
 6093SOL     OW29914   0.814   4.616   5.503 -0.5045  0.3259 -0.1360
 6093SOL    HW129915   0.859   4.613   5.419 -1.5794  3.4562 -0.8121
 6093SOL    HW229916   0.855   4.675   5.566 -0.0548  1.5224 -1.5690
 6094SOL     OW29917   2.342   2.705   7.871 -0.5224  0.1202 -0.1976
 6094SOL    HW129918   2.410   2.771   7.884 -0.4037 -0.3390  1.6026
 6094SOL    HW229919   2.383   2.639   7.816 -1.8304 -1.2467  0.4610
 6095SOL     OW29920   2.566   1.050   9.258  0.4937 -0.0756 -0.2416
 6095SOL    HW129921   2.519   1.128   9.225  0.9019  1.0648  1.8638
 6095SOL    HW229922   2.507   0.981   9.229 -1.6337  0.5922  2.4721
 6096SOL     OW29923   4.233   0.860   8.452 -0.6509  0.0481  0.0443
 6096SOL    HW129924   4.300   0.868   8.385 -0.7219 -2.0851 -0.2865
 6096SOL    HW229925   4.183   0.789   8.412 -1.3394  0.0919  0.8279
 6097SOL     OW29926   1.765   0.125   7.120  0.1555 -0.9914  0.2176
 6097SOL    HW129927   1.829   0.146   7.187 -1.1267  0.1825  1.0766
 6097SOL    HW229928   1.817   0.077   7.056  1.1113 -2.1542  1.8690
 6098SOL     OW29929   2.666   2.496   2.639  0.5922 -0.4299 -0.5864
 6098SOL    HW129930   2.725   2.454   2.701  0.5517  1.1802  0.5390
 6098SOL    HW229931   2.590   2.496   2.696  0.9359  1.3463 -0.1151
 6099SOL     OW29932   0.070   3.899   1.739 -0.1715 -0.6334  0.2436
 6099SOL    HW129933   0.011   3.959   1.693  0.9214 -1.3697 -2.1311
 6099SOL    HW229934   0.148   3.955   1.740 -0.4893 -0.1678 -1.1516
 6100SOL     OW29935   1.243   1.109   6.004  0.0537 -0.6057 -0.2420
 6100SOL    HW129936   1.252   1.106   6.099 -2.1258 -1.8272 -0.0780
 6100SOL    HW229937   1.175   1.043   5.994  0.7446 -1.2171 -0.9053
 6101SOL     OW29938   2.110   2.510   2.617  0.3215 -0.2522  0.2337
 6101SOL    HW129939   2.041   2.450   2.646  0.3181  0.2971  1.3514
 6101SOL    HW229940   2.068   2.582   2.569 -0.4400  0.8449  2.5559
 6102SOL     OW29941   0.677   3.013   4.309  0.0095 -0.2069  0.2837
 6102SOL    HW129942   0.590   2.997   4.273  0.5460 -0.5894 -0.8358
 6102SOL    HW229943   0.727   3.029   4.229  1.0283  0.3130  1.0315
 6103SOL     OW29944   2.371   1.413   8.038  0.1591 -0.3464 -0.5459
 6103SOL    HW129945   2.291   1.371   8.008 -2.4959  2.5192  2.4097
 6103SOL    HW229946   2.413   1.333   8.067  0.4288 -0.4066 -1.0979
 6104SOL     OW29947   4.599   0.010   4.353 -0.0766 -0.9446  0.4691
 6104SOL    HW129948   4.628   4.722   4.265 -0.1304  0.8011 -0.0236
 6104SOL    HW229949   4.683   0.015   4.397  1.3461  0.3007 -2.4181
 6105SOL     OW29950   0.290   4.123   6.994 -0.0735  0.0982  0.0428
 6105SOL    HW129951   0.207   4.085   6.965 -0.6974  0.0612  1.8705
 6105SOL    HW229952   0.348   4.047   6.988  1.7507  1.2613  3.2899
 6106SOL     OW29953   2.636   2.521  13.286 -0.0951  0.2072 -0.0224
 6106SOL    HW129954   2.606   2.602  13.327 -1.1931  0.3141 -1.0235
 6106SOL    HW229955   2.598   2.526  13.198  0.7618 -0.6324 -0.4404
 6107SOL     OW29956   2.886   2.317  12.287 -0.1783 -0.1516 -0.1961
 6107SOL    HW129957   2.883   2.358  12.374 -0.9443 -2.5127  0.9056
 6107SOL    HW229958   2.868   2.225  12.306 -0.7362 -0.1709 -0.8231
 6108SOL     OW29959   3.270   1.683   6.493  0.1583  0.3456  0.0519
 6108SOL    HW129960   3.326   1.605   6.494 -0.6518 -0.2965 -3.2935
 6108SOL    HW229961   3.327   1.760   6.495 -1.9607  1.9254 -0.9467
 6109SOL     OW29962   4.136   1.707   6.321  0.2092 -0.5940  0.4696
 6109SOL    HW129963   4.147   1.699   6.227  1.8180 -0.9466  0.6835
 6109SOL    HW229964   4.101   1.795   6.337  2.4660 -0.0122  2.2167
 6110SOL     OW29965   0.497   2.213  15.142 -0.0559 -0.2538  0.0962
 6110SOL    HW129966   0.486   2.180  15.232  0.8094 -1.6236 -0.3102
 6110SOL    HW229967   0.518   2.305  15.160  1.1133 -0.7196  1.1267
 6111SOL     OW29968   3.543   2.834   7.261  0.9476 -0.2274  0.0533
 6111SOL    HW129969   3.544   2.920   7.219 -1.2335  0.0086  0.4385
 6111SOL    HW229970   3.574   2.779   7.190  0.6862 -1.0345  0.5584
 6112SOL     OW29971   0.777   1.376   1.307  0.5351 -0.1763 -0.0778
 6112SOL    HW129972   0.706   1.439   1.322  1.5675  1.3944 -1.8285
 6112SOL    HW229973   0.734   1.303   1.351 -2.6851  1.2396 -0.8048
 6113SOL     OW29974   0.990   2.948   4.889 -0.0269  0.2346 -0.1186
 6113SOL    HW129975   0.992   2.902   4.973  1.4616  0.4755 -0.0236
 6113SOL    HW229976   0.943   2.887   4.832 -0.3093 -0.6636  1.0873
 6114SOL     OW29977   4.289   1.346   1.850  0.3721  0.2748  0.2026
 6114SOL    HW129978   4.260   1.388   1.931 -1.0675 -1.2942  0.4840
 6114SOL    HW229979   4.268   1.255   1.868  2.7925 -0.3673 -0.3084
 6115SOL     OW29980   3.633   3.097   3.016  0.2167 -0.7412 -0.4676
 6115SOL    HW129981   3.570   3.042   2.970 -0.5485 -0.6443  0.4575
 6115SOL    HW229982   3.569   3.151   3.063 -0.0629 -0.9154 -0.6493
 6116SOL     OW29983   2.823   4.539   9.666  0.1299  0.2498 -0.0428
 6116SOL    HW129984   2.881   4.614   9.676 -0.9244  1.0764 -0.1179
 6116SOL    HW229985   2.800   4.538   9.573 -0.4350  0.8841  0.0929
 6117SOL     OW29986   3.594   2.941   9.046 -0.0012  0.3370  0.7257
 6117SOL    HW129987   3.613   2.852   9.015 -0.5670  0.6905 -0.6615
 6117SOL    HW229988   3.513   2.952   8.997 -0.1031  1.7749  1.2164
 6118SOL     OW29989   2.807   3.532   9.953 -0.2014  0.2844  0.0843
 6118SOL    HW129990   2.891   3.492   9.976  0.6904  1.1178 -1.7404
 6118SOL    HW229991   2.764   3.544  10.038  0.2430 -0.9304  0.4817
 6119SOL     OW29992   1.531   3.732   9.489  0.5906 -0.5484 -0.3660
 6119SOL    HW129993   1.520   3.726   9.584  2.0542  2.2064  0.0048
 6119SOL    HW229994   1.518   3.640   9.465  0.4126 -1.0989  1.8817
 6120SOL     OW29995   2.013   4.114   2.105 -0.1907 -0.3130  0.3601
 6120SOL    HW129996   1.944   4.054   2.074 -1.3449 -0.5979  3.4136
 6120SOL    HW229997   2.031   4.155   2.021  3.3234 -2.8889 -0.1304
 6121SOL     OW29998   1.305   3.113   2.602 -0.4980 -0.3925  0.0397
 6121SOL    HW129999   1.392   3.116   2.562 -0.4290  0.8302  0.2852
 6121SOL    HW230000   1.258   3.074   2.529  1.2951 -0.1887 -1.2257
 6122SOL     OW30001   0.894   0.892   4.461 -0.4014 -0.3505 -0.4254
 6122SOL    HW130002   0.937   0.972   4.431 -0.0501  0.0213  1.0775
 6122SOL    HW230003   0.880   0.840   4.382 -1.3583  2.6223 -2.2164
 6123SOL     OW30004   0.875   1.178   4.575  0.7155 -0.0780 -0.6441
 6123SOL    HW130005   0.816   1.104   4.590  0.9667  0.2750  2.0145
 6123SOL    HW230006   0.885   1.180   4.480 -1.9794 -0.8364 -0.9386
 6124SOL     OW30007   2.146   2.239  14.056 -0.4960 -0.3754  0.4788
 6124SOL    HW130008   2.057   2.203  14.057 -0.4230 -0.5432  1.0131
 6124SOL    HW230009   2.152   2.277  13.969 -0.2066  0.4534  0.8684
 6125SOL     OW30010   4.226   1.230  13.977  0.1052  0.2190  0.2229
 6125SOL    HW130011   4.144   1.182  13.989  0.2350  0.0512  0.4540
 6125SOL    HW230012   4.296   1.168  13.956  1.0655  1.9816 -1.7131
 6126SOL     OW30013   2.077   4.038   6.148  0.9848  0.2473 -0.3761
 6126SOL    HW130014   2.163   4.027   6.188  0.9924  0.0026 -0.4579
 6126SOL    HW230015   2.076   3.968   6.083  3.4549  0.3285 -0.5011
 6127SOL     OW30016   1.008   4.191   6.396  0.1779 -0.3544 -0.7491
 6127SOL    HW130017   1.048   4.234   6.320 -0.5409  1.2152 -0.2539
 6127SOL    HW230018   1.040   4.248   6.467 -0.2931 -1.5361  0.3926
 6128SOL     OW30019   4.225   2.928   0.379 -0.2106  0.9393 -0.1619
 6128SOL    HW130020   4.303   2.967   0.340  0.6587 -0.2647  0.3588
 6128SOL    HW230021   4.247   2.931   0.472  1.5033 -0.0178 -0.5176
 6129SOL     OW30022   0.624   2.925   7.730 -0.1006  0.1029 -0.6677
 6129SOL    HW130023   0.705   2.874   7.738 -0.2558  0.3863  2.5251
 6129SOL    HW230024   0.556   2.859   7.718 -0.3849  0.2657  0.0428
 6130SOL     OW30025   1.559   3.284   0.555 -0.2510 -0.1399 -0.1796
 6130SOL    HW130026   1.515   3.208   0.592  2.1397 -2.5895 -2.3933
 6130SOL    HW230027   1.555   3.345   0.629  0.5186  1.5462 -1.5077
 6131SOL     OW30028   1.769   1.078   7.383  0.3156  0.6789  0.3549
 6131SOL    HW130029   1.772   0.983   7.375 -1.5065  0.3312  4.0175
 6131SOL    HW230030   1.809   1.084   7.470 -2.4336 -0.7472  1.7314
 6132SOL     OW30031   0.429   0.183   7.506 -0.6061 -0.7416 -0.0538
 6132SOL    HW130032   0.375   0.104   7.506 -0.5108 -0.8016  1.6687
 6132SOL    HW230033   0.464   0.180   7.417 -3.0462 -0.6778 -1.0352
 6133SOL     OW30034   0.474   0.817   1.748  0.1661 -0.3629  0.5955
 6133SOL    HW130035   0.557   0.828   1.702 -0.3735 -0.8965 -0.4936
 6133SOL    HW230036   0.415   0.814   1.673  1.4802 -1.9893 -0.3889
 6134SOL     OW30037   2.333   0.794   7.808  0.5423  0.3834  0.3416
 6134SOL    HW130038   2.405   0.827   7.861  0.9196  1.7735 -1.0668
 6134SOL    HW230039   2.361   0.703   7.814 -2.2494 -0.4055  1.8684
 6135SOL     OW30040   2.344   0.948   4.363 -0.3516 -0.2144 -0.0564
 6135SOL    HW130041   2.305   0.909   4.441 -0.2122 -1.5282 -0.6492
 6135SOL    HW230042   2.344   0.884   4.292  0.0442  1.9449 -1.9888
 6136SOL     OW30043   0.031   2.960   5.625 -0.1135 -0.6171  0.1856
 6136SOL    HW130044   0.125   2.943   5.625 -0.0865 -0.4489 -0.3295
 6136SOL    HW230045   0.014   2.897   5.695 -0.7821 -1.7350 -0.9779
 6137SOL     OW30046   4.555   1.266  17.715  0.2916 -0.2950  0.2727
 6137SOL    HW130047   4.543   1.355  17.684 -2.4126  0.1005  2.4421
 6137SOL    HW230048   4.501   1.218  17.652  1.7995 -1.5473 -0.0637
 6138SOL     OW30049   2.373   4.211   7.260  0.9657  0.0215 -0.0538
 6138SOL    HW130050   2.312   4.240   7.328  0.5243 -1.4409  0.1706
 6138SOL    HW230051   2.307   4.199   7.192  1.0399 -0.7131  0.0110
 6139SOL     OW30052   2.512   0.094   3.310  0.2840  0.1602 -0.3255
 6139SOL    HW130053   2.428   0.102   3.355  0.3458 -1.0838  0.0071
 6139SOL    HW230054   2.495   0.080   3.217  1.3124 -1.1102 -0.3096
 6140SOL     OW30055   1.393   2.265  16.246  0.3029  0.1974  0.2273
 6140SOL    HW130056   1.316   2.210  16.257  0.5226 -0.6970 -2.7893
 6140SOL    HW230057   1.415   2.288  16.336 -1.3096 -0.4550  0.7709
 6141SOL     OW30058   3.528   0.030   4.111  0.1707  0.3948 -0.5501
 6141SOL    HW130059   3.606   4.719   4.082 -0.6589 -2.3775  1.7345
 6141SOL    HW230060   3.499   0.080   4.036  1.0842  2.1862  0.2910
 6142SOL     OW30061   0.774   1.912  13.829  0.0713  0.3662 -0.2466
 6142SOL    HW130062   0.756   1.991  13.778 -1.2812  1.4531  1.9280
 6142SOL    HW230063   0.702   1.855  13.800  0.1765 -0.6074  1.4153
 6143SOL     OW30064   0.796   1.727  10.492  0.3218  0.1385 -0.6101
 6143SOL    HW130065   0.768   1.818  10.488 -0.4054 -0.0024  1.0505
 6143SOL    HW230066   0.872   1.726  10.434  0.7266  1.2187 -0.0845
 6144SOL     OW30067   2.633   1.695   2.548 -0.0436  0.6046  0.1711
 6144SOL    HW130068   2.577   1.720   2.474 -0.6152  0.5333  0.5822
 6144SOL    HW230069   2.718   1.693   2.505 -1.4488  0.6843 -2.5953
 6145SOL     OW30070   1.132   4.075  10.668 -0.3134  0.9016  0.2343
 6145SOL    HW130071   1.048   4.089  10.624 -0.6565 -1.7249  0.0375
 6145SOL    HW230072   1.126   3.984  10.697  2.5941  0.0383 -1.7586
 6146SOL     OW30073   1.285   0.265   3.572 -0.7026  0.0049  0.5334
 6146SOL    HW130074   1.298   0.212   3.651  0.6083  0.1082  0.3827
 6146SOL    HW230075   1.193   0.243   3.557 -0.3010 -2.4908  1.7806
 6147SOL     OW30076   4.034   0.592   5.078  0.0597  0.4792  0.1085
 6147SOL    HW130077   4.001   0.661   5.136 -2.7231 -3.1331  2.7852
 6147SOL    HW230078   4.080   0.542   5.144 -0.2247  2.8220  2.0825
 6148SOL     OW30079   0.121   2.666   4.756 -0.5329 -1.0700  0.1042
 6148SOL    HW130080   0.200   2.719   4.746 -1.4910  0.2209 -0.5734
 6148SOL    HW230081   0.105   2.676   4.849 -2.3554  0.7077 -0.3969
 6149SOL     OW30082   4.683   1.835   6.886  0.0423 -0.0500 -0.1809
 6149SOL    HW130083   4.636   1.786   6.818  2.2012 -1.5905 -0.5771
 6149SOL    HW230084   0.019   1.865   6.831 -1.2789  1.2563 -1.2235
 6150SOL     OW30085   0.029   4.595  17.330  0.4131 -0.2543  0.3503
 6150SOL    HW130086   0.124   4.593  17.343  0.4212  0.1328  0.3495
 6150SOL    HW230087   4.731   4.512  17.363  0.2661 -0.5285 -0.4905
 6151SOL     OW30088   1.146   2.929   7.573 -0.0434  0.1271  0.0717
 6151SOL    HW130089   1.194   2.864   7.623 -0.5414  1.1782  1.9252
 6151SOL    HW230090   1.214   2.977   7.525 -0.3999 -0.6322 -1.1836
 6152SOL     OW30091   0.002   4.228   3.876  0.0597 -0.3307  0.7787
 6152SOL    HW130092   4.693   4.265   3.800  0.4829  2.2371  1.7899
 6152SOL    HW230093   4.661   4.184   3.913 -1.4865  2.7379  1.2191
 6153SOL     OW30094   0.389   4.348   2.303  0.4318  0.1443 -0.3583
 6153SOL    HW130095   0.304   4.393   2.302  0.5846  0.3960 -1.8044
 6153SOL    HW230096   0.378   4.273   2.361  0.5636  0.3343 -0.0866
 6154SOL     OW30097   3.240   2.047   6.202 -0.5610  0.1234  0.2190
 6154SOL    HW130098   3.305   1.997   6.252 -0.0584  1.1145  0.5661
 6154SOL    HW230099   3.167   1.986   6.192  0.0984 -0.8215  1.1926
 6155SOL     OW30100   0.275   4.065   1.683 -0.2256  0.0560  0.4325
 6155SOL    HW130101   0.356   4.106   1.653 -0.3941 -0.3410 -0.5602
 6155SOL    HW230102   0.221   4.085   1.606  0.6477 -0.8581 -0.4216
 6156SOL     OW30103   3.108   4.566   2.338 -0.0393 -0.5768  0.1851
 6156SOL    HW130104   3.178   4.610   2.387 -0.7345  1.1531 -0.3865
 6156SOL    HW230105   3.051   4.577   2.414 -0.8894 -1.6961 -0.2942
 6157SOL     OW30106   0.099   1.678   0.328 -0.2793 -0.1778 -0.2610
 6157SOL    HW130107   0.033   1.627   0.375 -1.2133  1.0474 -0.2282
 6157SOL    HW230108   0.097   1.636   0.242 -0.4881 -0.6421 -0.0269
 6158SOL     OW30109   0.831   0.926   5.470 -0.7828 -0.3603  0.2398
 6158SOL    HW130110   0.851   1.013   5.436  0.4545 -0.2330  1.2758
 6158SOL    HW230111   0.776   0.949   5.545 -0.2994 -0.6393  0.6806
 6159SOL     OW30112   3.018   4.426   5.777 -0.3432 -0.1592  0.0222
 6159SOL    HW130113   2.944   4.427   5.716  0.8642 -1.0447 -1.4508
 6159SOL    HW230114   3.066   4.508   5.762 -1.0340  0.0244 -1.2353
 6160SOL     OW30115   4.082   1.305   5.903 -0.1929  0.8724 -0.0418
 6160SOL    HW130116   4.105   1.255   5.982 -0.5592 -1.5752 -1.5186
 6160SOL    HW230117   4.124   1.389   5.923  0.0544  0.6495  0.3810
 6161SOL     OW30118   0.519   1.731   1.762 -0.3818  0.1015  0.4885
 6161SOL    HW130119   0.453   1.667   1.786 -0.3966  0.4020  1.2345
 6161SOL    HW230120   0.470   1.798   1.714  0.1038  0.0483 -0.0878
 6162SOL     OW30121   3.479   4.435  11.054 -0.2613  0.0198 -0.1267
 6162SOL    HW130122   3.487   4.384  11.134  1.2957 -0.3037 -0.4954
 6162SOL    HW230123   3.383   4.444  11.049 -0.3276 -0.7242 -0.2030
 6163SOL     OW30124   3.672   2.888  10.526 -0.5374  0.4290  0.0941
 6163SOL    HW130125   3.674   2.823  10.455 -0.8611 -0.2126  0.6788
 6163SOL    HW230126   3.679   2.969  10.475  1.1302 -0.0164 -0.3796
 6164SOL     OW30127   2.530   2.431   8.748 -0.3883  0.1927 -0.4092
 6164SOL    HW130128   2.503   2.484   8.823  2.1252  0.9576 -0.0148
 6164SOL    HW230129   2.600   2.378   8.786 -1.9379  1.1828  3.8464
 6165SOL     OW30130   1.095   3.806   0.966  0.0884 -0.5042  0.1520
 6165SOL    HW130131   1.137   3.826   1.050  2.0210  2.0769 -1.4263
 6165SOL    HW230132   1.015   3.858   0.973  1.0648  1.0662 -0.3072
 6166SOL     OW30133   2.233   3.514   3.757  0.5777 -0.0621 -0.3071
 6166SOL    HW130134   2.233   3.610   3.754  1.1202  0.0038  2.0836
 6166SOL    HW230135   2.190   3.495   3.674  2.0203 -0.0292 -1.0632
 6167SOL     OW30136   1.552   2.220  15.719  0.4567 -0.2681  0.1813
 6167SOL    HW130137   1.561   2.215  15.814 -1.7461 -2.8741  0.2507
 6167SOL    HW230138   1.468   2.264  15.724  1.1989  1.2901 -0.8039
 6168SOL     OW30139   4.374   0.755   9.290 -0.3126  0.5735  0.5699
 6168SOL    HW130140   4.439   0.731   9.223 -0.4734 -0.4743  0.7906
 6168SOL    HW230141   4.359   0.671   9.333 -0.2375  0.6809  0.8037
 6169SOL     OW30142   1.421   2.281  11.358  0.2730  0.2436  0.3139
 6169SOL    HW130143   1.399   2.321  11.275  0.5028  2.5726  1.3822
 6169SOL    HW230144   1.343   2.227  11.371 -0.3532  1.0975  0.0243
 6170SOL     OW30145   3.064   0.710  16.734  0.5431  0.5300  0.2589
 6170SOL    HW130146   3.051   0.634  16.790 -0.8062  0.3580 -0.2812
 6170SOL    HW230147   2.978   0.752  16.735  0.6618  0.7621  1.0475
 6171SOL     OW30148   3.478   0.245   6.657 -0.2472  0.4526 -0.0241
 6171SOL    HW130149   3.420   0.168   6.661 -1.2727  1.1476 -1.4605
 6171SOL    HW230150   3.566   0.208   6.660 -0.3210  0.2827  0.0779
 6172SOL     OW30151   0.040   1.237   2.432  0.2884  0.2694 -0.4550
 6172SOL    HW130152   4.683   1.238   2.409  0.3555 -1.3691 -0.7827
 6172SOL    HW230153   0.065   1.278   2.350  0.3531  1.0939 -0.0236
 6173SOL     OW30154   0.638   1.752  10.976 -0.1285  0.3806 -0.6091
 6173SOL    HW130155   0.617   1.741  10.884 -0.1905  0.3917 -0.5968
 6173SOL    HW230156   0.720   1.801  10.971  0.5870 -0.3925  3.3094
 6174SOL     OW30157   3.902   1.106   6.113  0.4734 -0.0505  0.0087
 6174SOL    HW130158   3.883   1.149   6.030  0.7192  2.2761  1.1540
 6174SOL    HW230159   3.879   1.176   6.175  1.2792  0.5472 -0.3759
 6175SOL     OW30160   0.876   0.708   8.552 -0.5820  0.2302 -0.1173
 6175SOL    HW130161   0.888   0.802   8.569 -1.3979  0.3253 -0.0220
 6175SOL    HW230162   0.820   0.700   8.475 -0.8175 -0.4293  0.1238
 6176SOL     OW30163   2.851   0.045   5.295 -0.6717  0.0853 -0.0576
 6176SOL    HW130164   2.871   0.068   5.204  0.1149  0.4631  0.2137
 6176SOL    HW230165   2.854   4.686   5.287  2.5272 -0.0853  3.4229
 6177SOL     OW30166   2.518   4.077  15.387 -0.3164 -0.3534  0.4923
 6177SOL    HW130167   2.426   4.072  15.359 -0.1569  1.1986 -0.3068
 6177SOL    HW230168   2.550   4.008  15.328 -3.2556 -1.2739 -0.0191
 6178SOL     OW30169   1.298   4.317   5.833 -0.2645  0.4876  0.0112
 6178SOL    HW130170   1.374   4.274   5.792 -0.2682  1.5227 -1.0775
 6178SOL    HW230171   1.261   4.354   5.752 -3.6366 -0.6259  1.0569
 6179SOL     OW30172   1.836   2.809  15.164 -0.0796  0.1209  0.5075
 6179SOL    HW130173   1.808   2.717  15.164 -1.1014  0.4353 -1.5134
 6179SOL    HW230174   1.759   2.858  15.135 -0.6056 -1.4932 -0.8138
 6180SOL     OW30175   2.375   3.782  15.642 -0.3377 -0.5867 -0.3699
 6180SOL    HW130176   2.340   3.734  15.567 -0.9457 -1.1917  0.2977
 6180SOL    HW230177   2.469   3.781  15.622  0.0579 -1.9923  1.5341
 6181SOL     OW30178   2.190   2.921  15.196 -0.3776  0.8145 -0.0377
 6181SOL    HW130179   2.196   2.957  15.108  0.1840  3.8500  1.2243
 6181SOL    HW230180   2.166   2.829  15.183  1.9341 -0.0890  2.0733
 6182SOL     OW30181   3.801   4.313   3.827 -0.4713 -0.2166 -0.1484
 6182SOL    HW130182   3.810   4.309   3.922 -1.8305  0.0439 -0.0033
 6182SOL    HW230183   3.847   4.393   3.803  0.5597 -0.8342 -0.2285
 6183SOL     OW30184   4.659   4.676  10.087  0.7118 -0.6067 -0.1742
 6183SOL    HW130185   4.576   4.708  10.123  0.1539 -1.0968 -1.0226
 6183SOL    HW230186   4.624   4.645  10.003 -1.1079  1.6450 -0.2259
 6184SOL     OW30187   1.478   1.984   0.867  0.5136 -0.4954  0.2318
 6184SOL    HW130188   1.520   1.974   0.782 -0.2019  0.7148 -0.2770
 6184SOL    HW230189   1.537   2.045   0.912  1.3777 -0.1063 -1.4362
 6185SOL     OW30190   3.888   1.803   5.928 -0.4294 -0.0830  0.2085
 6185SOL    HW130191   3.949   1.777   5.859 -0.6963  1.7352 -0.7305
 6185SOL    HW230192   3.805   1.775   5.892  0.2917  0.6554 -2.0335
 6186SOL     OW30193   1.184   2.154   4.942  0.1236 -0.4996  0.1233
 6186SOL    HW130194   1.103   2.110   4.919 -1.3189  1.4987  1.3959
 6186SOL    HW230195   1.250   2.093   4.909 -1.6305 -0.5031 -3.3859
 6187SOL     OW30196   0.273   3.870  16.542  0.0813  0.0966  0.1485
 6187SOL    HW130197   0.192   3.840  16.502  0.0458 -1.8027  1.6450
 6187SOL    HW230198   0.248   3.961  16.557  1.4789  0.1208  2.4871
 6188SOL     OW30199   3.880   1.770   8.318 -0.0611  0.6282  0.5797
 6188SOL    HW130200   3.800   1.764   8.372  0.2452  0.9200  1.0685
 6188SOL    HW230201   3.924   1.828   8.380  0.9235  1.2793 -0.7371
 6189SOL     OW30202   1.723   4.648   6.048  0.2359 -0.3193  0.2619
 6189SOL    HW130203   1.700   4.714   5.983  1.9129  1.2465  1.2580
 6189SOL    HW230204   1.796   4.604   6.004 -0.3275 -1.4047  0.4195
 6190SOL     OW30205   4.297   0.798   5.598 -0.2659 -0.1403  0.1453
 6190SOL    HW130206   4.339   0.883   5.613  1.1674 -1.0397  1.1807
 6190SOL    HW230207   4.363   0.756   5.544  1.7186  2.4551  0.5458
 6191SOL     OW30208   0.444   4.477   3.629  0.2791  0.2459  0.2501
 6191SOL    HW130209   0.369   4.445   3.679  1.3431 -2.0190  0.4044
 6191SOL    HW230210   0.399   4.516   3.555 -0.5532  1.2935  1.3089
 6192SOL     OW30211   2.115   3.952   9.439 -0.2405  0.2693  0.2743
 6192SOL    HW130212   2.049   3.972   9.506 -1.5679 -0.1484 -0.9143
 6192SOL    HW230213   2.193   3.999   9.468  1.9187 -3.0486 -0.2002
 6193SOL     OW30214   3.215   3.539  13.142 -0.0557  0.3662 -0.5373
 6193SOL    HW130215   3.300   3.564  13.105  0.3809 -0.1508  0.1071
 6193SOL    HW230216   3.252   3.514  13.227  0.9248  0.1925 -1.0206
 6194SOL     OW30217   4.484   0.048  11.758  0.4281  0.4464  0.5689
 6194SOL    HW130218   4.566   0.096  11.765 -0.8694  2.8277 -0.4556
 6194SOL    HW230219   4.475   0.028  11.851  2.5843  1.3699  0.9690
 6195SOL     OW30220   0.951   3.902   8.348  0.3800  0.1366 -0.2841
 6195SOL    HW130221   0.936   3.810   8.370  1.1754  0.0596 -0.0447
 6195SOL    HW230222   0.985   3.929   8.434 -1.5396 -0.2931  0.5998
 6196SOL     OW30223   3.782   1.073   7.035 -0.8827  0.3351  0.5785
 6196SOL    HW130224   3.877   1.073   7.048 -0.7697  2.0591 -0.2846
 6196SOL    HW230225   3.762   1.030   7.119 -1.0380 -0.3788  0.1745
 6197SOL     OW30226   0.377   2.143   7.038  0.5700 -0.2131 -0.0981
 6197SOL    HW130227   0.453   2.109   7.086  0.5767 -1.1399 -0.7538
 6197SOL    HW230228   0.338   2.058   7.015 -0.1552  0.0005  0.3332
 6198SOL     OW30229   0.530   4.019  10.949 -0.0572 -0.3592  0.1094
 6198SOL    HW130230   0.527   4.099  11.000  0.9894 -0.1609 -0.1363
 6198SOL    HW230231   0.445   3.986  10.979 -0.4582 -1.0701 -1.8206
 6199SOL     OW30232   2.963   4.102   7.783 -0.1882  0.0062 -0.2762
 6199SOL    HW130233   2.900   4.172   7.801 -1.1841 -1.4098  1.7620
 6199SOL    HW230234   2.919   4.034   7.834  0.4184 -0.5501 -0.4915
 6200SOL     OW30235   2.901   1.687   5.203 -0.2304 -0.2561 -0.1411
 6200SOL    HW130236   2.894   1.613   5.144 -0.0334 -2.7417  2.9668
 6200SOL    HW230237   2.887   1.647   5.289 -3.9606 -0.1802 -0.7260
 6201SOL     OW30238   3.736   3.472   2.394  0.1399 -0.1581  0.1969
 6201SOL    HW130239   3.708   3.399   2.338 -1.6966  0.9388 -0.3256
 6201SOL    HW230240   3.688   3.454   2.475 -0.1131  0.0297  0.0918
 6202SOL     OW30241   1.931   0.156   8.853 -0.0589 -0.0971 -0.1473
 6202SOL    HW130242   1.853   0.113   8.818  0.3459  1.6462 -3.1448
 6202SOL    HW230243   1.967   0.175   8.766  0.2346  1.5331  0.3393
 6203SOL     OW30244   1.437   3.630  15.234  0.5382 -0.1457  0.0734
 6203SOL    HW130245   1.457   3.597  15.146  0.6692 -0.6705  0.2952
 6203SOL    HW230246   1.466   3.721  15.233  1.8249 -0.5641 -1.0135
 6204SOL     OW30247   3.348   3.043  11.348 -0.1165  0.0963  0.9052
 6204SOL    HW130248   3.320   3.085  11.429 -1.9827  0.3984  0.1110
 6204SOL    HW230249   3.276   2.980  11.347  0.7652 -0.8862 -0.4430
 6205SOL     OW30250   3.414   3.097   4.617 -0.0609 -0.2239  0.1097
 6205SOL    HW130251   3.411   3.189   4.591 -1.3558  0.6274  3.3280
 6205SOL    HW230252   3.507   3.080   4.626 -0.0461 -0.3542 -0.2695
 6206SOL     OW30253   1.271   1.489   1.361 -0.5684 -0.7429 -0.5165
 6206SOL    HW130254   1.271   1.428   1.288  1.1309 -0.0978 -1.0519
 6206SOL    HW230255   1.316   1.564   1.323 -1.5572  0.0711 -0.0869
 6207SOL     OW30256   3.506   0.847   3.164 -0.2806 -0.3130 -0.4496
 6207SOL    HW130257   3.417   0.880   3.174  0.3267  1.3656 -0.6075
 6207SOL    HW230258   3.537   0.872   3.251 -1.5086  0.1779 -0.1593
 6208SOL     OW30259   1.737   0.324   4.542 -0.3801  0.5723  0.4759
 6208SOL    HW130260   1.734   0.306   4.448 -0.8184  0.0094  0.5978
 6208SOL    HW230261   1.721   0.235   4.573  0.1783  0.9874  1.9092
 6209SOL     OW30262   3.688   0.517   4.411 -0.0463  0.2112  0.1578
 6209SOL    HW130263   3.634   0.442   4.434  0.5668  0.0058  0.9609
 6209SOL    HW230264   3.699   0.551   4.500  1.7875  0.1306 -0.0366
 6210SOL     OW30265   2.741   2.429  17.235  0.3732  0.1585  0.1878
 6210SOL    HW130266   2.803   2.417  17.163  0.2015 -0.6497  0.1775
 6210SOL    HW230267   2.788   2.480  17.301  0.7536 -2.5174  1.9611
 6211SOL     OW30268   3.619   1.415   9.560  0.5382  0.6302 -0.2136
 6211SOL    HW130269   3.538   1.453   9.527 -1.6036 -2.1295  1.8217
 6211SOL    HW230270   3.659   1.493   9.597 -0.7181  1.2776 -0.2066
 6212SOL     OW30271   4.261   2.447   6.374  0.6552  0.1089 -0.2702
 6212SOL    HW130272   4.225   2.536   6.378  0.3850 -0.0156  0.0897
 6212SOL    HW230273   4.354   2.470   6.381  0.3694  1.6031 -1.5073
 6213SOL     OW30274   0.839   0.911   3.646  0.4642  0.0049  0.3975
 6213SOL    HW130275   0.790   0.968   3.586  0.3778  1.2520  1.6707
 6213SOL    HW230276   0.929   0.912   3.613  0.1132  1.6826 -0.5068
 6214SOL     OW30277   2.055   1.717   8.155  0.8223  0.1531 -0.0845
 6214SOL    HW130278   2.065   1.632   8.112  3.1012  2.4889 -4.1562
 6214SOL    HW230279   2.019   1.772   8.085 -0.6890 -1.3653 -0.4869
 6215SOL     OW30280   1.886   0.981  12.979  0.3802 -0.3152 -0.8104
 6215SOL    HW130281   1.913   0.891  13.000 -0.7289 -0.1735  1.2445
 6215SOL    HW230282   1.791   0.972  12.981  0.5487 -0.7738  3.8101
 6216SOL     OW30283   3.108   2.940   5.465  0.0302 -0.6274 -0.9267
 6216SOL    HW130284   3.024   2.981   5.484 -0.0376 -1.0439 -0.3487
 6216SOL    HW230285   3.157   2.989   5.532 -1.7256 -1.0602  0.6672
 6217SOL     OW30286   4.518   1.976   7.736  0.0336  0.5306  0.1852
 6217SOL    HW130287   4.511   2.035   7.811  0.1063  1.5997 -0.6397
 6217SOL    HW230288   4.601   1.990   7.689  0.3718 -0.0892  0.5969
 6218SOL     OW30289   3.181   3.220   5.330  0.3676  0.2426  0.2432
 6218SOL    HW130290   3.143   3.155   5.388  0.0917  2.1119  2.1732
 6218SOL    HW230291   3.213   3.165   5.258 -0.0088  2.0765 -1.3246
 6219SOL     OW30292   3.698   0.461   3.096  0.1818 -0.3850  0.2019
 6219SOL    HW130293   3.754   0.387   3.118  0.0255 -1.0999 -1.7774
 6219SOL    HW230294   3.725   0.470   3.004 -1.7552 -0.6947 -0.3949
 6220SOL     OW30295   2.700   0.945   3.350 -0.7764  0.6703  0.4068
 6220SOL    HW130296   2.637   0.922   3.281 -1.0174  1.1457  0.4672
 6220SOL    HW230297   2.650   1.016   3.390  1.1362  1.2530  1.7084
 6221SOL     OW30298   3.395   0.042   9.059  0.4164 -0.2546 -0.2551
 6221SOL    HW130299   3.301   0.024   9.057  0.3481  0.0317  0.8951
 6221SOL    HW230300   3.397   0.132   9.089  2.6356 -0.6317  0.7247
 6222SOL     OW30301   0.306   0.784   2.117 -0.1004 -0.2395 -0.1309
 6222SOL    HW130302   0.339   0.741   2.038  2.0446  1.0266  0.0882
 6222SOL    HW230303   0.275   0.871   2.092 -1.7258 -1.2852 -1.7096
 6223SOL     OW30304   3.264   1.955   7.815  0.3154 -0.2720  0.0505
 6223SOL    HW130305   3.240   1.943   7.907 -0.2621  0.6072  0.0139
 6223SOL    HW230306   3.279   1.864   7.788 -1.2012  0.1935 -2.3149
 6224SOL     OW30307   3.279   1.647   5.445 -0.1137  0.7472 -0.2479
 6224SOL    HW130308   3.219   1.652   5.370  1.1924 -0.5276 -1.3876
 6224SOL    HW230309   3.330   1.727   5.432  0.1793  0.6249  0.1634
 6225SOL     OW30310   4.408   4.672   2.269  0.1175 -0.7702  0.1935
 6225SOL    HW130311   4.347   4.612   2.226  0.4546 -0.0462 -1.2631
 6225SOL    HW230312   4.374   4.665   2.359 -1.6696  0.5590 -0.3950
 6226SOL     OW30313   0.170   2.269   0.323  0.1188 -0.1436 -0.0173
 6226SOL    HW130314   0.121   2.233   0.397 -1.3685 -2.0198 -1.9565
 6226SOL    HW230315   0.105   2.255   0.254 -0.3725 -0.8919  0.5914
 6227SOL     OW30316   2.398   2.212   4.384  0.0872  0.4332  1.0860
 6227SOL    HW130317   2.354   2.194   4.300  2.7760  0.1071 -0.2486
 6227SOL    HW230318   2.459   2.139   4.378  1.9880  2.2498 -1.7929
 6228SOL     OW30319   2.144   4.409   9.264  0.4757  0.2857  0.1981
 6228SOL    HW130320   2.161   4.434   9.173 -0.1503 -0.3662 -0.1013
 6228SOL    HW230321   2.078   4.471   9.293  0.0919  1.0365 -2.2102
 6229SOL     OW30322   1.822   2.544   7.019  0.5306  0.8840 -0.0306
 6229SOL    HW130323   1.806   2.467   6.965 -4.2518 -0.4520  3.3070
 6229SOL    HW230324   1.774   2.516   7.097 -0.3933  2.6871  0.0376
 6230SOL     OW30325   2.200   4.317   7.448 -0.0591 -0.1134 -0.5815
 6230SOL    HW130326   2.107   4.314   7.469  0.1739 -0.5964  0.3417
 6230SOL    HW230327   2.225   4.239   7.497 -2.7188 -2.0166 -2.2442
 6231SOL     OW30328   0.428   0.251  10.875  0.0736  0.2495 -0.4724
 6231SOL    HW130329   0.499   0.261  10.939 -3.0311  0.2574  2.9993
 6231SOL    HW230330   0.372   0.313  10.920  1.0212  0.3941  0.5087
 6232SOL     OW30331   3.497   3.586  13.081  0.0572 -0.8030  0.7796
 6232SOL    HW130332   3.537   3.666  13.047 -2.7220 -0.1549 -0.9693
 6232SOL    HW230333   3.495   3.530  13.004 -1.1408 -0.4028  0.5175
 6233SOL     OW30334   1.689   4.021   4.749  0.6188  0.1000  0.2521
 6233SOL    HW130335   1.640   4.069   4.683  1.7985 -1.2118 -1.5818
 6233SOL    HW230336   1.648   3.934   4.750  0.8504  0.0108  2.6310
 6234SOL     OW30337   0.197   4.229   9.023  0.4687  0.0183  0.0763
 6234SOL    HW130338   0.181   4.267   8.936  0.2025  0.3428  0.2641
 6234SOL    HW230339   0.221   4.143   8.989 -0.1553 -0.6922  1.4029
 6235SOL     OW30340   3.381   2.326   2.794 -0.5846 -0.1311  0.2710
 6235SOL    HW130341   3.418   2.247   2.833 -2.9206 -0.6792  1.3894
 6235SOL    HW230342   3.349   2.362   2.876 -1.0109 -1.7756  0.8407
 6236SOL     OW30343   1.705   2.965  15.985  0.3055 -0.3159  0.3122
 6236SOL    HW130344   1.616   2.986  15.956 -0.0734 -1.2033  0.8233
 6236SOL    HW230345   1.757   3.039  15.954  0.1272 -0.8015 -1.1034
 6237SOL     OW30346   1.532   1.803   0.043 -0.4839 -0.4805  0.4101
 6237SOL    HW130347   1.490   1.889   0.032  0.8628  0.1534  0.2882
 6237SOL    HW230348   1.627   1.814   0.048 -0.5251  0.2681 -0.4862
 6238SOL     OW30349   3.188   2.512   4.743  0.0629  0.1467 -0.4361
 6238SOL    HW130350   3.109   2.523   4.797 -0.4048  0.4465 -1.1746
 6238SOL    HW230351   3.181   2.589   4.686 -2.6337  1.3682  1.5169
 6239SOL     OW30352   1.586   3.546  17.463  0.0471  0.4969 -0.1845
 6239SOL    HW130353   1.526   3.488  17.416  1.0896 -0.0873 -0.7924
 6239SOL    HW230354   1.570   3.625  17.410 -0.8696  0.8029  0.5516
 6240SOL     OW30355   0.119   4.399  14.809  0.2060 -0.2683  0.1033
 6240SOL    HW130356   0.113   4.329  14.874  1.3316 -0.3574  0.1252
 6240SOL    HW230357   0.066   4.359  14.740 -0.2398  0.0216  0.2780
 6241SOL     OW30358   2.461   4.534   7.038 -0.5430  0.0073  0.0616
 6241SOL    HW130359   2.506   4.576   7.112 -0.3527 -0.8941  0.4673
 6241SOL    HW230360   2.486   4.442   7.045 -1.8317 -0.4382 -1.2968
 6242SOL     OW30361   3.193   1.772   1.114  0.4918  0.5008 -0.4828
 6242SOL    HW130362   3.173   1.862   1.090 -0.4941  0.3180 -0.3381
 6242SOL    HW230363   3.285   1.777   1.138  0.5313 -0.5527 -0.3926
 6243SOL     OW30364   4.673   1.263   4.430 -0.1162  0.1236 -0.2745
 6243SOL    HW130365   4.659   1.357   4.420  0.4746  0.0854 -1.3482
 6243SOL    HW230366   4.581   1.238   4.416  0.4538 -2.6871  1.0796
 6244SOL     OW30367   3.520   2.645   4.131 -0.3495  0.1770  0.2620
 6244SOL    HW130368   3.570   2.569   4.161 -0.1370 -0.1863 -1.0362
 6244SOL    HW230369   3.428   2.625   4.148  0.4126 -2.1970  1.5406
 6245SOL     OW30370   4.063   1.121   3.720  0.2158 -0.2640  0.2397
 6245SOL    HW130371   4.034   1.032   3.740  1.0918 -0.5801  0.1120
 6245SOL    HW230372   4.157   1.101   3.714  0.7166  1.4955  2.1026
 6246SOL     OW30373   4.085   4.205   4.774 -0.9141 -0.0141  0.3530
 6246SOL    HW130374   4.078   4.301   4.773  0.6045  0.0854 -0.3879
 6246SOL    HW230375   4.097   4.195   4.680  0.3980  0.9964  0.4075
 6247SOL     OW30376   3.054   1.474   6.369 -0.0574  0.5820  0.7601
 6247SOL    HW130377   3.085   1.493   6.280 -0.3403 -1.8738  0.1456
 6247SOL    HW230378   3.103   1.398   6.401  0.6105  0.9831  0.6834
 6248SOL     OW30379   0.930   2.311  16.618  0.7454  0.3543  0.0951
 6248SOL    HW130380   0.893   2.239  16.668 -0.3518  0.4488 -0.5844
 6248SOL    HW230381   0.855   2.346  16.570  1.4280  0.0053 -1.2488
 6249SOL     OW30382   4.442   4.233   7.722  0.2949 -0.4219 -0.0268
 6249SOL    HW130383   4.486   4.148   7.726 -0.8922 -1.0324  0.1231
 6249SOL    HW230384   4.399   4.229   7.636 -1.3063  2.4236  0.6392
 6250SOL     OW30385   1.084   0.235   6.031 -0.3280  0.0216  0.1621
 6250SOL    HW130386   1.060   0.294   6.102  1.2604 -1.3599  1.8627
 6250SOL    HW230387   1.176   0.218   6.052 -0.8183  0.6340  2.8092
 6251SOL     OW30388   1.845   1.117   8.961  0.4727  0.6585  0.1453
 6251SOL    HW130389   1.839   1.024   8.943  0.1219  0.9994 -1.4432
 6251SOL    HW230390   1.852   1.150   8.872 -2.9596  2.8172  0.6778
 6252SOL     OW30391   3.804   3.736   9.324  0.6215  0.4482  0.0706
 6252SOL    HW130392   3.774   3.662   9.272 -0.2428  0.3755  0.6796
 6252SOL    HW230393   3.742   3.741   9.397  0.1609  0.3221 -0.3144
 6253SOL     OW30394   1.636   3.636   7.107 -0.1849 -0.3276 -0.0201
 6253SOL    HW130395   1.562   3.663   7.053  0.1276 -0.9761 -0.7716
 6253SOL    HW230396   1.710   3.653   7.048  0.4435 -0.1317  0.8134
 6254SOL     OW30397   1.826   3.646   9.423  0.0208  0.0342 -0.0710
 6254SOL    HW130398   1.756   3.704   9.452  0.3592  1.4165 -2.0497
 6254SOL    HW230399   1.798   3.557   9.448  0.8469  0.1725  1.3158
 6255SOL     OW30400   0.401   4.151  16.328  0.1086 -0.1203  0.1152
 6255SOL    HW130401   0.310   4.151  16.358  0.2393  0.0068  0.5040
 6255SOL    HW230402   0.440   4.224  16.376 -0.6971  0.4510 -0.0842
 6256SOL     OW30403   0.036   0.515   5.470 -0.6042  0.0523 -0.3430
 6256SOL    HW130404   0.041   0.420   5.461  1.7709 -0.0490  1.8693
 6256SOL    HW230405   0.074   0.521   5.558  0.0816 -0.4514 -0.6014
 6257SOL     OW30406   1.415   0.466   2.428 -0.8846 -0.1882  0.1575
 6257SOL    HW130407   1.499   0.511   2.439 -1.8229  1.7670 -0.6586
 6257SOL    HW230408   1.444   0.376   2.412 -0.1198 -0.1687  1.3983
 6258SOL     OW30409   2.157   3.586  13.915 -0.8277 -0.0758 -0.1147
 6258SOL    HW130410   2.084   3.588  13.853 -0.6382 -2.2156 -0.4264
 6258SOL    HW230411   2.108   3.584  13.998 -1.0246 -2.7365 -0.2796
 6259SOL     OW30412   2.054   2.779   3.560  0.0960 -0.2526 -0.6482
 6259SOL    HW130413   2.024   2.691   3.579 -4.1022  1.0181 -1.3002
 6259SOL    HW230414   1.985   2.824   3.608  0.5080  0.6564 -0.9038
 6260SOL     OW30415   3.978   0.124   8.295 -0.4598  0.7549 -0.3341
 6260SOL    HW130416   3.905   0.073   8.329  0.3602  0.1896  0.5860
 6260SOL    HW230417   4.051   0.095   8.350 -1.2048 -2.2935 -0.9244
 6261SOL     OW30418   0.816   2.291   8.133  0.3194  0.1198  0.2598
 6261SOL    HW130419   0.899   2.249   8.156  0.1988 -0.1410  0.2146
 6261SOL    HW230420   0.830   2.324   8.044 -0.2866  0.4528  0.2883
 6262SOL     OW30421   4.002   4.615   9.724  0.2241 -0.3778 -0.6235
 6262SOL    HW130422   4.030   4.580   9.640 -1.1856 -0.3293 -1.1130
 6262SOL    HW230423   3.907   4.610   9.724  0.0245  3.3860 -1.8333
 6263SOL     OW30424   2.263   2.888   5.898  0.0618 -0.4350 -0.3451
 6263SOL    HW130425   2.186   2.831   5.905  0.6221 -0.7658  3.1968
 6263SOL    HW230426   2.312   2.846   5.828 -0.2769 -0.0136 -0.8293
 6264SOL     OW30427   2.130   0.888   7.007 -0.0708 -0.0224  0.0936
 6264SOL    HW130428   2.134   0.800   7.044 -1.0607  0.2924  0.9517
 6264SOL    HW230429   2.219   0.883   6.974 -0.3905  0.0313 -0.7670
 6265SOL     OW30430   4.420   1.392  15.621  0.2315 -0.1726 -0.5545
 6265SOL    HW130431   4.397   1.473  15.577  0.4697 -1.4529 -3.0110
 6265SOL    HW230432   4.486   1.418  15.686 -1.0825 -0.3520  0.8614
 6266SOL     OW30433   1.301   0.626   8.244  0.1700  0.0201  0.0290
 6266SOL    HW130434   1.351   0.708   8.243  0.6852 -0.3032 -1.3798
 6266SOL    HW230435   1.220   0.663   8.278  0.6198 -0.4956  1.6571
 6267SOL     OW30436   3.749   3.738  12.458 -0.1744  0.4115 -0.1717
 6267SOL    HW130437   3.718   3.683  12.531  2.1207  1.9511  1.9586
 6267SOL    HW230438   3.832   3.696  12.436  0.5569  2.5363 -1.3782
 6268SOL     OW30439   3.492   2.673   1.465 -0.0029  0.3950  0.7035
 6268SOL    HW130440   3.495   2.656   1.371  1.1375  2.2518  0.3988
 6268SOL    HW230441   3.564   2.737   1.471  0.8088 -0.4047 -0.4816
 6269SOL     OW30442   4.022   2.211  12.455  0.2620  0.3096  0.2484
 6269SOL    HW130443   3.994   2.278  12.518  0.6518 -0.9105  1.7166
 6269SOL    HW230444   4.103   2.247  12.417  0.1501  0.6667  0.3467
 6270SOL     OW30445   1.391   0.935  12.820 -0.1758  0.1818  0.3471
 6270SOL    HW130446   1.368   1.028  12.825 -1.6469 -0.2881  2.8382
 6270SOL    HW230447   1.435   0.939  12.736 -0.6910  0.8447  0.1037
 6271SOL     OW30448   4.345   2.140  10.752 -0.0789  0.4036 -0.1300
 6271SOL    HW130449   4.318   2.050  10.732  0.3682  0.6285 -1.8226
 6271SOL    HW230450   4.403   2.110  10.821 -1.3351 -1.0247  0.2932
 6272SOL     OW30451   4.602   2.660  15.489 -0.0407 -0.3651  0.1752
 6272SOL    HW130452   4.591   2.597  15.560 -1.9465 -0.3563 -0.1343
 6272SOL    HW230453   4.673   2.616  15.442  1.6140 -0.3834  2.7226
 6273SOL     OW30454   4.429   0.307   7.870  0.8085  0.1340 -0.0628
 6273SOL    HW130455   4.417   0.386   7.922 -1.3690 -0.2750  0.0571
 6273SOL    HW230456   4.361   0.250   7.905  1.3282 -0.4866 -0.0527
 6274SOL     OW30457   2.981   1.725   6.517  0.0039  0.8729 -0.1228
 6274SOL    HW130458   3.066   1.685   6.501 -0.1854  0.2198  0.4990
 6274SOL    HW230459   2.922   1.653   6.496  0.7369  0.6046 -1.2242
 6275SOL     OW30460   4.548   2.212   8.239 -0.7848 -0.0057 -0.1165
 6275SOL    HW130461   4.552   2.290   8.294 -0.3011  0.2326 -0.4908
 6275SOL    HW230462   4.637   2.214   8.204 -0.3471 -3.4160  0.7921
 6276SOL     OW30463   3.958   3.630   2.147  0.0715  0.8423  0.1861
 6276SOL    HW130464   3.998   3.717   2.141  1.2104  0.1291 -2.6038
 6276SOL    HW230465   3.984   3.608   2.236  1.4124 -0.7532 -0.5971
 6277SOL     OW30466   1.326   4.552   6.309 -0.0872  0.3277  0.4606
 6277SOL    HW130467   1.375   4.472   6.330 -0.3309 -0.5645 -2.3803
 6277SOL    HW230468   1.379   4.581   6.234 -1.2619  2.9846  0.6670
 6278SOL     OW30469   3.255   4.311   2.325  0.0866 -0.0453 -0.2520
 6278SOL    HW130470   3.202   4.243   2.284  0.7089  0.2301 -1.5261
 6278SOL    HW230471   3.205   4.390   2.306  1.2222  1.0093  1.1492
 6279SOL     OW30472   1.969   0.947   5.907  0.8290 -0.3864  0.0935
 6279SOL    HW130473   2.014   1.013   5.959 -0.5899 -0.4517  1.4445
 6279SOL    HW230474   1.879   0.940   5.940 -0.3214  1.3429 -2.6998
 6280SOL     OW30475   0.697   1.388  15.917  0.1577  0.2977  0.1360
 6280SOL    HW130476   0.784   1.355  15.897 -0.2098 -0.2675 -0.5361
 6280SOL    HW230477   0.657   1.304  15.939  0.8234  0.2655  1.2057
 6281SOL     OW30478   1.569   0.998   3.342  0.0993  1.1229 -0.0873
 6281SOL    HW130479   1.599   0.951   3.420 -0.3572  1.0661  0.0576
 6281SOL    HW230480   1.607   0.937   3.279 -1.6629  0.8898 -0.9163
 6282SOL     OW30481   3.743   3.931   1.929  0.2941  0.5998 -0.0951
 6282SOL    HW130482   3.649   3.949   1.936  0.3975  0.9139  0.4675
 6282SOL    HW230483   3.743   3.840   1.961 -1.9067 -0.2058 -2.3374
 6283SOL     OW30484   2.774   3.206   6.939 -0.3427  0.3797 -0.0585
 6283SOL    HW130485   2.767   3.301   6.927 -3.0484  0.3400  1.0239
 6283SOL    HW230486   2.869   3.194   6.939 -0.6488 -1.9129 -1.8615
 6284SOL     OW30487   2.555   3.650   3.764 -0.2494  0.3644 -0.0287
 6284SOL    HW130488   2.601   3.692   3.691  0.7019 -1.4579 -0.4909
 6284SOL    HW230489   2.636   3.608   3.793  0.4848  0.2470 -2.2092
 6285SOL     OW30490   2.400   0.173   8.081  0.1065  0.5301 -0.8411
 6285SOL    HW130491   2.484   0.209   8.110 -0.5869  0.2373  1.4990
 6285SOL    HW230492   2.344   0.217   8.145 -0.8010  0.3228 -1.4989
 6286SOL     OW30493   2.277   0.466  15.487 -0.1036  0.0079 -0.3180
 6286SOL    HW130494   2.317   0.517  15.558  1.7226 -1.2179 -0.4513
 6286SOL    HW230495   2.200   0.522  15.482 -2.0558 -2.5130  1.6504
 6287SOL     OW30496   4.391   3.321   0.500 -0.2021  0.4966 -1.0357
 6287SOL    HW130497   4.318   3.270   0.466 -0.9111  1.0084 -0.3060
 6287SOL    HW230498   4.464   3.282   0.454 -0.4847 -1.4051  0.1179
 6288SOL     OW30499   3.864   2.804   1.985  0.6287 -0.1535 -0.0624
 6288SOL    HW130500   3.834   2.787   1.895 -2.7080  1.8955  0.6666
 6288SOL    HW230501   3.800   2.871   2.009  1.5063  1.4099 -2.1336
 6289SOL     OW30502   0.882   3.476   4.987  0.1524  0.4475  0.4681
 6289SOL    HW130503   0.923   3.390   4.998 -0.9203 -0.1600 -0.2237
 6289SOL    HW230504   0.930   3.523   4.919  2.0006 -0.3788  1.1952
 6290SOL     OW30505   1.309   1.257   4.805 -0.0968 -0.3573  0.0841
 6290SOL    HW130506   1.285   1.294   4.720  1.3856 -1.5972 -0.8742
 6290SOL    HW230507   1.402   1.274   4.792 -0.5925  0.6511 -2.1386
 6291SOL     OW30508   3.456   4.400   6.735 -0.0643 -0.6619  0.3059
 6291SOL    HW130509   3.526   4.380   6.797  0.6941  0.8817 -0.0613
 6291SOL    HW230510   3.439   4.492   6.754 -1.2641 -0.8338  0.1015
 6292SOL     OW30511   1.350   1.367   7.871 -0.4102 -0.5664 -0.5297
 6292SOL    HW130512   1.293   1.298   7.837 -0.1605 -1.2451  0.4021
 6292SOL    HW230513   1.307   1.442   7.830  0.4539 -0.2688 -0.9007
 6293SOL     OW30514   4.615   3.539   0.465 -0.7113 -0.1012  0.4362
 6293SOL    HW130515   4.706   3.566   0.473 -0.3951 -0.6616 -1.1937
 6293SOL    HW230516   4.604   3.492   0.548  0.3337  1.2909  1.3459
 6294SOL     OW30517   4.706   0.050   2.345  0.2526  0.3221  0.2242
 6294SOL    HW130518   4.724   0.018   2.434  3.0430  0.6678 -0.2115
 6294SOL    HW230519   4.621   0.012   2.321  0.9974 -0.4722 -1.1835
 6295SOL     OW30520   4.509   3.705   0.052 -0.0829  0.2701 -0.1984
 6295SOL    HW130521   4.513   3.765   0.126 -0.3278  0.4205 -0.3096
 6295SOL    HW230522   4.492   3.766  17.724  0.7686  1.1718  0.3644
 6296SOL     OW30523   2.742   3.007  15.783 -0.4273  0.5120  0.6301
 6296SOL    HW130524   2.703   2.968  15.861  1.5035 -1.2830  0.6863
 6296SOL    HW230525   2.696   3.091  15.789 -1.1960  0.1224  0.2569
 6297SOL     OW30526   1.788   4.145   7.988  0.2195  0.3658  0.0252
 6297SOL    HW130527   1.813   4.159   7.897  1.4380 -0.7323  0.1978
 6297SOL    HW230528   1.858   4.184   8.040 -0.1747  0.9135  0.1519
 6298SOL     OW30529   1.744   4.206  11.198 -0.7748  0.6999  0.1889
 6298SOL    HW130530   1.775   4.280  11.146 -1.5277  0.6119 -0.3803
 6298SOL    HW230531   1.649   4.214  11.193 -0.6511  1.9661 -0.3780
 6299SOL     OW30532   0.258   4.051   5.966  0.3106  0.4047 -0.6288
 6299SOL    HW130533   0.250   3.978   5.905 -3.6196  0.2022  0.1079
 6299SOL    HW230534   0.347   4.077   5.946  0.6799  0.0555  0.5628
 6300SOL     OW30535   1.478   3.253   3.089  0.0079  0.3085  0.8579
 6300SOL    HW130536   1.507   3.167   3.057 -0.1001  1.0012 -1.1131
 6300SOL    HW230537   1.509   3.310   3.019 -3.0588  2.6751  1.4639
 6301SOL     OW30538   1.321   2.030   7.662  0.1698  0.2917 -0.5483
 6301SOL    HW130539   1.338   1.962   7.728 -1.5074 -0.2559 -0.6917
 6301SOL    HW230540   1.227   2.018   7.649  0.2309 -2.0421  1.0263
 6302SOL     OW30541   3.780   3.441   5.548  0.2704 -0.4661 -0.5313
 6302SOL    HW130542   3.828   3.382   5.491  2.7376 -0.3828  1.4726
 6302SOL    HW230543   3.774   3.515   5.488  0.4060 -0.8661 -1.0320
 6303SOL     OW30544   2.527   3.538   3.260  0.4804  0.6990 -0.2703
 6303SOL    HW130545   2.587   3.465   3.275 -1.6513 -0.7299  1.4291
 6303SOL    HW230546   2.507   3.565   3.350  0.5295 -1.8386  0.5238
 6304SOL     OW30547   1.530   1.878  15.917  0.0407 -0.6241  0.0900
 6304SOL    HW130548   1.529   1.960  15.966  0.2502 -1.7744  2.0405
 6304SOL    HW230549   1.551   1.895  15.825  1.9835  1.8360  0.9692
 6305SOL     OW30550   4.110   1.101   8.739  0.0321 -0.1486 -0.5357
 6305SOL    HW130551   4.171   1.158   8.785  1.1469 -2.5558  0.9322
 6305SOL    HW230552   4.063   1.075   8.819 -0.2489 -0.4623 -0.7999
 6306SOL     OW30553   1.092   0.678  16.951 -0.2108  0.1302  0.2141
 6306SOL    HW130554   1.066   0.689  17.043  0.2660  1.4821  0.1892
 6306SOL    HW230555   1.146   0.755  16.932  0.0059 -0.0934 -0.0854
 6307SOL     OW30556   1.519   0.184   2.381  0.4377  0.4806  0.0842
 6307SOL    HW130557   1.603   0.168   2.424  1.4515  1.3389 -1.5327
 6307SOL    HW230558   1.554   0.198   2.293  0.6661 -0.8473 -0.0250
 6308SOL     OW30559   4.735   0.237   3.964  0.3459 -0.3247  0.2422
 6308SOL    HW130560   4.698   0.150   3.980  0.8108 -0.7053 -0.7561
 6308SOL    HW230561   0.033   0.257   4.051  1.5726  1.9781 -0.8057
 6309SOL     OW30562   0.842   2.046  15.182  0.1790 -0.0862  0.5666
 6309SOL    HW130563   0.793   1.996  15.247  0.9042  0.2999  1.4110
 6309SOL    HW230564   0.897   2.108  15.229  1.7288 -0.9929 -0.0276
 6310SOL     OW30565   0.189   0.552   5.054 -0.0707 -0.1096 -0.0562
 6310SOL    HW130566   0.171   0.592   5.140  2.2405  0.8183 -0.0082
 6310SOL    HW230567   0.102   0.527   5.023 -0.9516  1.3150  1.2608
 6311SOL     OW30568   4.507   1.044   6.252  0.5490  0.1827 -0.3795
 6311SOL    HW130569   4.483   0.969   6.198  0.7666 -0.2623  0.1368
 6311SOL    HW230570   4.561   1.010   6.323 -2.8437 -4.1819  0.1352
 6312SOL     OW30571   2.173   4.721   2.960  0.1821  0.7357 -0.4102
 6312SOL    HW130572   2.215   4.642   2.994 -1.0015 -0.1465 -1.0256
 6312SOL    HW230573   2.126   4.692   2.882  0.1412 -0.6375  0.1164
 6313SOL     OW30574   1.502   0.986   5.751 -0.4328  0.1906 -0.5954
 6313SOL    HW130575   1.571   0.924   5.728  2.6047  2.7361  1.4557
 6313SOL    HW230576   1.438   0.925   5.786  0.0557 -0.0974 -0.1923
 6314SOL     OW30577   1.016   2.526   4.186  0.2507 -0.2172 -0.2753
 6314SOL    HW130578   1.087   2.529   4.250  2.6080  0.8021 -2.9682
 6314SOL    HW230579   1.070   2.540   4.109 -0.5401 -0.0006 -0.7887
 6315SOL     OW30580   1.222   0.908  16.672 -0.0331  0.5184 -0.7693
 6315SOL    HW130581   1.129   0.886  16.666  0.1165  0.1890 -1.8347
 6315SOL    HW230582   1.216   0.989  16.621  4.4470  1.5267  0.2246
 6316SOL     OW30583   0.046   2.158   2.503  0.1861 -0.1744  0.4692
 6316SOL    HW130584   0.113   2.201   2.557  0.6812  0.2780 -0.5035
 6316SOL    HW230585   0.012   2.237   2.461 -1.1758 -1.4146 -0.7774
 6317SOL     OW30586   1.979   1.852  15.657 -0.0493 -0.0581 -1.4911
 6317SOL    HW130587   1.935   1.770  15.634 -0.5011  0.3502 -2.0858
 6317SOL    HW230588   2.066   1.812  15.658  0.3528  0.8100 -1.5323
 6318SOL     OW30589   3.737   2.851   3.644  0.4008  0.1345 -0.2976
 6318SOL    HW130590   3.674   2.868   3.714 -0.2614 -0.6820 -0.7079
 6318SOL    HW230591   3.816   2.876   3.694  0.0204 -0.3959  0.5676
 6319SOL     OW30592   3.383   0.353   7.318  0.1621 -0.1040  0.5090
 6319SOL    HW130593   3.333   0.422   7.362  1.9894  0.4750  1.6454
 6319SOL    HW230594   3.317   0.309   7.264 -0.5313  1.9446 -0.3426
 6320SOL     OW30595   2.763   2.568   6.626  0.1110  0.1020 -0.4384
 6320SOL    HW130596   2.718   2.511   6.563 -1.9632  0.0844  1.0791
 6320SOL    HW230597   2.848   2.530   6.605 -1.2596 -2.9454 -0.4357
 6321SOL     OW30598   4.528   0.431   6.824 -0.8149 -0.0056 -0.0211
 6321SOL    HW130599   4.499   0.345   6.854  1.6895  0.4653  3.6747
 6321SOL    HW230600   4.541   0.473   6.909  1.1179 -1.4866  0.4038
 6322SOL     OW30601   0.942   3.707  11.578  0.2060 -0.3058  0.1833
 6322SOL    HW130602   0.941   3.628  11.631 -1.8762  0.0126  0.6432
 6322SOL    HW230603   0.966   3.781  11.634 -1.8795 -0.9042  1.8892
 6323SOL     OW30604   1.731   4.047   4.059  0.0209  0.6857 -0.3915
 6323SOL    HW130605   1.657   3.996   4.090 -1.0876  1.9069 -1.0189
 6323SOL    HW230606   1.785   4.039   4.137 -0.8413 -0.1703  0.1107
 6324SOL     OW30607   3.816   0.196   2.403 -0.0976  0.1867  0.6148
 6324SOL    HW130608   3.867   0.120   2.377 -1.0555 -0.8329  1.6685
 6324SOL    HW230609   3.862   0.220   2.484  1.8079 -0.9188 -0.1607
 6325SOL     OW30610   1.705   0.358  16.344  0.9456 -0.3232 -0.4690
 6325SOL    HW130611   1.756   0.335  16.421 -0.9021 -1.6349  0.3735
 6325SOL    HW230612   1.763   0.415  16.293  1.6645  1.5809  2.4892
 6326SOL     OW30613   2.968   1.505   8.042 -0.1442 -0.4699 -0.2305
 6326SOL    HW130614   2.988   1.412   8.047  0.3639 -0.3334  0.3237
 6326SOL    HW230615   2.877   1.503   8.012  0.4267  2.1804 -2.1550
 6327SOL     OW30616   0.026   0.176   5.460  0.1939  0.6061  0.0884
 6327SOL    HW130617   0.025   0.097   5.515  1.5283  0.0229 -0.7093
 6327SOL    HW230618   0.120   0.191   5.467  0.2400  0.7664 -0.9574
 6328SOL     OW30619   2.096   2.426   3.475 -0.9554  0.5041  0.3438
 6328SOL    HW130620   2.033   2.393   3.412 -2.7062  1.1796  1.7354
 6328SOL    HW230621   2.133   2.503   3.430 -0.8133 -0.4197 -1.1164
 6329SOL     OW30622   0.123   2.560   7.103  0.3471 -0.2476  0.4244
 6329SOL    HW130623   0.190   2.551   7.034  0.0414 -0.5933  0.1696
 6329SOL    HW230624   0.135   2.477   7.150 -3.0815  0.7670  3.0499
 6330SOL     OW30625   1.204   2.455   8.446  0.3859 -0.2449  0.5855
 6330SOL    HW130626   1.290   2.417   8.429 -0.3267 -0.7454 -1.9299
 6330SOL    HW230627   1.166   2.380   8.490  0.2181 -0.5221 -0.0385
 6331SOL     OW30628   3.710   1.555  16.106  0.2233  0.1420 -0.6354
 6331SOL    HW130629   3.731   1.565  16.013 -0.3832 -0.0038 -0.7922
 6331SOL    HW230630   3.620   1.585  16.123  0.1657  1.8027 -3.7453
 6332SOL     OW30631   3.970   1.548  15.703  0.3003 -0.0438  0.1228
 6332SOL    HW130632   4.038   1.612  15.678 -1.0550  1.3635  0.0237
 6332SOL    HW230633   4.028   1.476  15.728 -0.8326 -0.8221  0.4812
 6333SOL     OW30634   0.492   3.883  16.697 -0.1736  0.1803 -0.5210
 6333SOL    HW130635   0.402   3.871  16.667  0.2137 -0.8610 -1.2442
 6333SOL    HW230636   0.477   3.918  16.785 -1.6031 -1.9972  0.1025
 6334SOL     OW30637   0.375   2.298  14.688 -0.3071  0.3280  0.0551
 6334SOL    HW130638   0.363   2.243  14.611  2.5777  0.6817 -0.6524
 6334SOL    HW230639   0.415   2.239  14.752  3.7999  1.8513 -1.1285
 6335SOL     OW30640   3.877   4.436   9.450 -0.7192 -0.0235 -0.1095
 6335SOL    HW130641   3.935   4.431   9.526 -0.8787  2.6656  0.1839
 6335SOL    HW230642   3.875   4.342   9.431  1.1743 -0.0185 -0.3277
 6336SOL     OW30643   3.296   3.292   2.982 -0.2208  0.0864 -0.0447
 6336SOL    HW130644   3.367   3.273   3.042 -0.2812 -0.0726 -0.0223
 6336SOL    HW230645   3.239   3.219   3.008 -0.3052 -0.2431 -1.1452
 6337SOL     OW30646   2.659   4.517   0.390 -0.0174  0.6228 -0.2099
 6337SOL    HW130647   2.693   4.552   0.472 -2.1850  1.0849  0.4945
 6337SOL    HW230648   2.609   4.590   0.352 -2.2531 -0.7146  0.1687
 6338SOL     OW30649   2.715   1.842   9.067  0.1007  0.3325 -0.1119
 6338SOL    HW130650   2.676   1.804   8.988 -1.1858  2.0880 -0.3136
 6338SOL    HW230651   2.717   1.768   9.128  1.1645  0.6535  0.2289
 6339SOL     OW30652   0.600   3.718  14.668 -0.0103 -0.9884 -0.1349
 6339SOL    HW130653   0.556   3.662  14.732 -0.7275  1.0603  1.1573
 6339SOL    HW230654   0.534   3.732  14.600  0.0927  0.5853  0.0787
 6340SOL     OW30655   2.324   1.582   9.238  0.0984 -0.4385 -0.1077
 6340SOL    HW130656   2.385   1.534   9.294 -1.9324 -0.7507  1.8613
 6340SOL    HW230657   2.255   1.516   9.242  0.6047 -0.8017  2.7100
 6341SOL     OW30658   2.461   0.161  13.545  0.3628  0.0331 -0.0006
 6341SOL    HW130659   2.449   0.153  13.450  0.2394 -1.2742  0.1368
 6341SOL    HW230660   2.521   0.093  13.574  0.4069  0.2109  0.3334
 6342SOL     OW30661   2.383   0.007  17.085  0.1054 -0.2610  0.5084
 6342SOL    HW130662   2.474   0.009  17.057  0.1051  1.9866  0.6343
 6342SOL    HW230663   2.372   4.649  17.092  0.6470 -0.4336 -0.9448
 6343SOL     OW30664   3.059   4.690   1.051  0.4615 -0.2602  0.3920
 6343SOL    HW130665   2.992   4.734   1.105 -1.0314 -1.2322 -0.6567
 6343SOL    HW230666   3.126   0.021   1.041 -1.6997  1.8193 -0.2461
 6344SOL     OW30667   4.408   2.088   5.109 -0.3144 -0.4935  0.1613
 6344SOL    HW130668   4.399   2.025   5.180  0.3894 -0.5941  0.1611
 6344SOL    HW230669   4.324   2.134   5.108 -1.4897 -2.6634 -2.7528
 6345SOL     OW30670   1.679   0.059   4.579  0.1093  0.4389  0.7707
 6345SOL    HW130671   1.716   4.735   4.644  0.3118  0.1991  0.4305
 6345SOL    HW230672   1.733   0.049   4.501  1.4167 -0.6998  1.8366
 6346SOL     OW30673   1.553   0.541   4.565 -0.2918 -0.0652  0.0373
 6346SOL    HW130674   1.514   0.539   4.478  2.4569  0.7866 -1.2042
 6346SOL    HW230675   1.615   0.469   4.577 -1.2748 -1.1346 -1.4141
 6347SOL     OW30676   4.530   4.606   5.883  0.3440  0.1318 -0.3066
 6347SOL    HW130677   4.458   4.554   5.846 -0.6755  0.7957  0.7277
 6347SOL    HW230678   4.590   4.534   5.902 -0.7030 -0.7534 -0.3566
 6348SOL     OW30679   2.240   4.215   3.551  0.1693 -0.1541  0.0206
 6348SOL    HW130680   2.287   4.277   3.606 -0.8487 -0.3834  1.1549
 6348SOL    HW230681   2.151   4.252   3.550 -0.1899 -1.0258 -0.3488
 6349SOL     OW30682   3.378   0.734   7.530 -0.5866  0.3488 -0.0424
 6349SOL    HW130683   3.471   0.727   7.552 -1.1415 -0.7397  1.9650
 6349SOL    HW230684   3.386   0.768   7.441 -0.5120  0.2203 -0.0844
 6350SOL     OW30685   1.203   3.129   8.279 -0.2980  0.0754  0.3903
 6350SOL    HW130686   1.234   3.200   8.335 -1.5225  1.1898 -0.3482
 6350SOL    HW230687   1.246   3.149   8.196 -0.6222 -1.0348 -0.0511
 6351SOL     OW30688   2.921   1.302   6.024  0.2293 -0.0285  0.0496
 6351SOL    HW130689   2.910   1.321   5.931 -2.3028 -2.1838 -0.0901
 6351SOL    HW230690   2.972   1.380   6.048  1.9385 -1.0340 -0.3193
 6352SOL     OW30691   0.960   2.486  12.554 -0.2957  0.3347  0.2299
 6352SOL    HW130692   1.043   2.454  12.518  0.3844  3.3094 -0.9096
 6352SOL    HW230693   0.944   2.573  12.517  1.0941 -0.2690 -1.8243
 6353SOL     OW30694   1.976   3.373   8.630 -0.2014 -0.4652 -0.2903
 6353SOL    HW130695   1.939   3.319   8.699 -0.4973  0.3084  0.1580
 6353SOL    HW230696   2.068   3.347   8.631  0.1941  0.8664 -0.6300
 6354SOL     OW30697   1.251   0.687   9.622  0.4396  0.6156  0.0720
 6354SOL    HW130698   1.251   0.782   9.614  0.7143  0.6991  1.1111
 6354SOL    HW230699   1.313   0.680   9.694  1.1159  0.9291 -0.4828
 6355SOL     OW30700   0.963   1.495  17.485  0.2621 -0.3980 -0.4719
 6355SOL    HW130701   0.892   1.434  17.466  0.1036 -0.1190 -0.7762
 6355SOL    HW230702   0.966   1.543  17.402  1.6484 -1.4349 -1.0148
 6356SOL     OW30703   3.416   2.264  15.552  0.2733 -0.3415 -0.3980
 6356SOL    HW130704   3.418   2.287  15.645 -2.2415 -1.0456 -0.1919
 6356SOL    HW230705   3.510   2.279  15.540  0.4459 -1.3519 -0.3343
 6357SOL     OW30706   0.417   0.871  13.666 -0.0854  0.2140  0.8111
 6357SOL    HW130707   0.496   0.840  13.711 -0.9222  0.6844  2.6070
 6357SOL    HW230708   0.348   0.884  13.731  0.6167  1.6639  1.2628
 6358SOL     OW30709   3.815   0.439  10.052  0.2059 -0.5462  0.2609
 6358SOL    HW130710   3.856   0.462  10.136  0.2748  1.8001 -0.3968
 6358SOL    HW230711   3.843   0.348  10.041  1.3903 -0.3006  1.1449
 6359SOL     OW30712   3.942   2.391   3.823 -0.2370  0.1393  0.6003
 6359SOL    HW130713   3.948   2.340   3.742 -0.8924  1.1410 -0.0666
 6359SOL    HW230714   3.881   2.461   3.803 -1.0620  0.0234  2.6654
 6360SOL     OW30715   4.646   3.307   9.962  0.3035  0.1255  0.3649
 6360SOL    HW130716   4.643   3.212   9.973  1.0500  0.0775  0.1618
 6360SOL    HW230717   4.611   3.336  10.046 -2.4159  0.3272 -0.8430
 6361SOL     OW30718   0.036   0.528  14.930  0.6028 -0.3568 -0.3194
 6361SOL    HW130719   0.049   0.622  14.943 -1.8530  0.0783 -1.1524
 6361SOL    HW230720   0.120   0.495  14.963  0.0121  0.6697  2.2789
 6362SOL     OW30721   0.185   1.332   2.218 -0.4501 -0.2514  0.5618
 6362SOL    HW130722   0.222   1.260   2.168  0.0186 -1.2335  2.2952
 6362SOL    HW230723   0.260   1.383   2.250  0.4585 -1.6858  0.7593
 6363SOL     OW30724   1.654   2.056   0.203  0.3931  0.0523  0.0783
 6363SOL    HW130725   1.689   2.118   0.139 -0.7445  0.8529  0.2375
 6363SOL    HW230726   1.559   2.061   0.193  0.2375  1.7135  2.3265
 6364SOL     OW30727   0.810   2.497   9.205  0.3164 -0.5272  0.0085
 6364SOL    HW130728   0.791   2.568   9.144 -0.3186 -1.6359 -1.1016
 6364SOL    HW230729   0.725   2.472   9.241 -0.4827  1.5966 -0.3891
 6365SOL     OW30730   1.008   3.678   4.125 -0.2376  0.3854 -0.7128
 6365SOL    HW130731   1.056   3.616   4.070 -1.2124 -0.6057 -0.4329
 6365SOL    HW230732   0.967   3.729   4.055 -1.2733  0.1961 -0.2467
 6366SOL     OW30733   1.471   0.435   2.096 -0.4873 -0.0799  0.3736
 6366SOL    HW130734   1.517   0.506   2.142 -1.1873 -0.2086  1.2574
 6366SOL    HW230735   1.519   0.356   2.121 -0.5749 -0.4016 -0.4757
 6367SOL     OW30736   4.558   4.094   4.941 -0.1070 -0.0998  0.2384
 6367SOL    HW130737   4.628   4.127   4.885  1.4649 -2.9378  0.5293
 6367SOL    HW230738   4.597   4.033   5.005 -0.1912 -0.5827 -0.1726
 6368SOL     OW30739   4.167   2.214   5.149  0.0426  0.4336 -0.0432
 6368SOL    HW130740   4.140   2.216   5.240  0.7441  0.6926  0.1591
 6368SOL    HW230741   4.169   2.306   5.123  1.8049  1.0645  2.3180
 6369SOL     OW30742   1.916   4.735   3.195 -0.7153 -0.0949  0.1429
 6369SOL    HW130743   1.933   4.664   3.257  0.5711  0.4599  0.4262
 6369SOL    HW230744   2.001   0.005   3.152  0.0289  1.4970  1.8416
 6370SOL     OW30745   3.285   0.773  10.011  0.0233 -0.5652 -0.6112
 6370SOL    HW130746   3.270   0.746  10.101  1.6353 -0.9260 -0.4516
 6370SOL    HW230747   3.292   0.869  10.012 -0.8629 -0.4928 -0.9276
 6371SOL     OW30748   2.339   0.333   6.842 -0.0518 -0.0490 -0.6450
 6371SOL    HW130749   2.288   0.268   6.795  0.0345  1.5824 -3.0271
 6371SOL    HW230750   2.387   0.289   6.912 -2.6393  1.3355  1.9943
 6372SOL     OW30751   2.047   0.054   6.507  0.3768  0.2100  0.7008
 6372SOL    HW130752   2.053   0.108   6.429  2.6187 -1.1706 -0.0587
 6372SOL    HW230753   2.043   4.703   6.469  2.1132 -0.1890  1.4573
 6373SOL     OW30754   3.382   0.769   0.669  0.4776  0.2143 -0.1547
 6373SOL    HW130755   3.418   0.769   0.580  0.7308  0.0765 -0.0518
 6373SOL    HW230756   3.444   0.820   0.720  0.0190  1.5723 -0.9557
 6374SOL     OW30757   1.835   0.591   8.995 -0.2832 -0.2619  0.2346
 6374SOL    HW130758   1.922   0.561   9.021 -1.2603  0.6386  4.5357
 6374SOL    HW230759   1.815   0.521   8.933  2.5729 -0.9750  0.0796
 6375SOL     OW30760   4.290   3.917   1.295 -0.1352  0.4363 -0.3586
 6375SOL    HW130761   4.328   3.954   1.216 -0.2428  0.7885 -0.2457
 6375SOL    HW230762   4.250   3.995   1.334 -0.0776  1.0877 -1.6122
 6376SOL     OW30763   1.898   4.457   7.705  0.0084 -0.1268  0.7873
 6376SOL    HW130764   1.914   4.373   7.662 -1.5698  0.2800 -0.5969
 6376SOL    HW230765   1.905   4.436   7.798  1.8624 -0.1651  0.6274
 6377SOL     OW30766   3.657   2.518  12.754  0.0881 -0.8116 -0.0888
 6377SOL    HW130767   3.660   2.434  12.800  0.3801  0.3490  1.9944
 6377SOL    HW230768   3.732   2.559  12.796  1.0166 -0.9625 -1.6175
 6378SOL     OW30769   0.881   0.713   7.126  0.1001 -0.2812  0.0553
 6378SOL    HW130770   0.902   0.781   7.190  3.4575 -0.1813 -1.1553
 6378SOL    HW230771   0.887   0.639   7.187  0.6519 -1.4316 -1.3800
 6379SOL     OW30772   3.664   1.790  15.619  0.1620  0.1267  0.3635
 6379SOL    HW130773   3.602   1.846  15.572  1.4327 -0.4412 -2.0033
 6379SOL    HW230774   3.689   1.721  15.557  0.3195  1.0508 -0.6065
 6380SOL     OW30775   0.836   3.805  13.215 -0.6076 -0.0527 -0.2169
 6380SOL    HW130776   0.861   3.804  13.307  1.1765  0.2711 -0.7034
 6380SOL    HW230777   0.863   3.718  13.184 -3.0133 -0.6761 -0.5683
 6381SOL     OW30778   2.273   2.768   7.081  0.0603 -0.0389 -0.0989
 6381SOL    HW130779   2.239   2.747   7.168 -2.8830  1.5568 -0.8420
 6381SOL    HW230780   2.309   2.683   7.057  0.6023  0.4267 -0.9639
 6382SOL     OW30781   3.167   0.060   7.632 -0.0920 -0.3255  1.0768
 6382SOL    HW130782   3.240   0.113   7.665  1.3233 -2.2652  1.0170
 6382SOL    HW230783   3.206   4.715   7.601  3.0432  2.0542 -1.2372
 6383SOL     OW30784   1.882   0.236   1.618 -0.1849  0.2323 -0.2226
 6383SOL    HW130785   1.852   0.312   1.568  2.3109 -0.3255 -2.5740
 6383SOL    HW230786   1.810   0.221   1.679  0.4609 -1.3815  0.1221
 6384SOL     OW30787   1.802   1.103  11.964  0.4763 -0.8390  0.1876
 6384SOL    HW130788   1.812   1.012  11.936  1.4378 -0.6952  0.0576
 6384SOL    HW230789   1.853   1.103  12.044  1.9421  0.7737 -0.7456
 6385SOL     OW30790   2.205   2.432  12.701  0.1704 -0.6605 -0.3379
 6385SOL    HW130791   2.194   2.462  12.611 -2.3101  0.4118  0.3322
 6385SOL    HW230792   2.122   2.430  12.748 -0.1670 -0.3704 -0.9247
 6386SOL     OW30793   4.668   0.873   7.534 -0.4500  0.2185 -0.6213
 6386SOL    HW130794   4.666   0.910   7.446 -0.0347  0.6295 -0.4569
 6386SOL    HW230795   4.603   0.927   7.579 -1.1071 -1.6389  0.6421
 6387SOL     OW30796   0.295   4.128   3.755 -0.5203  0.3678 -0.0120
 6387SOL    HW130797   0.258   4.214   3.735 -1.7313 -0.0104  0.5868
 6387SOL    HW230798   0.257   4.084   3.679  0.7447  1.7883 -1.4384
 6388SOL     OW30799   1.936   3.199  10.554 -0.5423 -0.1773  0.1692
 6388SOL    HW130800   2.024   3.203  10.517 -0.3031 -0.4159  0.6983
 6388SOL    HW230801   1.897   3.193  10.468 -2.0763  3.3705  0.6028
 6389SOL     OW30802   0.157   0.536   6.663  0.5048 -0.0979 -0.4816
 6389SOL    HW130803   0.209   0.607   6.702  1.4987 -1.3249  0.3978
 6389SOL    HW230804   0.092   0.591   6.619  0.0001  0.0745  0.4657
 6390SOL     OW30805   2.390   4.519   3.972  0.1075 -0.5822 -0.7630
 6390SOL    HW130806   2.468   4.489   4.019 -0.0863 -3.7998 -2.5056
 6390SOL    HW230807   2.393   4.611   3.999 -0.0962 -0.3016 -1.7095
 6391SOL     OW30808   1.539   0.634  11.521 -0.0852  0.0264 -0.4163
 6391SOL    HW130809   1.575   0.577  11.454  1.7104  1.6982 -0.8712
 6391SOL    HW230810   1.615   0.677  11.561  1.1318 -2.5766  0.0739
 6392SOL     OW30811   1.834   3.489  10.573 -0.2909  0.1141 -0.0455
 6392SOL    HW130812   1.819   3.396  10.552 -2.4104  0.7418 -1.3545
 6392SOL    HW230813   1.824   3.536  10.490  1.6500  1.8816  0.7376
 6393SOL     OW30814   2.080   2.474  13.630  0.3505  0.3114  0.0456
 6393SOL    HW130815   2.058   2.526  13.707 -4.3273 -1.5212 -0.0272
 6393SOL    HW230816   2.063   2.384  13.659  0.4185  0.1270 -0.4758
 6394SOL     OW30817   0.187   0.260   6.657  0.0817  1.3137 -0.0131
 6394SOL    HW130818   0.193   0.270   6.562  0.0292  0.7768 -0.0750
 6394SOL    HW230819   0.168   0.350   6.683  0.8557  1.1029  1.2861
 6395SOL     OW30820   4.083   0.639   8.319 -0.5456 -0.2865  0.0358
 6395SOL    HW130821   4.013   0.678   8.266 -0.2693 -0.7888 -0.6983
 6395SOL    HW230822   4.068   0.546   8.301 -2.0647 -0.3598  1.7250
 6396SOL     OW30823   0.682   4.216  15.316 -0.1770  0.9280  0.1394
 6396SOL    HW130824   0.592   4.231  15.287 -0.2521 -0.9300 -0.5651
 6396SOL    HW230825   0.672   4.213  15.411  1.3218 -3.0527  0.1573
 6397SOL     OW30826   0.957   2.747  12.491  0.7301  0.4069 -0.1747
 6397SOL    HW130827   1.047   2.762  12.519  0.5681 -1.4848  1.3915
 6397SOL    HW230828   0.930   2.828  12.446 -0.2538  0.8085  1.1411
 6398SOL     OW30829   3.058   0.769   4.977  0.1227  0.2825  0.0434
 6398SOL    HW130830   3.062   0.673   4.972  2.0985  0.4216 -0.9167
 6398SOL    HW230831   3.116   0.789   4.903 -0.2081 -0.1575 -0.3359
 6399SOL     OW30832   0.217   1.684   5.849  0.1302 -0.2932  0.0668
 6399SOL    HW130833   0.233   1.778   5.835 -1.8002 -0.1710 -1.3529
 6399SOL    HW230834   0.308   1.655   5.858  0.6645  0.6732 -2.1532
 6400SOL     OW30835   1.161   4.347   6.061  0.5089 -0.2379  0.2885
 6400SOL    HW130836   1.090   4.318   6.004  0.4041 -0.4905  0.5419
 6400SOL    HW230837   1.235   4.335   6.003  0.7099 -0.2279  0.5418
 6401SOL     OW30838   3.757   3.047  10.793  0.3771  0.4522 -0.2855
 6401SOL    HW130839   3.808   3.043  10.712  0.8078  1.8113 -0.0736
 6401SOL    HW230840   3.826   3.062  10.857 -2.7674  2.3103  2.6919
 6402SOL     OW30841   0.960   0.701   6.133  0.1992 -0.2609 -0.0180
 6402SOL    HW130842   0.915   0.781   6.161  1.6532  0.3270  0.5914
 6402SOL    HW230843   0.914   0.635   6.186 -0.9377  1.5216  1.2262
 6403SOL     OW30844   1.543   4.262  16.232 -0.1900 -0.2357  0.2606
 6403SOL    HW130845   1.563   4.234  16.143 -0.1048  1.5142 -0.2768
 6403SOL    HW230846   1.631   4.282  16.265 -0.3776  1.4536 -0.2338
 6404SOL     OW30847   1.593   4.528   4.272  0.0847  0.1358  0.5405
 6404SOL    HW130848   1.630   4.616   4.273  0.3651  0.0335 -1.8689
 6404SOL    HW230849   1.502   4.541   4.247  0.6166 -1.1108 -2.0927
 6405SOL     OW30850   2.275   0.484   7.558  0.1849 -0.5377  0.1776
 6405SOL    HW130851   2.323   0.410   7.522  0.3566 -0.4014  0.1302
 6405SOL    HW230852   2.185   0.464   7.531 -0.5248  0.3310  1.8691
 6406SOL     OW30853   2.639   2.771  12.019  0.2998  0.3116  0.1878
 6406SOL    HW130854   2.582   2.774  12.096  0.6235  3.1974  0.3178
 6406SOL    HW230855   2.600   2.838  11.963 -0.7234 -1.8788 -1.7137
 6407SOL     OW30856   2.274   0.814   5.582 -0.3561 -0.6311  0.1305
 6407SOL    HW130857   2.269   0.791   5.490  0.0965  1.1465 -0.3450
 6407SOL    HW230858   2.198   0.770   5.620 -1.4451  0.3301 -0.9572
 6408SOL     OW30859   4.714   3.337   8.571  0.0687 -0.1882  0.0302
 6408SOL    HW130860   0.062   3.327   8.616  0.3498  0.4761 -0.3429
 6408SOL    HW230861   4.666   3.367   8.648 -1.7688 -0.4828 -1.0138
 6409SOL     OW30862   2.504   2.927   2.656  0.3774 -0.7957 -0.1770
 6409SOL    HW130863   2.450   2.976   2.718  0.9847  0.1383 -0.3988
 6409SOL    HW230864   2.456   2.844   2.651 -0.8563 -0.1623  1.0529
 6410SOL     OW30865   2.551   1.619   3.756 -0.6517  0.2195  0.1719
 6410SOL    HW130866   2.607   1.674   3.812  2.0135 -1.8642 -0.4473
 6410SOL    HW230867   2.480   1.589   3.813 -0.0359 -1.3663  0.0866
 6411SOL     OW30868   4.401   3.412   9.303  0.4027 -0.0399  0.0361
 6411SOL    HW130869   4.356   3.374   9.379  1.1637  0.2409  0.6243
 6411SOL    HW230870   4.408   3.498   9.344 -0.6545 -0.5742  1.3319
 6412SOL     OW30871   2.443   0.585   6.833 -0.3286 -0.9432 -0.2180
 6412SOL    HW130872   2.392   0.507   6.856  0.5936 -1.4173  0.2011
 6412SOL    HW230873   2.453   0.584   6.738  1.2751  0.0146 -0.0412
 6413SOL     OW30874   1.620   2.790  14.436 -0.1035  0.1539  0.2682
 6413SOL    HW130875   1.526   2.772  14.439 -0.3174  1.4350  1.9211
 6413SOL    HW230876   1.645   2.767  14.347  0.7298 -0.9261  0.7796
 6414SOL     OW30877   2.723   3.034   2.443  0.5256  0.2784 -0.3256
 6414SOL    HW130878   2.674   2.953   2.429  1.4601 -0.1761 -1.0093
 6414SOL    HW230879   2.772   3.044   2.361  2.1426 -1.9056  0.3610
 6415SOL     OW30880   3.688   2.903  15.176 -0.0532 -0.1496 -0.0107
 6415SOL    HW130881   3.695   2.808  15.187 -1.5679 -0.3060 -0.3859
 6415SOL    HW230882   3.718   2.919  15.087  1.8344  3.3136  1.2540
 6416SOL     OW30883   0.110   0.183   2.747 -0.8234 -0.1912 -0.4145
 6416SOL    HW130884   0.022   0.200   2.781 -0.9132  2.1878 -1.8515
 6416SOL    HW230885   0.166   0.227   2.811 -3.3366  1.0894  0.9049
 6417SOL     OW30886   0.513   0.802   2.312 -0.2112 -0.2710 -0.7890
 6417SOL    HW130887   0.591   0.817   2.258  0.4005 -0.3037  0.0911
 6417SOL    HW230888   0.445   0.792   2.246 -0.5165  1.7318 -0.7891
 6418SOL     OW30889   0.190   1.086   3.938 -0.1953 -1.0098 -0.5347
 6418SOL    HW130890   0.165   1.007   3.984 -1.1420  0.6251  1.7391
 6418SOL    HW230891   0.233   1.140   4.005 -0.1609  0.8789 -2.0605
 6419SOL     OW30892   0.858   1.240   5.857 -0.5288 -0.1084  0.8633
 6419SOL    HW130893   0.780   1.237   5.801 -0.5933 -1.1490  1.0245
 6419SOL    HW230894   0.840   1.160   5.906  0.7822 -2.5837 -2.6950
 6420SOL     OW30895   3.266   1.949  12.687 -0.4284  0.1046 -1.0334
 6420SOL    HW130896   3.235   2.002  12.760 -0.5387 -1.3523 -0.0323
 6420SOL    HW230897   3.248   1.860  12.718  2.9822  0.2027  1.1577
 6421SOL     OW30898   3.921   4.446   3.480 -0.5766 -0.7708  0.5404
 6421SOL    HW130899   4.016   4.443   3.468 -0.5174 -1.2024  1.0893
 6421SOL    HW230900   3.892   4.509   3.414  0.9226 -0.3721  0.2726
 6422SOL     OW30901   1.391   3.041   9.250 -0.0239  0.6871 -0.2798
 6422SOL    HW130902   1.477   3.056   9.210 -0.5824  1.5515 -1.1581
 6422SOL    HW230903   1.335   3.101   9.200 -0.1683  0.0804 -0.8403
 6423SOL     OW30904   4.452   1.021  11.974 -0.3192 -0.3062  0.3310
 6423SOL    HW130905   4.425   1.098  11.925  1.9625 -0.2134 -0.7923
 6423SOL    HW230906   4.367   0.981  11.991 -1.2269  0.0248 -3.5853
 6424SOL     OW30907   4.149   1.251  10.377 -0.2628 -0.4644  0.8051
 6424SOL    HW130908   4.179   1.262  10.468  0.2122 -0.7116  0.6771
 6424SOL    HW230909   4.122   1.159  10.386  0.9501 -0.7326  1.7833
 6425SOL     OW30910   1.755   0.244   7.421  0.0214  0.2084 -0.4620
 6425SOL    HW130911   1.714   0.158   7.424 -1.1298  0.7280 -1.1281
 6425SOL    HW230912   1.700   0.276   7.493 -0.7159 -0.2188 -0.8356
 6426SOL     OW30913   0.563   0.852   5.522 -0.1995 -0.5501 -0.4861
 6426SOL    HW130914   0.622   0.800   5.468 -1.8120 -1.6323 -1.1922
 6426SOL    HW230915   0.613   0.865   5.603  0.3019 -1.2835 -0.6821
 6427SOL     OW30916   3.581   0.011  10.706 -0.4187  0.5809  0.5127
 6427SOL    HW130917   3.666   0.036  10.669  0.3883  0.5066  2.3477
 6427SOL    HW230918   3.608   4.717  10.792 -0.7581  0.0710  0.4450
 6428SOL     OW30919   2.960   2.708  10.263 -0.9066  0.3887 -0.0192
 6428SOL    HW130920   2.925   2.794  10.240  0.1462  0.2725 -2.0614
 6428SOL    HW230921   2.970   2.721  10.358  1.7345 -0.8982 -0.1063
 6429SOL     OW30922   3.980   1.762   4.238  0.3795 -0.2095  0.2087
 6429SOL    HW130923   4.010   1.746   4.327  0.6112  3.3207  0.7575
 6429SOL    HW230924   4.054   1.814   4.207 -0.8609  0.9786 -0.7618
 6430SOL     OW30925   1.043   2.742   5.388 -0.5592 -0.3629  0.0460
 6430SOL    HW130926   1.131   2.736   5.426 -0.9772 -0.2263  1.0105
 6430SOL    HW230927   1.003   2.656   5.401 -0.3800 -0.2096  1.5767
 6431SOL     OW30928   2.055   1.468   1.649 -0.6295  0.6900  0.0887
 6431SOL    HW130929   2.040   1.538   1.586  0.0987 -0.1613 -1.0311
 6431SOL    HW230930   1.989   1.404   1.621 -1.8564  1.2479  1.7207
 6432SOL     OW30931   2.735   3.006   3.880 -0.2911 -0.6493  0.4038
 6432SOL    HW130932   2.769   3.041   3.798 -1.7257 -2.7516 -1.1109
 6432SOL    HW230933   2.727   2.914   3.855 -3.4417 -0.4483  0.6647
 6433SOL     OW30934   1.328   0.503   1.665  0.2925 -1.3322  0.1806
 6433SOL    HW130935   1.291   0.437   1.723 -1.5007 -1.8738 -1.5731
 6433SOL    HW230936   1.250   0.531   1.617  0.5289  0.6930  0.9671
 6434SOL     OW30937   1.488   0.038   4.013 -0.0566 -1.1195  0.0241
 6434SOL    HW130938   1.578   0.005   4.010 -0.4333 -1.8408 -3.6729
 6434SOL    HW230939   1.442   4.691   4.017 -2.4762  0.4101  3.2861
 6435SOL     OW30940   3.284   3.665   5.521 -0.2454  0.5390 -0.9728
 6435SOL    HW130941   3.197   3.674   5.559 -0.4240 -0.5446 -1.1328
 6435SOL    HW230942   3.263   3.617   5.442  1.3633 -0.4144 -0.8276
 6436SOL     OW30943   4.588   3.083   2.102 -0.1184  0.1998  0.0001
 6436SOL    HW130944   4.501   3.052   2.076 -1.0240  2.2089  0.6083
 6436SOL    HW230945   4.585   3.177   2.083 -1.9386  0.4496  1.4750
 6437SOL     OW30946   1.945   1.689   1.850 -0.2764 -0.4741  0.6503
 6437SOL    HW130947   1.932   1.595   1.858 -2.1501 -0.3350 -0.8727
 6437SOL    HW230948   1.860   1.725   1.824 -0.1955 -1.1554 -0.5728
 6438SOL     OW30949   3.185   3.622   3.467 -0.2432  0.1609 -0.1626
 6438SOL    HW130950   3.267   3.573   3.463 -1.2481 -1.3536 -1.9326
 6438SOL    HW230951   3.164   3.644   3.377 -2.1828  0.5613  0.3942
 6439SOL     OW30952   3.763   3.992   6.473  0.0680 -0.3257 -0.1666
 6439SOL    HW130953   3.713   3.918   6.507 -0.8217  0.1015 -0.5401
 6439SOL    HW230954   3.770   4.054   6.546  1.0078 -1.7971  1.0016
 6440SOL     OW30955   2.529   2.833   7.600 -0.1004  0.3193 -0.0183
 6440SOL    HW130956   2.605   2.844   7.657  2.0269  0.9230 -2.9624
 6440SOL    HW230957   2.570   2.775   7.536  0.3801  0.0204  0.5599
 6441SOL     OW30958   1.935   1.733   4.301  1.0072 -0.2893 -0.0236
 6441SOL    HW130959   1.917   1.827   4.300  3.2486  0.1390 -0.0904
 6441SOL    HW230960   1.954   1.719   4.394  1.2339  0.4157  0.0370
 6442SOL     OW30961   3.517   3.409   1.516 -0.3196  0.0590  0.0996
 6442SOL    HW130962   3.612   3.411   1.501 -0.2794  0.0186  0.3484
 6442SOL    HW230963   3.513   3.339   1.582 -1.7290 -0.2011 -0.2662
 6443SOL     OW30964   3.378   3.553   4.075  0.3619  0.5874  0.0865
 6443SOL    HW130965   3.370   3.647   4.061 -0.5626  0.8065  2.1459
 6443SOL    HW230966   3.470   3.529   4.061  0.4299  0.3903  0.8649
 6444SOL     OW30967   1.656   0.179   1.773  0.1188  0.3140 -0.2125
 6444SOL    HW130968   1.646   0.135   1.857  0.4131 -2.8587 -1.8245
 6444SOL    HW230969   1.646   0.269   1.806  1.4698  1.1111 -2.0109
 6445SOL     OW30970   2.183   2.652   8.619  0.0376 -0.1017 -0.5751
 6445SOL    HW130971   2.192   2.599   8.540  2.6969  0.8599 -0.9465
 6445SOL    HW230972   2.100   2.700   8.620 -0.5466 -1.1143 -1.0135
 6446SOL     OW30973   2.103   4.219   8.518 -0.6584 -0.0550 -0.1771
 6446SOL    HW130974   2.175   4.159   8.500  0.4407  0.5948  2.1795
 6446SOL    HW230975   2.020   4.176   8.494 -0.4349 -0.6443  0.1116
 6447SOL     OW30976   0.970   0.560   4.746 -0.2016  0.1662  0.0324
 6447SOL    HW130977   0.999   0.564   4.654  1.9925 -2.2661  0.5981
 6447SOL    HW230978   0.957   0.652   4.767 -0.2946  0.5752 -1.7980
 6448SOL     OW30979   2.456   1.856  13.044  0.5897 -0.5633  0.4071
 6448SOL    HW130980   2.551   1.845  13.049  0.3151 -3.1428 -0.2824
 6448SOL    HW230981   2.444   1.878  13.136  2.1315  0.1983  0.4279
 6449SOL     OW30982   1.710   1.392  16.546 -0.0816  0.1942 -0.8898
 6449SOL    HW130983   1.723   1.321  16.483  0.4395 -1.7061  1.3501
 6449SOL    HW230984   1.724   1.476  16.503  2.1907  0.8128  1.0905
 6450SOL     OW30985   0.801   2.398  12.076 -0.6224 -0.0178 -0.0421
 6450SOL    HW130986   0.753   2.329  12.121  0.7480 -1.1909 -0.3806
 6450SOL    HW230987   0.801   2.374  11.983 -0.7718  1.4667 -0.4242
 6451SOL     OW30988   0.540   3.923   5.294  0.5928 -0.4141 -0.5698
 6451SOL    HW130989   0.625   3.942   5.254  0.5352  1.4478  0.2289
 6451SOL    HW230990   0.564   3.899   5.384  0.5097 -1.0290 -0.7107
 6452SOL     OW30991   0.767   2.941   7.454 -0.2035  0.4580  0.5724
 6452SOL    HW130992   0.739   3.006   7.518 -0.5200  0.7165  0.1747
 6452SOL    HW230993   0.721   2.973   7.375  0.0988 -1.5158 -0.3868
 6453SOL     OW30994   1.686   2.049   2.916 -0.4498  0.3867  0.0282
 6453SOL    HW130995   1.623   2.095   2.972 -1.9947 -1.4614 -0.1958
 6453SOL    HW230996   1.676   1.958   2.944  0.4328  0.3748  0.3008
 6454SOL     OW30997   4.058   3.022  13.143  0.1188 -0.3092  0.0685
 6454SOL    HW130998   3.976   3.059  13.110  2.1971  2.9698 -1.3690
 6454SOL    HW230999   4.101   3.016  13.058  1.6523  0.9045  0.7816
 6455SOL     OW31000   3.800   3.428   3.184 -0.4389 -0.5215 -0.3704
 6455SOL    HW131001   3.813   3.363   3.115  3.3872  0.5395 -0.6108
 6455SOL    HW231002   3.768   3.363   3.246 -0.4786 -1.2213 -1.1148
 6456SOL     OW31003   0.786   3.745   6.690 -0.3221  0.0668  0.2516
 6456SOL    HW131004   0.777   3.663   6.739 -1.1174 -0.3859 -0.6557
 6456SOL    HW231005   0.706   3.789   6.721  0.2100  1.0874  0.1827
 6457SOL     OW31006   2.589   2.294   8.324  0.6711  0.4433 -0.0764
 6457SOL    HW131007   2.658   2.244   8.281 -1.7614 -1.8828 -1.2778
 6457SOL    HW231008   2.527   2.229   8.356 -0.5340  1.4664 -0.3617
 6458SOL     OW31009   4.661   1.806   5.267 -0.3748 -0.2403 -0.1602
 6458SOL    HW131010   0.010   1.765   5.276  0.2751  0.7930 -1.7085
 6458SOL    HW231011   4.679   1.888   5.313 -2.2207 -1.1023  2.1045
 6459SOL     OW31012   1.426   0.385  15.666 -0.1382 -0.5614  0.1537
 6459SOL    HW131013   1.333   0.382  15.642 -0.0320 -1.3432 -0.1542
 6459SOL    HW231014   1.459   0.296  15.657  0.2747 -0.4784  0.8546
 6460SOL     OW31015   4.361   0.249   9.015 -0.1925 -0.4839 -0.0523
 6460SOL    HW131016   4.340   0.340   9.036 -0.0772 -0.2702 -0.8633
 6460SOL    HW231017   4.319   0.201   9.086 -0.4623  0.7090  0.5930
 6461SOL     OW31018   1.532   1.146  13.743  0.0044 -0.0357 -0.8618
 6461SOL    HW131019   1.522   1.207  13.670  2.8236  2.1633  0.5645
 6461SOL    HW231020   1.544   1.207  13.815 -2.6582 -1.4807  0.7918
 6462SOL     OW31021   1.331   0.744   2.009 -0.1706 -0.1187 -0.4096
 6462SOL    HW131022   1.399   0.784   2.063 -1.0006  2.0873 -0.9859
 6462SOL    HW231023   1.273   0.702   2.072 -0.8667  1.1171 -0.2115
 6463SOL     OW31024   3.639   2.033   8.989  0.1701  0.1732  0.2219
 6463SOL    HW131025   3.690   1.953   8.978 -0.4296 -0.1548 -0.1936
 6463SOL    HW231026   3.583   2.030   8.911  0.8706 -2.1919 -0.1834
 6464SOL     OW31027   1.853   2.814   4.320  0.2693 -0.2217 -0.1639
 6464SOL    HW131028   1.911   2.847   4.252  0.8664 -0.4455  0.2437
 6464SOL    HW231029   1.858   2.722   4.297 -1.1020 -0.4584  0.4251
 6465SOL     OW31030   4.278   3.582   3.740  0.4053 -0.0996 -0.0240
 6465SOL    HW131031   4.247   3.502   3.782 -2.0870  0.8041 -0.1371
 6465SOL    HW231032   4.214   3.593   3.670 -0.1983  1.5927  0.8024
 6466SOL     OW31033   1.260   4.458   3.684  0.0754  0.7194  0.1697
 6466SOL    HW131034   1.231   4.368   3.699  0.4194  1.0306  2.7306
 6466SOL    HW231035   1.349   4.440   3.656  1.1128 -0.5580  4.2057
 6467SOL     OW31036   1.796   1.537   5.263  0.4867  0.3671  0.4774
 6467SOL    HW131037   1.753   1.534   5.178  0.0202 -3.5355  0.8257
 6467SOL    HW231038   1.732   1.598   5.300  0.2376 -0.4274  1.3670
 6468SOL     OW31039   4.085   0.245   1.428  0.7501  0.0948 -0.3422
 6468SOL    HW131040   4.063   0.297   1.506  1.4755  0.2035 -0.2064
 6468SOL    HW231041   4.006   0.191   1.422  0.4105  0.8472 -2.6000
 6469SOL     OW31042   0.350   3.495  16.474 -0.1543  0.3044 -0.6684
 6469SOL    HW131043   0.424   3.440  16.450 -1.1415 -1.0358 -0.6087
 6469SOL    HW231044   0.281   3.430  16.483  0.9609 -0.9748 -1.4331
 6470SOL     OW31045   3.710   3.756   1.515  0.4392  0.4602 -0.6788
 6470SOL    HW131046   3.632   3.812   1.507  0.4314  0.0469 -3.5736
 6470SOL    HW231047   3.722   3.728   1.424  0.4545 -0.3398 -0.4286
 6471SOL     OW31048   4.192   1.905   4.141 -0.3915 -0.0169  0.2747
 6471SOL    HW131049   4.267   1.892   4.200 -0.6137  0.5573  0.6810
 6471SOL    HW231050   4.190   1.817   4.102 -0.1065 -0.5313  1.4036
 6472SOL     OW31051   1.524   0.661   4.789  0.5724 -0.4962  0.0276
 6472SOL    HW131052   1.539   0.630   4.699 -0.4099  0.4315 -0.4463
 6472SOL    HW231053   1.480   0.743   4.768 -0.2348 -1.0896 -0.6259
 6473SOL     OW31054   1.531   1.638   2.052  0.5070  0.4413  0.0751
 6473SOL    HW131055   1.476   1.650   2.129 -0.4155 -0.1920 -0.4792
 6473SOL    HW231056   1.592   1.711   2.059  0.0996  0.5695  2.1695
 6474SOL     OW31057   0.298   0.489   6.275  0.0301 -0.7967 -0.0060
 6474SOL    HW131058   0.243   0.539   6.215 -1.5738 -0.7579  1.5004
 6474SOL    HW231059   0.315   0.547   6.349 -0.9333  0.5180 -0.8321
 6475SOL     OW31060   0.403   3.768   7.479 -0.0281  0.0708 -0.7923
 6475SOL    HW131061   0.400   3.838   7.413 -2.9945  0.2115 -0.5002
 6475SOL    HW231062   0.364   3.699   7.425 -0.1614  1.6532 -2.6895
 6476SOL     OW31063   4.495   3.695  11.410  0.0557  0.5113  0.2671
 6476SOL    HW131064   4.536   3.619  11.369 -4.0711 -1.6756  0.1532
 6476SOL    HW231065   4.454   3.644  11.481  1.7641  0.1560  0.9941
 6477SOL     OW31066   3.052   0.251   3.796  0.1547 -0.0233  0.6177
 6477SOL    HW131067   3.087   0.188   3.858  1.5153 -0.7953 -0.9216
 6477SOL    HW231068   3.012   0.186   3.738  1.9963 -0.6091  0.0053
 6478SOL     OW31069   1.940   2.322   2.752 -0.0971 -0.1988 -0.0669
 6478SOL    HW131070   1.921   2.367   2.834 -1.2688  0.9285 -0.9536
 6478SOL    HW231071   1.855   2.298   2.714  0.0079 -1.5523  0.5310
 6479SOL     OW31072   2.690   2.719   3.809 -0.6101  0.3800 -0.1891
 6479SOL    HW131073   2.676   2.684   3.721 -0.9672  1.9504 -0.7565
 6479SOL    HW231074   2.607   2.697   3.852  0.6817 -0.6348  1.7905
 6480SOL     OW31075   2.814   0.560   3.035 -0.1323 -0.7108 -0.5435
 6480SOL    HW131076   2.863   0.588   2.959 -0.6931  2.1382  0.1350
 6480SOL    HW231077   2.824   0.465   3.038 -0.0396 -0.6336  1.6330
 6481SOL     OW31078   3.268   3.132   2.133 -0.0064  0.3172  0.4241
 6481SOL    HW131079   3.226   3.117   2.217 -1.7375  0.2603 -0.4349
 6481SOL    HW231080   3.251   3.225   2.118 -2.0697 -0.1317 -0.0265
 6482SOL     OW31081   2.799   1.339  12.098 -0.2926  0.1425 -0.3078
 6482SOL    HW131082   2.733   1.301  12.156  0.3097 -1.8412 -0.9473
 6482SOL    HW231083   2.858   1.264  12.094 -1.0438 -0.4169 -1.1059
 6483SOL     OW31084   0.265   0.302   3.574 -0.2337  0.2217 -0.1900
 6483SOL    HW131085   0.210   0.372   3.609 -2.5867 -0.1544 -3.2198
 6483SOL    HW231086   0.279   0.259   3.658 -1.6047  1.7067  0.7830
 6484SOL     OW31087   1.376   2.093   0.194 -0.2662  0.2695  0.3955
 6484SOL    HW131088   1.365   2.075   0.101 -1.1912  0.8589  0.3921
 6484SOL    HW231089   1.324   2.173   0.200  1.0898  1.2548 -1.0035
 6485SOL     OW31090   1.164   4.350   9.294  0.3222  0.0980 -0.2008
 6485SOL    HW131091   1.107   4.315   9.225 -0.7433  1.4795 -0.0108
 6485SOL    HW231092   1.129   4.439   9.297  0.8296  0.2921  0.0779
 6486SOL     OW31093   4.189   0.910   9.570  0.5214 -0.2133 -0.1703
 6486SOL    HW131094   4.095   0.930   9.566  0.6851  0.7321  0.6466
 6486SOL    HW231095   4.183   0.818   9.597  0.2798  0.6071  2.5482
 6487SOL     OW31096   3.828   2.841   7.747  0.1511  0.3095 -0.9462
 6487SOL    HW131097   3.742   2.869   7.779  0.2126  1.1044 -1.4654
 6487SOL    HW231098   3.833   2.748   7.770  2.2842  0.7881  0.5605
 6488SOL     OW31099   2.385   1.426   8.596  0.3631  0.1309 -0.3006
 6488SOL    HW131100   2.339   1.452   8.516 -0.2716  0.0450  0.0375
 6488SOL    HW231101   2.456   1.488   8.607  0.4226 -0.5865  3.2461
 6489SOL     OW31102   2.409   4.648   5.620 -0.0796  0.6196  0.2416
 6489SOL    HW131103   2.419   4.596   5.700  0.7426 -0.9511 -0.8869
 6489SOL    HW231104   2.486   4.705   5.627 -0.5248  1.0175  1.9821
 6490SOL     OW31105   2.737   3.566   5.128  0.2792 -0.2735  0.0542
 6490SOL    HW131106   2.759   3.611   5.210 -2.2276 -0.1292  0.6599
 6490SOL    HW231107   2.649   3.533   5.147 -0.2239 -0.3681 -2.3921
 6491SOL     OW31108   4.642   0.389   2.883  0.1001 -0.7250 -0.5285
 6491SOL    HW131109   4.576   0.346   2.937  0.3663  0.3683  0.6463
 6491SOL    HW231110   4.715   0.395   2.944  0.7115  0.9989 -1.4198
 6492SOL     OW31111   3.950   0.419   6.039 -0.0355  0.1992  0.3566
 6492SOL    HW131112   3.993   0.437   5.955  1.4792  1.4891  1.4269
 6492SOL    HW231113   3.906   0.503   6.047  0.8043  0.5208  1.5918
 6493SOL     OW31114   1.286   3.357  15.858  0.4855 -0.4318  0.4417
 6493SOL    HW131115   1.362   3.333  15.804 -0.9572 -0.0568 -1.7362
 6493SOL    HW231116   1.235   3.279  15.835  0.8490  0.0729 -2.0637
 6494SOL     OW31117   2.737   4.599   5.119  0.0902  0.0780  0.0307
 6494SOL    HW131118   2.710   4.516   5.160 -0.9317  0.2574 -0.2727
 6494SOL    HW231119   2.656   4.619   5.072  0.6075  0.6181 -0.6178
 6495SOL     OW31120   2.400   2.504  11.571  0.1687  0.0611 -0.5771
 6495SOL    HW131121   2.413   2.479  11.480  0.6194 -0.5647 -0.3397
 6495SOL    HW231122   2.403   2.599  11.560  1.7394 -0.0778 -1.3079
 6496SOL     OW31123   2.149   3.930   8.816 -0.2059  0.0502 -0.0853
 6496SOL    HW131124   2.173   4.019   8.793  0.8669 -0.9364 -2.8265
 6496SOL    HW231125   2.207   3.887   8.753 -0.0759 -0.2396  0.2291
 6497SOL     OW31126   1.208   3.971   6.590 -0.3250 -0.3122  0.3093
 6497SOL    HW131127   1.202   3.887   6.636 -0.1692 -1.0215 -0.9592
 6497SOL    HW231128   1.140   3.967   6.523  0.0220 -0.5270 -0.0301
 6498SOL     OW31129   3.243   2.743   4.284  0.2011  0.7062  0.0971
 6498SOL    HW131130   3.294   2.814   4.324 -1.1854  1.6757  0.1451
 6498SOL    HW231131   3.177   2.801   4.245 -1.1091 -1.8827 -1.5027
 6499SOL     OW31132   2.046   1.517   4.215 -0.4633 -0.1761 -0.2898
 6499SOL    HW131133   2.124   1.569   4.237 -0.5748  0.2947 -0.9904
 6499SOL    HW231134   1.983   1.586   4.234  1.5569  1.0065  2.1164
 6500SOL     OW31135   4.545   4.572  16.046 -0.6113 -0.0837 -0.8042
 6500SOL    HW131136   4.517   4.571  16.138 -0.7679 -1.0193 -0.8571
 6500SOL    HW231137   4.607   4.500  16.046 -2.5673 -1.7952  1.1600
 6501SOL     OW31138   0.558   3.709   9.323 -0.0006  0.1162  0.4032
 6501SOL    HW131139   0.555   3.684   9.415  1.3456 -1.9594 -0.1150
 6501SOL    HW231140   0.586   3.800   9.337 -3.3324  1.5014 -1.9323
 6502SOL     OW31141   4.383   0.245   1.651  0.1489 -0.0710 -0.2059
 6502SOL    HW131142   4.288   0.234   1.657  0.2690 -1.3769 -0.6495
 6502SOL    HW231143   4.400   0.324   1.702  1.5396  1.4318 -3.0065
 6503SOL     OW31144   4.445   1.679   8.239 -0.1242  0.4750 -0.6786
 6503SOL    HW131145   4.452   1.773   8.227  1.0478  0.3550 -0.9432
 6503SOL    HW231146   4.448   1.651   8.148 -0.7894 -1.6950 -0.0507
 6504SOL     OW31147   4.195   3.666   1.254 -0.3201 -0.0712 -0.1063
 6504SOL    HW131148   4.247   3.747   1.249 -0.0647 -0.2683 -0.6942
 6504SOL    HW231149   4.256   3.620   1.311 -1.9789  1.0183  2.5285
 6505SOL     OW31150   2.543   2.700   5.158 -0.0203 -0.6392  0.3772
 6505SOL    HW131151   2.493   2.749   5.093 -0.2962 -1.7422 -0.2360
 6505SOL    HW231152   2.520   2.611   5.130 -0.8821  0.3872 -2.0914
 6506SOL     OW31153   3.459   3.626  12.099 -0.7458  0.1138 -0.0918
 6506SOL    HW131154   3.445   3.655  12.008 -1.9934  0.5212  0.2287
 6506SOL    HW231155   3.453   3.717  12.130 -1.6672 -0.0349  0.1782
 6507SOL     OW31156   0.490   2.194  14.443 -1.0556 -0.5012  0.3572
 6507SOL    HW131157   0.567   2.208  14.498  0.3055 -0.4110 -1.5742
 6507SOL    HW231158   0.481   2.098  14.444  0.1765 -0.6008  2.1360
 6508SOL     OW31159   3.274   3.969   9.246  0.5891 -0.1676  0.8521
 6508SOL    HW131160   3.195   3.984   9.195 -0.2036  1.0418  2.4238
 6508SOL    HW231161   3.270   3.874   9.259 -0.1745 -0.1938  0.4153
 6509SOL     OW31162   2.297   3.228   6.426  0.3656  0.0139  0.6379
 6509SOL    HW131163   2.386   3.221   6.461  0.8692  0.4415 -0.5385
 6509SOL    HW231164   2.303   3.156   6.364  0.7872  0.4906  0.1157
 6510SOL     OW31165   4.077   0.753   5.428  0.0924 -0.1552  0.2351
 6510SOL    HW131166   4.132   0.771   5.504  0.5868  3.0547 -0.8632
 6510SOL    HW231167   4.107   0.803   5.352 -0.3658  2.0691  1.5359
 6511SOL     OW31168   1.919   4.029   0.627 -0.3177  0.0753 -0.5028
 6511SOL    HW131169   1.833   4.036   0.669  0.6070 -0.3339  1.4168
 6511SOL    HW231170   1.972   4.078   0.690 -2.4672  2.0359 -0.2094
 6512SOL     OW31171   0.837   1.074   5.012 -0.0228 -0.3116 -0.7448
 6512SOL    HW131172   0.896   1.095   4.939  1.2478 -0.4763  0.2263
 6512SOL    HW231173   0.897   1.035   5.075 -0.0258 -1.0839 -1.2255
 6513SOL     OW31174   1.225   3.332   3.018 -0.3103  0.2456  0.1018
 6513SOL    HW131175   1.320   3.322   3.024 -0.4375 -0.8971  0.1321
 6513SOL    HW231176   1.221   3.428   3.024  0.0461  0.2832 -0.3223
 6514SOL     OW31177   1.443   0.642   4.016  0.1731 -0.4438  0.0551
 6514SOL    HW131178   1.460   0.735   4.032  0.5147 -0.4992  0.0027
 6514SOL    HW231179   1.472   0.651   3.925  0.6884 -1.6518  0.1043
 6515SOL     OW31180   2.895   2.816   2.303 -0.3349 -0.1597 -0.6585
 6515SOL    HW131181   2.819   2.810   2.361 -2.7223 -1.3541 -3.8554
 6515SOL    HW231182   2.926   2.725   2.307 -0.1748 -0.1384 -1.4113
 6516SOL     OW31183   3.902   0.742   8.157 -0.3808  0.1667  0.0089
 6516SOL    HW131184   3.893   0.836   8.174 -2.6151 -0.0369 -0.0086
 6516SOL    HW231185   3.890   0.748   8.062  2.4361  0.0939 -0.3327
 6517SOL     OW31186   3.895   4.454   1.669  0.2761 -0.1252  0.7012
 6517SOL    HW131187   3.862   4.536   1.632  1.6746 -0.7206 -1.9041
 6517SOL    HW231188   3.865   4.447   1.759 -0.4745 -1.9501  0.3019
 6518SOL     OW31189   1.990   0.095   8.420  0.0331 -0.0404 -0.1591
 6518SOL    HW131190   1.898   0.076   8.399  0.0676  0.0460 -0.3971
 6518SOL    HW231191   2.005   0.142   8.338  1.4343 -1.6261 -0.8069
 6519SOL     OW31192   2.685   0.180   4.761  0.6472 -1.2961  0.3817
 6519SOL    HW131193   2.676   0.269   4.796 -0.6387 -0.9581 -0.7766
 6519SOL    HW231194   2.777   0.181   4.736  1.3599 -0.4515  2.9885
 6520SOL     OW31195   2.583   1.987   4.373 -0.3884  0.2863  0.1192
 6520SOL    HW131196   2.677   1.996   4.358 -0.9723  2.6376 -2.1960
 6520SOL    HW231197   2.565   1.978   4.279  1.3952 -1.2560 -0.0591
 6521SOL     OW31198   4.103   3.253   2.031  0.7878 -0.6076 -0.2031
 6521SOL    HW131199   4.197   3.270   2.032  0.5847  0.5859 -1.6009
 6521SOL    HW231200   4.087   3.243   1.937  0.5085 -1.8531 -0.0273
 6522SOL     OW31201   2.181   1.895   6.562  0.1214  0.2016 -0.5790
 6522SOL    HW131202   2.246   1.897   6.632 -0.8684 -0.6311  0.3567
 6522SOL    HW231203   2.222   1.832   6.503 -0.7407  0.8537 -1.8735
 6523SOL     OW31204   3.065   0.812  13.701  0.0716  0.7341  0.1591
 6523SOL    HW131205   3.076   0.834  13.609 -1.4667 -0.8202 -0.3927
 6523SOL    HW231206   3.152   0.773  13.712 -0.2648  0.5831  2.2858
 6524SOL     OW31207   2.550   1.765   5.707  0.2431 -0.6793  0.0817
 6524SOL    HW131208   2.538   1.804   5.794  0.2770 -1.7787  0.5713
 6524SOL    HW231209   2.464   1.729   5.685  0.1061  0.6134 -1.5016
 6525SOL     OW31210   4.069   2.236   4.030  0.3144 -0.0595 -0.6538
 6525SOL    HW131211   4.102   2.156   3.991  1.6671  0.5099 -0.6694
 6525SOL    HW231212   4.114   2.284   3.960  1.6153  0.3242  0.4384
 6526SOL     OW31213   1.211   3.523   6.771 -0.2891  0.0429 -0.1553
 6526SOL    HW131214   1.160   3.463   6.716  1.5683 -0.5962 -1.1833
 6526SOL    HW231215   1.203   3.485   6.859 -2.4327 -2.4226 -1.4011
 6527SOL     OW31216   2.664   0.781   7.718  0.3120  0.1344 -0.1232
 6527SOL    HW131217   2.598   0.765   7.651  1.2948 -1.9769 -0.5877
 6527SOL    HW231218   2.653   0.698   7.765 -0.9067  0.0273 -0.6140
 6528SOL     OW31219   2.261   4.149   5.890 -0.1696  0.0318 -0.1662
 6528SOL    HW131220   2.354   4.140   5.871 -0.0930  0.3402  0.0701
 6528SOL    HW231221   2.234   4.057   5.882  0.8859 -0.3320  0.4359
 6529SOL     OW31222   2.231   0.500  11.416  0.1406  0.2021 -0.0522
 6529SOL    HW131223   2.274   0.585  11.410 -0.0336  0.1933 -1.5390
 6529SOL    HW231224   2.144   0.519  11.379  1.8791 -0.2492 -4.4003
 6530SOL     OW31225   1.022   2.347   3.933  0.0885  0.6325 -0.3133
 6530SOL    HW131226   1.060   2.434   3.936  0.9210  0.1790  2.0695
 6530SOL    HW231227   1.086   2.294   3.980 -0.7545  0.0985  0.2490
 6531SOL     OW31228   1.306   0.695  10.685 -0.3059 -0.2087 -0.0474
 6531SOL    HW131229   1.225   0.694  10.738 -0.0155 -2.1767  0.3505
 6531SOL    HW231230   1.277   0.726  10.599  0.0594 -2.8987 -1.1368
 6532SOL     OW31231   4.496   2.920   2.844  0.2717 -0.0305 -0.5520
 6532SOL    HW131232   4.476   3.013   2.857  0.5344 -0.0742  0.1558
 6532SOL    HW231233   4.541   2.885   2.920  0.4175  1.1832 -0.0727
 6533SOL     OW31234   2.686   2.930   7.071  0.6273 -0.4778 -0.7867
 6533SOL    HW131235   2.637   2.933   7.153 -1.0899 -0.2772 -1.8309
 6533SOL    HW231236   2.704   3.020   7.044 -1.4458 -0.4436 -2.0566
 6534SOL     OW31237   1.547   1.152   8.339 -0.1775 -0.5105  0.0572
 6534SOL    HW131238   1.566   1.218   8.272  1.8971 -1.1338  0.0361
 6534SOL    HW231239   1.639   1.136   8.362  0.1136 -0.6996 -1.2379
 6535SOL     OW31240   0.331   0.949   0.627 -0.5485 -0.1463  0.2635
 6535SOL    HW131241   0.331   0.969   0.533  0.1751 -0.5557  0.1794
 6535SOL    HW231242   0.241   0.920   0.641  0.6706 -3.9107  0.0377
 6536SOL     OW31243   1.742   1.165   5.734 -0.1524 -0.0644  0.1496
 6536SOL    HW131244   1.722   1.085   5.685 -1.0075  0.3949 -0.2326
 6536SOL    HW231245   1.660   1.195   5.773  0.4042  2.7134 -0.8173
 6537SOL     OW31246   0.752   3.885  16.639 -0.7431  0.3932  0.0474
 6537SOL    HW131247   0.712   3.941  16.573 -0.8448  0.1694 -0.0804
 6537SOL    HW231248   0.672   3.840  16.666  0.6656 -2.2334 -0.2275
 6538SOL     OW31249   0.506   1.599   1.316  0.3693 -0.3690 -0.2604
 6538SOL    HW131250   0.433   1.571   1.261 -0.1280 -0.4670  0.4581
 6538SOL    HW231251   0.499   1.692   1.293 -0.5978 -0.5440 -0.6567
 6539SOL     OW31252   1.138   3.168   5.520  0.3810  0.2114  0.3187
 6539SOL    HW131253   1.170   3.160   5.610  1.6454 -0.6509 -0.2082
 6539SOL    HW231254   1.066   3.105   5.527  2.4170 -2.1998 -0.5595
 6540SOL     OW31255   2.532   0.550   8.636 -0.0871  0.5948  0.3026
 6540SOL    HW131256   2.452   0.599   8.654  0.4282  2.3114 -2.0155
 6540SOL    HW231257   2.514   0.474   8.691 -2.1167  0.8713  0.0134
 6541SOL     OW31258   2.172   1.007   7.883 -0.1620  0.2053 -0.1789
 6541SOL    HW131259   2.098   0.960   7.922  0.5283  1.0238  2.1091
 6541SOL    HW231260   2.229   0.932   7.870 -2.0218 -1.0324 -1.1893
 6542SOL     OW31261   2.703   1.881   6.261  0.1853  0.0319  0.2168
 6542SOL    HW131262   2.765   1.932   6.314 -0.7168  2.1144 -0.7347
 6542SOL    HW231263   2.735   1.919   6.179  0.7310  0.4162  0.6072
 6543SOL     OW31264   3.051   2.646  17.516  0.3789  0.3889 -0.0274
 6543SOL    HW131265   3.117   2.682  17.458 -0.2237 -0.2753 -1.1412
 6543SOL    HW231266   3.036   2.720  17.574 -0.6037 -0.4967  0.8463
 6544SOL     OW31267   3.144   3.266   0.811  0.2305 -0.0608  0.4979
 6544SOL    HW131268   3.176   3.306   0.892  2.8021 -1.4889  0.1908
 6544SOL    HW231269   3.177   3.179   0.833 -0.5271 -0.3461  0.4930
 6545SOL     OW31270   1.734   2.789  17.461 -0.5334 -0.2654 -0.6313
 6545SOL    HW131271   1.735   2.879  17.429 -0.7026 -0.2702 -0.6514
 6545SOL    HW231272   1.786   2.750  17.391 -0.1236  0.3659 -0.6832
 6546SOL     OW31273   4.542   3.367   7.325 -1.2063 -0.6727 -0.1122
 6546SOL    HW131274   4.623   3.317   7.327  0.4618  1.9140 -2.9404
 6546SOL    HW231275   4.553   3.439   7.388  0.2360 -1.0757  0.0860
 6547SOL     OW31276   0.875   2.200   1.357  0.2068 -0.1311 -0.3819
 6547SOL    HW131277   0.914   2.286   1.342 -0.7983  0.2094 -1.0503
 6547SOL    HW231278   0.884   2.159   1.271  1.5117 -0.5824 -0.0242
 6548SOL     OW31279   3.513   3.416   5.929  0.2573  0.0257 -0.0460
 6548SOL    HW131280   3.538   3.498   5.973  2.2463 -0.9421  0.6337
 6548SOL    HW231281   3.505   3.449   5.840  0.3618  2.0220  0.6869
 6549SOL     OW31282   4.657   3.658   1.683 -0.0041  0.2851 -0.3688
 6549SOL    HW131283   4.647   3.638   1.590  2.5991  0.6854 -0.7307
 6549SOL    HW231284   4.719   3.730   1.687 -2.0198  1.9711  0.6209
 6550SOL     OW31285   0.608   3.907  16.969 -0.1825 -0.0052  0.1110
 6550SOL    HW131286   0.688   3.959  16.958  0.2166 -0.7512 -0.5239
 6550SOL    HW231287   0.626   3.856  17.047  1.5264 -0.3841 -0.5204
 6551SOL     OW31288   0.528   2.060   1.509 -0.7617 -0.3641 -0.4175
 6551SOL    HW131289   0.512   2.015   1.426  0.1240 -0.7471 -0.3868
 6551SOL    HW231290   0.463   2.022   1.568  0.4043  0.6905  1.5490
 6552SOL     OW31291   1.064   3.900  11.749  0.3727 -0.2284  0.0734
 6552SOL    HW131292   1.109   3.817  11.765 -1.0797 -1.1383 -0.4598
 6552SOL    HW231293   1.132   3.965  11.765  0.0338  0.4566 -1.3036
 6553SOL     OW31294   4.266   1.546   2.453 -0.0267  0.1139 -0.1473
 6553SOL    HW131295   4.300   1.471   2.501  1.1642  0.8443  0.1512
 6553SOL    HW231296   4.245   1.605   2.524 -1.0501 -0.3882 -0.0332
 6554SOL     OW31297   0.263   1.908   4.882 -0.7552  0.0773  0.3003
 6554SOL    HW131298   0.327   1.971   4.914 -0.3659 -0.4271  0.5042
 6554SOL    HW231299   0.318   1.831   4.874  0.7987  1.1986  0.1713
 6555SOL     OW31300   2.883   0.114  13.593 -0.2323 -0.5490 -0.0220
 6555SOL    HW131301   2.928   0.174  13.653 -2.4334  1.0381  0.0199
 6555SOL    HW231302   2.850   0.176  13.529  0.5946  0.1560  0.2364
 6556SOL     OW31303   3.115   0.876   5.215  0.1010 -0.3519 -0.7215
 6556SOL    HW131304   3.083   0.963   5.189 -1.9671 -0.8134  0.3281
 6556SOL    HW231305   3.116   0.828   5.133 -0.9215  2.2387 -2.2656
 6557SOL     OW31306   0.946   0.068  16.123  0.0738  0.4888 -0.3937
 6557SOL    HW131307   0.950   0.162  16.135 -0.8745  0.4530  0.2133
 6557SOL    HW231308   1.035   0.045  16.152 -0.7535 -1.8707  0.3091
 6558SOL     OW31309   4.269   2.648   2.544 -0.6547 -0.8237  0.4308
 6558SOL    HW131310   4.239   2.662   2.634  0.3176 -0.0950  0.6395
 6558SOL    HW231311   4.357   2.681   2.563 -1.5547  0.1126  3.0076
 6559SOL     OW31312   3.493   2.228   9.724 -0.0181 -0.0037 -0.4635
 6559SOL    HW131313   3.496   2.277   9.806  0.6498 -1.2831  0.2823
 6559SOL    HW231314   3.586   2.206   9.719  0.0499  0.1250  0.2447
 6560SOL     OW31315   3.735   2.428   9.712  0.6015  0.8520 -0.4091
 6560SOL    HW131316   3.743   2.386   9.798 -1.7423  0.2828 -0.4753
 6560SOL    HW231317   3.754   2.349   9.662 -1.5537 -1.9051  3.0833
 6561SOL     OW31318   3.785   4.196   5.549 -0.0448  0.1441  0.3238
 6561SOL    HW131319   3.740   4.153   5.622  0.4573  0.8887  1.0687
 6561SOL    HW231320   3.757   4.287   5.559 -0.0812  0.0082  1.4525
 6562SOL     OW31321   0.170   0.809  17.313  0.2857 -0.2431 -0.4856
 6562SOL    HW131322   0.135   0.875  17.253  0.3424  0.9965  0.8610
 6562SOL    HW231323   0.162   0.856  17.396  1.2821 -2.4848  0.8837
 6563SOL     OW31324   4.125   1.133   8.207 -0.3289 -0.3244  0.0030
 6563SOL    HW131325   4.140   1.227   8.196 -0.9216 -0.1578  0.6177
 6563SOL    HW231326   4.115   1.129   8.302  1.0412 -1.6491  0.0955
 6564SOL     OW31327   2.464   3.495   4.221 -0.4162 -0.0412  0.6841
 6564SOL    HW131328   2.425   3.473   4.136 -0.9379 -1.4859  1.2999
 6564SOL    HW231329   2.388   3.506   4.278  0.7378 -0.4174  2.2743
 6565SOL     OW31330   4.518   0.006   8.832 -0.1041 -0.1073  0.2617
 6565SOL    HW131331   4.460   0.081   8.822  1.0702  0.9319  1.1357
 6565SOL    HW231332   4.557   0.012   8.744 -1.0086  1.1692 -0.0545
 6566SOL     OW31333   1.876   2.388  10.966  0.2911 -0.3608  0.0639
 6566SOL    HW131334   1.969   2.389  10.986  0.4104 -0.5569 -0.4807
 6566SOL    HW231335   1.877   2.414  10.874 -0.4694  0.0771  0.1757
 6567SOL     OW31336   3.713   0.583   8.343  0.0058  0.1210 -0.0135
 6567SOL    HW131337   3.692   0.649   8.408 -1.0619  1.5933 -1.8632
 6567SOL    HW231338   3.748   0.627   8.266  0.0218 -0.8599 -0.5758
 6568SOL     OW31339   4.622   3.992   6.246 -0.1584  0.0390  0.1924
 6568SOL    HW131340   4.601   4.079   6.212 -0.7482 -0.9457 -2.0024
 6568SOL    HW231341   4.580   4.006   6.331 -1.5381  1.4896 -0.7358
 6569SOL     OW31342   0.353   3.045  16.429 -0.8559  0.0573  0.3282
 6569SOL    HW131343   0.292   3.118  16.417  1.1871  1.5932 -0.6785
 6569SOL    HW231344   0.332   2.979  16.364 -0.8050  2.5499 -2.2127
 6570SOL     OW31345   3.689   0.995  15.447  0.0336 -0.4208  0.4369
 6570SOL    HW131346   3.751   0.947  15.501 -1.4269 -3.6749 -0.7652
 6570SOL    HW231347   3.606   0.955  15.472 -1.8616  1.9705 -1.9656
 6571SOL     OW31348   3.599   3.562  10.879 -0.0843  0.1703 -0.1535
 6571SOL    HW131349   3.693   3.573  10.867 -0.1687  0.0866 -0.8828
 6571SOL    HW231350   3.574   3.529  10.792 -1.0678  2.5630 -0.7829
 6572SOL     OW31351   1.472   1.372   6.233 -0.4501 -0.0284 -0.2430
 6572SOL    HW131352   1.552   1.383   6.181 -0.7286 -2.1591 -1.1538
 6572SOL    HW231353   1.505   1.355   6.321 -0.3103  0.5486 -0.1884
 6573SOL     OW31354   1.503   2.229  15.992 -0.5336  0.2632 -0.8143
 6573SOL    HW131355   1.446   2.273  16.054 -2.3091 -0.5463 -1.8704
 6573SOL    HW231356   1.587   2.269  16.014 -1.2539  1.0296  0.5363
 6574SOL     OW31357   1.373   3.737   2.770  0.5642  0.1239 -0.3430
 6574SOL    HW131358   1.295   3.794   2.776  0.1803 -0.6048  1.6849
 6574SOL    HW231359   1.366   3.711   2.679  0.1889 -0.8248 -0.0477
 6575SOL     OW31360   2.982   1.579  15.067  0.0833  0.2796 -0.4249
 6575SOL    HW131361   3.071   1.546  15.054 -0.6007 -2.6176  2.3060
 6575SOL    HW231362   2.946   1.516  15.130  0.2958 -0.1564 -0.7465
 6576SOL     OW31363   2.525   2.541   8.980  0.1339  0.0946 -0.7294
 6576SOL    HW131364   2.480   2.624   8.966  1.2921  0.9551  0.6041
 6576SOL    HW231365   2.613   2.581   8.985 -0.2551  0.6407  1.9499
 6577SOL     OW31366   3.099   0.674   0.887 -0.6252  0.0982  0.1544
 6577SOL    HW131367   3.050   0.687   0.968  0.7203  0.0872  0.9826
 6577SOL    HW231368   3.045   0.737   0.840 -0.3021  0.6057  0.4494
 6578SOL     OW31369   1.207   0.900   8.840 -0.0803 -0.1942  0.0530
 6578SOL    HW131370   1.167   0.848   8.771  0.0987  0.2627 -0.3960
 6578SOL    HW231371   1.234   0.832   8.902  0.4212  0.5057  0.6065
 6579SOL     OW31372   1.815   4.388   6.807  0.5982 -0.5540 -0.1368
 6579SOL    HW131373   1.762   4.437   6.744  1.8583 -0.4203 -1.0983
 6579SOL    HW231374   1.879   4.345   6.751  0.3709  0.8411 -1.4605
 6580SOL     OW31375   3.508   3.117   8.718 -0.0553 -0.6546 -0.3307
 6580SOL    HW131376   3.440   3.143   8.655  0.5180  0.1134 -0.6293
 6580SOL    HW231377   3.466   3.074   8.793 -0.6856 -1.0339 -0.8952
 6581SOL     OW31378   3.248   2.446   2.594  0.8797 -0.1910 -0.1310
 6581SOL    HW131379   3.294   2.383   2.649 -0.0960  1.1723  2.2398
 6581SOL    HW231380   3.282   2.528   2.629  0.2057 -0.1416  0.3973
 6582SOL     OW31381   2.103   0.360  13.546 -0.3296  0.1683  0.4414
 6582SOL    HW131382   2.171   0.407  13.497 -1.6200  0.6070 -0.9445
 6582SOL    HW231383   2.074   0.431  13.602 -2.1995  0.6264 -1.0981
 6583SOL     OW31384   4.582   2.217   8.558 -0.3153 -0.1034  0.3585
 6583SOL    HW131385   4.531   2.251   8.631 -0.0993 -0.7597  0.8176
 6583SOL    HW231386   4.509   2.186   8.505 -0.1819 -0.8214  0.5905
 6584SOL     OW31387   2.870   3.689   2.160  0.3604  0.0425  0.0374
 6584SOL    HW131388   2.952   3.735   2.178  0.1413  1.1225 -1.7539
 6584SOL    HW231389   2.893   3.603   2.197 -1.8407  0.1382  1.6030
 6585SOL     OW31390   3.659   1.255   4.991 -0.3511  0.3984  0.2226
 6585SOL    HW131391   3.601   1.318   5.035 -0.6764  0.8502 -0.8418
 6585SOL    HW231392   3.590   1.206   4.946  1.9191 -1.9763 -0.6402
 6586SOL     OW31393   4.019   0.646   8.841  0.0876  0.5473  0.2455
 6586SOL    HW131394   4.065   0.607   8.766  1.8618  2.1646  0.4914
 6586SOL    HW231395   3.974   0.723   8.809  0.6018  0.7237 -0.0504
 6587SOL     OW31396   3.859   0.796  15.566  0.3475  0.1281  0.6479
 6587SOL    HW131397   3.917   0.792  15.642  1.9480 -0.0332 -0.5911
 6587SOL    HW231398   3.885   0.714  15.524 -1.4175 -0.4474  0.6498
 6588SOL     OW31399   3.929   0.540   1.881 -0.1204  0.3961 -0.1587
 6588SOL    HW131400   3.901   0.451   1.858  0.7472  0.3643 -1.1047
 6588SOL    HW231401   3.935   0.525   1.975 -2.0350 -0.0325 -0.1000
 6589SOL     OW31402   3.271   3.065   5.103  0.1161  0.1768  0.3269
 6589SOL    HW131403   3.253   3.147   5.056  1.1111 -0.4856 -1.1841
 6589SOL    HW231404   3.195   3.010   5.085 -1.2548  2.4254 -0.7339
 6590SOL     OW31405   1.716   4.632   3.600  0.5351  0.5586 -0.5847
 6590SOL    HW131406   1.699   4.540   3.577 -2.3627  0.9842 -0.1128
 6590SOL    HW231407   1.707   4.624   3.695  1.3980  2.0589 -0.3799
 6591SOL     OW31408   4.592   3.213   3.718 -0.2931  0.3487  0.2406
 6591SOL    HW131409   4.681   3.248   3.708  0.1640 -0.8762 -0.0388
 6591SOL    HW231410   4.547   3.289   3.682  1.3523  1.1181 -0.2118
 6592SOL     OW31411   0.603   2.369   5.050 -0.1173 -0.5144 -0.0288
 6592SOL    HW131412   0.599   2.445   5.108  1.7591 -0.2604 -0.2423
 6592SOL    HW231413   0.606   2.400   4.959  0.3083  0.2740  0.2572
 6593SOL     OW31414   3.724   4.311   8.365 -0.1991 -0.0673 -0.3880
 6593SOL    HW131415   3.785   4.367   8.317  1.1245 -0.4310  0.8597
 6593SOL    HW231416   3.637   4.335   8.334 -0.0409 -2.2985 -2.5741
 6594SOL     OW31417   4.637   2.436   1.289 -0.2495  0.2834  0.0757
 6594SOL    HW131418   4.657   2.493   1.363 -3.0477 -2.4329  2.9157
 6594SOL    HW231419   4.583   2.364   1.322  0.3661 -0.0667  0.3082
 6595SOL     OW31420   1.444   0.570   0.927 -0.3822 -0.4745  0.3747
 6595SOL    HW131421   1.394   0.491   0.907  1.5235 -1.5707 -0.0911
 6595SOL    HW231422   1.399   0.638   0.878  1.4121 -0.2856 -1.0433
 6596SOL     OW31423   2.395   3.342   6.087 -0.2750  0.5605  0.4404
 6596SOL    HW131424   2.385   3.394   6.166  1.0605  1.6829 -0.1307
 6596SOL    HW231425   2.452   3.390   6.027  1.3988 -0.0062  1.5728
 6597SOL     OW31426   3.895   4.634   7.877 -0.2259  0.2598  0.2958
 6597SOL    HW131427   3.841   4.711   7.862  1.2350  1.0031 -1.1695
 6597SOL    HW231428   3.842   4.581   7.937 -0.5053 -1.9890 -1.9281
 6598SOL     OW31429   0.615   1.042   7.641  0.6399  0.4961  0.0447
 6598SOL    HW131430   0.628   1.002   7.555 -2.2340 -0.0775 -0.1245
 6598SOL    HW231431   0.558   1.114   7.616  0.1628  0.5388  1.2444
 6599SOL     OW31432   1.770   2.177   4.224 -0.0303 -0.1996  0.1845
 6599SOL    HW131433   1.692   2.159   4.275  0.2349  0.6808  0.9095
 6599SOL    HW231434   1.831   2.119   4.269  0.0926  0.4445  0.8408
 6600SOL     OW31435   1.207   2.389   0.702  0.1539 -0.2866 -0.1400
 6600SOL    HW131436   1.184   2.391   0.795  1.0990 -0.1331  0.0853
 6600SOL    HW231437   1.160   2.463   0.665 -1.9042 -0.4888  2.0143
 6601SOL     OW31438   0.947   3.681   7.391 -0.3589 -0.0189  0.3076
 6601SOL    HW131439   0.900   3.764   7.388 -1.1455 -0.5033 -0.6721
 6601SOL    HW231440   1.021   3.712   7.444 -0.2313 -2.4998  1.5757
 6602SOL     OW31441   2.957   2.181   3.542  0.4701  0.0540 -0.9706
 6602SOL    HW131442   2.862   2.189   3.528  0.6233  0.1212 -2.0228
 6602SOL    HW231443   2.987   2.117   3.477  0.2308 -0.2591 -0.7772
 6603SOL     OW31444   0.569   4.126   6.831  0.0293 -0.1771  0.3824
 6603SOL    HW131445   0.663   4.105   6.827 -0.0914 -0.9717  1.4641
 6603SOL    HW231446   0.530   4.047   6.869  0.2280  0.2021  1.4009
 6604SOL     OW31447   0.016   0.177   8.457  0.0326  0.1461  0.2609
 6604SOL    HW131448   0.003   0.169   8.363  2.0362  1.0518 -0.0960
 6604SOL    HW231449   0.039   0.269   8.471 -2.1415  1.1189 -2.5769
 6605SOL     OW31450   0.849   3.341   2.800 -0.2616  0.1570  0.4921
 6605SOL    HW131451   0.881   3.427   2.828  2.5613 -0.5868 -0.4939
 6605SOL    HW231452   0.781   3.309   2.859  0.8821 -0.8543  1.2284
 6606SOL     OW31453   0.148   1.058   7.737  0.0082  0.5113 -0.7216
 6606SOL    HW131454   0.079   1.086   7.676 -0.9306  2.7017  1.3654
 6606SOL    HW231455   0.222   1.045   7.678 -0.6525 -0.9541 -1.2206
 6607SOL     OW31456   4.390   0.251   5.010  0.3526 -0.3920 -0.1544
 6607SOL    HW131457   4.459   0.210   4.958  0.5450 -0.6139  0.2757
 6607SOL    HW231458   4.427   0.236   5.098  1.9389  1.8474 -0.4482
 6608SOL     OW31459   4.688   3.271   8.318 -0.0408 -0.0025 -0.3792
 6608SOL    HW131460   4.626   3.342   8.304  0.0730  0.1805  0.0278
 6608SOL    HW231461   4.695   3.287   8.412 -1.0875 -0.1222 -0.2834
 6609SOL     OW31462   3.344   1.508   7.187 -0.0833  0.5029 -0.4292
 6609SOL    HW131463   3.363   1.414   7.180  1.9104  0.7609  1.6548
 6609SOL    HW231464   3.267   1.500   7.130 -0.2106 -2.7555  0.1793
 6610SOL     OW31465   3.536   2.049   3.797 -0.0128 -0.3556 -0.4797
 6610SOL    HW131466   3.595   1.984   3.834  1.0983  0.6449 -0.5088
 6610SOL    HW231467   3.451   2.004   3.799 -0.3539  0.2734 -0.7629
 6611SOL     OW31468   3.964   4.710   2.342 -0.2166  0.3750 -0.3506
 6611SOL    HW131469   3.996   4.624   2.315  1.1813 -0.0524  2.6697
 6611SOL    HW231470   3.993   4.731   2.431 -2.3031  3.3742 -0.3847
 6612SOL     OW31471   0.827   4.687  17.207 -0.0103  0.0273  0.5027
 6612SOL    HW131472   0.813   4.604  17.161  1.2951  0.0102  0.1173
 6612SOL    HW231473   0.913   4.706  17.169 -0.2890  0.4334  0.0794
 6613SOL     OW31474   4.049   4.175   5.636 -0.4442 -0.0674 -0.1653
 6613SOL    HW131475   4.099   4.100   5.604 -2.7975 -1.1745 -1.2567
 6613SOL    HW231476   3.963   4.160   5.596  0.0830 -2.3199 -0.4555
 6614SOL     OW31477   2.711   2.250   6.934  0.3818 -0.2421 -0.6190
 6614SOL    HW131478   2.708   2.341   6.902  0.9407  0.3134  0.9239
 6614SOL    HW231479   2.620   2.238   6.959  0.2405  0.2283 -0.8913
 6615SOL     OW31480   2.002   4.131   3.323  0.0221 -0.0812  0.0536
 6615SOL    HW131481   2.084   4.087   3.301  1.0319  1.5762  0.4528
 6615SOL    HW231482   1.948   4.110   3.247 -1.5242  0.0285  1.1302
 6616SOL     OW31483   3.005   3.726   5.650  0.5078 -0.1229 -0.5478
 6616SOL    HW131484   2.994   3.668   5.725 -0.0160  1.8642  0.8942
 6616SOL    HW231485   2.939   3.696   5.587  1.5743 -1.6960 -0.9105
 6617SOL     OW31486   2.123   4.729  15.105  0.1382 -0.2599  0.1772
 6617SOL    HW131487   2.122   0.040  15.188 -0.4054  0.0057  0.0171
 6617SOL    HW231488   2.209   4.691  15.123  0.5579  1.5813  1.9749
 6618SOL     OW31489   1.510   4.242   5.653  0.1485  0.4384  0.1584
 6618SOL    HW131490   1.503   4.147   5.652  2.2249  0.2655  1.1244
 6618SOL    HW231491   1.593   4.254   5.607 -0.3007  1.7146 -0.3326
 6619SOL     OW31492   2.488   2.389   7.223 -0.4770 -0.2074 -0.1224
 6619SOL    HW131493   2.396   2.366   7.236 -0.3381 -0.9937 -0.5219
 6619SOL    HW231494   2.523   2.304   7.252 -1.2539 -0.5543 -0.1834
 6620SOL     OW31495   3.828   4.644  10.844  0.6024  0.3146 -0.0328
 6620SOL    HW131496   3.795   4.554  10.850 -0.2625  0.5916 -0.7238
 6620SOL    HW231497   3.917   4.628  10.813  0.8509  0.9011  0.3772
 6621SOL     OW31498   3.477   4.688  14.424 -0.3547 -0.5346 -0.4404
 6621SOL    HW131499   3.459   4.637  14.345  1.0061 -0.6680 -0.6510
 6621SOL    HW231500   3.513   0.031  14.386 -3.3945  1.4545  0.8369
 6622SOL     OW31501   3.935   0.939   8.479  0.0284 -0.1404  0.1214
 6622SOL    HW131502   3.940   1.026   8.440 -0.7612 -0.0134  0.2990
 6622SOL    HW231503   4.026   0.907   8.482  0.2283  0.3027 -1.5648
 6623SOL     OW31504   2.005   2.939   5.737  0.1041 -0.2439  0.8617
 6623SOL    HW131505   2.074   2.918   5.673 -0.9752  2.0758 -1.0602
 6623SOL    HW231506   2.018   2.865   5.796  1.3379  2.7205  4.2836
 6624SOL     OW31507   3.677   0.690   3.546  0.4248 -0.8475  0.7480
 6624SOL    HW131508   3.761   0.712   3.506  0.4094 -1.0971  0.5832
 6624SOL    HW231509   3.631   0.774   3.548 -1.1493 -1.6767 -1.5180
 6625SOL     OW31510   1.002   1.200   4.823  0.4326  0.0256  0.0294
 6625SOL    HW131511   0.964   1.182   4.737 -1.6448  1.3217  0.6795
 6625SOL    HW231512   1.094   1.209   4.799  1.3444  0.2694  3.5282
 6626SOL     OW31513   0.110   2.675   5.241 -0.0143  0.2954  0.6670
 6626SOL    HW131514   0.056   2.661   5.319 -0.1080  2.6562  1.0424
 6626SOL    HW231515   0.119   2.770   5.253 -3.9556  0.8116 -0.3624
 6627SOL     OW31516   3.075   3.286   8.145 -1.1326 -0.2711 -0.0362
 6627SOL    HW131517   3.090   3.211   8.087  0.2195 -0.6468  0.8165
 6627SOL    HW231518   3.013   3.248   8.207 -1.9684 -0.7682 -1.1629
 6628SOL     OW31519   2.328   1.138   7.189 -0.2042 -0.1724  0.2288
 6628SOL    HW131520   2.339   1.044   7.199  1.1818 -0.1346 -0.9543
 6628SOL    HW231521   2.272   1.130   7.112  2.2239  1.4351 -1.7087
 6629SOL     OW31522   1.080   2.489   7.040 -0.5497 -0.2747  0.2107
 6629SOL    HW131523   1.081   2.446   7.126 -0.7973 -1.8275 -0.5754
 6629SOL    HW231524   1.023   2.564   7.056  2.2508  1.7167  0.9503
 6630SOL     OW31525   0.436   3.343   7.411  0.0933  0.3450 -0.4700
 6630SOL    HW131526   0.485   3.362   7.491 -1.5016 -0.4128  0.6923
 6630SOL    HW231527   0.386   3.421   7.390  1.1975  0.8020 -1.4223
 6631SOL     OW31528   3.283   3.481  16.183 -0.1677 -0.3390  0.2840
 6631SOL    HW131529   3.226   3.499  16.108 -1.2753 -1.0301  0.9729
 6631SOL    HW231530   3.353   3.546  16.169  0.7272 -1.1953  0.8038
 6632SOL     OW31531   0.585   4.713   8.859  0.0749 -0.3215  0.4979
 6632SOL    HW131532   0.669   4.725   8.815  0.3821 -0.6764  0.9906
 6632SOL    HW231533   0.596   0.005   8.950  2.5688  2.0095 -0.5213
 6633SOL     OW31534   3.412   0.111   8.043  0.4077 -0.2842  0.3043
 6633SOL    HW131535   3.491   0.066   8.074 -1.0407 -1.9978  1.5472
 6633SOL    HW231536   3.435   0.202   8.064 -4.6904  1.0370  0.1978
 6634SOL     OW31537   1.329   2.152   8.157  0.2395 -0.2608 -0.2959
 6634SOL    HW131538   1.345   2.094   8.232  1.1821 -0.5030 -0.6775
 6634SOL    HW231539   1.287   2.229   8.196 -1.0791 -0.3888 -1.4729
 6635SOL     OW31540   0.975   2.956   5.521 -0.0097  0.3725 -0.2229
 6635SOL    HW131541   1.008   2.876   5.480 -2.4346  0.0004 -1.3955
 6635SOL    HW231542   0.973   2.932   5.614 -3.1438 -0.0392 -0.4159
 6636SOL     OW31543   4.128   1.002   0.906 -0.3358  0.1376  0.3551
 6636SOL    HW131544   4.055   1.053   0.940 -1.6086 -0.7649 -0.9949
 6636SOL    HW231545   4.086   0.920   0.881 -0.4120  1.2623 -3.1769
 6637SOL     OW31546   0.986   2.474   6.638 -0.4914  0.0091 -0.1057
 6637SOL    HW131547   1.075   2.470   6.674 -0.1230 -0.3250 -1.0582
 6637SOL    HW231548   0.996   2.421   6.559  1.2315  1.1522 -0.6703
 6638SOL     OW31549   2.251   4.333  13.925 -0.1863 -1.0323  0.1513
 6638SOL    HW131550   2.334   4.290  13.904  1.5629  1.1812  2.6142
 6638SOL    HW231551   2.279   4.408  13.977  2.8345 -0.5709 -2.1264
 6639SOL     OW31552   2.326   0.170  15.802  0.4762 -0.0059 -0.3550
 6639SOL    HW131553   2.317   0.262  15.828  0.0614 -0.2260  0.2780
 6639SOL    HW231554   2.406   0.151  15.850  0.2103  1.6284  0.7358
 6640SOL     OW31555   3.425   3.957   3.324 -0.7708  0.0930  0.1467
 6640SOL    HW131556   3.493   3.894   3.350 -0.1052  0.7203 -0.0493
 6640SOL    HW231557   3.460   3.988   3.241  0.0094 -0.7319  0.1635
 6641SOL     OW31558   1.261   0.874   7.641 -0.7617  0.2970  0.6883
 6641SOL    HW131559   1.324   0.892   7.571 -0.1917 -0.3538  1.0394
 6641SOL    HW231560   1.309   0.907   7.716 -0.6578  0.4067  0.5740
 6642SOL     OW31561   1.115   4.495   4.498 -0.6013 -0.0217 -0.5370
 6642SOL    HW131562   1.099   4.555   4.426  1.1909  0.0884 -0.8613
 6642SOL    HW231563   1.024   4.485   4.523 -0.9296 -0.1270 -1.7497
 6643SOL     OW31564   1.927   1.081   7.627 -0.0123  0.7382  0.1077
 6643SOL    HW131565   1.986   1.098   7.553  0.2539 -2.0601 -0.3278
 6643SOL    HW231566   1.973   1.014   7.677  0.1737 -0.5906 -1.8567
 6644SOL     OW31567   1.610   1.934   3.305 -0.6747  0.2216 -0.2211
 6644SOL    HW131568   1.562   1.975   3.377  0.4380 -0.9110  1.1523
 6644SOL    HW231569   1.534   1.909   3.252 -1.9369  0.6182  1.3931
 6645SOL     OW31570   3.164   0.877   8.383 -0.0246  0.7628 -0.1302
 6645SOL    HW131571   3.098   0.883   8.451 -2.0428  0.5047 -2.0617
 6645SOL    HW231572   3.244   0.884   8.436 -1.5031 -1.4264  2.4056
 6646SOL     OW31573   3.304   1.375   8.510  0.0831 -0.2116 -0.4198
 6646SOL    HW131574   3.209   1.383   8.505 -0.0713 -2.5368 -1.2887
 6646SOL    HW231575   3.324   1.313   8.581  5.2632 -1.5564 -3.0318
 6647SOL     OW31576   3.329   0.394  15.729  0.0401  0.0789  0.3193
 6647SOL    HW131577   3.289   0.406  15.815  1.0574  1.5925  0.5904
 6647SOL    HW231578   3.386   0.471  15.731  1.3775 -0.8966 -0.3997
 6648SOL     OW31579   4.342   0.243  14.919 -0.3484 -0.1275  0.4741
 6648SOL    HW131580   4.345   0.179  14.847 -2.8816 -2.0388  2.0579
 6648SOL    HW231581   4.431   0.239  14.954  0.2324  1.0861 -0.8582
 6649SOL     OW31582   0.341   3.983   4.824 -0.1223  0.0392  0.3113
 6649SOL    HW131583   0.323   3.917   4.757 -1.8044  0.6737  0.1564
 6649SOL    HW231584   0.376   3.918   4.885  1.6478  0.4653 -0.2207
 6650SOL     OW31585   3.383   0.627   1.649  0.1423  0.1185 -0.3569
 6650SOL    HW131586   3.397   0.698   1.711 -1.6025 -0.6520  0.9029
 6650SOL    HW231587   3.404   0.672   1.567 -0.8510 -1.7021 -1.6229
 6651SOL     OW31588   4.464   0.219   2.975 -0.7412  0.4828 -0.1455
 6651SOL    HW131589   4.383   0.175   2.947 -0.4788 -0.2269  0.2051
 6651SOL    HW231590   4.516   0.139   2.986  0.2953  0.9986 -1.3937
 6652SOL     OW31591   1.485   4.542  15.852 -0.5009 -0.1638 -0.2625
 6652SOL    HW131592   1.554   4.598  15.816 -0.9764  0.2877 -0.4809
 6652SOL    HW231593   1.440   4.519  15.771 -2.8420  1.7083  0.4631
 6653SOL     OW31594   3.938   0.653   6.470 -0.0611  0.3300  0.4095
 6653SOL    HW131595   3.956   0.613   6.555  2.2977 -0.8392 -0.6159
 6653SOL    HW231596   4.028   0.670   6.440  0.0818  0.2251  0.7879
 6654SOL     OW31597   1.533   0.199  14.122  0.0782 -0.0988  0.3336
 6654SOL    HW131598   1.525   0.179  14.216 -0.6752 -0.5483  0.1693
 6654SOL    HW231599   1.449   0.237  14.099 -0.7177 -1.2551  1.3402
 6655SOL     OW31600   1.779   2.018   3.997  0.1060 -0.1767  0.4257
 6655SOL    HW131601   1.702   1.966   4.018  1.6784 -2.8354 -0.3323
 6655SOL    HW231602   1.789   2.081   4.068 -1.7347 -1.7357  2.0485
 6656SOL     OW31603   3.439   4.609   2.158 -0.4730  0.0134  0.1158
 6656SOL    HW131604   3.465   4.700   2.143  0.5682 -0.5306 -1.4241
 6656SOL    HW231605   3.519   4.561   2.138 -0.6632 -0.4440  0.4533
 6657SOL     OW31606   0.970   1.410   8.903 -0.3249  0.4825  0.3498
 6657SOL    HW131607   0.939   1.326   8.868 -1.6044  0.8350  0.6552
 6657SOL    HW231608   1.061   1.391   8.927 -0.8729 -0.4607  1.7031
 6658SOL     OW31609   0.271   1.245   5.618  0.3490 -0.6034  0.0767
 6658SOL    HW131610   0.302   1.270   5.705 -1.3257 -0.5655  0.6599
 6658SOL    HW231611   0.303   1.317   5.566  0.2065  0.2072  1.1054
 6659SOL     OW31612   1.523   3.891  15.263  0.1072  0.3305  0.6079
 6659SOL    HW131613   1.558   3.956  15.324 -1.6913  2.9111 -1.1161
 6659SOL    HW231614   1.537   3.935  15.180 -0.6387  1.2157  0.9536
 6660SOL     OW31615   3.214   0.171   2.259  0.3797  0.4345 -0.2924
 6660SOL    HW131616   3.309   0.161   2.259  0.4958  1.6151 -3.2018
 6660SOL    HW231617   3.204   0.199   2.168 -1.2524 -0.4792 -0.3931
 6661SOL     OW31618   0.829   3.985   3.730  0.2843 -0.0553  0.3897
 6661SOL    HW131619   0.813   3.907   3.678  0.9826  0.2001 -0.2182
 6661SOL    HW231620   0.747   4.034   3.729  1.8667  2.6626  2.3323
 6662SOL     OW31621   3.014   1.294   2.114 -0.3367 -0.2633  0.1364
 6662SOL    HW131622   2.950   1.243   2.065 -0.6555  1.8366 -1.6174
 6662SOL    HW231623   3.018   1.249   2.198 -0.8333  0.4724  0.5541
 6663SOL     OW31624   1.491   2.626   2.207 -0.0106 -0.4712 -0.3903
 6663SOL    HW131625   1.501   2.698   2.144  0.9387  0.5091  0.8731
 6663SOL    HW231626   1.398   2.604   2.207 -0.1310  0.0813  0.7163
 6664SOL     OW31627   2.500   1.934   4.089 -0.3734  0.2079  0.0296
 6664SOL    HW131628   2.464   1.849   4.063  0.0495  0.2356 -0.6463
 6664SOL    HW231629   2.417   1.980   4.086 -0.5762 -0.2388 -1.6021
 6665SOL     OW31630   2.705   2.728   6.367  0.5788 -0.0027 -0.5332
 6665SOL    HW131631   2.646   2.800   6.344 -0.6157 -0.8164  0.0036
 6665SOL    HW231632   2.669   2.703   6.452  0.3673  0.2688 -0.5417
 6666SOL     OW31633   4.084   2.143   4.884 -0.1930 -0.1369 -0.4992
 6666SOL    HW131634   4.016   2.076   4.884 -0.2352 -0.0993  1.3943
 6666SOL    HW231635   4.114   2.134   4.975  2.9176  1.6056 -1.3723
 6667SOL     OW31636   0.361   3.365   3.287  0.1125 -0.4732 -0.3322
 6667SOL    HW131637   0.411   3.425   3.231  0.3711 -1.5208 -1.2204
 6667SOL    HW231638   0.299   3.424   3.330 -0.9981 -0.8503 -1.3986
 6668SOL     OW31639   1.469   4.605   6.081 -0.3246 -0.1588  0.0088
 6668SOL    HW131640   1.482   4.511   6.066 -2.0959 -0.7976  2.4460
 6668SOL    HW231641   1.561   4.629   6.068  0.2701 -2.8692 -0.7126
 6669SOL     OW31642   4.397   0.683   2.631 -0.1238 -0.0999  0.1883
 6669SOL    HW131643   4.398   0.597   2.675 -1.8184  0.1615  0.7121
 6669SOL    HW231644   4.382   0.729   2.713 -2.6169 -1.1342  0.3187
 6670SOL     OW31645   2.582   0.141   5.006 -0.1191 -0.3482  0.5313
 6670SOL    HW131646   2.587   0.144   4.911 -0.0616 -2.2279  0.4803
 6670SOL    HW231647   2.529   0.062   5.013  0.0389 -0.5068 -0.0841
 6671SOL     OW31648   3.681   1.989   2.480  0.3204  0.4292  0.2546
 6671SOL    HW131649   3.639   2.074   2.495  0.1793  0.3203  0.4820
 6671SOL    HW231650   3.761   2.003   2.531  0.2086  1.4067  0.1732
 6672SOL     OW31651   2.833   3.007   4.746 -0.3017 -0.0784 -0.3938
 6672SOL    HW131652   2.745   3.034   4.720 -0.0144 -1.6099 -2.9310
 6672SOL    HW231653   2.808   2.967   4.829 -0.3042 -0.1978 -0.4527
 6673SOL     OW31654   4.161   2.159  17.368 -0.5308 -0.8169 -0.2335
 6673SOL    HW131655   4.130   2.234  17.317  2.0030  0.1482 -0.3851
 6673SOL    HW231656   4.243   2.148  17.318  0.3260  1.3872  0.6711
 6674SOL     OW31657   1.111   1.928  13.480  0.0189 -1.2479 -0.8230
 6674SOL    HW131658   1.067   2.005  13.445  0.4318 -0.5208  0.2518
 6674SOL    HW231659   1.100   1.946  13.574  0.7062 -0.2437 -0.9324
 6675SOL     OW31660   2.205   2.851   5.197  0.9743 -0.1237 -0.2665
 6675SOL    HW131661   2.113   2.846   5.223  1.0575 -1.7090 -0.2593
 6675SOL    HW231662   2.229   2.760   5.181  1.1733  0.3006 -2.4011
 6676SOL     OW31663   0.042   2.010   0.714 -0.1235 -0.0706 -0.3870
 6676SOL    HW131664   4.717   1.946   0.678 -0.9499  1.4832 -1.7433
 6676SOL    HW231665   4.722   2.088   0.716  1.4368  1.0364  0.5373
 6677SOL     OW31666   2.917   2.606   0.823 -0.3916 -0.4870  0.8132
 6677SOL    HW131667   2.997   2.569   0.861 -0.7490 -0.5784  1.4785
 6677SOL    HW231668   2.934   2.700   0.835 -0.3071 -0.2974 -0.7639
 6678SOL     OW31669   1.770   4.226   6.360 -0.5541 -0.5754 -0.4872
 6678SOL    HW131670   1.829   4.153   6.380  0.1576 -0.7074 -3.0282
 6678SOL    HW231671   1.813   4.253   6.279  1.0291  2.7973  1.4909
 6679SOL     OW31672   4.399   1.836   7.445  0.1071 -0.2676 -0.0355
 6679SOL    HW131673   4.356   1.921   7.442 -1.2186 -0.9143  1.0434
 6679SOL    HW231674   4.413   1.813   7.353 -0.4038  1.7308 -0.6030
 6680SOL     OW31675   1.517   0.849   9.048 -0.2077  0.8071 -0.1718
 6680SOL    HW131676   1.497   0.920   8.986  0.0652  0.9798 -0.0640
 6680SOL    HW231677   1.593   0.893   9.087 -0.1581 -0.5303  1.2253
 6681SOL     OW31678   0.918   0.748  17.167  0.4795 -0.0119  0.2903
 6681SOL    HW131679   0.869   0.676  17.129  0.0646  0.1752  0.4675
 6681SOL    HW231680   0.848   0.799  17.208 -0.2241 -0.3335 -0.5135
 6682SOL     OW31681   2.010   3.378   7.867 -0.0306 -0.2254  0.7167
 6682SOL    HW131682   2.042   3.466   7.889 -0.8689  0.4049 -0.5742
 6682SOL    HW231683   2.094   3.336   7.887  0.2023 -1.6502 -3.1987
 6683SOL     OW31684   3.943   2.557   1.017 -0.5170 -0.5896 -0.0345
 6683SOL    HW131685   3.915   2.482   1.069 -0.2584 -0.5750  0.1265
 6683SOL    HW231686   3.968   2.513   0.935  3.0355  0.0449  0.6824
 6684SOL     OW31687   2.865   0.201   8.805  0.0296 -0.4443 -0.0372
 6684SOL    HW131688   2.813   0.157   8.872  0.4978 -0.8819  0.0339
 6684SOL    HW231689   2.912   0.129   8.763  0.1974 -0.5250  0.2835
 6685SOL     OW31690   2.146   1.478  16.243  0.0061 -0.6307 -0.3965
 6685SOL    HW131691   2.071   1.483  16.184  1.5511 -0.3000 -2.3303
 6685SOL    HW231692   2.095   1.465  16.323 -1.8281  0.4414 -1.3817
 6686SOL     OW31693   4.614   3.513   3.358  0.4389 -0.5858  0.1372
 6686SOL    HW131694   4.591   3.435   3.307  0.3710 -1.2921  1.2347
 6686SOL    HW231695   4.608   3.579   3.290  0.3374  0.6485  1.3463
 6687SOL     OW31696   0.597   2.668   6.821 -1.0355 -0.3539 -0.1074
 6687SOL    HW131697   0.666   2.663   6.754 -1.1336  1.1340 -0.3301
 6687SOL    HW231698   0.517   2.688   6.774 -1.7577  2.4764  2.3490
 6688SOL     OW31699   4.506   4.706   8.236 -0.5680  0.4203 -0.4961
 6688SOL    HW131700   4.471   4.636   8.181 -0.2788 -0.7140  0.7426
 6688SOL    HW231701   4.487   4.678   8.325 -1.7249 -3.4831 -1.9723
 6689SOL     OW31702   0.675   4.291   3.939 -0.0233  0.2902 -0.3983
 6689SOL    HW131703   0.637   4.225   3.881  1.6865 -0.2022 -0.9620
 6689SOL    HW231704   0.750   4.243   3.973 -0.7559  0.1154  0.9911
 6690SOL     OW31705   1.777   2.643   3.315  0.6555  0.4085  0.5352
 6690SOL    HW131706   1.695   2.601   3.287  1.3023 -0.3695 -0.1899
 6690SOL    HW231707   1.851   2.583   3.305  0.3325  0.1882 -0.5850
 6691SOL     OW31708   1.187   4.020   4.407  0.6016 -0.0343 -0.2663
 6691SOL    HW131709   1.208   3.940   4.360  0.1040 -1.8627  2.6210
 6691SOL    HW231710   1.125   3.982   4.468  2.1886 -0.5496  1.0331
 6692SOL     OW31711   4.307   3.352   3.131 -0.0334 -0.3716 -0.1787
 6692SOL    HW131712   4.277   3.421   3.072  0.9946  0.9249  0.8251
 6692SOL    HW231713   4.274   3.273   3.088 -0.6478 -0.6676  0.8357
 6693SOL     OW31714   0.005   4.664   9.546  0.2737 -0.5239  0.3612
 6693SOL    HW131715   0.003   4.632   9.636 -2.5335 -2.0546 -0.2508
 6693SOL    HW231716   4.732   0.022   9.560 -1.7949 -0.1616 -3.4147
 6694SOL     OW31717   3.279   0.311  12.235  0.1763 -0.1502 -1.0196
 6694SOL    HW131718   3.342   0.340  12.169  1.2320 -1.1882 -0.4641
 6694SOL    HW231719   3.267   0.394  12.282 -3.4293 -1.2503 -0.0512
 6695SOL     OW31720   0.662   1.866   6.194 -0.0426 -0.5205  0.4877
 6695SOL    HW131721   0.649   1.844   6.286  1.0794 -0.3888  0.6753
 6695SOL    HW231722   0.572   1.859   6.162  0.1399 -1.1657  0.1321
 6696SOL     OW31723   2.865   3.213  12.968 -0.2822 -0.6001 -0.9372
 6696SOL    HW131724   2.798   3.163  12.922 -1.7382 -0.0846  0.6411
 6696SOL    HW231725   2.811   3.293  12.971 -1.0795 -1.1525 -0.6048
 6697SOL     OW31726   2.949   0.586   2.823  0.0922 -0.1940 -0.2580
 6697SOL    HW131727   3.001   0.661   2.852 -0.1291 -0.1154 -0.0678
 6697SOL    HW231728   3.018   0.522   2.809  0.7327  0.4417 -0.0515
 6698SOL     OW31729   1.066   1.049   8.377 -0.0447 -0.0610  0.3164
 6698SOL    HW131730   1.092   1.104   8.303  1.0047  0.9282  1.4156
 6698SOL    HW231731   1.149   1.017   8.413  0.2306  2.6285  2.0773
 6699SOL     OW31732   1.264   2.772   5.543 -0.6396 -0.3325 -0.0023
 6699SOL    HW131733   1.213   2.801   5.619  0.9134  0.2617  0.7983
 6699SOL    HW231734   1.355   2.759   5.568 -0.6026  1.3169  0.7158
 6700SOL     OW31735   1.871   0.757  16.211 -0.8781 -0.1704  0.3543
 6700SOL    HW131736   1.822   0.810  16.149  1.5597  0.5159 -0.9885
 6700SOL    HW231737   1.802   0.730  16.272 -1.0253 -1.6303 -0.4751
 6701SOL     OW31738   0.361   1.912   7.872 -0.5860  0.5173  0.2110
 6701SOL    HW131739   0.408   1.834   7.902  1.3740  1.4124 -0.5636
 6701SOL    HW231740   0.370   1.971   7.947  0.6550  1.3439 -0.5982
 6702SOL     OW31741   0.659   0.213   3.921  0.1815  0.1142  0.5307
 6702SOL    HW131742   0.647   0.306   3.903  0.7527  0.2673  0.9654
 6702SOL    HW231743   0.699   0.182   3.840 -1.1454  0.7549 -0.3800
 6703SOL     OW31744   1.254   1.297   5.096 -0.0116  0.0812  0.3383
 6703SOL    HW131745   1.257   1.203   5.115  1.2767  0.3656  1.5546
 6703SOL    HW231746   1.270   1.296   5.002 -0.3341  2.0472  0.2623
 6704SOL     OW31747   0.546   0.847   3.473 -0.5588  0.2908  0.0283
 6704SOL    HW131748   0.607   0.887   3.535  0.0274  0.5349 -0.7071
 6704SOL    HW231749   0.499   0.928   3.454 -1.3866 -0.5309 -1.3933
 6705SOL     OW31750   3.254   0.661   6.535 -0.6177 -0.5098  0.3502
 6705SOL    HW131751   3.178   0.717   6.520  1.2865  1.5807 -1.4683
 6705SOL    HW231752   3.294   0.663   6.448 -0.6723 -2.5433  0.2740
 6706SOL     OW31753   3.765   1.650  15.822 -0.2549 -0.1812 -0.0929
 6706SOL    HW131754   3.846   1.612  15.788  0.1590  1.0344 -0.4572
 6706SOL    HW231755   3.745   1.704  15.746  0.7722  0.7860  0.3054
 6707SOL     OW31756   4.609   1.296   2.033  0.4238 -0.2309  0.0639
 6707SOL    HW131757   4.592   1.299   1.939 -0.3799  1.5354  0.2588
 6707SOL    HW231758   4.525   1.266   2.066  1.0456 -1.7928  0.2059
 6708SOL     OW31759   4.016   0.257  17.744  0.8265 -0.0805  0.0748
 6708SOL    HW131760   3.990   0.190   0.062  1.0366  0.7103  1.0159
 6708SOL    HW231761   4.107   0.255   0.028  0.7671  1.6831  0.3822
 6709SOL     OW31762   1.085   4.676  17.104  0.3263  0.4584  0.7884
 6709SOL    HW131763   1.057   4.673  17.012  1.3646 -1.5508  0.5269
 6709SOL    HW231764   1.110   4.584  17.112 -0.2148  0.2635  0.2265
 6710SOL     OW31765   4.404   0.888   8.948  0.1727  0.0374  0.0968
 6710SOL    HW131766   4.374   0.890   8.857  2.1611  1.3278 -0.5293
 6710SOL    HW231767   4.356   0.810   8.974 -1.7539  1.1345 -0.1319
 6711SOL     OW31768   3.560   3.678   4.477 -0.4501  0.1953 -0.3548
 6711SOL    HW131769   3.649   3.692   4.509 -0.6036 -0.2129  0.2467
 6711SOL    HW231770   3.519   3.757   4.513  1.0049  1.0266 -0.5129
 6712SOL     OW31771   4.033   3.540   0.361  0.0320 -0.0221 -0.5074
 6712SOL    HW131772   4.128   3.528   0.348  0.3396 -0.2477  1.9152
 6712SOL    HW231773   4.018   3.565   0.270 -3.2690  0.2550  0.1278
 6713SOL     OW31774   1.766   0.731   5.087 -0.3031 -0.0946  0.2315
 6713SOL    HW131775   1.706   0.803   5.070  1.1076  0.5405 -2.0260
 6713SOL    HW231776   1.814   0.717   5.006 -1.3589  0.4025 -0.4736
 6714SOL     OW31777   3.271   4.127  12.678 -0.2509  0.3115  0.1465
 6714SOL    HW131778   3.236   4.156  12.593  0.2888 -0.4284 -0.3222
 6714SOL    HW231779   3.289   4.204  12.732 -1.5268  1.2948 -0.8125
 6715SOL     OW31780   0.552   4.178  16.716  0.4133  0.3960 -0.0512
 6715SOL    HW131781   0.565   4.097  16.667  0.9472  1.4128 -1.5741
 6715SOL    HW231782   0.493   4.222  16.655  1.0676  0.9532 -0.2781
 6716SOL     OW31783   4.122   0.013   5.353  0.5930 -0.1150  0.3826
 6716SOL    HW131784   4.049   0.074   5.340 -0.1308 -0.9547  0.5568
 6716SOL    HW231785   4.178   0.079   5.394  1.1393  1.5738 -3.0863
 6717SOL     OW31786   2.077   3.550  11.838  0.1017 -0.2201 -0.0694
 6717SOL    HW131787   2.073   3.495  11.916  1.8704 -0.0255  0.1411
 6717SOL    HW231788   2.010   3.610  11.872  0.0199 -0.1007 -0.4438
 6718SOL     OW31789   4.454   2.028   3.257  0.3949  1.2182  0.3096
 6718SOL    HW131790   4.520   2.081   3.303  2.3040 -1.2268  0.3857
 6718SOL    HW231791   4.454   2.070   3.170  1.1580 -0.5313 -0.5341
 6719SOL     OW31792   1.384   0.242   2.686  0.2894  0.9463 -0.0043
 6719SOL    HW131793   1.414   0.179   2.751  0.8082  2.1698  0.9436
 6719SOL    HW231794   1.296   0.206   2.675  1.3702 -1.5743 -0.4274
 6720SOL     OW31795   2.900   2.761   8.606 -0.7331 -0.1963  0.3192
 6720SOL    HW131796   2.808   2.747   8.583 -0.5708 -2.4762  1.0606
 6720SOL    HW231797   2.928   2.670   8.615  1.2225  0.5128  1.5000
 6721SOL     OW31798   1.975   0.551  11.341 -0.2371 -0.1975 -0.7065
 6721SOL    HW131799   2.007   0.641  11.335  0.1733 -0.3691 -1.0670
 6721SOL    HW231800   1.961   0.535  11.247 -1.6009  1.3108 -0.7564
 6722SOL     OW31801   4.609   0.247  14.988 -0.8214  0.1514  0.3499
 6722SOL    HW131802   4.652   0.258  15.072 -0.9160  0.1558  0.3972
 6722SOL    HW231803   4.671   0.185  14.949  1.4548  2.4577  0.3168
 6723SOL     OW31804   4.018   2.679  12.709 -0.2407  0.4490  0.1507
 6723SOL    HW131805   4.097   2.671  12.762  0.3119 -0.9091 -0.8696
 6723SOL    HW231806   4.018   2.773  12.693 -2.7222  0.8635  2.5286
 6724SOL     OW31807   3.282   1.955   3.842  0.3593 -0.4233  0.2327
 6724SOL    HW131808   3.257   2.010   3.916 -2.2848  0.8769 -1.6446
 6724SOL    HW231809   3.307   1.871   3.879 -1.0666 -0.3106  1.4360
 6725SOL     OW31810   2.851   3.248   1.887  0.6649 -0.2788 -1.0658
 6725SOL    HW131811   2.779   3.200   1.928  0.2454  0.6226 -0.7525
 6725SOL    HW231812   2.926   3.198   1.921  0.6596  0.2868 -0.2019
 6726SOL     OW31813   0.673   4.330   6.249  0.3781 -0.3856 -0.6247
 6726SOL    HW131814   0.679   4.401   6.312 -0.2426 -0.7850 -0.1186
 6726SOL    HW231815   0.629   4.264   6.302 -1.2604  0.8099 -0.5008
 6727SOL     OW31816   2.283   0.809   4.102 -0.1560 -0.2050 -0.7949
 6727SOL    HW131817   2.231   0.730   4.115  1.2853 -0.6758  2.0795
 6727SOL    HW231818   2.256   0.836   4.014 -1.0803 -1.2054 -0.8097
 6728SOL     OW31819   1.983   0.277   3.739 -0.4292 -0.0322  0.0351
 6728SOL    HW131820   2.006   0.368   3.718 -3.3089  1.0404  1.5127
 6728SOL    HW231821   1.929   0.259   3.662  1.1485  1.5653 -1.4404
 6729SOL     OW31822   2.830   1.389  12.726  0.1324 -0.7292  0.2784
 6729SOL    HW131823   2.864   1.441  12.799 -2.2503  1.4411 -0.1828
 6729SOL    HW231824   2.760   1.446  12.695 -1.2325 -2.7827 -0.4373
 6730SOL     OW31825   1.668   2.406   8.324  0.0812  0.1692  0.0087
 6730SOL    HW131826   1.585   2.444   8.293  0.0818  1.2684  1.3506
 6730SOL    HW231827   1.695   2.368   8.240  1.0598  2.2338 -0.6227
 6731SOL     OW31828   3.262   3.690   4.898  0.1116  0.8178 -0.4170
 6731SOL    HW131829   3.333   3.744   4.931 -1.3180  1.9188  0.8908
 6731SOL    HW231830   3.224   3.649   4.976  0.2803 -1.2015 -1.3929
 6732SOL     OW31831   2.003   4.684   5.513 -0.3178 -0.4691 -0.1348
 6732SOL    HW131832   1.915   4.666   5.479 -1.0458  1.8833  0.4538
 6732SOL    HW231833   2.046   0.010   5.454  1.0066 -1.1025  0.1700
 6733SOL     OW31834   3.261   3.430   2.467 -0.3971  0.0104 -0.3139
 6733SOL    HW131835   3.225   3.367   2.529 -0.3921  2.3195  2.0516
 6733SOL    HW231836   3.263   3.510   2.521 -1.6934 -0.8195  0.9512
 6734SOL     OW31837   4.323   1.807   1.161  0.7029 -0.1679 -0.5901
 6734SOL    HW131838   4.227   1.811   1.165  0.6529 -2.4607  0.6632
 6734SOL    HW231839   4.339   1.751   1.237  0.3249 -1.3699 -1.3933
 6735SOL     OW31840   2.628   3.016   9.621  0.0267  0.2876 -0.0457
 6735SOL    HW131841   2.667   3.074   9.556  1.1278 -1.1627 -0.6672
 6735SOL    HW231842   2.698   2.998   9.684 -0.1898  0.9518  0.3883
 6736SOL     OW31843   4.286   1.636   0.692  0.0842 -0.4288 -0.1544
 6736SOL    HW131844   4.382   1.629   0.692  0.1697  0.7546  0.2529
 6736SOL    HW231845   4.284   1.700   0.763  0.7622  0.0815 -0.6006
 6737SOL     OW31846   0.855   4.238  10.051 -0.0715 -0.1109 -0.2918
 6737SOL    HW131847   0.843   4.177  10.124 -1.0181  0.9504  0.4449
 6737SOL    HW231848   0.837   4.184   9.974  1.8558 -2.6817  1.0515
 6738SOL     OW31849   2.975   3.370   5.447 -0.2709  0.6655  0.7443
 6738SOL    HW131850   3.021   3.448   5.417  0.7351 -0.8844 -1.7953
 6738SOL    HW231851   3.046   3.306   5.450 -2.8724 -2.2216  0.4464
 6739SOL     OW31852   0.528   2.796   4.923 -0.3315 -0.3217 -0.4345
 6739SOL    HW131853   0.604   2.826   4.973 -0.7488 -0.1572  0.0961
 6739SOL    HW231854   0.471   2.792   4.999 -0.8490  0.6254 -0.7707
 6740SOL     OW31855   3.281   3.730   4.396  0.0663 -0.2077 -0.1129
 6740SOL    HW131856   3.253   3.639   4.401 -0.9900  0.0849 -0.7339
 6740SOL    HW231857   3.360   3.722   4.449  0.5559  0.0486 -0.8073
 6741SOL     OW31858   2.815   3.083   3.632  0.8410 -0.1543  0.1420
 6741SOL    HW131859   2.842   3.070   3.541 -0.4789  0.6364 -0.3642
 6741SOL    HW231860   2.884   3.136   3.671  1.5654 -1.9410  1.2529
 6742SOL     OW31861   4.266   1.439  17.491 -0.1484 -0.6234  0.0770
 6742SOL    HW131862   4.184   1.469  17.453  1.0778  0.6487 -1.6195
 6742SOL    HW231863   4.231   1.373  17.550 -1.7740 -0.5883 -0.8533
 6743SOL     OW31864   1.117   0.087  11.034 -0.4851  0.2241 -0.3254
 6743SOL    HW131865   1.185   0.155  11.038  0.0630 -0.2908 -0.8316
 6743SOL    HW231866   1.164   0.009  11.065  1.0218  1.4364  0.4560
 6744SOL     OW31867   3.698   1.329  11.546  0.3018  0.2455 -0.1608
 6744SOL    HW131868   3.759   1.325  11.620 -1.1030 -2.8196  0.8506
 6744SOL    HW231869   3.650   1.408  11.572 -0.9791 -1.0308  1.3681
 6745SOL     OW31870   0.736   2.737   9.088 -0.1148  0.1336  0.3902
 6745SOL    HW131871   0.775   2.813   9.132  2.0775 -1.3513  1.0133
 6745SOL    HW231872   0.672   2.786   9.036 -2.7725 -1.6119  2.0093
 6746SOL     OW31873   3.085   4.581  11.461  0.7321 -0.0061  0.4089
 6746SOL    HW131874   3.027   4.567  11.536  0.6455  0.8575  0.4985
 6746SOL    HW231875   3.032   4.570  11.382  0.4593 -0.4035  0.6438
 6747SOL     OW31876   3.255   3.741   6.908 -0.3184  0.9038 -0.4254
 6747SOL    HW131877   3.193   3.754   6.836  0.3571 -2.1188 -1.5923
 6747SOL    HW231878   3.313   3.814   6.885 -0.5565  0.6878 -1.7117
 6748SOL     OW31879   0.478   3.328   4.598 -0.8350 -0.0577  0.4406
 6748SOL    HW131880   0.520   3.298   4.678  0.3921 -2.8278 -1.2503
 6748SOL    HW231881   0.555   3.348   4.544 -2.0861  2.2818 -0.5190
 6749SOL     OW31882   2.034   0.613   2.718 -0.3609  0.3073  0.1847
 6749SOL    HW131883   2.109   0.598   2.775 -0.8699 -1.4206  0.4068
 6749SOL    HW231884   1.964   0.598   2.782 -0.9582 -0.0098 -0.5364
 6750SOL     OW31885   2.033   1.800   3.619  0.1318 -0.2977 -0.4134
 6750SOL    HW131886   2.075   1.878   3.584 -1.8562  0.9904  0.0337
 6750SOL    HW231887   1.974   1.844   3.680  0.2943  1.1811 -1.3228
 6751SOL     OW31888   3.782   3.452   1.464 -0.1239 -0.2720  0.3503
 6751SOL    HW131889   3.841   3.462   1.388  2.6856  0.1999  2.5959
 6751SOL    HW231890   3.844   3.464   1.536 -0.3176 -0.1961  0.5026
 6752SOL     OW31891   3.636   3.574   5.098  0.0985 -0.1598  0.1061
 6752SOL    HW131892   3.671   3.488   5.121 -1.3385 -0.6653  0.4168
 6752SOL    HW231893   3.570   3.555   5.032 -1.8365  1.1387  1.6663
 6753SOL     OW31894   0.731   0.325   4.588 -0.3594 -0.1166  0.0807
 6753SOL    HW131895   0.695   0.399   4.636  0.0018  0.2014 -0.1393
 6753SOL    HW231896   0.732   0.258   4.657  1.7213 -2.1407 -1.9108
 6754SOL     OW31897   1.413   2.530   2.574  0.3559  0.0035  0.0769
 6754SOL    HW131898   1.351   2.561   2.508 -2.2428 -4.3014  0.4426
 6754SOL    HW231899   1.493   2.576   2.552 -0.2484  0.1892 -1.6921
 6755SOL     OW31900   4.210   4.101   5.145 -0.0850 -0.4023  0.0437
 6755SOL    HW131901   4.277   4.037   5.123  0.4534 -0.2811  1.3339
 6755SOL    HW231902   4.138   4.071   5.090  0.1133 -0.6255 -0.0945
 6756SOL     OW31903   0.629   3.249   3.244  0.1756 -0.4061 -0.3287
 6756SOL    HW131904   0.564   3.315   3.220 -0.6904 -1.2586 -0.3550
 6756SOL    HW231905   0.594   3.235   3.332  1.0036  1.3064  0.2678
 6757SOL     OW31906   3.217   1.257   6.472  0.8435  0.3390  0.4339
 6757SOL    HW131907   3.281   1.232   6.405 -0.3396  1.6258 -1.1920
 6757SOL    HW231908   3.181   1.172   6.499  1.1563 -0.0234 -0.2670
 6758SOL     OW31909   0.561   0.534   6.672  0.7274 -0.1554  0.3341
 6758SOL    HW131910   0.569   0.614   6.724 -0.0313 -0.8067  1.4360
 6758SOL    HW231911   0.490   0.551   6.610  1.6251 -0.5852 -0.8194
 6759SOL     OW31912   4.054   2.224   0.481  0.1857 -0.0576  0.2957
 6759SOL    HW131913   4.107   2.221   0.401  1.0480 -2.5917  0.9710
 6759SOL    HW231914   3.985   2.168   0.444  0.1367  1.2067 -1.5757
 6760SOL     OW31915   2.093   1.684   4.878  0.3576  0.2469 -0.4524
 6760SOL    HW131916   2.040   1.613   4.913 -0.4153  0.9730 -0.1315
 6760SOL    HW231917   2.126   1.745   4.945  2.6397  0.6396 -1.9343
 6761SOL     OW31918   2.215   3.878   5.862  0.6605  0.3650 -0.0647
 6761SOL    HW131919   2.182   3.863   5.773 -0.7150 -2.1179  0.8540
 6761SOL    HW231920   2.251   3.791   5.880  2.7129  0.8665 -1.8171
 6762SOL     OW31921   1.154   2.097   5.240 -0.4067 -0.3363  0.4503
 6762SOL    HW131922   1.169   2.186   5.272 -1.8151  0.0774 -0.0233
 6762SOL    HW231923   1.188   2.101   5.151 -0.5554  0.9623  0.4502
 6763SOL     OW31924   3.190   3.531   6.344  0.7792 -0.1708 -0.3630
 6763SOL    HW131925   3.255   3.573   6.402 -1.3798 -1.3799  2.9579
 6763SOL    HW231926   3.213   3.438   6.351  0.0211 -0.3288  0.0639
 6764SOL     OW31927   3.447   4.154   1.291  0.0521  0.2094  0.0757
 6764SOL    HW131928   3.427   4.189   1.204  0.4041  2.9486  1.1070
 6764SOL    HW231929   3.543   4.154   1.293  0.0614  2.0451 -1.5847
 6765SOL     OW31930   4.251   2.817  12.163  0.1527 -0.0658 -0.3586
 6765SOL    HW131931   4.173   2.771  12.133  0.4748 -0.5057 -0.5118
 6765SOL    HW231932   4.308   2.784  12.093  1.4612  2.0464 -0.3083
 6766SOL     OW31933   4.499   3.114   1.757  0.2322  0.1317  0.0759
 6766SOL    HW131934   4.540   3.191   1.718 -0.7280  0.4056 -0.3947
 6766SOL    HW231935   4.406   3.136   1.768  0.7661  2.5402 -0.1165
 6767SOL     OW31936   0.460   4.023  10.676 -0.2298 -0.2411 -0.1658
 6767SOL    HW131937   0.503   4.020  10.761  2.1961 -0.2414 -1.4136
 6767SOL    HW231938   0.400   4.096  10.690 -1.2347 -0.5937 -2.6215
 6768SOL     OW31939   0.536   2.090  15.506  0.2126  0.7536  0.1671
 6768SOL    HW131940   0.521   2.113  15.597  0.5244 -0.3032  0.4835
 6768SOL    HW231941   0.591   2.164  15.478  0.8072  0.5847  0.8980
 6769SOL     OW31942   2.282   2.457   7.603 -0.6796  1.0389  0.3134
 6769SOL    HW131943   2.304   2.527   7.541 -1.8785 -2.1377 -3.7373
 6769SOL    HW231944   2.332   2.486   7.679 -1.2835  1.5075  0.5309
 6770SOL     OW31945   0.972   0.202  14.523  0.5083  0.2482 -0.2586
 6770SOL    HW131946   0.948   0.293  14.536  0.5656  0.1278  0.6921
 6770SOL    HW231947   0.920   0.168  14.595  2.1767 -3.2061 -0.6463
 6771SOL     OW31948   4.504   1.408   8.056  0.2672 -0.0019 -0.2142
 6771SOL    HW131949   4.495   1.489   8.005  1.6706 -0.2553 -0.8591
 6771SOL    HW231950   4.548   1.351   7.994 -1.6196 -0.3640 -1.2308
 6772SOL     OW31951   4.081   1.367   2.553  0.3314  0.2556 -0.1605
 6772SOL    HW131952   4.077   1.331   2.465  0.6859  0.0344 -0.0894
 6772SOL    HW231953   4.055   1.455   2.526  1.5501  0.7785  0.3668
 6773SOL     OW31954   0.848   2.508   3.283 -0.4512  0.1715  0.2539
 6773SOL    HW131955   0.887   2.578   3.335 -1.0981  1.3589 -0.8869
 6773SOL    HW231956   0.839   2.433   3.342  0.6742  0.2468  0.5138
 6774SOL     OW31957   4.675   4.714   5.137  0.0092  0.0260 -0.6441
 6774SOL    HW131958   4.635   0.054   5.179  1.7789  0.2970  0.5467
 6774SOL    HW231959   0.032   4.726   5.155 -0.5231  2.4172  0.4515
 6775SOL     OW31960   3.868   2.629   4.985  0.5217 -0.2247 -0.1873
 6775SOL    HW131961   3.869   2.616   4.890  3.4867 -0.7748 -0.1009
 6775SOL    HW231962   3.779   2.663   4.983 -0.4334 -2.7690 -1.0831
 6776SOL     OW31963   0.272   3.002   8.999 -0.2524  0.2880  0.3845
 6776SOL    HW131964   0.352   2.964   9.036 -0.7859 -0.9653  0.2589
 6776SOL    HW231965   0.238   2.933   8.942  0.5718 -0.1630  0.4433
 6777SOL     OW31966   1.401   2.394  16.488  0.2997 -0.0034 -0.3066
 6777SOL    HW131967   1.310   2.414  16.510  0.6855 -0.0675  1.3853
 6777SOL    HW231968   1.426   2.486  16.476 -0.5733  0.0917 -1.3393
 6778SOL     OW31969   0.374   3.341   8.525  0.0456  0.4178 -0.3100
 6778SOL    HW131970   0.316   3.402   8.480 -0.8316  0.4647  0.8570
 6778SOL    HW231971   0.305   3.281   8.555  1.3992 -0.6191  0.7007
 6779SOL     OW31972   4.166   2.431   1.543 -0.5112  0.2927  0.4205
 6779SOL    HW131973   4.087   2.451   1.493 -1.7775 -0.1328  2.2420
 6779SOL    HW231974   4.137   2.366   1.607  2.4056  0.1988  1.6534
 6780SOL     OW31975   1.512   4.589   7.318 -0.1750 -0.3232  0.0462
 6780SOL    HW131976   1.527   4.655   7.385 -0.1333 -0.1367 -0.1463
 6780SOL    HW231977   1.586   4.604   7.258  0.4845  0.6823  1.1096
 6781SOL     OW31978   2.309   1.412   8.984 -0.0033 -0.2585 -1.1389
 6781SOL    HW131979   2.331   1.504   8.996 -0.0790 -0.2699 -0.9032
 6781SOL    HW231980   2.289   1.412   8.890  1.1422 -1.2176 -1.3824
 6782SOL     OW31981   1.229   4.108  14.705  0.5392  0.1961  0.1056
 6782SOL    HW131982   1.216   4.015  14.726 -0.6789  0.3576  0.0423
 6782SOL    HW231983   1.311   4.102  14.656  0.4901 -0.4839  0.0990
 6783SOL     OW31984   1.696   3.360   6.584  0.7229 -1.0080 -0.7234
 6783SOL    HW131985   1.663   3.391   6.669  1.3158  0.2460 -0.9393
 6783SOL    HW231986   1.772   3.315   6.621  1.2954  2.0812  1.8911
 6784SOL     OW31987   4.152   3.557  12.601 -0.5615  0.0702 -0.1580
 6784SOL    HW131988   4.211   3.521  12.668  0.5917  1.7483 -0.2786
 6784SOL    HW231989   4.188   3.645  12.588  2.0629 -0.6891  1.7675
 6785SOL     OW31990   3.728   1.676  17.363  0.5361 -0.2058  0.2911
 6785SOL    HW131991   3.797   1.741  17.350 -0.2748  0.3996 -0.8667
 6785SOL    HW231992   3.701   1.703  17.451  0.5071  0.6188  0.0246
 6786SOL     OW31993   4.493   2.971   3.727 -0.2665 -0.1674 -0.4867
 6786SOL    HW131994   4.568   2.915   3.746 -0.0864 -0.2062 -1.3098
 6786SOL    HW231995   4.535   3.057   3.728  2.8243 -1.6815 -0.7472
 6787SOL     OW31996   0.853   3.688  17.032  0.0281  0.3942 -0.3157
 6787SOL    HW131997   0.828   3.619  16.969  0.9241 -0.2791  0.0739
 6787SOL    HW231998   0.766   3.699  17.072  0.7383  4.4065  0.1180
 6788SOL     OW31999   2.165   3.944  15.000  0.1872  0.6908 -0.1878
 6788SOL    HW132000   2.228   3.969  14.932  1.7400 -3.0905 -0.1603
 6788SOL    HW232001   2.101   4.014  14.990 -0.1183  0.2048 -1.6586
 6789SOL     OW32002   2.632   3.368   4.461  0.2710 -0.0884  0.3534
 6789SOL    HW132003   2.551   3.346   4.507  0.3951 -0.4556  0.3931
 6789SOL    HW232004   2.586   3.422   4.397  0.8727 -0.0689 -0.0603
 6790SOL     OW32005   3.892   4.038   9.481 -0.0431  0.1072  0.6553
 6790SOL    HW132006   3.916   3.965   9.537  2.0692 -0.4634 -0.9859
 6790SOL    HW232007   3.814   4.064   9.531 -0.4072 -0.8226  0.5784
 6791SOL     OW32008   3.217   1.397   6.120  0.4350  0.8605  0.0501
 6791SOL    HW132009   3.250   1.402   6.030  0.2446 -0.1319 -0.0811
 6791SOL    HW232010   3.254   1.313   6.146  2.6042  2.0522  0.8047
 6792SOL     OW32011   3.624   1.735  13.674  0.0874 -0.3064 -0.3811
 6792SOL    HW132012   3.711   1.748  13.637  0.2094 -2.9356 -1.0784
 6792SOL    HW232013   3.622   1.646  13.711  1.0563 -0.2905 -0.2751
 6793SOL     OW32014   1.707   3.241   2.425  0.0671 -0.1464  0.1748
 6793SOL    HW132015   1.752   3.262   2.344 -2.0111  1.6244 -0.5279
 6793SOL    HW232016   1.670   3.322   2.462 -0.6810 -0.2289 -0.3992
 6794SOL     OW32017   3.305   1.032   2.951 -0.3190 -0.3518 -0.1788
 6794SOL    HW132018   3.237   1.012   2.886  0.0616  0.6093 -0.8747
 6794SOL    HW232019   3.266   0.985   3.024  1.2777 -0.9885  0.2523
 6795SOL     OW32020   3.642   1.847  11.090  0.3950 -0.3541  0.0453
 6795SOL    HW132021   3.553   1.844  11.055  0.3401  0.7124  0.0885
 6795SOL    HW232022   3.697   1.819  11.017 -2.3743 -2.7167 -1.1180
 6796SOL     OW32023   0.843   1.687   4.847  0.0737  0.3643  0.2820
 6796SOL    HW132024   0.909   1.716   4.909 -1.0057  1.7609  0.7893
 6796SOL    HW232025   0.869   1.596   4.834 -0.5276  0.2376 -0.0560
 6797SOL     OW32026   1.382   2.001  17.689 -0.3788 -0.1713 -0.0485
 6797SOL    HW132027   1.329   1.936  17.643  1.1302 -0.6097 -1.1739
 6797SOL    HW232028   1.400   2.054  17.612  1.8050  3.4550  2.8959
 6798SOL     OW32029   1.199   3.042   4.585 -0.1642 -0.1178 -0.7809
 6798SOL    HW132030   1.263   2.990   4.634 -1.4198 -0.3788  0.5782
 6798SOL    HW232031   1.225   3.031   4.493 -0.6297 -0.6380 -0.8537
 6799SOL     OW32032   0.368   1.401   7.034 -0.3680  0.4616 -0.1028
 6799SOL    HW132033   0.460   1.382   7.055 -0.9512 -0.1783  1.8055
 6799SOL    HW232034   0.359   1.484   7.080 -1.2326  0.7303 -0.7702
 6800SOL     OW32035   3.223   1.780  11.799 -0.3892  0.1891  0.4556
 6800SOL    HW132036   3.243   1.873  11.785 -3.0029  0.6883  0.0283
 6800SOL    HW232037   3.289   1.739  11.854 -0.6738 -0.3262  0.4197
 6801SOL     OW32038   1.548   4.098   4.495 -0.0460  0.0481  0.1584
 6801SOL    HW132039   1.460   4.130   4.516 -0.3270 -0.0890 -0.8236
 6801SOL    HW232040   1.571   4.151   4.419  0.3626 -0.9407 -0.4045
 6802SOL     OW32041   1.922   4.277   6.114  0.2683  0.1908  0.8085
 6802SOL    HW132042   1.989   4.344   6.104  0.8544 -0.7887 -1.8106
 6802SOL    HW232043   1.972   4.196   6.111 -0.1844 -0.0740  0.3954
 6803SOL     OW32044   2.720   4.305  13.724 -0.1964  0.3625 -0.5015
 6803SOL    HW132045   2.778   4.376  13.750  0.9608 -0.5795 -0.4700
 6803SOL    HW232046   2.760   4.265  13.647 -1.0086  0.1651 -0.8192
 6804SOL     OW32047   3.568   4.096   5.084  0.1235 -0.0665 -0.4132
 6804SOL    HW132048   3.612   4.103   5.169  0.9876 -1.2708 -0.7613
 6804SOL    HW232049   3.633   4.145   5.033  1.8738 -1.0606  0.8362
 6805SOL     OW32050   1.937   1.168   0.579 -0.3705 -0.2012  0.1361
 6805SOL    HW132051   1.912   1.081   0.548 -1.0006  1.1999 -3.3064
 6805SOL    HW232052   2.006   1.140   0.639 -2.6972 -2.0263  1.9447
 6806SOL     OW32053   3.233   1.465   1.849 -0.4117 -0.0506  0.0078
 6806SOL    HW132054   3.189   1.550   1.862 -0.2778 -0.2444  1.6843
 6806SOL    HW232055   3.195   1.435   1.767 -1.6745 -2.8906  1.6419
 6807SOL     OW32056   3.891   4.621  10.444  0.3395 -0.1058 -0.4891
 6807SOL    HW132057   3.954   4.592  10.510 -0.9137 -0.7048  0.4395
 6807SOL    HW232058   3.858   4.703  10.481  0.5227  0.4319 -1.4987
 6808SOL     OW32059   2.593   0.316   1.168  0.1012 -0.4201  0.1812
 6808SOL    HW132060   2.610   0.405   1.135  0.4940 -0.3621  0.5352
 6808SOL    HW232061   2.550   0.331   1.252 -0.5840  2.6420 -0.6814
 6809SOL     OW32062   1.394   4.666   9.417  0.5157  0.2536 -0.5997
 6809SOL    HW132063   1.452   4.729   9.459 -1.3255  0.6636  1.3008
 6809SOL    HW232064   1.328   4.722   9.376  0.6814  0.8884 -0.0077
 6810SOL     OW32065   3.173   4.222   3.697 -0.4621 -0.5066  0.1288
 6810SOL    HW132066   3.220   4.180   3.625 -1.4989 -2.4109  0.5502
 6810SOL    HW232067   3.102   4.275   3.661 -0.8646  0.0034  1.6419
 6811SOL     OW32068   1.229   3.969  10.998  0.2245  0.1287  0.4923
 6811SOL    HW132069   1.215   3.908  11.070  1.0940  1.5042  1.8170
 6811SOL    HW232070   1.193   3.919  10.924  0.3665  2.4856 -1.1890
 6812SOL     OW32071   3.303   0.421   7.966 -0.2153  0.0489 -0.5109
 6812SOL    HW132072   3.395   0.416   7.993 -0.2505 -0.7699 -0.5400
 6812SOL    HW232073   3.287   0.515   7.960 -1.0416  0.0298  1.4102
 6813SOL     OW32074   4.359   4.683  15.272 -0.4654  0.1148  0.1441
 6813SOL    HW132075   4.319   0.022  15.228  0.7157  0.6188 -0.0500
 6813SOL    HW232076   4.401   4.736  15.340 -1.3003  0.5617  0.3178
 6814SOL     OW32077   1.183   2.107  14.497 -0.3317  0.2735 -0.1141
 6814SOL    HW132078   1.247   2.036  14.499 -0.4941  0.1108 -0.9649
 6814SOL    HW232079   1.180   2.134  14.589 -2.5939  0.5956 -0.2900
 6815SOL     OW32080   4.474   3.233   5.895 -0.3303 -0.3907 -0.3771
 6815SOL    HW132081   4.561   3.252   5.861 -1.7007  1.8304 -2.6134
 6815SOL    HW232082   4.496   3.233   5.989  2.1351  2.0161 -0.9764
 6816SOL     OW32083   1.961   0.196   2.968  0.2712 -0.6227  0.1445
 6816SOL    HW132084   2.043   0.215   2.922  0.4228  0.4953  0.8578
 6816SOL    HW232085   1.978   0.237   3.053  2.4913  1.0918 -1.1296
 6817SOL     OW32086   4.244   4.537   0.962 -0.8105  0.2968  0.3707
 6817SOL    HW132087   4.272   4.628   0.960  3.4373 -1.0250 -0.3885
 6817SOL    HW232088   4.164   4.551   1.013 -0.0845  0.3195  1.5056
 6818SOL     OW32089   2.031   4.587  16.937 -0.1866  0.3468 -0.0440
 6818SOL    HW132090   2.053   4.608  17.028 -0.0592 -0.9444  0.2246
 6818SOL    HW232091   2.110   4.537  16.914 -1.1086  0.3310 -3.0869
 6819SOL     OW32092   2.982   0.307   4.272 -0.3968  0.2647 -0.0442
 6819SOL    HW132093   3.068   0.279   4.304  0.0662  0.1685 -1.3801
 6819SOL    HW232094   3.002   0.387   4.224  0.0500 -0.0543 -0.3950
 6820SOL     OW32095   0.787   1.235   2.971  0.1013 -0.9379  0.0730
 6820SOL    HW132096   0.744   1.298   2.913 -0.8337 -1.6642 -0.0315
 6820SOL    HW232097   0.794   1.156   2.918 -1.5846 -0.4633 -0.8470
 6821SOL     OW32098   2.284   0.505   7.832  0.0795  0.2272  0.2211
 6821SOL    HW132099   2.282   0.512   7.737  0.9315 -0.8189  0.1242
 6821SOL    HW232100   2.338   0.426   7.835 -0.3285 -0.0350  0.6458
 6822SOL     OW32101   0.867   0.355   1.465 -0.5723  0.5784  0.3338
 6822SOL    HW132102   0.816   0.281   1.496  1.6326 -1.3582 -0.6262
 6822SOL    HW232103   0.942   0.312   1.422 -1.3337 -0.1993 -0.2187
 6823SOL     OW32104   4.235   3.045  12.934  0.2118 -0.5479  0.6833
 6823SOL    HW132105   4.317   3.076  12.972  1.1570 -0.4491 -1.4217
 6823SOL    HW232106   4.281   2.999  12.863 -1.2412  0.4375 -0.8777
 6824SOL     OW32107   2.178   1.323   7.620 -0.5483 -0.5074  0.0971
 6824SOL    HW132108   2.265   1.295   7.648 -0.2786  0.6219  0.3508
 6824SOL    HW232109   2.175   1.278   7.535  1.4326  0.8638 -0.6938
 6825SOL     OW32110   3.900   0.364   9.345 -0.5005 -0.0919 -0.0754
 6825SOL    HW132111   3.888   0.280   9.389 -1.3343  0.0018 -0.1219
 6825SOL    HW232112   3.810   0.395   9.360 -0.4563 -0.0437  0.0837
 6826SOL     OW32113   0.777   1.759   7.804 -0.1150 -0.7422  0.1675
 6826SOL    HW132114   0.715   1.715   7.746  0.9093 -1.6437 -0.2420
 6826SOL    HW232115   0.730   1.843   7.804 -0.3124 -0.8634 -1.0595
 6827SOL     OW32116   0.613   0.264   1.796  0.6597  0.5725  0.0056
 6827SOL    HW132117   0.599   0.291   1.887  1.1333  1.0663 -0.0723
 6827SOL    HW232118   0.556   0.324   1.748 -0.5218 -1.1360 -0.7521
 6828SOL     OW32119   1.013   2.356  16.155 -0.3318 -0.1982 -0.4506
 6828SOL    HW132120   1.031   2.298  16.229 -0.0552  0.6860  0.1817
 6828SOL    HW232121   0.976   2.431  16.202  0.1724 -0.5188  0.4467
 6829SOL     OW32122   1.421   0.505   2.711  0.5501  0.2337 -0.5581
 6829SOL    HW132123   1.501   0.523   2.661  0.8678 -0.9422 -0.4613
 6829SOL    HW232124   1.416   0.410   2.704  0.9931  0.0668  1.3872
 6830SOL     OW32125   4.454   4.395   8.601 -0.1504  0.3141 -0.1695
 6830SOL    HW132126   4.389   4.427   8.663 -0.3170 -0.7350  0.2029
 6830SOL    HW232127   4.532   4.395   8.658  0.7950 -0.8505 -1.4622
 6831SOL     OW32128   4.136   0.887   5.176  0.1903  0.0088 -0.3565
 6831SOL    HW132129   4.097   0.919   5.094 -0.2279  1.1356  0.2885
 6831SOL    HW232130   4.213   0.847   5.136 -0.3974  0.7624 -2.2361
 6832SOL     OW32131   1.356   3.252   7.213 -0.1472 -0.0840  0.0832
 6832SOL    HW132132   1.261   3.243   7.205 -0.3273  0.7265  1.2610
 6832SOL    HW232133   1.381   3.160   7.213  0.3646  0.0673  1.4028
 6833SOL     OW32134   4.255   2.262   1.822 -0.2109 -0.0238 -0.1844
 6833SOL    HW132135   4.175   2.265   1.769 -0.4990 -0.3591  0.2269
 6833SOL    HW232136   4.225   2.299   1.905  1.0186 -0.4507  0.4498
 6834SOL     OW32137   3.159   0.572   7.010 -0.5058 -0.3873 -0.6094
 6834SOL    HW132138   3.147   0.553   7.103  0.4574  0.4701 -0.3099
 6834SOL    HW232139   3.255   0.575   7.007 -0.6013  2.5574 -0.6242
 6835SOL     OW32140   1.458   3.399  17.207  0.1283  0.0914 -0.1365
 6835SOL    HW132141   1.463   3.415  17.113 -0.9448 -2.2263 -0.5787
 6835SOL    HW232142   1.521   3.327  17.214  0.0160 -0.0329 -0.4486
 6836SOL     OW32143   0.307   0.040   5.491  0.2890 -0.7148  0.4418
 6836SOL    HW132144   0.267   0.004   5.571 -1.4403  1.0569  0.3866
 6836SOL    HW232145   0.375   4.711   5.481 -0.8653 -2.0604  1.3017
 6837SOL     OW32146   3.320   4.532  10.188 -0.2509 -0.2216  0.8374
 6837SOL    HW132147   3.252   4.559  10.126  0.1733 -0.3775  0.3059
 6837SOL    HW232148   3.366   4.615  10.200 -1.5956  0.6909 -0.2852
 6838SOL     OW32149   2.297   3.882   8.602  0.2091 -0.2302 -0.1270
 6838SOL    HW132150   2.338   3.968   8.594  2.7940 -1.5337 -0.9403
 6838SOL    HW232151   2.231   3.882   8.533 -1.5059  1.4142  1.5323
 6839SOL     OW32152   2.247   0.838   4.597 -0.2571 -0.2155  0.0047
 6839SOL    HW132153   2.201   0.758   4.621 -1.4687 -0.4260 -3.0201
 6839SOL    HW232154   2.290   0.848   4.682  1.9355  3.1104 -1.4973
 6840SOL     OW32155   0.734   0.075   6.012 -0.0326 -0.0562  0.3448
 6840SOL    HW132156   0.712   0.088   6.105 -0.2881 -0.9878  0.4119
 6840SOL    HW232157   0.817   0.028   6.009  0.5729  1.1191 -1.1096
 6841SOL     OW32158   3.081   3.382   1.762 -0.4202  0.8930 -0.1416
 6841SOL    HW132159   2.995   3.350   1.793 -0.1675  0.7045  0.3710
 6841SOL    HW232160   3.063   3.453   1.700 -1.2070  0.8660  0.0497
 6842SOL     OW32161   4.557   1.506   0.767  0.6334 -0.2766 -0.1702
 6842SOL    HW132162   4.614   1.460   0.829  2.2263  2.1497  0.1577
 6842SOL    HW232163   4.475   1.469   0.800 -0.8403  0.6035 -2.7633
 6843SOL     OW32164   1.864   3.071   3.045 -0.7567 -0.7143 -0.0460
 6843SOL    HW132165   1.945   3.070   2.994 -0.1577  1.2226  0.8662
 6843SOL    HW232166   1.887   3.050   3.136 -3.7642  0.0851  0.8956
 6844SOL     OW32167   1.014   1.073   7.958  0.2836 -0.3121  0.7123
 6844SOL    HW132168   0.977   0.992   7.921  3.1167 -2.2191  2.0259
 6844SOL    HW232169   0.941   1.095   8.016  0.6889  0.6734  0.8460
 6845SOL     OW32170   0.337   4.661   7.435  0.6550 -0.1123 -0.5064
 6845SOL    HW132171   0.310   4.630   7.521  2.2948  1.8380  0.6983
 6845SOL    HW232172   0.373   4.578   7.402  1.4982  0.1464 -0.2424
 6846SOL     OW32173   3.412   2.304   3.335  0.5097  0.1629  0.2080
 6846SOL    HW132174   3.463   2.321   3.414  1.4569 -0.6875 -0.2194
 6846SOL    HW232175   3.390   2.211   3.337  1.8202 -0.1893 -0.9879
 6847SOL     OW32176   2.350   1.300  13.177 -0.8606 -0.3327 -0.2879
 6847SOL    HW132177   2.314   1.356  13.108 -2.5898 -1.1814 -0.0757
 6847SOL    HW232178   2.289   1.315  13.249 -0.3293 -1.3554  0.3825
 6848SOL     OW32179   4.039   3.232   3.529 -0.0399  0.0611 -0.1822
 6848SOL    HW132180   4.040   3.147   3.486  2.1482  0.0745 -0.1660
 6848SOL    HW232181   3.966   3.275   3.485 -1.1236 -0.1862  1.3608
 6849SOL     OW32182   1.169   0.475  15.924  0.8913  0.4703 -0.4189
 6849SOL    HW132183   1.261   0.502  15.928  0.8399  0.1474  2.6628
 6849SOL    HW232184   1.185   0.380  15.923 -2.2486 -0.0562 -1.7480
 6850SOL     OW32185   0.575   0.117   5.043 -0.4788 -0.6120  0.1963
 6850SOL    HW132186   0.566   0.056   5.116 -0.5306  1.3043  1.7734
 6850SOL    HW232187   0.545   0.200   5.082 -0.2107 -0.7139  0.6173
 6851SOL     OW32188   3.177   3.872  11.484 -0.8731 -0.1480  0.1871
 6851SOL    HW132189   3.103   3.855  11.425 -0.3142  1.3385 -0.9186
 6851SOL    HW232190   3.130   3.842  11.563 -0.1496 -2.8001 -0.3948
 6852SOL     OW32191   3.986   2.515   4.099  0.2135  0.3643 -0.8462
 6852SOL    HW132192   3.965   2.435   4.051 -3.3505  1.1136 -0.5247
 6852SOL    HW232193   3.910   2.567   4.073  1.5769  0.6723 -4.1991
 6853SOL     OW32194   1.089   0.760  13.324  0.2487  0.1136  0.5570
 6853SOL    HW132195   0.994   0.767  13.334  0.1539 -0.8190  0.3219
 6853SOL    HW232196   1.099   0.749  13.229 -1.1194 -2.1105  0.6582
 6854SOL     OW32197   0.875   0.584   2.617  0.0617  0.0420 -0.0595
 6854SOL    HW132198   0.895   0.675   2.594  2.4382  0.1843  2.5801
 6854SOL    HW232199   0.795   0.580   2.565  0.0635  3.3337 -0.2875
 6855SOL     OW32200   3.096   4.692  10.095  0.6432  0.1427  0.2640
 6855SOL    HW132201   3.051   4.626  10.041  0.9033 -0.2289  0.4963
 6855SOL    HW232202   3.112   0.020  10.027 -0.7949 -0.1067 -0.3081
 6856SOL     OW32203   4.378   4.660   9.078 -0.3306  0.3796  0.1604
 6856SOL    HW132204   4.346   4.726   9.139 -2.2466  1.2416 -1.7625
 6856SOL    HW232205   4.420   4.711   9.008  0.9583  1.4016  1.6764
 6857SOL     OW32206   3.292   2.383  17.173  0.7023 -0.5684  0.2525
 6857SOL    HW132207   3.219   2.362  17.115  0.9685  2.0903 -1.0484
 6857SOL    HW232208   3.262   2.462  17.218 -0.9338  0.0975 -2.0219
 6858SOL     OW32209   3.960   1.426  16.071 -0.6917  0.0042 -0.5186
 6858SOL    HW132210   3.952   1.503  16.015  0.4079  0.0754 -0.5775
 6858SOL    HW232211   3.881   1.412  16.123 -0.2074  0.4688  0.3420
 6859SOL     OW32212   0.101   3.542   1.291  0.2069 -0.1501  0.5235
 6859SOL    HW132213   0.156   3.609   1.332 -0.1503  0.9475 -0.7757
 6859SOL    HW232214   0.172   3.492   1.251  0.2517 -0.6716  1.2523
 6860SOL     OW32215   3.136   1.970  13.378 -0.4589  0.3659 -0.1401
 6860SOL    HW132216   3.151   2.016  13.461  0.4581 -0.0119 -0.0942
 6860SOL    HW232217   3.135   1.882  13.416  0.7828  0.8933  1.1086
 6861SOL     OW32218   1.693   2.247   2.688  0.1804 -0.6393 -0.0128
 6861SOL    HW132219   1.599   2.263   2.696  0.5903  1.6706  0.2192
 6861SOL    HW232220   1.692   2.163   2.733  0.9308 -1.8900 -2.2969
 6862SOL     OW32221   2.863   3.912   4.757 -0.5717 -0.0376 -0.0382
 6862SOL    HW132222   2.830   3.826   4.784  0.0043 -0.6733 -1.3544
 6862SOL    HW232223   2.794   3.940   4.696 -1.2651  0.4748  0.9897
 6863SOL     OW32224   2.572   0.826  12.937 -0.5365 -0.0943  0.5516
 6863SOL    HW132225   2.573   0.744  12.988  0.9089 -0.4874 -0.1211
 6863SOL    HW232226   2.480   0.848  12.925  0.1057  2.1181 -0.2038
 6864SOL     OW32227   1.096   4.306   3.332 -0.1460 -0.7092  0.0936
 6864SOL    HW132228   1.014   4.348   3.358  0.6480  1.2437 -0.5596
 6864SOL    HW232229   1.077   4.213   3.342  2.3706 -1.0011  2.0062
 6865SOL     OW32230   4.609   2.788  13.323 -0.1173 -0.5839  0.3532
 6865SOL    HW132231   4.629   2.869  13.276 -2.3572 -0.1668  0.1519
 6865SOL    HW232232   4.626   2.810  13.415 -1.0523 -0.4283  0.4878
 6866SOL     OW32233   1.060   1.470   0.257 -0.0753  0.3009 -0.4647
 6866SOL    HW132234   1.112   1.396   0.227 -0.4265 -0.4394  0.7466
 6866SOL    HW232235   1.017   1.472   0.171  0.7219  0.2918 -0.8594
 6867SOL     OW32236   0.622   3.578   4.994  0.2993 -0.7539 -0.7618
 6867SOL    HW132237   0.715   3.570   5.017  0.2415 -1.0135 -0.6143
 6867SOL    HW232238   0.614   3.520   4.918 -0.1194 -0.0668 -1.2377
 6868SOL     OW32239   2.344   3.678   7.046  0.3408  0.0678  0.2641
 6868SOL    HW132240   2.323   3.585   7.052 -1.9486  0.6082  0.5555
 6868SOL    HW232241   2.429   3.673   7.002  0.6126  1.7361  0.6037
 6869SOL     OW32242   4.071   0.903   7.792 -1.2448 -0.5493 -0.1241
 6869SOL    HW132243   4.084   0.920   7.698  0.8771 -0.1564  0.2616
 6869SOL    HW232244   4.055   0.985   7.837 -1.7827 -1.2926  1.0317
 6870SOL     OW32245   2.654   2.352   7.555  0.2152 -0.3010  0.0092
 6870SOL    HW132246   2.658   2.296   7.633  0.7091  2.3768  1.8962
 6870SOL    HW232247   2.612   2.293   7.492  2.9391 -1.6712 -0.4977
 6871SOL     OW32248   3.029   3.277   3.225 -0.5596 -0.1558 -0.3998
 6871SOL    HW132249   3.049   3.190   3.190 -0.9948 -1.0987  1.6525
 6871SOL    HW232250   3.048   3.261   3.318  1.3820  1.7923 -0.4685
 6872SOL     OW32251   2.115   1.079   4.639  0.3556  0.2373 -0.3731
 6872SOL    HW132252   2.136   0.996   4.597  1.9126  0.7500 -0.5985
 6872SOL    HW232253   2.165   1.076   4.721  1.1077 -0.7778 -0.8714
 6873SOL     OW32254   3.168   2.481   3.221 -0.2750 -0.3705  0.3663
 6873SOL    HW132255   3.192   2.476   3.313 -4.1515 -2.0469  1.2393
 6873SOL    HW232256   3.073   2.489   3.228 -0.2110 -0.8679  1.7471
 6874SOL     OW32257   1.975   0.689  11.637 -0.2100 -0.3913  0.0993
 6874SOL    HW132258   1.959   0.598  11.663  0.3138 -0.8264 -1.0703
 6874SOL    HW232259   2.069   0.698  11.650 -0.5841 -0.3360  2.7636
 6875SOL     OW32260   0.275   0.702   0.902  0.4964  0.5255  0.3955
 6875SOL    HW132261   0.353   0.654   0.873 -0.2619 -1.1840  1.1748
 6875SOL    HW232262   0.318   0.773   0.950  1.3965  1.0502 -1.2136
 6876SOL     OW32263   0.765   2.219   7.634 -0.2486 -0.0891  0.2175
 6876SOL    HW132264   0.696   2.263   7.683 -1.1757  0.5324 -1.6517
 6876SOL    HW232265   0.837   2.236   7.694 -1.0263 -0.2104  1.1829
 6877SOL     OW32266   0.402   3.232   6.398 -0.0022 -0.0841  0.1627
 6877SOL    HW132267   0.325   3.275   6.362  0.6378  0.3644 -0.6659
 6877SOL    HW232268   0.410   3.162   6.334  0.3294  1.0027 -0.9911
 6878SOL     OW32269   1.303   1.573   7.230 -0.2745  0.4913 -0.1485
 6878SOL    HW132270   1.327   1.666   7.231 -0.1261  0.4561 -0.7600
 6878SOL    HW232271   1.348   1.546   7.311  1.1879  0.3904 -1.0039
 6879SOL     OW32272   1.152   3.419  11.747 -0.5061 -0.2175 -0.1038
 6879SOL    HW132273   1.178   3.420  11.655 -0.1328 -1.2078 -0.0090
 6879SOL    HW232274   1.058   3.408  11.731 -0.3548 -1.5693 -0.0302
 6880SOL     OW32275   4.565   4.601   3.299 -0.2378  0.3007  0.1186
 6880SOL    HW132276   4.625   4.655   3.248  0.7193 -0.4056  0.5084
 6880SOL    HW232277   4.627   4.543   3.343  0.1794  0.8978  0.3183
 6881SOL     OW32278   3.168   2.926  17.298 -0.5102  0.0031  0.3030
 6881SOL    HW132279   3.077   2.956  17.294  0.0728  1.8345  0.8407
 6881SOL    HW232280   3.188   2.952  17.388  2.1920 -3.2763  0.6408
 6882SOL     OW32281   0.079   1.637  16.681  0.8526  0.2611  0.5335
 6882SOL    HW132282   4.727   1.672  16.673  0.6345 -0.1300  1.2642
 6882SOL    HW232283   0.131   1.686  16.617 -0.3486 -2.6099 -2.6148
 6883SOL     OW32284   0.541   4.605   7.936 -0.3717 -0.1236  0.0595
 6883SOL    HW132285   0.537   4.579   8.028 -1.3802  0.0893  0.0806
 6883SOL    HW232286   0.497   4.690   7.939  0.7715  0.4551  0.4371
 6884SOL     OW32287   3.810   0.796   5.870  0.1381 -0.2648  0.1247
 6884SOL    HW132288   3.902   0.776   5.853  0.6174 -0.3853  2.8967
 6884SOL    HW232289   3.770   0.743   5.801  0.2141  2.2578 -1.8517
 6885SOL     OW32290   3.787   0.828  15.193 -0.0813 -0.7790  0.0298
 6885SOL    HW132291   3.794   0.866  15.281 -0.9896 -1.6275  0.4655
 6885SOL    HW232292   3.878   0.838  15.164 -0.2012 -1.1497 -0.4793
 6886SOL     OW32293   0.483   0.557   5.626 -0.0599  0.2572 -0.4248
 6886SOL    HW132294   0.576   0.578   5.637 -0.0884 -1.2165  2.6942
 6886SOL    HW232295   0.491   0.464   5.607  0.2408  0.4813 -1.4084
 6887SOL     OW32296   3.180   0.946  15.537  0.3248 -0.4364 -0.4490
 6887SOL    HW132297   3.119   1.018  15.550 -0.8854 -1.0688 -2.5613
 6887SOL    HW232298   3.118   0.873  15.530 -1.4269  1.1572 -1.3931
 6888SOL     OW32299   4.367   2.903  11.739  0.5007  0.0461 -0.3782
 6888SOL    HW132300   4.282   2.888  11.779  0.4826 -0.1264 -0.4832
 6888SOL    HW232301   4.429   2.875  11.806 -0.2605 -0.3710  0.1423
 6889SOL     OW32302   2.377   3.083   8.911 -0.6684 -0.2155  0.2418
 6889SOL    HW132303   2.306   3.020   8.926 -0.9396  0.1065  0.3164
 6889SOL    HW232304   2.441   3.042   8.853 -1.2575  0.2552 -0.7517
 6890SOL     OW32305   3.880   0.122  15.681  0.3169 -0.3550  0.4176
 6890SOL    HW132306   3.877   0.217  15.696 -0.4359  0.1251 -2.7958
 6890SOL    HW232307   3.965   0.118  15.636  1.8149  3.0197  2.8977
 6891SOL     OW32308   1.967   0.110  15.671  0.0790  0.1620 -0.0955
 6891SOL    HW132309   2.044   0.140  15.623  0.5315  0.0076  0.5337
 6891SOL    HW232310   1.933   0.193  15.705 -0.0380  0.0305  0.1091
 6892SOL     OW32311   3.546   1.684   8.216  0.1049  0.3008  0.2108
 6892SOL    HW132312   3.541   1.639   8.300 -0.1234 -1.9384 -0.9966
 6892SOL    HW232313   3.622   1.742   8.223  2.1101 -1.7355 -4.9063
 6893SOL     OW32314   0.894   4.710   1.391 -0.0496  0.2736 -0.2126
 6893SOL    HW132315   0.984   4.729   1.417  0.1037 -0.9628  0.1693
 6893SOL    HW232316   0.845   0.026   1.455  0.5943  1.8841 -1.0358
 6894SOL     OW32317   1.493   2.939   2.148  0.3777  0.0543  0.4844
 6894SOL    HW132318   1.501   3.034   2.141  0.7940 -0.1810 -2.1351
 6894SOL    HW232319   1.581   2.918   2.183  0.4331  0.0289  0.3288
 6895SOL     OW32320   0.466   0.187   8.362  0.0082  0.3722  0.5046
 6895SOL    HW132321   0.523   0.175   8.287 -0.3032  1.7226  0.0531
 6895SOL    HW232322   0.390   0.151   8.315  2.6746 -1.2792 -2.5199
 6896SOL     OW32323   3.515   3.493  17.435 -0.0698  0.1338 -0.1235
 6896SOL    HW132324   3.538   3.495  17.342 -2.3000 -1.0438 -0.7067
 6896SOL    HW232325   3.502   3.587  17.449 -0.6964 -0.0315  0.3855
 6897SOL     OW32326   0.894   3.997   4.555  0.2304 -0.7429  0.0360
 6897SOL    HW132327   0.926   3.987   4.645 -1.7853 -3.1846  0.4913
 6897SOL    HW232328   0.849   4.081   4.564 -0.5383 -1.3526  1.9197
 6898SOL     OW32329   3.402   0.050   1.686  0.1552 -0.3669 -0.1251
 6898SOL    HW132330   3.368   0.032   1.774  0.6839 -1.2211 -0.0976
 6898SOL    HW232331   3.319   0.077   1.648  0.8277  0.8183 -0.7552
 6899SOL     OW32332   3.929   1.741   7.497  0.5090 -0.0716  0.2648
 6899SOL    HW132333   3.961   1.755   7.408 -0.5056  0.3917 -0.0388
 6899SOL    HW232334   4.010   1.699   7.526 -0.6364 -1.0257  2.0916
 6900SOL     OW32335   2.930   1.298   3.050 -0.3657  0.9530  0.2527
 6900SOL    HW132336   2.959   1.387   3.030  3.9429 -0.8525 -1.5655
 6900SOL    HW232337   2.837   1.303   3.071  0.0862  0.4324  2.3470
 6901SOL     OW32338   4.206   2.228   3.310 -0.5338 -0.2029 -0.2641
 6901SOL    HW132339   4.296   2.250   3.285 -0.6254 -0.9668 -1.2470
 6901SOL    HW232340   4.159   2.310   3.297 -0.4338 -0.3854 -1.7346
 6902SOL     OW32341   3.197   4.215  12.404  0.5829  0.7549 -0.1164
 6902SOL    HW132342   3.275   4.253  12.364  0.4286  0.9153 -0.2642
 6902SOL    HW232343   3.162   4.159  12.334  1.7998 -1.4224  1.0178
 6903SOL     OW32344   4.002   1.152   2.727  0.4583  0.4112  0.5759
 6903SOL    HW132345   3.987   1.176   2.818  1.1942  0.1601  0.7575
 6903SOL    HW232346   4.022   1.234   2.682 -1.0822  0.5671  0.1815
 6904SOL     OW32347   0.485   3.760   2.963 -0.5053  0.0857  0.6587
 6904SOL    HW132348   0.511   3.789   2.876 -0.2556  3.3598  1.8296
 6904SOL    HW232349   0.397   3.797   2.970 -0.2760  0.8198 -0.4316
 6905SOL     OW32350   1.468   3.392   4.538  0.0069 -0.1021 -0.0366
 6905SOL    HW132351   1.488   3.483   4.517 -0.4083 -0.0796 -0.3258
 6905SOL    HW232352   1.514   3.370   4.619 -0.6128  0.6250  0.5034
 6906SOL     OW32353   2.717   2.474   4.084  0.0810  0.1386 -0.6297
 6906SOL    HW132354   2.789   2.448   4.026  0.7801 -0.7306  0.6298
 6906SOL    HW232355   2.743   2.549   4.137  1.4473  0.1548 -1.3256
 6907SOL     OW32356   2.147   2.911  12.548  0.0230  0.4749 -0.2528
 6907SOL    HW132357   2.124   3.004  12.547 -1.1065  0.1521 -3.6836
 6907SOL    HW232358   2.071   2.876  12.502 -0.2960  0.0416  0.5818
 6908SOL     OW32359   0.002   0.215   9.253 -0.1824  0.3534 -0.0685
 6908SOL    HW132360   0.011   0.121   9.238  1.1760  0.6280 -0.9189
 6908SOL    HW232361   0.087   0.246   9.225 -0.3961  1.6006  0.6650
 6909SOL     OW32362   2.328   2.552   6.424 -0.0572  0.1708 -0.0927
 6909SOL    HW132363   2.364   2.468   6.450 -0.8235  0.3947  1.7150
 6909SOL    HW232364   2.367   2.575   6.340 -0.7240  2.7758  0.2868
 6910SOL     OW32365   0.784   4.050   2.650  0.1596  0.1195  0.4084
 6910SOL    HW132366   0.840   4.069   2.575 -0.7770  0.5813 -0.1697
 6910SOL    HW232367   0.782   4.139   2.685  1.0670 -0.1880  1.2446
 6911SOL     OW32368   3.891   2.988   5.829  0.3101  0.3215  0.0996
 6911SOL    HW132369   3.902   3.083   5.840  3.2903 -0.2244  2.0243
 6911SOL    HW232370   3.934   2.973   5.913  0.8090  1.1787  0.0066
 6912SOL     OW32371   0.123   2.431   6.692 -0.2150 -0.3422 -0.3367
 6912SOL    HW132372   0.041   2.460   6.653 -0.3598 -0.2775  0.0130
 6912SOL    HW232373   0.099   2.341   6.714  0.0434  0.2617  2.4725
 6913SOL     OW32374   0.193   2.940  16.214  0.3523 -0.3532  0.6435
 6913SOL    HW132375   0.238   3.001  16.156  1.3795 -1.3314  0.4160
 6913SOL    HW232376   0.105   2.930  16.177  1.4160  2.1995 -2.4956
 6914SOL     OW32377   1.732   3.407   4.015  0.5122 -0.5194  0.2897
 6914SOL    HW132378   1.650   3.431   3.972  0.3681 -1.3651  0.0988
 6914SOL    HW232379   1.782   3.489   4.023  1.0607 -0.9171  0.9348
 6915SOL     OW32380   2.016   1.741   3.353  0.0467  0.7901  0.1900
 6915SOL    HW132381   1.934   1.700   3.326  0.9315 -0.0502 -1.2364
 6915SOL    HW232382   1.991   1.764   3.443  2.8152 -0.0919  1.1922
 6916SOL     OW32383   0.971   2.929   3.314 -0.3206 -0.4352  0.1978
 6916SOL    HW132384   1.050   2.906   3.363 -2.3237 -1.0451  3.1085
 6916SOL    HW232385   0.907   2.887   3.371 -0.1110  0.3040  0.9719
 6917SOL     OW32386   2.738   0.191   2.118  0.3195  0.8576  0.4436
 6917SOL    HW132387   2.805   0.243   2.073  0.5884  0.1795  0.0571
 6917SOL    HW232388   2.783   0.185   2.202  0.4581  2.3108  0.4735
 6918SOL     OW32389   4.315   4.000   9.296  0.9864  0.3627  0.4072
 6918SOL    HW132390   4.270   3.917   9.310  1.8189 -0.3325 -1.0606
 6918SOL    HW232391   4.402   3.973   9.265  1.6989  2.4599  0.5958
 6919SOL     OW32392   4.023   1.062  14.378  0.4909  0.8615 -0.8293
 6919SOL    HW132393   4.083   0.998  14.339  2.5535  1.9035  0.6364
 6919SOL    HW232394   4.071   1.090  14.456  1.0798 -1.0479 -0.5065
 6920SOL     OW32395   1.297   1.230   0.735 -0.8452  0.1360 -0.4871
 6920SOL    HW132396   1.333   1.310   0.775  1.9555 -0.3166 -2.1044
 6920SOL    HW232397   1.256   1.257   0.653  0.1629 -0.3473 -1.1470
 6921SOL     OW32398   0.411   1.207   6.683 -0.6967  0.2895  0.5198
 6921SOL    HW132399   0.428   1.154   6.605 -0.1029  2.4172 -0.8097
 6921SOL    HW232400   0.459   1.163   6.753 -1.3017 -1.4678 -0.1774
 6922SOL     OW32401   0.088   3.343  14.060  0.1498 -0.2263  0.3058
 6922SOL    HW132402   0.123   3.416  14.008 -2.2999  0.3866 -0.4631
 6922SOL    HW232403   0.017   3.306  14.007 -1.2310  1.5057  0.9589
 6923SOL     OW32404   3.250   1.172   1.841  0.0126 -0.3000 -0.7721
 6923SOL    HW132405   3.336   1.169   1.883 -0.7701  2.3250  0.9437
 6923SOL    HW232406   3.237   1.265   1.859 -2.0656 -0.6241 -0.6870
 6924SOL     OW32407   3.113   1.443   4.450  0.2050  0.5516 -0.8218
 6924SOL    HW132408   3.027   1.414   4.483  0.5042 -1.9417 -2.2927
 6924SOL    HW232409   3.155   1.465   4.534  1.9553 -1.4473 -1.1948
 6925SOL     OW32410   3.545   1.159   2.519  0.0262  0.1310 -0.2046
 6925SOL    HW132411   3.574   1.221   2.586 -1.1399  1.1183 -0.6113
 6925SOL    HW232412   3.458   1.192   2.497 -0.7098 -0.6353  1.5774
 6926SOL     OW32413   2.536   2.081  16.531 -0.3385 -0.3224  0.0044
 6926SOL    HW132414   2.441   2.085  16.520 -0.4194 -1.1571  0.3922
 6926SOL    HW232415   2.553   1.991  16.502  0.9238  0.1217 -0.6203
 6927SOL     OW32416   0.766   1.177   6.332  0.0056 -0.1617  0.3306
 6927SOL    HW132417   0.707   1.175   6.408  0.2347  1.8821  0.5657
 6927SOL    HW232418   0.855   1.165   6.367  0.9309 -0.2597 -2.0660
 6928SOL     OW32419   3.345   2.296   5.154 -0.0594  0.2019 -0.4032
 6928SOL    HW132420   3.362   2.389   5.165 -1.0022  0.3633 -0.3132
 6928SOL    HW232421   3.299   2.302   5.070 -1.6421 -0.6316  0.3875
 6929SOL     OW32422   0.047   2.456   4.385  0.1127 -0.6420 -0.4176
 6929SOL    HW132423   0.033   2.485   4.475  3.4904  1.2581 -0.4805
 6929SOL    HW232424   0.134   2.418   4.398  1.2357  0.2022 -5.4988
 6930SOL     OW32425   1.301   3.405   7.888 -0.0488 -0.8116  0.6159
 6930SOL    HW132426   1.335   3.430   7.803 -4.0977 -0.0792 -0.7935
 6930SOL    HW232427   1.382   3.431   7.932 -0.0687 -2.1415  1.4735
 6931SOL     OW32428   4.300   0.529   6.689  0.7542 -0.3507  0.0642
 6931SOL    HW132429   4.330   0.611   6.649 -0.6281 -0.9616 -2.2737
 6931SOL    HW232430   4.376   0.499   6.738  2.7891  0.7810 -2.4244
 6932SOL     OW32431   4.548   0.707   8.040  0.1831  0.1706 -0.2771
 6932SOL    HW132432   4.630   0.750   8.062 -0.1859  1.0974 -0.6879
 6932SOL    HW232433   4.570   0.698   7.948  0.0684 -0.5990 -0.2262
 6933SOL     OW32434   1.301   1.014   0.897  0.0611 -0.7183 -0.0131
 6933SOL    HW132435   1.267   1.072   0.829  0.7011  1.1972  1.3116
 6933SOL    HW232436   1.254   0.931   0.887 -1.4315  0.2152 -0.6025
 6934SOL     OW32437   2.401   2.820   2.011  0.1327 -0.3401 -0.2082
 6934SOL    HW132438   2.388   2.757   1.940  0.4489 -1.8419  1.0593
 6934SOL    HW232439   2.357   2.897   1.975  0.3436  0.9451  2.2586
 6935SOL     OW32440   2.900   1.249   4.269 -0.1714  0.2001  0.3486
 6935SOL    HW132441   2.863   1.329   4.233  1.0442  0.9364  0.7346
 6935SOL    HW232442   2.896   1.268   4.363  1.1824  3.7796 -0.2920
 6936SOL     OW32443   3.025   1.954   6.966  0.2497  0.2753  0.5728
 6936SOL    HW132444   3.082   1.878   6.975  0.4042  0.4254  0.8643
 6936SOL    HW232445   3.048   1.981   6.878 -1.9038  0.1882 -0.0265
 6937SOL     OW32446   4.029   1.635  12.829 -0.7499 -0.2532  0.3049
 6937SOL    HW132447   4.029   1.610  12.921 -0.9298 -1.4104 -0.0184
 6937SOL    HW232448   3.963   1.705  12.830 -0.5545 -0.0468 -0.6889
 6938SOL     OW32449   2.405   2.405  11.328 -0.4529 -0.5439  0.2878
 6938SOL    HW132450   2.474   2.465  11.301  0.2152 -1.0643  0.8712
 6938SOL    HW232451   2.450   2.325  11.354  0.8577  0.2679  0.5044
 6939SOL     OW32452   2.203   0.345   4.830  0.6961 -0.2479 -0.2201
 6939SOL    HW132453   2.179   0.256   4.856 -0.9313 -0.1162 -1.3031
 6939SOL    HW232454   2.269   0.355   4.900 -0.3640  2.4491  0.3755
 6940SOL     OW32455   0.026   2.050   4.428  0.6167 -0.2920  0.1326
 6940SOL    HW132456   4.716   2.096   4.499 -0.4442 -1.6123  0.2875
 6940SOL    HW232457   0.095   2.019   4.487  0.5665 -1.1259 -0.2492
 6941SOL     OW32458   4.161   0.252   3.817  0.2974  0.7840 -0.1041
 6941SOL    HW132459   4.067   0.271   3.812  0.3985  1.8551  1.9750
 6941SOL    HW232460   4.156   0.161   3.846  1.1296 -0.3314 -3.4102
 6942SOL     OW32461   2.970   0.495   5.973 -0.7033 -0.5595  0.8123
 6942SOL    HW132462   3.026   0.420   5.994  1.4627  1.0479  0.8252
 6942SOL    HW232463   3.040   0.532   5.919 -1.3260 -2.5681 -1.4262
 6943SOL     OW32464   1.299   2.612  15.389 -0.1293 -0.0159 -0.0583
 6943SOL    HW132465   1.314   2.535  15.333  0.8739 -0.3572  0.6707
 6943SOL    HW232466   1.353   2.591  15.466  0.3184 -0.8503 -0.6000
 6944SOL     OW32467   0.861   1.129  17.523 -0.4366  0.3124  0.3145
 6944SOL    HW132468   0.805   1.189  17.474  1.1647  2.7403  1.4143
 6944SOL    HW232469   0.939   1.125  17.468 -0.5112 -2.5062  0.4398
 6945SOL     OW32470   4.311   4.264   9.306 -0.4407  0.3531 -0.0601
 6945SOL    HW132471   4.300   4.169   9.299 -1.2051  0.3806  0.7050
 6945SOL    HW232472   4.226   4.299   9.280 -0.2493  0.9401  0.1083
 6946SOL     OW32473   1.066   2.182   6.586  0.7403  0.3656 -0.5907
 6946SOL    HW132474   1.090   2.101   6.630  1.7020  0.0399 -1.6967
 6946SOL    HW232475   1.146   2.222   6.551  0.9317 -0.4063 -1.0294
 6947SOL     OW32476   2.655   1.419   1.536  0.5296 -0.2235  0.0957
 6947SOL    HW132477   2.676   1.378   1.620  1.2958  1.4660  0.7243
 6947SOL    HW232478   2.572   1.465   1.547  0.2005 -0.1222 -2.7882
 6948SOL     OW32479   3.887   4.537  14.472  0.3719  0.4051 -0.7720
 6948SOL    HW132480   3.847   4.578  14.396  1.7386 -0.3881 -1.9244
 6948SOL    HW232481   3.894   4.442  14.457  1.8175  0.3390  0.3315
 6949SOL     OW32482   0.959   2.458   0.968 -0.4399  0.0542 -0.5766
 6949SOL    HW132483   0.964   2.380   1.022 -1.4064  1.4200  1.4837
 6949SOL    HW232484   0.868   2.489   0.973 -1.4506 -3.2881  1.6570
 6950SOL     OW32485   1.460   4.536   5.362 -0.6181  0.1358 -0.2105
 6950SOL    HW132486   1.452   4.464   5.300 -0.2790  1.0520 -1.3215
 6950SOL    HW232487   1.446   4.615   5.309  1.3062  0.5721 -0.0677
 6951SOL     OW32488   4.384   1.747   7.716  0.3229 -0.3557 -0.2661
 6951SOL    HW132489   4.359   1.773   7.627 -0.6712  1.1066  0.4416
 6951SOL    HW232490   4.431   1.828   7.735  0.0505 -0.0321 -0.9456
 6952SOL     OW32491   2.001   1.488   8.019 -0.7287 -0.5077 -0.0699
 6952SOL    HW132492   2.065   1.433   7.975 -0.5967  0.5293 -1.1769
 6952SOL    HW232493   1.937   1.495   7.948 -0.8647  1.0030  0.1918
 6953SOL     OW32494   4.232   3.069   1.576  0.4034  0.2394  0.8520
 6953SOL    HW132495   4.274   2.988   1.548  1.7913  0.9259  0.9457
 6953SOL    HW232496   4.149   3.031   1.606  0.4237 -0.6534 -0.2331
 6954SOL     OW32497   2.678   2.956   6.094 -0.0799  0.1639  0.0418
 6954SOL    HW132498   2.721   3.039   6.115  3.4511 -1.5592 -0.3010
 6954SOL    HW232499   2.628   2.946   6.175  2.9779  3.0440  2.3090
 6955SOL     OW32500   3.819   1.938  11.295  0.4107  0.0320  0.3827
 6955SOL    HW132501   3.908   1.919  11.264 -0.0019 -1.6265  0.2520
 6955SOL    HW232502   3.760   1.908  11.226 -0.7786 -0.3950  1.5981
 6956SOL     OW32503   3.527   4.026   4.027 -0.1225  0.3520  0.0631
 6956SOL    HW132504   3.495   4.024   4.118  2.4506 -0.0299  0.9592
 6956SOL    HW232505   3.471   4.091   3.984  2.2371  2.4753  0.2075
 6957SOL     OW32506   2.543   2.442   2.938 -0.3375  0.3244  0.5265
 6957SOL    HW132507   2.527   2.383   2.864 -0.8689  0.9825  0.1159
 6957SOL    HW232508   2.476   2.510   2.939 -0.0017  0.6389  1.3824
 6958SOL     OW32509   0.086   0.297   7.278  0.5533  0.9867 -0.1560
 6958SOL    HW132510   4.730   0.320   7.266  0.6258  0.5602 -1.5952
 6958SOL    HW232511   0.093   0.208   7.242 -1.6566  0.5121  0.6059
 6959SOL     OW32512   2.884   4.683   6.589 -0.8118  0.5595 -0.2121
 6959SOL    HW132513   2.796   4.719   6.597 -0.1355  2.1790  0.0024
 6959SOL    HW232514   2.934   0.012   6.638 -0.3606  0.5008 -0.5902
 6960SOL     OW32515   1.985   0.271   7.010 -0.0312  0.1779 -0.6739
 6960SOL    HW132516   1.984   0.253   7.104  3.1982 -0.0117 -0.6832
 6960SOL    HW232517   2.008   0.188   6.968 -0.2556 -0.9766  1.4776
 6961SOL     OW32518   2.694   0.215  15.799 -0.5930  0.2018 -0.4660
 6961SOL    HW132519   2.643   0.137  15.818  0.6487 -0.2497  1.0095
 6961SOL    HW232520   2.685   0.261  15.882 -0.5739 -0.4625 -0.0960
 6962SOL     OW32521   1.845   3.228   3.835 -0.0833 -0.2870  0.1604
 6962SOL    HW132522   1.813   3.316   3.855  1.7977 -0.1208  2.4527
 6962SOL    HW232523   1.816   3.219   3.745  2.5876 -1.1753 -0.5957
 6963SOL     OW32524   1.385   3.577  14.626  0.3166  0.3524 -0.2734
 6963SOL    HW132525   1.348   3.506  14.679  2.3754 -0.7638 -0.3286
 6963SOL    HW232526   1.322   3.643  14.655  0.1290  0.7141 -1.5037
 6964SOL     OW32527   4.142   0.764  12.970 -1.0639 -0.3571 -0.3667
 6964SOL    HW132528   4.132   0.702  13.043  0.3171  0.1027  0.2150
 6964SOL    HW232529   4.153   0.842  13.025  0.5274  1.5289 -3.3283
 6965SOL     OW32530   1.222   1.302   8.940 -0.5505  0.2608  0.2072
 6965SOL    HW132531   1.262   1.224   8.978  0.2984  0.8964  0.6347
 6965SOL    HW232532   1.280   1.319   8.866  0.0755 -1.7502  0.2370
 6966SOL     OW32533   2.410   2.541  12.518 -0.1824 -0.6953  0.2226
 6966SOL    HW132534   2.472   2.482  12.476 -1.0589 -0.7723 -0.9598
 6966SOL    HW232535   2.338   2.552  12.455 -0.5792 -1.4269  0.5417
 6967SOL     OW32536   3.231   1.470  15.018 -0.9427 -0.0023 -0.1090
 6967SOL    HW132537   3.318   1.465  15.059 -1.5526 -1.1230  1.0220
 6967SOL    HW232538   3.226   1.383  14.980  1.2565 -0.1279 -0.1429
 6968SOL     OW32539   2.839   1.116   7.287 -0.1389 -0.1295  0.0697
 6968SOL    HW132540   2.841   1.021   7.271  0.4705 -0.2504  0.8988
 6968SOL    HW232541   2.779   1.137   7.216 -1.3003 -0.3736  0.9738
 6969SOL     OW32542   0.546   2.014   8.902 -0.0087  0.1568 -0.0966
 6969SOL    HW132543   0.503   1.928   8.911  1.3326 -0.1397  3.5764
 6969SOL    HW232544   0.506   2.072   8.965  0.5436 -1.0025  1.3353
 6970SOL     OW32545   4.089   3.188   4.491  0.2652 -0.4919 -0.2307
 6970SOL    HW132546   4.183   3.175   4.498  0.5680  1.5527 -0.5748
 6970SOL    HW232547   4.071   3.264   4.547  0.4558 -0.3346 -0.3852
 6971SOL     OW32548   2.313   3.909   3.252 -0.3280 -0.6506  0.1530
 6971SOL    HW132549   2.260   3.837   3.285 -0.8051 -0.3355  0.0670
 6971SOL    HW232550   2.296   3.893   3.159 -0.3604 -0.2706  0.0908
 6972SOL     OW32551   1.935   4.259   7.511 -0.3612  0.1141 -0.1761
 6972SOL    HW132552   1.850   4.249   7.468 -0.9798  0.0477  1.0723
 6972SOL    HW232553   1.962   4.171   7.539 -0.8418 -0.6913 -2.2602
 6973SOL     OW32554   3.100   1.248  15.330  0.3054  0.4714 -0.1339
 6973SOL    HW132555   3.156   1.187  15.281  0.7740  0.2396  0.7024
 6973SOL    HW232556   3.167   1.288  15.384  1.5026  0.4077 -1.5640
 6974SOL     OW32557   2.510   4.116   7.747 -0.0314  0.6477  0.1327
 6974SOL    HW132558   2.495   4.190   7.806 -0.7842  0.7047 -0.1260
 6974SOL    HW232559   2.605   4.107   7.746 -0.0809  0.1072  1.4396
 6975SOL     OW32560   1.236   1.944  12.709  0.6079  0.4712 -0.6873
 6975SOL    HW132561   1.267   2.027  12.746  0.4362 -0.2709  1.1190
 6975SOL    HW232562   1.275   1.960  12.623 -2.2655  0.1998 -2.0141
 6976SOL     OW32563   2.477   4.557  16.315 -0.2456 -0.1750  0.0178
 6976SOL    HW132564   2.511   4.477  16.356  0.2815 -0.2364 -0.5362
 6976SOL    HW232565   2.537   4.566  16.241 -0.1837 -1.9496 -0.1600
 6977SOL     OW32566   3.405   1.511   3.245  0.2510 -0.0902 -0.5454
 6977SOL    HW132567   3.474   1.450   3.219  1.4127  0.8723  0.2813
 6977SOL    HW232568   3.465   1.569   3.291  0.0821  0.2909 -0.7992
 6978SOL     OW32569   3.984   3.107   7.825  0.3066  0.4623  1.2084
 6978SOL    HW132570   3.943   3.023   7.802 -0.8055  0.8575  1.7577
 6978SOL    HW232571   3.910   3.166   7.810 -0.7501 -0.9433  0.9387
 6979SOL     OW32572   3.241   3.268  14.951  0.7350  0.2442 -0.1065
 6979SOL    HW132573   3.262   3.294  14.861 -1.6658 -2.6626 -1.5213
 6979SOL    HW232574   3.180   3.339  14.969  2.3925  1.5859  0.1901
 6980SOL     OW32575   1.733   3.310   7.832  0.3497 -0.3004  0.3568
 6980SOL    HW132576   1.824   3.312   7.862  0.8077  0.3907 -1.1001
 6980SOL    HW232577   1.707   3.237   7.889 -2.1999  0.6033  0.3502
 6981SOL     OW32578   1.272   2.929  14.660 -0.3572 -0.4062 -0.0864
 6981SOL    HW132579   1.359   2.927  14.701  0.0569  0.6123 -0.9068
 6981SOL    HW232580   1.293   2.980  14.581  1.6301  0.2472  0.8596
 6982SOL     OW32581   4.636   0.000   2.901 -0.0113 -0.3343  0.3975
 6982SOL    HW132582   4.644   4.717   2.808  0.4172 -0.3439  0.4362
 6982SOL    HW232583   4.599   4.651   2.922 -0.6730 -0.6190 -2.0047
 6983SOL     OW32584   0.923   0.499  15.503  0.5019 -0.2045  0.3112
 6983SOL    HW132585   0.884   0.577  15.543 -2.1983 -0.0803 -2.6137
 6983SOL    HW232586   0.845   0.443  15.504  0.5139 -0.2236  0.0598
 6984SOL     OW32587   3.369   0.609   8.251  0.2539 -0.2886 -0.1276
 6984SOL    HW132588   3.304   0.654   8.198 -0.8455 -1.6648  0.0639
 6984SOL    HW232589   3.447   0.632   8.201 -1.2271 -1.3927 -2.9055
 6985SOL     OW32590   0.745   2.143   5.035 -0.6081 -0.0138 -0.6533
 6985SOL    HW132591   0.737   2.237   5.052  1.7292  0.0210  0.3133
 6985SOL    HW232592   0.683   2.107   5.099 -1.0651 -0.4495 -1.3450
 6986SOL     OW32593   3.189   2.582  15.508  0.6364 -0.3488 -0.0100
 6986SOL    HW132594   3.141   2.581  15.425 -0.5588  0.6485  0.6708
 6986SOL    HW232595   3.122   2.567  15.574  0.1814  2.7068  0.2285
 6987SOL     OW32596   3.041   1.427   8.461 -0.0924 -0.1693  0.1084
 6987SOL    HW132597   2.948   1.405   8.463 -0.6485  2.5297  3.5458
 6987SOL    HW232598   3.038   1.520   8.439 -0.9796 -0.3450 -0.5084
 6988SOL     OW32599   3.866   2.194   9.149  0.3035 -0.1798 -0.4288
 6988SOL    HW132600   3.798   2.149   9.099  0.1092  1.3578 -1.5144
 6988SOL    HW232601   3.921   2.240   9.086  1.1191  0.0335  0.4247
 6989SOL     OW32602   4.327   0.778   6.610  0.5335 -0.3622  0.5229
 6989SOL    HW132603   4.272   0.856   6.621  0.6545 -0.2169  0.1140
 6989SOL    HW232604   4.407   0.802   6.655 -0.1189  0.5130  1.2191
 6990SOL     OW32605   1.871   1.610   8.808  0.7567 -0.2877 -0.0770
 6990SOL    HW132606   1.781   1.643   8.813 -0.4536 -3.9269  2.5410
 6990SOL    HW232607   1.880   1.607   8.904 -0.6868  1.2765  0.1152
 6991SOL     OW32608   2.344   0.989  17.334 -0.3116 -0.5751  0.4535
 6991SOL    HW132609   2.346   1.018  17.426 -1.8684  0.2069  0.2415
 6991SOL    HW232610   2.344   0.894  17.345  2.3808 -0.5099  0.9040
 6992SOL     OW32611   4.396   4.091   6.985  0.0731  0.2280 -0.4246
 6992SOL    HW132612   4.409   4.012   7.038  0.3277 -0.0074 -0.8394
 6992SOL    HW232613   4.462   4.148   7.024  1.0784  1.5052 -4.0098
 6993SOL     OW32614   1.988   4.067  15.287 -0.5729  0.1596  0.3404
 6993SOL    HW132615   1.912   4.009  15.280 -0.9383  0.5349  1.0978
 6993SOL    HW232616   1.990   4.128  15.214  0.4972 -2.0883 -1.4980
 6994SOL     OW32617   0.893   4.213   0.228 -0.0133 -0.5198  0.0838
 6994SOL    HW132618   0.988   4.216   0.219  0.0687  0.6209  1.3447
 6994SOL    HW232619   0.887   4.273   0.302  0.1477 -1.1942  0.6384
 6995SOL     OW32620   1.039   3.251   6.880 -0.2580 -0.0999 -0.1994
 6995SOL    HW132621   1.016   3.234   6.971  0.6184 -2.9295 -0.4906
 6995SOL    HW232622   1.038   3.163   6.843  1.5896 -0.0427 -0.3756
 6996SOL     OW32623   2.095   2.055   3.507 -0.3525  0.1398  0.5336
 6996SOL    HW132624   2.162   2.074   3.442  1.0939 -1.9236  1.4186
 6996SOL    HW232625   2.013   2.054   3.457 -0.1953 -1.2014  0.2967
 6997SOL     OW32626   4.690   4.128   4.324  0.4704 -0.0626 -0.4582
 6997SOL    HW132627   4.687   4.033   4.315  0.1193 -0.2753  1.8105
 6997SOL    HW232628   0.030   4.135   4.381  0.1994 -1.4612  0.0800
 6998SOL     OW32629   3.660   1.376   6.318  0.1071 -0.0171 -0.1161
 6998SOL    HW132630   3.666   1.369   6.223  0.3104 -0.4691 -0.0692
 6998SOL    HW232631   3.755   1.379   6.332  0.5287  0.1420 -3.0354
 6999SOL     OW32632   3.195   1.589  14.467 -0.0725  0.3987  0.5184
 6999SOL    HW132633   3.135   1.520  14.438 -0.0393  0.6056 -0.0309
 6999SOL    HW232634   3.245   1.542  14.534 -0.9741  0.7352  1.4351
 7000SOL     OW32635   1.250   4.468   3.196  0.1857 -0.5019  0.1130
 7000SOL    HW132636   1.316   4.511   3.250  0.9918 -1.2550 -0.2767
 7000SOL    HW232637   1.199   4.415   3.257 -0.0879  0.2862  0.5585
 7001SOL     OW32638   3.641   1.988   0.656 -0.3490 -0.4208  0.0857
 7001SOL    HW132639   3.657   1.999   0.749 -0.0681 -1.1013  0.1142
 7001SOL    HW232640   3.567   2.048   0.642  1.5243  2.3109  1.7751
 7002SOL     OW32641   1.970   4.405   2.016 -0.1739 -0.1830  0.1242
 7002SOL    HW132642   1.935   4.450   2.093  0.2099  1.2311 -0.5198
 7002SOL    HW232643   1.892   4.366   1.977  0.4972  0.2972 -1.6969
 7003SOL     OW32644   0.577   2.571   2.583 -0.8255 -0.2784  1.1446
 7003SOL    HW132645   0.597   2.498   2.642  1.6532 -1.4189 -1.0865
 7003SOL    HW232646   0.651   2.547   2.527 -1.1457  2.7179 -0.5645
 7004SOL     OW32647   1.480   2.681  16.745  0.4052 -0.4450 -0.3450
 7004SOL    HW132648   1.484   2.678  16.650  0.2292 -2.1021 -0.2953
 7004SOL    HW232649   1.469   2.590  16.770 -1.9952  0.2497  1.1766
 7005SOL     OW32650   0.351   0.089   4.891 -0.0118 -0.1321 -0.6579
 7005SOL    HW132651   0.393   0.015   4.935  1.8381  0.8059 -0.8286
 7005SOL    HW232652   0.366   0.158   4.956  2.4063 -0.6386 -0.6848
 7006SOL     OW32653   3.301   3.354   3.503 -0.2027 -0.2643  0.1294
 7006SOL    HW132654   3.274   3.372   3.594  2.7436 -0.5457  1.0433
 7006SOL    HW232655   3.221   3.323   3.460 -0.9676  2.6545 -0.5753
 7007SOL     OW32656   1.127   4.136  12.590 -0.9909 -0.0681  0.4942
 7007SOL    HW132657   1.199   4.097  12.639 -0.8398 -0.4702 -0.0563
 7007SOL    HW232658   1.091   4.205  12.646  1.5047  1.1533  0.5649
 7008SOL     OW32659   2.630   3.025   5.257  0.5222 -0.5761 -0.2952
 7008SOL    HW132660   2.591   3.084   5.192  0.0848  2.2605  2.5568
 7008SOL    HW232661   2.642   2.945   5.206 -1.8856 -1.9334  1.2172
 7009SOL     OW32662   0.514   1.321   7.438  0.0289 -0.0703  0.0598
 7009SOL    HW132663   0.572   1.311   7.363  1.3804  1.4858  0.8911
 7009SOL    HW232664   0.567   1.381   7.490  0.4155 -1.2255  1.0199
 7010SOL     OW32665   1.094   4.572  15.436  0.0015 -0.1862  0.0351
 7010SOL    HW132666   1.061   4.500  15.490 -0.3063 -0.4430 -0.4986
 7010SOL    HW232667   1.180   4.541  15.411  0.3115 -0.2889  1.2404
 7011SOL     OW32668   4.019   3.229   5.791 -0.6949 -0.3185 -0.6051
 7011SOL    HW132669   4.011   3.251   5.699 -2.5713  2.0462  0.1241
 7011SOL    HW232670   3.962   3.289   5.839  2.9448  2.4339  0.2814
 7012SOL     OW32671   1.230   3.915   4.761  0.1768 -0.0045 -0.3922
 7012SOL    HW132672   1.236   3.854   4.834 -2.0225  1.2506  0.8286
 7012SOL    HW232673   1.149   3.962   4.781  0.4588  0.0814  0.5294
 7013SOL     OW32674   1.096   3.900  16.490 -0.0138  0.1932  0.2691
 7013SOL    HW132675   1.006   3.882  16.462  0.4548  2.0907 -2.4081
 7013SOL    HW232676   1.108   3.812  16.526 -2.1556  0.3908  1.4924
 7014SOL     OW32677   4.593   3.686   5.910 -0.1254  0.1749 -0.0196
 7014SOL    HW132678   4.543   3.711   5.988  1.5483 -0.7599  1.3546
 7014SOL    HW232679   4.650   3.763   5.911  2.5982 -1.8225 -1.6608
 7015SOL     OW32680   1.658   1.273   8.091 -0.5318 -0.4317 -0.3041
 7015SOL    HW132681   1.743   1.238   8.062  0.4079  1.1745  0.5030
 7015SOL    HW232682   1.657   1.363   8.058  0.4290 -0.7073 -1.1037
 7016SOL     OW32683   2.050   3.704   8.543 -0.5967 -0.4348 -0.4487
 7016SOL    HW132684   1.958   3.678   8.537  0.2033 -3.5454  0.6918
 7016SOL    HW232685   2.075   3.726   8.453  2.0310  0.2928  0.4696
 7017SOL     OW32686   0.299   2.048   0.675  0.0691 -0.0212 -0.0690
 7017SOL    HW132687   0.295   2.047   0.771  2.4532 -1.8091  0.0295
 7017SOL    HW232688   0.207   2.043   0.650 -0.6870  1.9617  2.2987
 7018SOL     OW32689   4.229   1.943   6.825  0.0016  0.1884  0.3596
 7018SOL    HW132690   4.293   1.966   6.758 -0.6047  0.0512 -0.2557
 7018SOL    HW232691   4.290   1.902   6.887  0.4326  0.2347 -0.0380
 7019SOL     OW32692   4.196   1.006   6.694  0.1280  0.4387 -0.3430
 7019SOL    HW132693   4.175   1.092   6.731 -1.1151 -0.1953  0.4488
 7019SOL    HW232694   4.212   1.039   6.606  0.9874 -0.9475 -0.7012
 7020SOL     OW32695   4.353   3.535   8.071  0.5799 -0.6885  0.4984
 7020SOL    HW132696   4.266   3.560   8.103  1.7432  1.2490  2.1522
 7020SOL    HW232697   4.319   3.473   8.006  3.9614 -0.7610 -1.1663
 7021SOL     OW32698   2.986   4.378   3.584  0.1323 -0.0275 -0.0059
 7021SOL    HW132699   2.920   4.351   3.521  0.2686  0.6340 -0.4324
 7021SOL    HW232700   2.934   4.411   3.657  0.8547  1.3396 -0.0897
 7022SOL     OW32701   2.237   1.897   9.257  0.6454  0.1856 -0.1956
 7022SOL    HW132702   2.158   1.940   9.224  1.7122  0.5462 -2.2479
 7022SOL    HW232703   2.279   1.976   9.290  0.6052  0.7554 -1.5087
 7023SOL     OW32704   4.701   3.736   5.408  0.7664  0.1859 -0.0615
 7023SOL    HW132705   0.007   3.670   5.353 -0.0155 -2.1328  2.0688
 7023SOL    HW232706   0.031   3.788   5.454  0.1050 -0.7366  1.9288
 7024SOL     OW32707   4.269   3.331   1.486  0.1881 -0.2548 -0.2765
 7024SOL    HW132708   4.260   3.236   1.487 -2.5517  0.0100 -0.4103
 7024SOL    HW232709   4.349   3.346   1.537 -0.4844 -0.8266  0.9337
 7025SOL     OW32710   2.390   2.288   2.496  0.7321  0.0319 -0.8713
 7025SOL    HW132711   2.326   2.257   2.433 -0.2884 -2.4143  1.3314
 7025SOL    HW232712   2.367   2.378   2.519 -0.5725 -0.3213 -0.8134
 7026SOL     OW32713   4.142   1.271  17.686 -0.5401  0.0017 -0.6073
 7026SOL    HW132714   4.130   1.181  17.716 -0.0165  0.4329  0.8662
 7026SOL    HW232715   4.162   1.319   0.022  0.2202 -1.4971  0.0984
 7027SOL     OW32716   4.046   0.197   9.671 -0.5591 -0.0598 -0.1898
 7027SOL    HW132717   3.994   0.127   9.712  1.2194 -0.7101  0.9423
 7027SOL    HW232718   3.978   0.263   9.662 -0.7196 -0.1478  0.3892
 7028SOL     OW32719   1.760   1.394   4.300 -0.3681 -0.1655  0.3328
 7028SOL    HW132720   1.843   1.412   4.256  0.4830  0.5437  2.2445
 7028SOL    HW232721   1.792   1.335   4.368  4.2861  1.5214 -0.3930
 7029SOL     OW32722   1.734   1.574   5.867 -0.6860 -0.6905 -0.0967
 7029SOL    HW132723   1.796   1.617   5.808 -0.6180  0.3298  0.7267
 7029SOL    HW232724   1.702   1.643   5.924 -0.3421  0.8689 -1.8035
 7030SOL     OW32725   2.824   3.316   5.807  0.5366  0.3203 -0.1831
 7030SOL    HW132726   2.832   3.228   5.769 -3.3857  0.6377 -1.7122
 7030SOL    HW232727   2.844   3.296   5.899 -0.2761  0.7613  0.0900
 7031SOL     OW32728   1.477   0.035   0.013  0.1274 -0.1915  0.2192
 7031SOL    HW132729   1.566   0.030  17.722  0.5053 -0.6324  1.2535
 7031SOL    HW232730   1.439   0.116  17.721 -0.9474 -1.0713 -0.6159
 7032SOL     OW32731   4.074   1.537   6.839  0.0841  0.5175 -0.0251
 7032SOL    HW132732   4.022   1.457   6.842  0.6184  0.1839  0.2487
 7032SOL    HW232733   4.005   1.597   6.870  0.6357  0.5103  1.2320
 7033SOL     OW32734   0.710   1.806  10.189 -0.1987  0.0728  0.2051
 7033SOL    HW132735   0.643   1.790  10.255 -0.5704 -1.2108 -0.4779
 7033SOL    HW232736   0.770   1.732  10.203 -1.6817 -0.8551  1.5916
 7034SOL     OW32737   3.459   4.326   1.490 -0.2245  0.2106 -0.0870
 7034SOL    HW132738   3.430   4.265   1.422 -2.0745 -0.3689  1.2339
 7034SOL    HW232739   3.548   4.290   1.494 -0.7942 -1.2331 -0.4483
 7035SOL     OW32740   1.382   2.241   7.535 -0.2470  0.0927  0.0193
 7035SOL    HW132741   1.321   2.233   7.461  0.8454  2.5660 -1.1366
 7035SOL    HW232742   1.371   2.153   7.571  3.2043 -0.1509  0.4045
 7036SOL     OW32743   1.013   4.111  12.337 -0.2487  0.2201  0.3783
 7036SOL    HW132744   0.955   4.186  12.352 -0.4325  0.2337 -0.4282
 7036SOL    HW232745   1.049   4.090  12.423  3.0783  1.8212 -0.6691
 7037SOL     OW32746   3.683   3.296   2.126 -0.3921 -0.6124  0.5433
 7037SOL    HW132747   3.650   3.323   2.040  0.6937  0.9572  0.6086
 7037SOL    HW232748   3.604   3.308   2.179 -1.3565 -1.5620 -0.6843
 7038SOL     OW32749   2.536   0.527   6.571 -0.2034  0.9197  0.5180
 7038SOL    HW132750   2.631   0.524   6.584 -0.1026 -1.7693 -0.8207
 7038SOL    HW232751   2.525   0.594   6.504 -0.8203  0.5948  0.2996
 7039SOL     OW32752   2.751   2.311   8.854 -0.4552  0.3210 -0.4654
 7039SOL    HW132753   2.738   2.219   8.878  2.1404  0.3156  0.8963
 7039SOL    HW232754   2.795   2.349   8.930 -0.4676  1.0339 -0.8186
 7040SOL     OW32755   1.632   3.346   7.154  0.3207 -0.3117  0.0677
 7040SOL    HW132756   1.605   3.435   7.177 -0.7974 -0.0175 -2.3458
 7040SOL    HW232757   1.557   3.295   7.185 -0.3847  1.2195  0.8880
 7041SOL     OW32758   3.394   4.524  14.190  0.1668  0.0299  0.2951
 7041SOL    HW132759   3.340   4.521  14.111 -0.1481 -0.2802  0.5232
 7041SOL    HW232760   3.475   4.496  14.148 -1.2840 -1.4198 -1.5372
 7042SOL     OW32761   3.491   4.294   1.948 -0.6240 -0.5934  0.2098
 7042SOL    HW132762   3.415   4.341   1.982 -0.8944  1.3688 -2.9905
 7042SOL    HW232763   3.487   4.346   1.867 -0.1499 -1.3408 -0.2963
 7043SOL     OW32764   4.618   3.266  17.365  0.0309 -0.3989 -0.4555
 7043SOL    HW132765   4.704   3.279  17.405  0.4476  2.2246 -2.2563
 7043SOL    HW232766   4.597   3.352  17.329 -0.0112 -0.4883 -0.6443
 7044SOL     OW32767   0.763   1.392  14.490 -0.5840 -0.9032 -0.6494
 7044SOL    HW132768   0.688   1.451  14.503  0.0403  0.3616 -2.7920
 7044SOL    HW232769   0.813   1.412  14.569 -0.9474 -0.6335 -0.4836
 7045SOL     OW32770   1.001   0.278   3.837  0.2729  0.2429  0.0252
 7045SOL    HW132771   1.075   0.219   3.843 -0.4675 -0.8427 -1.5673
 7045SOL    HW232772   0.960   0.257   3.753  1.8744 -1.2340 -0.3708
 7046SOL     OW32773   3.903   2.291  16.033  0.1793 -0.0376  0.1809
 7046SOL    HW132774   3.941   2.210  16.000  0.4275 -0.3088  1.1293
 7046SOL    HW232775   3.813   2.259  16.030 -0.5343  1.8053  1.5848
 7047SOL     OW32776   3.827   1.300  11.896  0.3374 -0.0863 -0.2131
 7047SOL    HW132777   3.740   1.270  11.920 -0.4054  0.4153 -2.3014
 7047SOL    HW232778   3.814   1.392  11.920 -2.4414 -1.1970  2.4597
 7048SOL     OW32779   1.592   3.149   8.013 -0.0405  0.1315  0.1604
 7048SOL    HW132780   1.515   3.196   8.047  0.0075 -0.6036  1.2921
 7048SOL    HW232781   1.630   3.101   8.087  1.1557  2.4175  1.0347
 7049SOL     OW32782   1.461   4.287  13.167 -0.2641 -0.3836 -0.0615
 7049SOL    HW132783   1.519   4.355  13.132 -0.4533 -0.4038 -0.4221
 7049SOL    HW232784   1.388   4.340  13.199  0.5914  1.7774 -1.6689
 7050SOL     OW32785   2.073   4.345   4.545 -0.0468  0.0972  0.5288
 7050SOL    HW132786   2.144   4.373   4.488  0.5522 -0.0704  1.1953
 7050SOL    HW232787   2.003   4.401   4.512  0.3924 -0.9329 -2.1242
 7051SOL     OW32788   3.438   0.877   9.743  0.4679  0.2303 -0.1162
 7051SOL    HW132789   3.480   0.919   9.668 -1.3826  0.0239 -1.2608
 7051SOL    HW232790   3.457   0.949   9.804 -1.6281  0.7606 -0.1101
 7052SOL     OW32791   2.427   2.768  11.525  0.1704  0.2147  0.2664
 7052SOL    HW132792   2.496   2.797  11.585  1.0828  2.9334 -2.1075
 7052SOL    HW232793   2.447   2.809  11.441  1.6862 -3.4864 -1.1611
 7053SOL     OW32794   4.339   2.698   0.564 -0.6173  0.1011 -0.0957
 7053SOL    HW132795   4.303   2.749   0.637  0.0378  0.9930 -0.3862
 7053SOL    HW232796   4.425   2.740   0.561 -0.5827 -0.1784 -2.6033
 7054SOL     OW32797   4.354   4.393   2.575 -0.2960  0.2470 -0.2577
 7054SOL    HW132798   4.287   4.400   2.508  0.6438 -1.5733 -1.3999
 7054SOL    HW232799   4.417   4.457   2.543  2.0862 -0.4498  2.9457
 7055SOL     OW32800   2.266   3.023   7.172 -0.1614  0.1461 -0.1093
 7055SOL    HW132801   2.284   2.941   7.126  0.3296  0.4624 -0.4812
 7055SOL    HW232802   2.269   2.994   7.263 -1.8383 -2.3180 -0.8625
 7056SOL     OW32803   0.850   0.204   8.358 -0.0555 -0.3552  0.2491
 7056SOL    HW132804   0.885   0.137   8.298  0.2968 -0.1248  0.1973
 7056SOL    HW232805   0.847   0.160   8.443  1.4587 -1.1404 -0.0978
 7057SOL     OW32806   1.162   0.107  13.659  0.0189  0.4658 -0.6867
 7057SOL    HW132807   1.074   0.142  13.673  0.1706  0.4353  0.3447
 7057SOL    HW232808   1.196   0.176  13.603 -0.0930  0.1795 -1.1027
 7058SOL     OW32809   3.113   2.723   7.205  0.0073 -0.6869 -0.4648
 7058SOL    HW132810   3.118   2.708   7.299  1.6186 -1.1105 -0.6168
 7058SOL    HW232811   3.051   2.796   7.212 -0.3772 -0.9806 -0.8096
 7059SOL     OW32812   3.828   0.827   8.761 -0.2711  0.1417  0.5054
 7059SOL    HW132813   3.736   0.824   8.734  0.3003 -0.1789 -1.3722
 7059SOL    HW232814   3.863   0.880   8.690 -2.3102  2.4109  1.1878
 7060SOL     OW32815   0.390   3.347   2.949 -0.6062 -0.3777  0.6793
 7060SOL    HW132816   0.328   3.420   2.951 -0.4652 -0.2287 -0.7159
 7060SOL    HW232817   0.463   3.386   2.998 -0.2138  1.2046 -1.1569
 7061SOL     OW32818   0.174   2.241  14.024  0.2565  0.4164  0.2980
 7061SOL    HW132819   0.249   2.256  13.967  0.2823 -0.1327  0.1862
 7061SOL    HW232820   0.097   2.266  13.974 -0.3594 -1.5266  0.2846
 7062SOL     OW32821   4.253   2.629   4.902 -0.6157 -0.4321 -0.1972
 7062SOL    HW132822   4.341   2.666   4.889 -0.4691 -0.2342  1.3164
 7062SOL    HW232823   4.250   2.569   4.828  1.0813 -3.3358  2.0797
 7063SOL     OW32824   0.080   4.290  11.640  0.4994 -0.4363 -0.1781
 7063SOL    HW132825   0.140   4.361  11.662  0.4947 -0.9227  1.4499
 7063SOL    HW232826   0.066   4.293  11.546 -0.9264  2.6949  0.1517
 7064SOL     OW32827   3.476   1.373   5.204  0.1149 -0.2720  0.1195
 7064SOL    HW132828   3.397   1.319   5.206 -0.4935  0.5904 -0.4468
 7064SOL    HW232829   3.500   1.362   5.296  1.2946 -1.0003 -0.2724
 7065SOL     OW32830   3.728   2.707   8.723  0.0303 -0.1407  0.0511
 7065SOL    HW132831   3.667   2.717   8.795  3.4853  1.5341  2.7748
 7065SOL    HW232832   3.750   2.615   8.709 -0.5071 -0.2811  0.1384
 7066SOL     OW32833   0.834   2.138   0.967  0.0093 -0.6989  0.4391
 7066SOL    HW132834   0.761   2.083   0.939 -2.0839  2.7864 -0.9349
 7066SOL    HW232835   0.867   2.076   1.032 -1.1831 -1.9210 -0.1154
 7067SOL     OW32836   3.915   1.950   9.247 -0.5718  0.1412 -0.5489
 7067SOL    HW132837   3.831   1.904   9.238 -0.7590  0.0028  1.7170
 7067SOL    HW232838   3.892   2.038   9.217 -1.1052  0.4874  0.8604
 7068SOL     OW32839   3.570   4.226   2.620 -0.3983 -0.5656 -0.0368
 7068SOL    HW132840   3.561   4.158   2.553  0.7359 -1.4391  0.7072
 7068SOL    HW232841   3.519   4.291   2.572  0.8638 -0.1875 -0.8506
 7069SOL     OW32842   4.673   3.618   1.054 -0.0441  0.3855  0.2869
 7069SOL    HW132843   4.736   3.606   1.125  1.4134  1.6041 -0.7873
 7069SOL    HW232844   4.669   3.534   1.008  0.0454  1.0293 -0.9001
 7070SOL     OW32845   0.690   1.414   7.605  0.6501 -0.7648 -0.4003
 7070SOL    HW132846   0.760   1.394   7.667  0.6202 -1.7348 -0.6787
 7070SOL    HW232847   0.735   1.475   7.547 -1.7673  0.8700 -0.5484
 7071SOL     OW32848   0.567   4.343   7.827 -0.1513  0.4688  0.0343
 7071SOL    HW132849   0.500   4.319   7.891 -0.4530  1.0483 -0.0676
 7071SOL    HW232850   0.576   4.436   7.846 -3.1141  0.8489 -0.2927
 7072SOL     OW32851   1.867   1.338   0.846 -0.1280  0.1737  0.9403
 7072SOL    HW132852   1.861   1.261   0.790  1.5963 -0.6975  1.9366
 7072SOL    HW232853   1.778   1.374   0.852  0.0392  0.9349 -1.1683
 7073SOL     OW32854   4.461   4.044   3.284 -0.1457  0.2660 -0.5574
 7073SOL    HW132855   4.415   4.034   3.201 -0.1946 -4.8631  0.0873
 7073SOL    HW232856   4.452   3.950   3.296 -0.2850  0.5833  1.8583
 7074SOL     OW32857   4.269   2.154   7.099  0.5185 -0.0204  0.0623
 7074SOL    HW132858   4.244   2.216   7.168 -0.5561 -0.6547  0.2434
 7074SOL    HW232859   4.354   2.188   7.071 -0.4579  1.1104 -1.5287
 7075SOL     OW32860   1.700   3.353  11.903 -0.6550 -0.0924  0.1455
 7075SOL    HW132861   1.761   3.406  11.954  1.5837 -0.8401 -1.7414
 7075SOL    HW232862   1.612   3.368  11.938  0.2173  1.5537  1.6490
 7076SOL     OW32863   4.539   4.728   0.548  0.0359 -0.0470 -0.1179
 7076SOL    HW132864   4.593   4.648   0.550 -0.2782 -0.2374  0.6974
 7076SOL    HW232865   4.462   4.677   0.573 -0.2334 -0.5465 -1.9898
 7077SOL     OW32866   0.199   0.505   4.357  0.3356  0.0821 -0.3257
 7077SOL    HW132867   0.278   0.493   4.409  0.7937 -1.2935 -1.3630
 7077SOL    HW232868   0.135   0.458   4.410  1.1399 -2.5994 -1.7764
 7078SOL     OW32869   0.606   3.799  13.978  0.3007 -0.0930  0.2594
 7078SOL    HW132870   0.514   3.826  13.973 -0.1626 -1.4304  1.4551
 7078SOL    HW232871   0.640   3.867  14.037  0.9120  0.1579 -0.3843
 7079SOL     OW32872   3.321   3.041   6.820  0.0085 -0.1302  0.2136
 7079SOL    HW132873   3.286   2.967   6.870  0.4166 -0.3183  0.2211
 7079SOL    HW232874   3.406   3.054   6.861  0.2798  1.4835 -0.9032
 7080SOL     OW32875   3.186   0.586   7.336  0.3626 -0.0803 -0.3625
 7080SOL    HW132876   3.207   0.674   7.367 -1.1382 -0.1077  0.7364
 7080SOL    HW232877   3.132   0.554   7.408 -1.0028  1.3309 -0.7496
 7081SOL     OW32878   4.517   1.135   3.127  0.6909 -0.0290  0.2222
 7081SOL    HW132879   4.531   1.058   3.182  0.6525 -0.2662 -0.0963
 7081SOL    HW232880   4.546   1.204   3.186 -0.7674  1.1259 -0.4258
 7082SOL     OW32881   4.265   3.518   2.934  0.0986  0.1408 -0.2466
 7082SOL    HW132882   4.339   3.488   2.881  0.6216  1.6614 -0.3675
 7082SOL    HW232883   4.301   3.601   2.965 -0.5426  0.6460 -0.8483
 7083SOL     OW32884   3.846   3.093   3.210 -0.0408  0.4082 -0.5693
 7083SOL    HW132885   3.779   3.114   3.145 -1.6097 -0.0319  0.9092
 7083SOL    HW232886   3.818   3.137   3.290  2.0012  1.9062 -0.6866
 7084SOL     OW32887   2.274   4.632  15.755  0.1739  0.5730  0.9107
 7084SOL    HW132888   2.316   4.586  15.828  3.1150 -0.6361 -1.5758
 7084SOL    HW232889   2.266   4.724  15.780 -1.3214  0.7926 -0.3707
 7085SOL     OW32890   2.419   3.463   2.999 -0.1459  0.2555 -0.4255
 7085SOL    HW132891   2.425   3.508   3.083  2.3848 -1.4521  0.3186
 7085SOL    HW232892   2.326   3.476   2.983  0.0132  0.8306 -0.9219
 7086SOL     OW32893   2.028   1.659   0.837 -0.3741 -0.3926 -0.4262
 7086SOL    HW132894   2.077   1.717   0.895 -2.0670  1.4535 -0.8646
 7086SOL    HW232895   1.943   1.655   0.881 -0.6013  0.4396 -0.8105
 7087SOL     OW32896   2.743   4.693   2.532  0.0227  0.1946 -0.5860
 7087SOL    HW132897   2.731   4.630   2.461 -0.8361  0.1822 -0.4251
 7087SOL    HW232898   2.655   4.711   2.565 -0.1646 -1.4895 -0.1869
 7088SOL     OW32899   1.386   4.700   2.481  0.2897  0.2600  0.3025
 7088SOL    HW132900   1.425   0.045   2.450  1.0402 -0.2621 -0.1204
 7088SOL    HW232901   1.447   4.701   2.555  1.6243  2.2238 -0.8397
 7089SOL     OW32902   3.129   0.625  16.483  0.2748  0.5489 -0.7080
 7089SOL    HW132903   3.120   0.645  16.576  0.8477  0.9676 -0.7412
 7089SOL    HW232904   3.196   0.556  16.479  0.5269  0.8917 -2.4427
 7090SOL     OW32905   4.224   2.652  15.119 -0.1977  0.6542  0.2901
 7090SOL    HW132906   4.213   2.721  15.054 -1.1714 -0.9261 -1.2236
 7090SOL    HW232907   4.301   2.679  15.171 -2.0238  2.3397  2.1286
 7091SOL     OW32908   2.980   0.066   1.783 -0.0748 -0.1131  0.2977
 7091SOL    HW132909   2.916   0.136   1.796 -0.9724 -1.1629  1.5279
 7091SOL    HW232910   2.930   4.722   1.768  2.4780 -1.6454  0.0458
 7092SOL     OW32911   0.337   1.091   9.963 -0.1746 -0.0841 -0.3552
 7092SOL    HW132912   0.361   1.006   9.998 -2.1735  0.0150  1.1972
 7092SOL    HW232913   0.336   1.075   9.868 -1.3205  1.5868 -0.6357
 7093SOL     OW32914   2.042   2.044   9.136 -0.0018 -0.1267  0.1589
 7093SOL    HW132915   1.992   2.119   9.166  2.2389  1.9511 -1.3037
 7093SOL    HW232916   2.079   2.081   9.056 -0.8872 -3.5634 -1.8776
 7094SOL     OW32917   0.792   4.150   4.920 -0.0694 -0.1311  0.6265
 7094SOL    HW132918   0.721   4.130   4.859 -1.4690  1.4885  1.7357
 7094SOL    HW232919   0.767   4.239   4.945 -1.2255 -0.7343  1.6167
 7095SOL     OW32920   0.141   4.560   0.142  0.1965 -0.5117  0.3958
 7095SOL    HW132921   0.233   4.533   0.139  0.7227  1.4209 -0.7087
 7095SOL    HW232922   0.104   4.517   0.065  1.1428  0.6879 -0.7279
 7096SOL     OW32923   3.734   0.658   5.625  0.5864  0.0015  0.1330
 7096SOL    HW132924   3.681   0.591   5.583 -1.8943  1.9555  0.1284
 7096SOL    HW232925   3.808   0.675   5.566  1.6506 -0.3634  1.3691
 7097SOL     OW32926   0.381   1.152  14.615  0.2315  0.7139  0.7589
 7097SOL    HW132927   0.413   1.112  14.696 -0.9134 -2.0973 -0.1742
 7097SOL    HW232928   0.464   1.152  14.567  0.3711  1.0189  1.0035
 7098SOL     OW32929   3.075   0.950   1.916  0.2291  0.2658 -0.2727
 7098SOL    HW132930   3.136   0.888   1.956  0.9368  1.1704  0.0643
 7098SOL    HW232931   3.135   1.012   1.874 -1.2830 -0.1588 -3.0551
 7099SOL     OW32932   0.720   3.004  14.007  1.0583 -0.4237  0.5312
 7099SOL    HW132933   0.737   3.070  13.940  3.3484  0.2882  1.8096
 7099SOL    HW232934   0.626   3.008  14.026  0.2115  2.6256 -4.3832
 7100SOL     OW32935   1.981   2.679   2.826 -0.2543 -0.1463  0.3236
 7100SOL    HW132936   1.914   2.678   2.758 -0.9328 -1.7638  1.0366
 7100SOL    HW232937   2.031   2.757   2.799 -0.2388 -0.8055 -1.5123
 7101SOL     OW32938   1.364   1.882   5.427  0.5837  0.1835  0.3156
 7101SOL    HW132939   1.348   1.854   5.518 -2.4384 -1.8574 -0.8122
 7101SOL    HW232940   1.416   1.961   5.433  1.5105 -0.4140  0.1793
 7102SOL     OW32941   0.777   1.148   0.977 -0.3765 -0.1365 -0.4354
 7102SOL    HW132942   0.759   1.239   0.952 -0.2109 -0.5865 -2.1910
 7102SOL    HW232943   0.859   1.137   0.930  0.5347 -1.0496  1.3896
 7103SOL     OW32944   0.304   3.126  16.046  0.0792 -0.6038 -0.8471
 7103SOL    HW132945   0.332   3.210  16.008 -1.2199  0.1441 -0.1280
 7103SOL    HW232946   0.216   3.118  16.011  0.3534 -3.5614 -0.8020
 7104SOL     OW32947   2.321   1.897   8.056  0.2948  0.2725 -0.4750
 7104SOL    HW132948   2.287   1.809   8.041  1.4303 -0.4080  0.8652
 7104SOL    HW232949   2.263   1.920   8.129 -0.9219 -1.1427 -1.0137
 7105SOL     OW32950   3.427   3.097   0.863 -0.1435 -0.5112 -0.4493
 7105SOL    HW132951   3.454   3.009   0.890  2.0128  0.1978 -0.3417
 7105SOL    HW232952   3.434   3.139   0.949  0.8836  1.0301 -1.2998
 7106SOL     OW32953   2.961   2.567   3.878  0.0371  0.7482  0.4856
 7106SOL    HW132954   2.873   2.604   3.873 -0.1651  0.0175 -1.3122
 7106SOL    HW232955   2.987   2.611   3.796 -0.5540  2.1364  1.0366
 7107SOL     OW32956   1.256   1.013   6.287 -0.5266 -0.5517  0.2956
 7107SOL    HW132957   1.323   1.031   6.352 -1.4283 -0.5161  1.2228
 7107SOL    HW232958   1.270   0.921   6.264 -1.5819 -0.6440  0.0052
 7108SOL     OW32959   3.410   1.091   7.343 -0.2148 -0.2799 -0.2128
 7108SOL    HW132960   3.456   1.009   7.329 -0.9842 -0.8380  0.5764
 7108SOL    HW232961   3.327   1.059   7.377 -0.2677 -1.3498 -1.3382
 7109SOL     OW32962   0.925   1.786   2.047 -0.0614  0.1485  0.1087
 7109SOL    HW132963   0.873   1.783   1.966  0.0768 -0.3169  0.0356
 7109SOL    HW232964   0.946   1.695   2.066 -1.6994 -0.5472 -1.3699
 7110SOL     OW32965   3.593   2.537   7.188 -0.1048  0.6622 -0.3373
 7110SOL    HW132966   3.537   2.553   7.263 -0.3936  0.1642 -0.4457
 7110SOL    HW232967   3.541   2.469   7.145  0.6794 -0.9888  1.3329
 7111SOL     OW32968   4.445   4.713   4.866  0.2061  0.3533 -0.7499
 7111SOL    HW132969   4.359   4.685   4.897 -0.1232 -0.3980 -2.3540
 7111SOL    HW232970   4.470   4.633   4.819  0.0459  0.0752 -0.3663
 7112SOL     OW32971   0.470   0.154  15.081 -0.3433 -0.0703  0.0472
 7112SOL    HW132972   0.535   0.198  15.136 -0.2881 -1.9466  1.4479
 7112SOL    HW232973   0.495   0.062  15.088 -0.1278  0.0742  1.1442
 7113SOL     OW32974   4.620   1.184   7.678  0.6889  0.2659  0.3304
 7113SOL    HW132975   4.567   1.219   7.607 -1.3779  1.0909  2.2733
 7113SOL    HW232976   4.548   1.143   7.726 -0.8282  0.0626 -2.1252
 7114SOL     OW32977   2.491   4.093   3.217  0.2335 -0.3441  0.1875
 7114SOL    HW132978   2.491   4.150   3.294 -2.0036  0.4832 -0.4119
 7114SOL    HW232979   2.444   4.019   3.256 -0.4441 -0.2955 -0.5306
 7115SOL     OW32980   4.270   3.362   9.535  0.5130  0.4434  0.9961
 7115SOL    HW132981   4.313   3.329   9.614  0.9216 -1.0772  0.1257
 7115SOL    HW232982   4.181   3.328   9.547  0.0677  1.0895 -0.4364
 7116SOL     OW32983   0.701   1.675   5.529 -0.3290  0.3956  0.5575
 7116SOL    HW132984   0.701   1.767   5.503 -1.4371  0.8378  2.1286
 7116SOL    HW232985   0.764   1.639   5.466 -2.0265 -2.4370  0.4662
 7117SOL     OW32986   1.921   1.248  17.221 -0.2117  0.0808  0.1923
 7117SOL    HW132987   1.949   1.339  17.211 -1.6208  0.8842  3.4298
 7117SOL    HW232988   1.907   1.239  17.315  0.3694  2.0762  0.4534
 7118SOL     OW32989   3.104   3.434  13.765 -0.0169  0.1834  0.0651
 7118SOL    HW132990   3.099   3.366  13.831 -0.4559 -0.7168 -0.9046
 7118SOL    HW232991   3.190   3.425  13.724 -0.4757  2.7587 -1.4728
 7119SOL     OW32992   2.540   4.501  13.225  0.0804  0.2175 -0.6542
 7119SOL    HW132993   2.454   4.491  13.186 -0.9989  0.0734  1.7386
 7119SOL    HW232994   2.525   4.482  13.318  0.2033 -2.7123 -1.2389
 7120SOL     OW32995   1.324   3.539   5.082  0.5190 -0.7503  0.3716
 7120SOL    HW132996   1.278   3.475   5.026  0.4259 -0.2518 -0.1209
 7120SOL    HW232997   1.321   3.491   5.165  0.2441  0.2796  0.9545
 7121SOL     OW32998   0.823   3.145   3.037 -0.0395  0.4053 -0.5150
 7121SOL    HW132999   0.746   3.139   2.980  1.1140 -1.3666 -1.9017
 7121SOL    HW233000   0.783   3.172   3.119  3.1341 -0.2448  1.2692
 7122SOL     OW33001   3.408   2.708   2.369  0.2241 -0.0155  0.9751
 7122SOL    HW133002   3.459   2.688   2.291 -0.2125 -0.2690  0.7584
 7122SOL    HW233003   3.480   2.701   2.432  0.4871  0.9109  0.7780
 7123SOL     OW33004   2.495   4.213   9.411 -0.1439 -0.4830  0.5091
 7123SOL    HW133005   2.484   4.201   9.317  0.8316  2.7660 -0.0154
 7123SOL    HW233006   2.409   4.251   9.431  1.1549  2.3378  0.7185
 7124SOL     OW33007   3.437   1.046   4.088  0.1399  0.0402 -0.1902
 7124SOL    HW133008   3.480   0.966   4.057  1.5433  0.0639  1.6934
 7124SOL    HW233009   3.448   1.098   4.008 -0.1292  1.1238  0.4715
 7125SOL     OW33010   2.408   0.031   6.213 -0.5010  0.0330  0.0820
 7125SOL    HW133011   2.349   0.097   6.178  1.5634  1.1943 -1.1915
 7125SOL    HW233012   2.422   4.708   6.139 -2.9085  0.1037 -0.4250
 7126SOL     OW33013   2.725   4.161   7.936  0.1867  0.1434  0.5744
 7126SOL    HW133014   2.652   4.215   7.967  0.3304  0.0133  1.1362
 7126SOL    HW233015   2.772   4.136   8.015  0.7150  3.7369  1.3782
 7127SOL     OW33016   4.021   2.616  12.003 -0.0487  0.1175 -0.0062
 7127SOL    HW133017   3.936   2.660  11.995  0.1549  0.7673  1.3654
 7127SOL    HW233018   4.034   2.579  11.916  1.1204 -1.3617  0.8030
 7128SOL     OW33019   3.351   2.607   5.718 -0.0827 -0.7143 -0.5492
 7128SOL    HW133020   3.378   2.561   5.798  0.5920  0.8856  0.1541
 7128SOL    HW233021   3.302   2.681   5.754 -1.0295 -1.3137 -0.6096
 7129SOL     OW33022   0.853   4.466  15.852 -0.2268 -0.0853 -0.4309
 7129SOL    HW133023   0.821   4.555  15.861  1.9353  0.5381  1.2785
 7129SOL    HW233024   0.930   4.471  15.909  0.2297  0.7823 -1.1346
 7130SOL     OW33025   3.541   0.333   5.202  0.2021  0.2985  0.2542
 7130SOL    HW133026   3.590   0.319   5.121  0.1539 -0.1719  0.3094
 7130SOL    HW233027   3.479   0.261   5.208 -1.1049  1.2834 -1.1945
 7131SOL     OW33028   2.794   3.188   9.488  0.3148  0.2203  0.2025
 7131SOL    HW133029   2.797   3.216   9.579  2.2419 -0.5867  0.3769
 7131SOL    HW233030   2.809   3.275   9.450  2.5717  0.3737  1.5020
 7132SOL     OW33031   0.161   3.468  15.174  0.5510 -0.1921 -0.1019
 7132SOL    HW133032   0.237   3.410  15.171  2.3584  2.2822 -1.8655
 7132SOL    HW233033   0.150   3.504  15.086  0.1340  1.9067  0.8064
 7133SOL     OW33034   2.252   4.306   9.490  0.2346 -0.3509 -0.0983
 7133SOL    HW133035   2.239   4.375   9.555  1.0677 -0.7651  0.4970
 7133SOL    HW233036   2.203   4.340   9.415  1.8400 -1.6667 -1.7490
 7134SOL     OW33037   4.451   0.218   8.637  0.2035 -0.2639  0.1780
 7134SOL    HW133038   4.507   0.215   8.559 -0.5826  0.9097 -0.4301
 7134SOL    HW233039   4.453   0.313   8.649 -1.2256 -0.3745  1.2257
 7135SOL     OW33040   3.720   1.854   8.539  0.3172 -0.5024 -0.3437
 7135SOL    HW133041   3.640   1.882   8.494  0.1634 -2.3830 -1.2558
 7135SOL    HW233042   3.709   1.902   8.621  0.8600 -0.1318 -0.4914
 7136SOL     OW33043   4.632   3.056   5.032 -0.0399 -0.0984 -0.0025
 7136SOL    HW133044   4.660   3.137   5.076 -2.0086  0.7749 -0.3574
 7136SOL    HW233045   4.548   3.041   5.075  0.3832 -0.6182  0.6359
 7137SOL     OW33046   3.884   1.383   5.499 -0.6089  0.5347 -0.1855
 7137SOL    HW133047   3.872   1.419   5.412 -1.3721 -0.9832 -0.7068
 7137SOL    HW233048   3.939   1.446   5.546 -0.9711  0.1080  0.8256
 7138SOL     OW33049   4.100   3.524   7.752  0.0447  0.6512 -0.0435
 7138SOL    HW133050   4.067   3.484   7.672 -1.6100  1.4466  0.2335
 7138SOL    HW233051   4.144   3.450   7.793 -2.2326 -0.7046 -0.0617
 7139SOL     OW33052   1.341   0.059   4.360  0.3079 -0.2113 -0.3110
 7139SOL    HW133053   1.382   0.065   4.447 -1.8001 -0.7702  0.7049
 7139SOL    HW233054   1.267   0.118   4.368  0.3665 -0.1138 -0.4981
 7140SOL     OW33055   2.653   2.878   6.789  0.2233  0.5584  0.0064
 7140SOL    HW133056   2.747   2.891   6.775 -0.1700  1.3242 -1.8206
 7140SOL    HW233057   2.652   2.878   6.885 -1.4659  1.4644 -0.0038
 7141SOL     OW33058   2.606   0.292   1.854 -0.6452 -0.3685  0.2974
 7141SOL    HW133059   2.656   0.289   1.935  1.1577  1.0408 -0.7653
 7141SOL    HW233060   2.676   0.287   1.789  0.4200 -0.9116  1.4966
 7142SOL     OW33061   1.744   3.387   9.675  0.3062 -0.1223 -0.1211
 7142SOL    HW133062   1.770   3.449   9.743 -1.0446  1.9182 -1.4809
 7142SOL    HW233063   1.795   3.306   9.686  2.0469  0.8758 -0.9232
 7143SOL     OW33064   2.229   1.234   2.466 -0.1838 -0.2806 -0.1317
 7143SOL    HW133065   2.249   1.232   2.373  2.2815 -2.6030  0.4511
 7143SOL    HW233066   2.173   1.312   2.466 -0.1623 -0.2774 -1.8565
 7144SOL     OW33067   3.367   0.083   3.699  0.1257  0.1626 -0.4092
 7144SOL    HW133068   3.417   0.009   3.734  0.6772  0.9188  0.3848
 7144SOL    HW233069   3.402   0.149   3.758  2.2934 -1.4041  0.0618
 7145SOL     OW33070   2.395   2.239   6.871 -0.2886  0.1157 -0.2381
 7145SOL    HW133071   2.324   2.189   6.833 -0.7699 -1.2367  2.4077
 7145SOL    HW233072   2.420   2.180   6.942 -5.1734  0.8528  2.1106
 7146SOL     OW33073   0.418   4.552   4.472 -0.0653 -0.1069  0.1947
 7146SOL    HW133074   0.369   4.515   4.398 -0.9346 -2.0937  1.7525
 7146SOL    HW233075   0.484   4.606   4.429  0.2271 -1.3644 -0.9217
 7147SOL     OW33076   2.704   2.906   1.781 -0.3456  0.3295 -0.5617
 7147SOL    HW133077   2.623   2.940   1.744  0.2058 -0.8004 -2.8016
 7147SOL    HW233078   2.707   2.820   1.739 -2.3510 -0.3062  0.6150
 7148SOL     OW33079   2.795   3.557   9.503 -0.1326 -0.1113 -0.3222
 7148SOL    HW133080   2.788   3.652   9.517  0.7576 -0.0812 -0.0659
 7148SOL    HW233081   2.748   3.524   9.579 -0.7202 -1.3305 -1.2168
 7149SOL     OW33082   4.059   1.951   5.692  0.3823 -0.4598 -0.2929
 7149SOL    HW133083   4.060   1.994   5.778  2.9153 -2.1365  0.5222
 7149SOL    HW233084   4.150   1.929   5.672  0.3713 -0.8202  0.0581
 7150SOL     OW33085   1.479   3.000   5.900  1.1083  0.3964 -0.4551
 7150SOL    HW133086   1.527   2.996   5.983 -2.6097  0.9552  1.6975
 7150SOL    HW233087   1.443   2.913   5.883 -0.5893  1.0609 -0.2551
 7151SOL     OW33088   1.523   1.425  17.145 -0.0720 -0.0313  0.1845
 7151SOL    HW133089   1.547   1.457  17.232  1.3960 -1.3995  0.2888
 7151SOL    HW233090   1.566   1.339  17.144  0.0605  0.0584 -2.1100
 7152SOL     OW33091   1.880   3.037   4.007  0.7872 -0.2387 -0.0562
 7152SOL    HW133092   1.906   3.089   4.083 -0.4765 -0.9944  0.9017
 7152SOL    HW233093   1.851   3.104   3.945  0.1466 -0.3271  0.1417
 7153SOL     OW33094   3.044   2.100  11.775 -0.5209  0.1569 -0.4616
 7153SOL    HW133095   3.013   2.035  11.838  1.1014  0.8346  1.0272
 7153SOL    HW233096   2.979   2.085  11.706 -0.8017  2.0288 -0.6072
 7154SOL     OW33097   1.614   2.886   6.660 -0.0711  0.7600 -0.3825
 7154SOL    HW133098   1.547   2.951   6.684  0.0398  2.1600 -3.8323
 7154SOL    HW233099   1.668   2.878   6.738  0.7270 -3.4399 -1.3716
 7155SOL     OW33100   4.194   1.716   2.659  0.4967 -0.1923  0.6638
 7155SOL    HW133101   4.167   1.722   2.751 -0.6509  0.4126  0.2971
 7155SOL    HW233102   4.223   1.807   2.649 -0.3861 -0.0544 -0.7604
 7156SOL     OW33103   4.066   4.567   0.757 -0.2856  0.0360  0.0124
 7156SOL    HW133104   4.082   4.659   0.737 -0.6944 -0.1596 -1.1691
 7156SOL    HW233105   4.151   4.542   0.793 -0.4347  0.5110  0.6993
 7157SOL     OW33106   2.806   2.560   4.727 -0.0846 -1.0716 -0.0522
 7157SOL    HW133107   2.864   2.587   4.799  1.6527 -2.4434 -0.9248
 7157SOL    HW233108   2.775   2.479   4.768  0.6272 -0.2016  2.1924
 7158SOL     OW33109   0.508   3.270   0.542  0.1960 -0.0359  0.6025
 7158SOL    HW133110   0.515   3.175   0.537  2.0316  0.3608 -3.9073
 7158SOL    HW233111   0.567   3.289   0.470 -0.4482  2.5220  0.7539
 7159SOL     OW33112   3.569   4.386   3.733  0.1481 -0.2161 -0.2697
 7159SOL    HW133113   3.649   4.339   3.758 -0.2242 -0.3934  0.5734
 7159SOL    HW233114   3.531   4.320   3.675 -0.5773 -0.1816  0.1753
 7160SOL     OW33115   3.634   1.513   7.982  0.7349  0.3101 -0.3972
 7160SOL    HW133116   3.642   1.568   7.904  0.4955  1.9952  0.7729
 7160SOL    HW233117   3.606   1.571   8.053  2.1272  1.6496 -0.9274
 7161SOL     OW33118   3.445   1.811  17.462 -0.2006 -0.8737 -0.4012
 7161SOL    HW133119   3.398   1.855  17.391 -1.5148  1.1062  1.6810
 7161SOL    HW233120   3.477   1.736  17.412  0.5790  0.4194 -1.8595
 7162SOL     OW33121   2.087   3.133   6.041 -0.7008 -0.6862  0.3075
 7162SOL    HW133122   2.022   3.063   6.032  0.0750 -1.3286 -0.2834
 7162SOL    HW233123   2.167   3.091   6.010  0.5193  1.4247  0.5872
 7163SOL     OW33124   1.742   0.168   0.580 -0.4262 -0.3011 -0.0254
 7163SOL    HW133125   1.655   0.151   0.544 -1.2753 -0.4724  2.1462
 7163SOL    HW233126   1.799   0.172   0.503 -1.4834  0.6292 -0.7747
 7164SOL     OW33127   1.451   0.069   5.227  0.2050  0.0248  0.0308
 7164SOL    HW133128   1.369   0.118   5.234 -0.9569 -1.5345 -2.5712
 7164SOL    HW233129   1.500   0.110   5.297 -2.3543  2.4049  0.4233
 7165SOL     OW33130   1.649   4.265   4.282  0.0148  0.9672 -0.1089
 7165SOL    HW133131   1.620   4.352   4.309  0.0158  1.7303 -2.5198
 7165SOL    HW233132   1.622   4.274   4.191 -1.4562 -5.0892 -0.2953
 7166SOL     OW33133   3.114   1.517   3.223 -0.0424 -0.1796 -0.6670
 7166SOL    HW133134   3.078   1.471   3.299  1.8861  0.7205  0.7862
 7166SOL    HW233135   3.209   1.513   3.234 -0.1175  0.8924  0.2958
 7167SOL     OW33136   1.544   2.988   0.579  0.3965 -0.4688  0.4095
 7167SOL    HW133137   1.552   2.918   0.514  2.7440 -0.0492  0.2204
 7167SOL    HW233138   1.512   2.933   0.651  1.8404  0.7079  1.9629
 7168SOL     OW33139   3.020   4.530  11.740  0.4019  0.2521  0.1354
 7168SOL    HW133140   3.116   4.531  11.741  0.3816 -0.9974  1.7940
 7168SOL    HW233141   3.014   4.437  11.761  0.4112  0.0561 -0.7146
 7169SOL     OW33142   1.739   3.386  10.051 -0.1506 -0.5190  0.1839
 7169SOL    HW133143   1.652   3.344  10.051 -0.3682 -0.0665 -2.2972
 7169SOL    HW233144   1.726   3.473  10.015 -1.2606 -0.6317  0.2970
 7170SOL     OW33145   1.365   4.574  15.414 -0.7168  0.2017  0.3838
 7170SOL    HW133146   1.455   4.540  15.420 -0.3943  1.2803  1.5933
 7170SOL    HW233147   1.378   4.629  15.337 -3.0780 -1.5966 -1.2914
 7171SOL     OW33148   1.937   2.126  15.703  0.3055  0.1508 -0.9289
 7171SOL    HW133149   2.032   2.135  15.702  0.2494  1.0320  0.6730
 7171SOL    HW233150   1.928   2.031  15.690 -0.3060 -0.1806  1.6982
 7172SOL     OW33151   2.514   3.347   9.208 -0.1020 -0.0003  0.0532
 7172SOL    HW133152   2.565   3.406   9.151  0.0193 -0.3872 -0.2440
 7172SOL    HW233153   2.484   3.405   9.278 -0.3552 -1.7920  1.4100
 7173SOL     OW33154   0.611   2.809   2.440 -0.2389  0.7988 -0.3072
 7173SOL    HW133155   0.617   2.735   2.500  0.8775 -0.7245 -2.2842
 7173SOL    HW233156   0.589   2.877   2.504 -0.4062 -1.7318  2.3226
 7174SOL     OW33157   2.894   2.492  16.534  0.3333  0.2160  0.9165
 7174SOL    HW133158   2.808   2.460  16.506  0.5182 -0.3085  0.9445
 7174SOL    HW233159   2.885   2.465  16.625  1.6175 -2.2153  0.3345
 7175SOL     OW33160   4.094   3.053   3.089  0.2514  0.1180  0.0828
 7175SOL    HW133161   4.009   3.063   3.131  0.0583  0.9327 -0.4932
 7175SOL    HW233162   4.074   3.115   3.019 -0.0938 -2.3000 -1.9595
 7176SOL     OW33163   2.798   2.853   5.111  0.0250  0.3108  0.5313
 7176SOL    HW133164   2.821   2.820   5.025  0.7909 -0.7846  1.1547
 7176SOL    HW233165   2.779   2.944   5.090 -0.2041 -0.6042 -3.2570
 7177SOL     OW33166   1.094   1.514   4.141 -0.3740 -0.5219 -0.2173
 7177SOL    HW133167   1.009   1.509   4.184 -0.6716 -1.0654 -0.8796
 7177SOL    HW233168   1.154   1.503   4.216  0.1005  0.5972 -0.4386
 7178SOL     OW33169   3.819   2.341   9.373 -0.0499 -0.3986 -0.2898
 7178SOL    HW133170   3.727   2.318   9.370 -0.5539  1.6481 -0.6192
 7178SOL    HW233171   3.849   2.281   9.304 -0.2075 -2.1052  1.1315
 7179SOL     OW33172   4.266   2.997   0.635 -0.6696  0.4670  0.1668
 7179SOL    HW133173   4.175   2.995   0.667 -1.2948 -3.0123 -1.8399
 7179SOL    HW233174   4.307   2.986   0.720 -0.8904  1.8784  0.4558
 7180SOL     OW33175   1.203   2.072   9.304  0.3512 -0.2131 -0.0228
 7180SOL    HW133176   1.233   2.159   9.276 -0.0976 -0.7284 -2.1277
 7180SOL    HW233177   1.217   2.034   9.217 -1.5671  0.1489 -0.4880
 7181SOL     OW33178   1.873   4.532   4.486 -0.1530 -1.0229  0.1233
 7181SOL    HW133179   1.925   4.608   4.461 -2.5024  0.1099 -1.3380
 7181SOL    HW233180   1.835   4.516   4.400  1.2120  1.3368 -0.9223
 7182SOL     OW33181   2.644   2.517   5.597 -0.5152  0.1695  0.3623
 7182SOL    HW133182   2.628   2.592   5.540  1.6234  0.9706  0.8118
 7182SOL    HW233183   2.624   2.441   5.542  1.4117  0.3442 -0.5997
 7183SOL     OW33184   0.971   2.011   2.903 -0.2954  0.1077 -0.4617
 7183SOL    HW133185   0.927   1.926   2.898  1.5335 -0.9242  1.0380
 7183SOL    HW233186   0.895   2.068   2.918  0.3561  0.5087  1.2813
 7184SOL     OW33187   3.632   2.992  10.084 -0.1926  0.0585  0.9868
 7184SOL    HW133188   3.598   3.038  10.007  1.4566 -0.1673  0.1437
 7184SOL    HW233189   3.613   3.047  10.160 -1.3633 -1.3403  1.7108
 7185SOL     OW33190   1.028   2.868   9.016 -0.4757  0.5780 -0.5257
 7185SOL    HW133191   1.072   2.884   8.933  0.1432 -0.7178 -0.4346
 7185SOL    HW233192   1.045   2.775   9.008 -1.4960  0.3678 -0.2348
 7186SOL     OW33193   4.298   0.038   7.936 -0.3012  0.5580 -0.4934
 7186SOL    HW133194   4.309   4.735   7.850 -1.4947 -1.5333  0.3029
 7186SOL    HW233195   4.318   4.703   7.998 -1.2468  1.1338  0.4695
 7187SOL     OW33196   1.419   0.520   6.307 -0.0394  0.2522 -0.5505
 7187SOL    HW133197   1.393   0.428   6.307 -1.2610  0.5975 -0.6184
 7187SOL    HW233198   1.488   0.523   6.373 -0.8673  0.4660  0.3060
 7188SOL     OW33199   4.541   4.156  15.269  0.3851 -0.5731  0.0366
 7188SOL    HW133200   4.476   4.225  15.254  0.7287  0.1985  2.1311
 7188SOL    HW233201   4.564   4.136  15.178 -0.2708  1.2209 -0.5285
 7189SOL     OW33202   3.480   3.910   9.723  0.5735 -0.1884 -0.3454
 7189SOL    HW133203   3.447   3.965   9.794  0.3880  0.5225 -0.9742
 7189SOL    HW233204   3.444   3.822   9.731  0.7792 -0.1810  0.5601
 7190SOL     OW33205   3.194   1.507   7.904 -0.0818  0.2186 -0.0165
 7190SOL    HW133206   3.214   1.418   7.875  3.2515  1.2612 -0.9354
 7190SOL    HW233207   3.109   1.497   7.946 -0.0792  3.7778  0.8184
 7191SOL     OW33208   1.295   1.385   6.007 -0.2613 -0.8197  0.5301
 7191SOL    HW133209   1.318   1.340   6.089 -1.5458 -1.4392  0.5425
 7191SOL    HW233210   1.217   1.335   5.986 -0.9558  0.2942  0.4158
 7192SOL     OW33211   0.582   0.358   5.258  0.1239 -0.2291 -0.0102
 7192SOL    HW133212   0.653   0.347   5.321  0.1488  1.3345  0.2495
 7192SOL    HW233213   0.580   0.453   5.241  0.8649 -0.3010 -0.4770
 7193SOL     OW33214   1.174   2.224   2.793 -0.1903 -0.2260  0.3413
 7193SOL    HW133215   1.113   2.297   2.780 -0.2075 -0.1406  0.9049
 7193SOL    HW233216   1.135   2.159   2.851 -2.7728 -0.2210 -1.3781
 7194SOL     OW33217   3.270   3.912   3.011 -0.2976  0.0991  0.1488
 7194SOL    HW133218   3.345   3.883   2.960 -0.8194 -1.4655  0.2681
 7194SOL    HW233219   3.294   4.001   3.036 -2.8559  1.1757 -1.2126
 7195SOL     OW33220   2.158   4.336   2.260 -0.1391 -0.7096  0.2340
 7195SOL    HW133221   2.127   4.252   2.226 -2.4025  0.7263 -1.2390
 7195SOL    HW233222   2.087   4.396   2.238  0.6885  0.2289  0.1127
 7196SOL     OW33223   3.224   1.546   4.108 -0.3867  0.2598  0.0848
 7196SOL    HW133224   3.195   1.460   4.076 -0.7855  0.9300 -1.3565
 7196SOL    HW233225   3.298   1.515   4.160  0.1696  1.0142 -0.2639
 7197SOL     OW33226   1.286   1.841   4.475 -0.1627  0.4089  0.2790
 7197SOL    HW133227   1.253   1.833   4.564  2.0729  1.1276  1.1709
 7197SOL    HW233228   1.334   1.758   4.478 -1.5295 -0.3642  0.5879
 7198SOL     OW33229   1.094   3.859   5.251 -0.2312 -0.3569 -0.3833
 7198SOL    HW133230   1.172   3.910   5.230 -0.1613 -0.3279 -0.0478
 7198SOL    HW233231   1.068   3.897   5.335 -0.0045  0.7084 -0.8057
 7199SOL     OW33232   0.139   3.826   2.310 -0.5530 -0.2892  0.0734
 7199SOL    HW133233   0.058   3.869   2.283 -0.6790 -1.2510 -1.0716
 7199SOL    HW233234   0.097   3.770   2.375 -1.1464  3.8393  3.2573
 7200SOL     OW33235   3.977   3.322   0.625 -0.0902 -0.0613  0.1602
 7200SOL    HW133236   4.055   3.288   0.581 -1.2962 -0.3974 -1.7223
 7200SOL    HW233237   4.002   3.407   0.661  0.5367  0.0975 -0.6443
 7201SOL     OW33238   3.154   2.685  11.755  0.7273 -0.2698 -0.7315
 7201SOL    HW133239   3.123   2.645  11.836 -1.6027  1.0006 -0.9896
 7201SOL    HW233240   3.206   2.618  11.709  1.0301 -0.3283 -0.3045
 7202SOL     OW33241   2.008   4.550  12.917  0.1132 -0.4132 -0.3073
 7202SOL    HW133242   2.089   4.595  12.896  0.2411 -0.0318  1.0221
 7202SOL    HW233243   1.947   4.594  12.857 -1.1266 -0.7154  0.7504
 7203SOL     OW33244   3.756   0.855   3.042  0.1745 -0.1514  0.6273
 7203SOL    HW133245   3.700   0.778   3.053  0.4240 -0.4290 -0.0668
 7203SOL    HW233246   3.699   0.916   3.088 -1.1047  0.3942 -1.6759
 7204SOL     OW33247   1.846   3.925   0.398 -0.6163  0.0086 -0.3491
 7204SOL    HW133248   1.820   4.010   0.363  0.5653  0.3651 -0.3754
 7204SOL    HW233249   1.864   3.954   0.487  1.3672  0.2311 -0.8089
 7205SOL     OW33250   1.103   3.816   1.659 -0.0420 -0.2447 -0.1643
 7205SOL    HW133251   1.057   3.744   1.703  0.5847 -0.2742  0.4539
 7205SOL    HW233252   1.192   3.781   1.654  0.2398  0.6796 -1.3324
 7206SOL     OW33253   2.044   1.189   3.185 -1.1030 -0.2897 -0.0008
 7206SOL    HW133254   2.076   1.257   3.245 -0.2570  0.0987 -0.9008
 7206SOL    HW233255   2.106   1.200   3.114 -0.7572  4.2220  0.9975
 7207SOL     OW33256   2.256   3.129   5.056  0.3182 -0.1888  0.0357
 7207SOL    HW133257   2.348   3.151   5.047  0.8552 -2.4275  0.1060
 7207SOL    HW233258   2.259   3.134   5.152  1.0322  1.3576 -0.0631
 7208SOL     OW33259   4.220   0.020   3.529 -0.1067  0.2727  0.4827
 7208SOL    HW133260   4.274   4.717   3.460 -0.7081 -2.2848  1.4892
 7208SOL    HW233261   4.228   4.692   3.599  3.9015 -1.0273 -1.1227
 7209SOL     OW33262   0.357   2.379   8.298 -0.4701 -0.2968 -0.2526
 7209SOL    HW133263   0.384   2.470   8.286 -1.3740  0.0878  0.6512
 7209SOL    HW233264   0.440   2.331   8.308 -0.2859  0.4563  1.8477
 7210SOL     OW33265   2.607   3.781   5.527  0.2294 -0.3470  0.0701
 7210SOL    HW133266   2.516   3.770   5.498  0.2959  1.1209 -0.6772
 7210SOL    HW233267   2.655   3.724   5.467 -1.7959  1.1930 -3.0132
 7211SOL     OW33268   3.059   4.622  16.381  0.0073  0.1750 -0.2567
 7211SOL    HW133269   2.997   4.551  16.398  0.5192 -0.3065 -0.4033
 7211SOL    HW233270   3.088   4.644  16.469  0.2778 -0.6261 -0.1494
 7212SOL     OW33271   0.757   4.295   2.761  0.0212  0.1990 -0.1257
 7212SOL    HW133272   0.839   4.342   2.748 -0.9854  1.6231 -1.4263
 7212SOL    HW233273   0.697   4.367   2.741 -1.4102 -1.2083 -0.9348
 7213SOL     OW33274   0.784   3.216   3.874 -0.4120 -0.3893 -0.2779
 7213SOL    HW133275   0.791   3.179   3.786 -0.1807  0.5388 -0.6508
 7213SOL    HW233276   0.688   3.214   3.881 -0.4308 -0.3294 -0.5330
 7214SOL     OW33277   0.580   3.880   3.637  0.3473 -0.1268  0.6176
 7214SOL    HW133278   0.593   3.786   3.648  0.9667  0.1318  2.1047
 7214SOL    HW233279   0.554   3.880   3.545 -0.2216 -0.3421  0.7823
 7215SOL     OW33280   4.314   3.308   6.821  0.2009  0.5977  0.1167
 7215SOL    HW133281   4.247   3.374   6.800  2.9206  2.8473 -1.4630
 7215SOL    HW233282   4.349   3.280   6.736  0.9338 -0.6222  0.8281
 7216SOL     OW33283   0.048   4.710  13.947 -0.0447 -0.5125  0.0582
 7216SOL    HW133284   0.062   4.719  13.853  1.4047 -1.7049  0.1499
 7216SOL    HW233285   4.720   4.639  13.946 -0.1323 -0.4538  2.8900
 7217SOL     OW33286   2.419   4.185   4.766  0.4052  0.1379 -0.0800
 7217SOL    HW133287   2.354   4.127   4.728 -0.9059  1.4327  0.1754
 7217SOL    HW233288   2.434   4.250   4.697  0.1184  0.3745  0.0800
 7218SOL     OW33289   1.661   3.229   4.177  0.5713  0.3954  0.2453
 7218SOL    HW133290   1.625   3.166   4.114 -0.8047 -0.7562  2.1861
 7218SOL    HW233291   1.694   3.296   4.116  1.0808  2.5758  2.8845
 7219SOL     OW33292   3.091   1.002  12.728 -0.1282 -0.2336 -0.3101
 7219SOL    HW133293   3.003   1.028  12.755  0.4196  1.6149 -0.3084
 7219SOL    HW233294   3.068   0.966  12.643 -0.0841 -1.7081  0.2951
 7220SOL     OW33295   1.625   2.298   5.717 -0.1440  0.0377 -0.1870
 7220SOL    HW133296   1.653   2.333   5.802  0.9701 -1.3508  0.0200
 7220SOL    HW233297   1.547   2.250   5.744  0.7963 -3.2377 -3.2789
 7221SOL     OW33298   3.769   4.071   1.591  0.8316 -0.0728 -0.5464
 7221SOL    HW133299   3.702   4.005   1.609 -0.5128  1.8163  1.4605
 7221SOL    HW233300   3.849   4.023   1.612  0.0684 -1.0382  0.1615
 7222SOL     OW33301   4.262   3.089  13.702  0.2630 -0.0303  0.1665
 7222SOL    HW133302   4.295   3.011  13.659  0.9097 -1.6462  3.5516
 7222SOL    HW233303   4.241   3.145  13.628 -0.6433 -0.6139 -0.0212
 7223SOL     OW33304   0.983   2.422   6.230 -0.1241  0.0126  0.2530
 7223SOL    HW133305   0.934   2.358   6.282 -0.2203  1.2452  1.6524
 7223SOL    HW233306   1.047   2.364   6.190 -1.1536 -1.4726  0.7426
 7224SOL     OW33307   3.410   1.068  15.574 -0.3332  0.3768  0.4217
 7224SOL    HW133308   3.441   1.120  15.500 -1.7052 -0.7737 -0.9836
 7224SOL    HW233309   3.339   1.012  15.543 -0.9382 -0.2561  2.9779
 7225SOL     OW33310   0.132   3.820   3.730  0.4731 -0.3253 -0.3158
 7225SOL    HW133311   0.177   3.740   3.702  0.3874 -0.5105  0.0772
 7225SOL    HW233312   0.164   3.876   3.659  1.0623 -2.3034 -1.6140
 7226SOL     OW33313   1.105   4.046   3.089 -0.2154  0.6533 -0.7093
 7226SOL    HW133314   1.116   4.102   3.013  0.6234  2.5522  0.8230
 7226SOL    HW233315   1.015   4.016   3.075  0.1236 -1.3031  1.1734
 7227SOL     OW33316   4.535   2.336   3.831 -0.1053 -0.1634 -0.1711
 7227SOL    HW133317   4.563   2.300   3.916 -2.5602 -1.7678 -0.0536
 7227SOL    HW233318   4.605   2.310   3.772 -1.5413  1.1113 -2.4142
 7228SOL     OW33319   2.577   4.673   1.373  0.1255 -0.3515  0.1542
 7228SOL    HW133320   2.625   4.601   1.414 -0.4863 -0.3106  0.9570
 7228SOL    HW233321   2.490   4.655   1.410  0.3215 -0.4180  0.5813
 7229SOL     OW33322   1.301   2.812   4.069  0.4462 -0.3936 -0.1442
 7229SOL    HW133323   1.243   2.873   4.024  2.0094  0.5780 -0.8055
 7229SOL    HW233324   1.296   2.855   4.154  3.1585 -0.3452 -0.0145
 7230SOL     OW33325   2.411   1.325   6.397  0.9522 -0.1769  0.1208
 7230SOL    HW133326   2.487   1.316   6.339 -1.3029  0.1260 -2.8635
 7230SOL    HW233327   2.346   1.354   6.332  1.8887 -0.2784 -0.8663
 7231SOL     OW33328   0.621   2.339  12.527  0.0269  0.5173 -0.1947
 7231SOL    HW133329   0.624   2.243  12.533 -0.7040  0.4604 -0.7066
 7231SOL    HW233330   0.547   2.356  12.469  0.6791  1.8860 -0.6243
 7232SOL     OW33331   4.708   2.862   8.906  0.6841 -0.4240 -0.3056
 7232SOL    HW133332   4.692   2.945   8.860 -1.5132 -0.3335  0.6537
 7232SOL    HW233333   4.657   2.884   8.984  1.5223 -1.4844  0.5569
 7233SOL     OW33334   2.200   4.621   0.029 -0.5110  0.0087 -0.0748
 7233SOL    HW133335   2.288   4.622  17.735 -0.2996  1.6287  0.4877
 7233SOL    HW233336   2.209   4.588   0.119  1.6984 -0.1369 -0.3445
 7234SOL     OW33337   3.968   0.452   7.904  0.3725 -0.2577  0.5025
 7234SOL    HW133338   4.036   0.437   7.969  1.0346 -2.5031 -0.6855
 7234SOL    HW233339   4.021   0.464   7.825  1.7378 -1.8561  1.1704
 7235SOL     OW33340   1.003   0.394  10.939 -0.0178  0.4401 -0.1035
 7235SOL    HW133341   1.020   0.369  10.848  1.6404  0.2310  0.2667
 7235SOL    HW233342   1.090   0.418  10.970 -0.4136  0.4626  1.0067
 7236SOL     OW33343   4.154   3.509  15.475  0.1376 -0.6960  0.2662
 7236SOL    HW133344   4.059   3.503  15.483  0.3739 -1.3783  2.5920
 7236SOL    HW233345   4.172   3.587  15.423 -1.0718  0.5044  1.6515
 7237SOL     OW33346   3.887   4.710   4.647 -0.8662 -0.8729 -0.0703
 7237SOL    HW133347   3.819   4.736   4.585  1.2721  0.8979 -1.6595
 7237SOL    HW233348   3.946   0.048   4.658 -0.4643 -1.2652  0.4419
 7238SOL     OW33349   4.131   4.464   7.417 -0.0853  0.1941 -0.1011
 7238SOL    HW133350   4.141   4.559   7.425 -0.1462  0.1810  0.1255
 7238SOL    HW233351   4.043   4.450   7.453 -0.8962  2.4081 -1.1887
 7239SOL     OW33352   0.431   1.656   7.972 -0.7253 -0.0013 -0.2990
 7239SOL    HW133353   0.348   1.613   7.950 -1.2201  0.8280 -0.0670
 7239SOL    HW233354   0.505   1.604   7.942 -0.1176  0.2731  0.7151
 7240SOL     OW33355   1.425   0.114   4.638 -0.2349  0.0519 -0.4196
 7240SOL    HW133356   1.516   0.097   4.614 -0.0165 -2.2235  2.0752
 7240SOL    HW233357   1.396   0.028   4.666 -0.8601 -0.1475 -1.7093
 7241SOL     OW33358   0.094   2.046   9.506 -0.3339  0.3010 -0.8083
 7241SOL    HW133359   0.083   1.958   9.542 -0.0252  0.3148 -0.6761
 7241SOL    HW233360   0.185   2.057   9.535 -0.6879  0.7596  0.1090
 7242SOL     OW33361   2.293   1.101   3.653 -0.6298 -0.2259  0.0108
 7242SOL    HW133362   2.364   1.091   3.590 -0.5416  0.0677  0.0634
 7242SOL    HW233363   2.318   1.180   3.702  2.8730 -0.2349 -1.7831
 7243SOL     OW33364   1.240   3.808  17.594 -0.0402 -0.0616  0.2270
 7243SOL    HW133365   1.256   3.902  17.606 -0.9899 -0.0004  0.9669
 7243SOL    HW233366   1.182   3.806  17.670 -2.1747 -1.2147 -1.4475
 7244SOL     OW33367   0.611   2.313   4.523 -0.2890  0.0656 -0.3769
 7244SOL    HW133368   0.579   2.318   4.433  0.1197 -3.1136 -0.6918
 7244SOL    HW233369   0.659   2.231   4.519  0.2880  0.5082 -2.6949
 7245SOL     OW33370   0.223   0.117   8.228 -0.0763 -0.2327 -0.0341
 7245SOL    HW133371   0.145   0.061   8.225  1.1265 -1.8747 -0.5244
 7245SOL    HW233372   0.201   0.168   8.150 -0.7486  0.2891  0.4910
 7246SOL     OW33373   0.072   4.646   1.026 -0.7121  0.2424  0.6431
 7246SOL    HW133374   0.012   4.651   0.951 -2.7729  2.6082  2.4578
 7246SOL    HW233375   0.120   4.729   1.020 -2.5857  1.2474 -0.4814
 7247SOL     OW33376   2.517   1.248  13.444  0.0868 -0.6291 -0.7179
 7247SOL    HW133377   2.428   1.271  13.472  0.6923 -0.7310  1.2739
 7247SOL    HW233378   2.559   1.326  13.481 -3.3346  0.2845  1.2819
 7248SOL     OW33379   1.727   4.023   7.112 -0.2923 -0.4026  0.0204
 7248SOL    HW133380   1.745   4.116   7.098  0.1679 -0.3645  0.8298
 7248SOL    HW233381   1.716   3.981   7.027  0.5369  1.4665 -1.0051
 7249SOL     OW33382   0.431   1.645   7.147  0.0384 -0.7795 -0.2599
 7249SOL    HW133383   0.483   1.619   7.223  0.5447 -0.9688 -0.6782
 7249SOL    HW233384   0.347   1.664   7.190  0.2022 -1.7434  0.4742
 7250SOL     OW33385   1.745   1.903   7.338  0.3807 -0.6711  0.1633
 7250SOL    HW133386   1.759   1.938   7.250  0.0688 -0.9834 -0.0117
 7250SOL    HW233387   1.701   1.970   7.390  1.4501 -0.0261  0.2279
 7251SOL     OW33388   2.645   2.947   5.677 -0.5977 -0.2381 -0.0088
 7251SOL    HW133389   2.613   3.029   5.638 -2.4224 -1.3372 -0.8457
 7251SOL    HW233390   2.561   2.901   5.680  0.4393 -2.0618  0.5784
 7252SOL     OW33391   3.404   1.319  10.048 -0.0495  0.1204  0.2089
 7252SOL    HW133392   3.334   1.336   9.985  0.3715 -0.9949 -0.5658
 7252SOL    HW233393   3.413   1.224  10.042 -0.7951  0.0333  0.3623
 7253SOL     OW33394   4.494   2.204   4.328 -0.3396 -0.1835  0.0368
 7253SOL    HW133395   4.433   2.148   4.376 -2.4476  1.5376 -0.6488
 7253SOL    HW233396   4.562   2.206   4.396 -0.1388  0.3242 -0.1817
 7254SOL     OW33397   1.178   1.523  10.802  0.3256  0.8207 -0.2993
 7254SOL    HW133398   1.116   1.483  10.740  1.2119 -0.7263 -0.2076
 7254SOL    HW233399   1.182   1.460  10.875 -1.3470 -0.9927 -1.7616
 7255SOL     OW33400   4.080   2.663   0.198  0.2863  0.2657 -0.3317
 7255SOL    HW133401   4.139   2.687   0.126  0.2515 -0.7133 -0.6910
 7255SOL    HW233402   4.014   2.732   0.196  0.7020  0.5953 -3.1230
 7256SOL     OW33403   3.014   4.726   2.800  0.0110  0.1325 -0.2372
 7256SOL    HW133404   3.096   0.032   2.828 -1.0026  0.3799  2.3860
 7256SOL    HW233405   2.954   0.015   2.870  0.7225  0.8838  0.1087
 7257SOL     OW33406   1.351   1.780   2.218  0.1700 -0.1268 -0.2716
 7257SOL    HW133407   1.270   1.740   2.247  1.9659 -3.1220  0.5763
 7257SOL    HW233408   1.332   1.874   2.219 -0.0203 -0.1989  1.4793
 7258SOL     OW33409   1.225   4.593   1.752 -0.2978 -0.2055  0.3525
 7258SOL    HW133410   1.258   4.547   1.675  2.1335 -1.9370  2.4528
 7258SOL    HW233411   1.236   4.527   1.820  0.9842 -0.0303  0.3102
 7259SOL     OW33412   1.711   4.687  15.738  0.6909 -0.0431  0.1829
 7259SOL    HW133413   1.757   4.603  15.738  0.1315 -0.3378  1.2961
 7259SOL    HW233414   1.791   4.736  15.718  0.2438  0.5426 -0.1740
 7260SOL     OW33415   4.330   2.038   5.769  0.2090 -0.0681 -0.1242
 7260SOL    HW133416   4.307   2.103   5.836 -1.3112  1.5443 -2.1714
 7260SOL    HW233417   4.424   2.035   5.786 -0.3530  0.7862  3.0474
 7261SOL     OW33418   2.850   3.435   9.279  0.0408  0.2208  0.3944
 7261SOL    HW133419   2.810   3.483   9.351 -3.4311  1.1617 -2.1483
 7261SOL    HW233420   2.789   3.460   9.210 -0.3470  2.2721  1.5095
 7262SOL     OW33421   4.374   2.957  12.415  0.4109  0.2018 -0.1280
 7262SOL    HW133422   4.460   2.916  12.405  0.6146 -0.1021  2.7806
 7262SOL    HW233423   4.328   2.918  12.341  0.6991 -2.0743  0.8872
 7263SOL     OW33424   0.388   3.986   9.287 -0.2742  0.2623 -0.1773
 7263SOL    HW133425   0.435   3.908   9.317 -0.6074  0.7528  1.6188
 7263SOL    HW233426   0.433   4.013   9.207 -1.8613 -0.1688 -1.2412
 7264SOL     OW33427   0.830   0.507  15.861  0.7967  0.1627 -0.6043
 7264SOL    HW133428   0.847   0.581  15.804  0.0723 -0.5870 -1.7881
 7264SOL    HW233429   0.884   0.441  15.817  0.0352 -0.3193 -0.8209
 7265SOL     OW33430   3.501   4.617  15.446 -0.3982  0.2759  0.1554
 7265SOL    HW133431   3.525   4.579  15.361  0.5959  0.5636  0.3022
 7265SOL    HW233432   3.572   4.681  15.458 -1.4863  2.1087 -2.9337
 7266SOL     OW33433   1.637   4.618   0.922  0.0288  0.2757 -0.4095
 7266SOL    HW133434   1.580   4.694   0.912 -2.2199 -1.1089  2.1888
 7266SOL    HW233435   1.720   4.662   0.905  0.0878 -0.1918 -1.3512
 7267SOL     OW33436   4.211   1.966   0.053  0.3070 -0.2643 -0.4076
 7267SOL    HW133437   4.271   1.939  17.728 -0.8161 -1.8370 -0.7794
 7267SOL    HW233438   4.169   1.882   0.071 -2.4564  0.1480 -4.7255
 7268SOL     OW33439   0.231   0.106  14.737 -0.3460  0.0383 -0.1161
 7268SOL    HW133440   0.314   0.073  14.772 -0.1662  0.7025  0.0836
 7268SOL    HW233441   0.262   0.128  14.649  1.4555  0.2102  0.5464
 7269SOL     OW33442   0.985   4.732  10.311  0.7006 -0.4176  0.4927
 7269SOL    HW133443   0.951   0.001  10.400 -0.6413 -0.5133 -0.0086
 7269SOL    HW233444   1.004   4.639  10.308 -0.4552 -0.6867  1.7125
 7270SOL     OW33445   3.891   2.564   4.735  0.2216  0.5040 -0.0560
 7270SOL    HW133446   3.824   2.618   4.694  0.8028  1.7282  0.6054
 7270SOL    HW233447   3.933   2.540   4.652 -0.2838  0.0383 -0.1747
 7271SOL     OW33448   1.467   3.779   3.931 -0.2202  0.1728 -0.5773
 7271SOL    HW133449   1.413   3.834   3.874 -0.5324 -0.2303 -0.6648
 7271SOL    HW233450   1.468   3.838   4.007  3.1464  1.9908 -2.0312
 7272SOL     OW33451   0.476   1.159   3.861 -0.2209  0.1162 -0.1087
 7272SOL    HW133452   0.405   1.159   3.925  0.7978  1.0350  1.0465
 7272SOL    HW233453   0.507   1.069   3.874  3.0340  1.2967  0.3274
 7273SOL     OW33454   0.006   2.944   4.325 -0.0101  0.0047 -0.0833
 7273SOL    HW133455   4.718   3.000   4.251 -1.7986 -0.9184 -0.1808
 7273SOL    HW233456   4.682   2.872   4.311 -0.5688  0.1769  1.4301
 7274SOL     OW33457   3.680   2.505   6.120  0.2595 -0.8686  0.5774
 7274SOL    HW133458   3.667   2.582   6.065 -1.0848 -1.8866 -0.5477
 7274SOL    HW233459   3.587   2.482   6.127  0.5179 -1.9249  0.5234
 7275SOL     OW33460   2.539   4.064   5.835  0.0623  0.1389  0.0695
 7275SOL    HW133461   2.608   4.105   5.887  0.2672 -0.2407  0.0982
 7275SOL    HW233462   2.590   4.000   5.785  1.6794  0.2519  1.5560
 7276SOL     OW33463   0.750   1.869   8.135  0.1656  0.4405  0.3626
 7276SOL    HW133464   0.756   1.892   8.227 -0.7526  1.2823  0.2189
 7276SOL    HW233465   0.777   1.778   8.143  1.0800  0.5486 -1.3160
 7277SOL     OW33466   3.876   3.168   4.790 -0.2649 -0.2733  0.1498
 7277SOL    HW133467   3.817   3.094   4.804  1.8935 -2.2698 -1.3573
 7277SOL    HW233468   3.922   3.144   4.709  1.6055 -0.9126  1.4259
 7278SOL     OW33469   2.262   0.334   8.259 -0.6318  0.2494  0.0990
 7278SOL    HW133470   2.281   0.411   8.207  2.3508 -0.3160  0.3531
 7278SOL    HW233471   2.168   0.340   8.279 -1.1400  0.2277 -2.2640
 7279SOL     OW33472   1.302   2.334   6.524  0.3271 -0.3375 -0.5378
 7279SOL    HW133473   1.350   2.334   6.441  0.1127  1.6548 -0.6568
 7279SOL    HW233474   1.292   2.426   6.549  2.2450 -0.5828  1.1160
 7280SOL     OW33475   1.474   1.490   4.085  0.2512 -0.2754 -1.2722
 7280SOL    HW133476   1.463   1.403   4.047  0.4670 -1.3504  1.1417
 7280SOL    HW233477   1.410   1.490   4.156 -1.0451 -0.5926 -2.4359
 7281SOL     OW33478   3.136   3.731  17.069  0.2120  0.1147  0.0667
 7281SOL    HW133479   3.179   3.653  17.105  0.6430  1.2337  1.9286
 7281SOL    HW233480   3.045   3.705  17.080  0.1579 -1.0769 -3.0272
 7282SOL     OW33481   1.055   0.867   9.233  0.2083 -0.0116 -0.4909
 7282SOL    HW133482   1.144   0.881   9.202  0.3843 -0.6826 -0.2861
 7282SOL    HW233483   1.000   0.862   9.154  0.1091  1.1628 -0.4896
 7283SOL     OW33484   1.749   2.158   7.575 -0.1059 -0.6499  0.4963
 7283SOL    HW133485   1.743   2.252   7.591 -0.9630 -0.2791 -1.9416
 7283SOL    HW233486   1.703   2.153   7.491 -0.6128  2.3368  0.6147
 7284SOL     OW33487   4.174   0.038   1.084  0.1015 -0.1626  0.4851
 7284SOL    HW133488   4.173   0.134   1.091  1.2766 -0.0858 -0.3863
 7284SOL    HW233489   4.258   0.024   1.126  0.4073 -0.9593 -0.3773
 7285SOL     OW33490   1.721   0.281   6.283  0.0842  0.5696 -0.1154
 7285SOL    HW133491   1.682   0.357   6.325  0.9427  0.5691  0.6976
 7285SOL    HW233492   1.691   0.211   6.342  1.1630  1.5254  1.5846
 7286SOL     OW33493   2.207   2.777   4.397  0.0251 -0.1852 -0.0005
 7286SOL    HW133494   2.297   2.765   4.366 -0.5219 -0.7546 -1.3450
 7286SOL    HW233495   2.175   2.845   4.338 -0.6522  0.0080  0.5868
 7287SOL     OW33496   0.567   3.249   0.292  0.1280 -0.5704 -0.1472
 7287SOL    HW133497   0.586   3.171   0.240  0.2780 -1.3720  1.1025
 7287SOL    HW233498   0.628   3.313   0.255  0.1887  1.1214  2.8202
 7288SOL     OW33499   0.194   0.991   9.746  0.5115  0.6293  0.0131
 7288SOL    HW133500   0.158   1.009   9.833 -0.9623 -0.8358 -0.2990
 7288SOL    HW233501   0.126   1.020   9.686 -0.9610 -1.5736  0.6151
 7289SOL     OW33502   3.846   2.147   7.622  0.3034  0.4075  0.0304
 7289SOL    HW133503   3.785   2.134   7.695  0.7975 -2.3135 -0.0565
 7289SOL    HW233504   3.926   2.103   7.651 -0.8546 -2.4607 -1.2050
 7290SOL     OW33505   1.779   1.597   3.299 -0.2393 -0.3250  0.3094
 7290SOL    HW133506   1.727   1.530   3.255 -0.1161  0.3775 -0.9330
 7290SOL    HW233507   1.795   1.558   3.385 -1.4711  0.9315  1.1130
 7291SOL     OW33508   3.534   2.449  14.109  0.5421  0.1161 -0.0066
 7291SOL    HW133509   3.524   2.355  14.093 -1.4686  0.9244 -3.5077
 7291SOL    HW233510   3.569   2.478  14.025 -2.0343  1.2785 -0.6511
 7292SOL     OW33511   2.828   2.859   9.735 -0.1337  0.2817  0.5929
 7292SOL    HW133512   2.898   2.794   9.741 -1.0582 -0.6982  0.7744
 7292SOL    HW233513   2.787   2.849   9.821  1.1192  0.4122  1.2111
 7293SOL     OW33514   1.850   0.489   7.337  0.5574 -0.1032 -0.3852
 7293SOL    HW133515   1.766   0.510   7.296  0.0844  0.0502  0.6823
 7293SOL    HW233516   1.831   0.399   7.361  2.6504  0.1464  2.2704
 7294SOL     OW33517   0.439   3.085   5.302  0.0781  0.1763 -0.2111
 7294SOL    HW133518   0.447   3.112   5.393 -1.6464  0.2353 -0.0604
 7294SOL    HW233519   0.497   3.149   5.262  0.3886  0.6860  1.0581
 7295SOL     OW33520   3.373   0.643   0.927  0.4606 -0.2372 -0.2925
 7295SOL    HW133521   3.279   0.628   0.940  0.1866 -1.3727 -3.4566
 7295SOL    HW233522   3.367   0.653   0.832 -0.1672 -0.4371 -0.2727
 7296SOL     OW33523   0.131   0.264   8.016  0.2624 -0.0493 -0.3790
 7296SOL    HW133524   0.211   0.295   7.975  0.8577 -0.4495  0.4858
 7296SOL    HW233525   0.074   0.241   7.942 -2.3029  0.7707  1.3224
 7297SOL     OW33526   1.073   1.718   4.976  0.7608  0.2835  0.0297
 7297SOL    HW133527   1.076   1.778   5.050  0.4094  0.2086  0.1061
 7297SOL    HW233528   1.142   1.658   5.005 -0.8163 -2.4206 -1.7729
 7298SOL     OW33529   2.914   0.931  15.318  0.2753  0.7113 -0.5294
 7298SOL    HW133530   3.000   0.972  15.313  0.1422  0.8876 -1.4102
 7298SOL    HW233531   2.861   1.002  15.283 -1.4014  0.3158  1.2030
 7299SOL     OW33532   3.112   2.586   8.336  0.2718  0.4220  0.0999
 7299SOL    HW133533   3.204   2.568   8.317  0.6322  0.1131  2.1168
 7299SOL    HW233534   3.118   2.675   8.370  2.4274 -0.5868  2.3429
 7300SOL     OW33535   0.603   4.572   2.053 -0.0208  0.3844  0.3368
 7300SOL    HW133536   0.659   4.638   2.095 -0.9850  1.3831  0.0424
 7300SOL    HW233537   0.601   4.596   1.960  2.2093 -0.3724  0.1003
 7301SOL     OW33538   1.065   3.679   4.522  0.0518 -0.0713  0.4121
 7301SOL    HW133539   1.003   3.670   4.450  2.4574  0.2735 -1.6698
 7301SOL    HW233540   1.142   3.712   4.475  0.0921 -0.7724 -0.0168
 7302SOL     OW33541   1.552   2.771   3.953 -0.3229  0.1726  0.5643
 7302SOL    HW133542   1.460   2.763   3.976 -0.1006  0.4434  1.5540
 7302SOL    HW233543   1.564   2.680   3.924 -1.2229  0.5906 -1.1426
 7303SOL     OW33544   2.594   4.327  15.393 -0.1653  0.4075  0.1157
 7303SOL    HW133545   2.586   4.232  15.404  1.3415  0.7067  3.8167
 7303SOL    HW233546   2.559   4.334  15.305  5.6050 -0.0032 -2.2352
 7304SOL     OW33547   1.502   0.209  16.459 -0.0771  0.0958 -0.4191
 7304SOL    HW133548   1.521   0.246  16.545 -3.8404  1.6591 -0.2560
 7304SOL    HW233549   1.545   0.270  16.398 -1.1079  0.4589 -0.7925
 7305SOL     OW33550   0.157   1.541   3.522  0.1396  0.7529  0.0402
 7305SOL    HW133551   0.115   1.628   3.530  0.1386  0.7608 -0.0552
 7305SOL    HW233552   0.082   1.488   3.551  2.2205 -2.2091 -0.0492
 7306SOL     OW33553   1.819   2.561   5.739  0.0168  0.1329  1.1438
 7306SOL    HW133554   1.877   2.489   5.765  0.0859 -0.2511 -0.0818
 7306SOL    HW233555   1.768   2.579   5.819  0.5738  4.2584  0.6030
 7307SOL     OW33556   0.989   3.202  13.758  0.0869  0.3165 -0.5216
 7307SOL    HW133557   0.990   3.154  13.675 -0.3127 -1.8393  0.6991
 7307SOL    HW233558   0.901   3.193  13.794 -0.0252 -1.1653 -1.1491
 7308SOL     OW33559   0.816   0.899  17.711  0.0910 -0.2300  0.7481
 7308SOL    HW133560   0.831   0.850  17.630 -0.2542  2.9988 -1.2557
 7308SOL    HW233561   0.813   0.988  17.677  0.3696 -0.7687 -0.6763
 7309SOL     OW33562   2.990   1.407   3.462 -0.4292 -0.4403  0.3706
 7309SOL    HW133563   3.040   1.461   3.524  1.5306  0.0301 -1.6145
 7309SOL    HW233564   2.907   1.453   3.453 -0.1393 -0.2369 -1.3648
 7310SOL     OW33565   0.602   0.252  10.401 -0.1944  0.3310 -0.3651
 7310SOL    HW133566   0.694   0.268  10.422 -0.3695  1.1974 -0.2519
 7310SOL    HW233567   0.551   0.252  10.482  1.3849  3.2663  0.6199
 7311SOL     OW33568   2.641   0.355   7.494  0.3271 -0.0400  0.2034
 7311SOL    HW133569   2.710   0.342   7.559 -1.0699 -1.5508  1.4162
 7311SOL    HW233570   2.662   0.445   7.470 -0.4963  0.7315  2.4200
 7312SOL     OW33571   4.511   3.873   4.114 -0.1482 -0.1613  0.2244
 7312SOL    HW133572   4.605   3.861   4.130 -0.0877 -1.4661 -1.0942
 7312SOL    HW233573   4.502   3.947   4.174  1.9465 -0.3315  0.7405
 7313SOL     OW33574   1.167   2.725  14.805  0.1310 -0.1538 -0.2870
 7313SOL    HW133575   1.173   2.658  14.737  2.2317 -1.3895  1.1063
 7313SOL    HW233576   1.210   2.798  14.759 -0.7588  1.8930  2.1570
 7314SOL     OW33577   4.321   4.158   7.264  0.2409  0.5662  0.3047
 7314SOL    HW133578   4.354   4.071   7.240  0.5856  0.5534  0.8073
 7314SOL    HW233579   4.232   4.150   7.232 -0.1671  1.5706  1.2046
 7315SOL     OW33580   3.133   1.285   4.899  0.3763 -0.1127  0.1713
 7315SOL    HW133581   3.163   1.227   4.829  1.2517 -0.8988  1.1888
 7315SOL    HW233582   3.202   1.276   4.965  1.5560 -2.6113 -1.4037
 7316SOL     OW33583   3.380   2.530   6.226 -0.7385 -0.0983  0.1204
 7316SOL    HW133584   3.418   2.617   6.233  0.2767 -0.4135 -1.3697
 7316SOL    HW233585   3.354   2.523   6.318 -0.9954 -0.2406  0.0386
 7317SOL     OW33586   3.595   1.324   9.013  0.2126 -0.1310 -0.2512
 7317SOL    HW133587   3.504   1.323   9.042 -0.0311 -0.9969 -1.0620
 7317SOL    HW233588   3.586   1.405   8.963 -0.3043  0.1981  0.3685
 7318SOL     OW33589   3.122   2.795  10.746  0.4960  0.6138 -0.0708
 7318SOL    HW133590   3.123   2.731  10.675  0.2176 -2.0491  2.3450
 7318SOL    HW233591   3.151   2.736  10.816  0.3606  0.6065 -0.0200
 7319SOL     OW33592   2.845   3.231   9.976 -0.0175 -0.9401 -0.3510
 7319SOL    HW133593   2.911   3.297   9.999 -1.1557 -0.4038  1.3861
 7319SOL    HW233594   2.903   3.169   9.930  0.2108 -0.7688 -0.2940
 7320SOL     OW33595   3.945   1.427  10.710  0.1067 -0.6943 -0.6593
 7320SOL    HW133596   3.984   1.340  10.711  0.0451 -0.7186 -0.2047
 7320SOL    HW233597   4.010   1.482  10.755 -1.1132  0.8452 -0.7859
 7321SOL     OW33598   3.893   2.577  12.353  0.0901  0.1797 -0.0129
 7321SOL    HW133599   3.858   2.565  12.265  0.1390 -0.0668  0.0007
 7321SOL    HW233600   3.986   2.565  12.335 -0.2264 -1.3656 -0.6003
 7322SOL     OW33601   4.278   1.362   8.836  0.2091  0.9724 -0.1514
 7322SOL    HW133602   4.244   1.373   8.924 -0.6837  0.9890 -0.4958
 7322SOL    HW233603   4.243   1.437   8.787 -0.2731  0.4410 -0.6174
 7323SOL     OW33604   1.513   3.724   9.768 -0.8300  0.3707 -0.4219
 7323SOL    HW133605   1.435   3.696   9.815 -2.5890  3.9116 -1.2085
 7323SOL    HW233606   1.519   3.815   9.797 -0.2640 -0.0629  0.8490
 7324SOL     OW33607   0.683   1.143   3.221  0.0833 -0.0452  0.2893
 7324SOL    HW133608   0.588   1.138   3.225  0.3291 -3.7810  1.0172
 7324SOL    HW233609   0.690   1.165   3.128  0.1567  2.2757  0.8328
 7325SOL     OW33610   0.753   0.066  14.678 -0.0063 -0.4642 -0.2936
 7325SOL    HW133611   0.713   4.734  14.624 -3.8072 -0.4761  2.5442
 7325SOL    HW233612   0.799   0.013  14.744  0.2708 -0.2966 -0.3532
 7326SOL     OW33613   2.544   0.503  11.723 -0.0211 -0.3443 -0.3446
 7326SOL    HW133614   2.448   0.504  11.719  0.0482  2.7371 -1.6601
 7326SOL    HW233615   2.563   0.491  11.816 -2.4335 -0.5787  0.1275
 7327SOL     OW33616   0.975   0.188   6.696  0.0891  0.3926  0.2983
 7327SOL    HW133617   1.044   0.244   6.661  0.0233  1.0098  1.1488
 7327SOL    HW233618   0.909   0.204   6.629 -0.3897  0.1896  0.7170
 7328SOL     OW33619   1.614   2.471   4.001  0.4581  0.1780  0.2438
 7328SOL    HW133620   1.584   2.384   3.976 -0.0259  0.4903 -0.2496
 7328SOL    HW233621   1.707   2.448   3.998  1.2883  3.3516  1.4078
 7329SOL     OW33622   0.868   3.364   5.781 -0.2555 -0.3831 -0.2011
 7329SOL    HW133623   0.852   3.350   5.874 -2.2006  2.8612 -0.0549
 7329SOL    HW233624   0.962   3.350   5.775 -0.3733 -1.0740 -0.3804
 7330SOL     OW33625   1.700   3.035   7.310  0.1161  0.3196 -0.2022
 7330SOL    HW133626   1.746   3.110   7.347  0.3057  0.6455 -1.0965
 7330SOL    HW233627   1.767   2.968   7.322 -0.7780 -0.3451  1.0713
 7331SOL     OW33628   1.607   3.752   4.765  0.0879 -0.0147  0.0717
 7331SOL    HW133629   1.538   3.777   4.704  1.5450  1.7138 -0.8640
 7331SOL    HW233630   1.567   3.709   4.841  1.2537 -1.6412 -0.2184
 7332SOL     OW33631   0.791   1.943   2.559  0.2882  0.1636 -0.3633
 7332SOL    HW133632   0.700   1.934   2.589 -0.4219  1.7375 -2.0335
 7332SOL    HW233633   0.792   1.864   2.505  2.2708  0.1044 -0.2487
 7333SOL     OW33634   1.875   3.136   9.669  0.2483 -0.1587  0.5768
 7333SOL    HW133635   1.939   3.192   9.714 -0.8200  0.9111  0.7661
 7333SOL    HW233636   1.926   3.105   9.594  1.5705  0.0401  1.3862
 7334SOL     OW33637   0.983   1.295   8.569  0.1159 -0.3654  0.1381
 7334SOL    HW133638   1.065   1.329   8.531 -0.4063  0.3900 -0.3204
 7334SOL    HW233639   1.017   1.220   8.617 -2.8383 -2.3865 -0.9516
 7335SOL     OW33640   2.641   3.025   7.311 -0.6344 -0.1400  0.4559
 7335SOL    HW133641   2.727   2.991   7.338  0.3340  2.4689  0.7180
 7335SOL    HW233642   2.671   3.111   7.281  1.9482 -0.8179  1.0738
 7336SOL     OW33643   1.372   2.800   8.009 -0.1979 -0.2526  0.3440
 7336SOL    HW133644   1.427   2.851   7.949  0.5064 -0.8487  0.4955
 7336SOL    HW233645   1.374   2.868   8.076  1.3613 -0.8202  0.8757
 7337SOL     OW33646   3.446   1.964  15.527  0.2061  0.1057 -0.4644
 7337SOL    HW133647   3.425   2.057  15.521  2.2792  0.5938 -0.1505
 7337SOL    HW233648   3.483   1.956  15.439  2.3233 -1.1690  0.5615
 7338SOL     OW33649   1.640   2.862  13.220 -0.2738 -0.0866  0.4939
 7338SOL    HW133650   1.639   2.768  13.202  2.3971 -0.0461  0.1101
 7338SOL    HW233651   1.548   2.886  13.212 -0.5093 -1.2946 -0.4674
 7339SOL     OW33652   4.142   1.163   8.487  0.0180 -0.4238 -0.0260
 7339SOL    HW133653   4.137   1.133   8.577 -2.3395  0.8817  0.2637
 7339SOL    HW233654   4.234   1.190   8.490  0.5555 -2.0863 -1.4703
 7340SOL     OW33655   4.402   2.042   4.821  0.1506  0.1067  0.6782
 7340SOL    HW133656   4.486   1.996   4.816  0.5326  0.9183 -0.6411
 7340SOL    HW233657   4.401   2.074   4.911 -1.8214  1.4454  0.1687
 7341SOL     OW33658   3.948   0.404   8.279 -0.2256  0.1984  0.0062
 7341SOL    HW133659   3.857   0.414   8.308  0.1641  2.6045  0.3965
 7341SOL    HW233660   3.962   0.310   8.289  1.0326  0.4322  0.4251
 7342SOL     OW33661   1.691   1.857   2.118  0.0193  0.4876 -0.1756
 7342SOL    HW133662   1.783   1.834   2.106  0.1805  0.7324  0.5569
 7342SOL    HW233663   1.694   1.888   2.209 -0.5544  1.1746 -0.3979
 7343SOL     OW33664   3.553   3.728  16.970 -0.0782 -0.0190  0.1644
 7343SOL    HW133665   3.487   3.792  16.943 -0.6896 -0.4665  0.6222
 7343SOL    HW233666   3.626   3.744  16.910  0.1548 -0.4989  0.3231
 7344SOL     OW33667   2.638   2.399   0.339 -0.4755  0.6216  0.8203
 7344SOL    HW133668   2.671   2.332   0.399  1.2078  0.9125  0.2157
 7344SOL    HW233669   2.688   2.475   0.370  0.9961  0.0639 -0.1706
 7345SOL     OW33670   0.989   1.346  15.144 -0.0757 -0.2439 -0.4456
 7345SOL    HW133671   1.009   1.278  15.208  1.3314 -0.1613 -0.8078
 7345SOL    HW233672   1.063   1.339  15.084 -0.0168  1.1139 -0.5483
 7346SOL     OW33673   3.662   3.330  15.414 -0.3662  0.3029 -0.3635
 7346SOL    HW133674   3.663   3.234  15.410 -0.5437  0.2383  0.9900
 7346SOL    HW233675   3.581   3.362  15.377 -0.6666 -2.7832 -2.3848
 7347SOL     OW33676   2.828   3.964   3.097  0.1539  0.4496 -0.3684
 7347SOL    HW133677   2.868   3.893   3.147 -1.5795 -0.0571  0.2962
 7347SOL    HW233678   2.736   3.940   3.104  0.0697  0.3327 -1.9046
 7348SOL     OW33679   4.558   2.612   8.555  0.7646  0.5264  0.0915
 7348SOL    HW133680   4.576   2.588   8.646 -1.2049 -2.3062 -0.2696
 7348SOL    HW233681   4.467   2.640   8.550 -0.3487 -2.7678  1.8697
 7349SOL     OW33682   0.644   3.095   8.048  0.4042  0.1658  0.0044
 7349SOL    HW133683   0.683   3.010   8.029  0.4697  0.7147 -2.2531
 7349SOL    HW233684   0.583   3.102   7.974 -2.0366 -1.0059  1.8909
 7350SOL     OW33685   0.858   3.477  11.678  0.1324 -0.3858 -0.0673
 7350SOL    HW133686   0.802   3.493  11.753  0.3415 -1.3339  0.2966
 7350SOL    HW233687   0.784   3.456  11.620  0.9246 -0.9676 -0.8810
 7351SOL     OW33688   3.870   3.351  10.225  0.4680 -0.4748 -0.3369
 7351SOL    HW133689   3.853   3.274  10.279  1.0040  0.0229  0.5387
 7351SOL    HW233690   3.862   3.311  10.138 -0.4063  1.4225 -1.1312
 7352SOL     OW33691   1.084   2.813   5.744  0.3456  0.2722 -0.6066
 7352SOL    HW133692   1.066   2.876   5.814 -0.5588 -1.4418  0.6797
 7352SOL    HW233693   1.065   2.728   5.783 -1.1435  0.4566 -0.9412
 7353SOL     OW33694   1.906   4.134   6.649 -0.1898 -0.2777  0.2062
 7353SOL    HW133695   1.930   4.069   6.716 -1.4609 -0.7504  0.1887
 7353SOL    HW233696   1.922   4.084   6.569 -0.2324  0.6374 -0.3771
 7354SOL     OW33697   2.813   1.475   6.504 -0.4219  0.0881 -0.6505
 7354SOL    HW133698   2.896   1.476   6.456 -1.4033 -1.2950 -2.3934
 7354SOL    HW233699   2.773   1.530   6.437  0.9793  0.2885 -1.3296
 7355SOL     OW33700   2.519   4.277  13.909  0.0195 -0.1908  0.6320
 7355SOL    HW133701   2.583   4.279  13.837 -1.0397  1.8511 -0.2601
 7355SOL    HW233702   2.561   4.338  13.969  1.5397  0.3421 -0.9560
 7356SOL     OW33703   2.198   1.818  10.599  0.8039  0.0219  0.2426
 7356SOL    HW133704   2.106   1.823  10.625  1.4746 -1.0589  2.8212
 7356SOL    HW233705   2.245   1.774  10.670  0.6937  0.3927  0.5478
 7357SOL     OW33706   1.274   0.113  10.623 -0.1681  0.2314  0.4904
 7357SOL    HW133707   1.318   0.048  10.678  0.8123 -0.6543 -1.3828
 7357SOL    HW233708   1.335   0.118  10.550 -0.1074 -1.4610  0.4285
 7358SOL     OW33709   3.278   0.756   5.711  0.1649  0.4567 -0.0527
 7358SOL    HW133710   3.311   0.790   5.794 -3.0920  0.9027  1.0394
 7358SOL    HW233711   3.332   0.809   5.653 -0.3241  0.1074 -0.8223
 7359SOL     OW33712   1.520   0.874  12.463 -0.5826 -0.4597 -0.2215
 7359SOL    HW133713   1.577   0.890  12.388  1.4362  0.9641  1.6334
 7359SOL    HW233714   1.484   0.961  12.479  0.8155  0.1019 -0.1195
 7360SOL     OW33715   3.723   2.418   0.399 -0.4930  0.0291 -0.1367
 7360SOL    HW133716   3.710   2.370   0.481 -0.3779  0.1278 -0.0618
 7360SOL    HW233717   3.665   2.494   0.407 -0.6690 -0.1079 -0.1129
 7361SOL     OW33718   0.829   0.063   4.087  0.3529  0.3557 -0.0240
 7361SOL    HW133719   0.777   0.103   4.017  2.5972 -0.6286 -2.2952
 7361SOL    HW233720   0.814   4.705   4.076  2.2729  0.2318 -1.5419
 7362SOL     OW33721   2.000   4.233   8.184  0.3259 -0.0871 -0.2928
 7362SOL    HW133722   2.069   4.167   8.194 -0.7825 -1.2946 -0.6105
 7362SOL    HW233723   2.044   4.312   8.216 -0.4413  1.0320 -2.0007
 7363SOL     OW33724   1.425   0.278  17.650  0.8974  0.9951  0.1597
 7363SOL    HW133725   1.337   0.298  17.618  0.8886 -1.3178 -1.2926
 7363SOL    HW233726   1.457   0.262  17.561  0.1283  1.0134 -0.1127
 7364SOL     OW33727   4.056   2.043   3.035 -0.0120  0.1218  0.6760
 7364SOL    HW133728   4.047   2.128   2.992  2.4644  0.5819  1.0929
 7364SOL    HW233729   4.146   2.024   3.011 -0.2968 -0.6357  0.1988
 7365SOL     OW33730   2.021   1.497  14.927  0.8092  0.1768 -0.2521
 7365SOL    HW133731   2.047   1.432  14.862  2.8021 -1.0321  1.7417
 7365SOL    HW233732   1.964   1.554  14.876 -1.5058  0.2089  2.3476
 7366SOL     OW33733   3.585   2.325   5.844  0.9767  0.5169  0.3568
 7366SOL    HW133734   3.541   2.273   5.911 -0.3375 -0.0778 -0.9748
 7366SOL    HW233735   3.517   2.391   5.834 -0.2947 -0.7783  0.5075
 7367SOL     OW33736   2.833   2.653  11.388  0.2213  0.6159  0.2612
 7367SOL    HW133737   2.818   2.698  11.471  2.1645  1.0142  0.3774
 7367SOL    HW233738   2.890   2.582  11.417  0.6144  0.3524 -1.1842
 7368SOL     OW33739   1.479   2.074   7.913  0.2208  0.0517 -0.0972
 7368SOL    HW133740   1.478   2.157   7.866  1.1201  0.5884  0.8394
 7368SOL    HW233741   1.433   2.101   7.993 -0.4046 -1.4847  0.0563
 7369SOL     OW33742   1.032   0.260   2.915  0.0074 -0.0587  0.1186
 7369SOL    HW133743   0.978   0.304   2.981  1.6761  2.1889  0.0106
 7369SOL    HW233744   1.001   0.175   2.946 -2.0336  0.5603 -0.2505
 7370SOL     OW33745   0.020   4.441   9.185 -0.0554 -0.1846 -0.4103
 7370SOL    HW133746   4.669   4.404   9.173  0.2245 -1.5853  1.8344
 7370SOL    HW233747   0.086   4.374   9.167  1.1118  0.7087  0.5428
 7371SOL     OW33748   1.829   1.159   8.341  0.8370  0.3472  0.0892
 7371SOL    HW133749   1.841   1.199   8.254 -5.0597  0.9807 -0.4381
 7371SOL    HW233750   1.917   1.130   8.364  0.0902 -2.6490 -0.8130
 7372SOL     OW33751   2.230   0.271   2.965 -0.0564  0.0105 -0.0375
 7372SOL    HW133752   2.230   0.309   3.052  0.1086 -1.2440  0.5126
 7372SOL    HW233753   2.263   0.184   2.987  1.2724  0.4136 -0.4257
 7373SOL     OW33754   1.879   1.829   9.069  0.1341  0.1052  0.1695
 7373SOL    HW133755   1.843   1.884   9.000 -1.3021  0.9702  1.5916
 7373SOL    HW233756   1.918   1.894   9.126  3.1041 -1.4794 -0.0542
 7374SOL     OW33757   0.066   2.082   7.190  0.0862 -0.6254  0.1681
 7374SOL    HW133758   0.110   2.016   7.243 -0.1817 -0.8372  0.1317
 7374SOL    HW233759   0.137   2.145   7.181  0.7864 -1.5264 -0.6662
 7375SOL     OW33760   1.464   1.358   3.530  0.3425  0.2855 -0.2745
 7375SOL    HW133761   1.443   1.450   3.514 -0.5156  0.1212 -0.0858
 7375SOL    HW233762   1.476   1.359   3.625 -0.7261  1.2721 -0.1622
 7376SOL     OW33763   4.495   0.205  14.043 -0.6062 -0.0043  0.1322
 7376SOL    HW133764   4.443   0.165  13.974  0.6392  1.1841 -1.4806
 7376SOL    HW233765   4.435   0.257  14.096 -0.1637 -0.1002  0.7336
 7377SOL     OW33766   0.455   1.105   5.378  0.7268 -0.1269 -0.0022
 7377SOL    HW133767   0.376   1.056   5.398  1.1051 -0.1582  1.4771
 7377SOL    HW233768   0.516   1.051   5.428 -0.0430 -3.4104 -2.5774
 7378SOL     OW33769   4.724   4.318   2.678 -0.5957  0.1692  0.3180
 7378SOL    HW133770   0.075   4.356   2.686 -0.4253 -0.1191 -0.2160
 7378SOL    HW233771   0.013   4.237   2.635 -2.1378  0.4350 -1.0682
 7379SOL     OW33772   0.066   1.426   5.432  0.3169 -0.2735 -0.4083
 7379SOL    HW133773   0.147   1.454   5.390  0.8148  0.5634  1.1187
 7379SOL    HW233774   0.001   1.472   5.379 -0.4247 -1.7835 -0.8031
 7380SOL     OW33775   1.124   0.773  17.386 -0.4151  0.5251  0.4301
 7380SOL    HW133776   1.183   0.846  17.405 -0.7387  0.2808  2.3413
 7380SOL    HW233777   1.071   0.810  17.316  1.6584 -1.0557 -1.9964
 7381SOL     OW33778   2.353   4.140   4.258  0.5223 -0.3064  0.0015
 7381SOL    HW133779   2.372   4.076   4.190  1.8072  0.4214 -0.3133
 7381SOL    HW233780   2.257   4.145   4.250  0.4095  0.4241  1.7879
 7382SOL     OW33781   3.702   2.878   5.367  0.0320  0.0726 -0.0105
 7382SOL    HW133782   3.617   2.873   5.410 -0.6872 -0.1548 -1.4771
 7382SOL    HW233783   3.769   2.902   5.431  0.5904 -0.4696 -0.3949
 7383SOL     OW33784   2.237   3.011   2.202 -0.3056 -0.1229  0.0606
 7383SOL    HW133785   2.311   3.054   2.245 -1.0876  0.4802  0.8157
 7383SOL    HW233786   2.282   2.977   2.125  1.5180 -0.1798  1.1371
 7384SOL     OW33787   1.541   0.335  16.691 -0.0251  0.0282 -0.0459
 7384SOL    HW133788   1.626   0.339  16.736 -1.5530  0.3166  2.8234
 7384SOL    HW233789   1.484   0.352  16.766  0.7225  2.0706  0.0540
 7385SOL     OW33790   2.770   0.012   9.361 -0.2184 -0.0999 -0.1103
 7385SOL    HW133791   2.737   4.661   9.382 -0.5617 -0.1067 -0.6790
 7385SOL    HW233792   2.838   4.717   9.301  0.0354  0.3474 -0.0536
 7386SOL     OW33793   4.478   2.034  12.799 -0.4056 -0.6913  0.4643
 7386SOL    HW133794   4.388   2.006  12.785 -0.1121 -0.9762 -0.8382
 7386SOL    HW233795   4.489   1.982  12.879 -0.6754 -2.8553 -0.9093
 7387SOL     OW33796   2.302   2.871   4.000  0.0442  0.6161 -0.7776
 7387SOL    HW133797   2.336   2.818   3.928 -0.8763  0.4665 -1.1004
 7387SOL    HW233798   2.226   2.913   3.961 -0.2897  0.8105  0.0889
 7388SOL     OW33799   2.581   2.716   9.615  0.3501 -0.2118  0.5228
 7388SOL    HW133800   2.664   2.678   9.586  0.7441  3.0072 -2.4688
 7388SOL    HW233801   2.584   2.811   9.605 -0.5600 -0.3196 -0.7922
 7389SOL     OW33802   3.693   4.201  16.014 -0.0650 -0.0235 -0.6699
 7389SOL    HW133803   3.620   4.218  15.955 -0.8388 -0.9591  0.0181
 7389SOL    HW233804   3.767   4.190  15.954  0.9369 -0.7413  0.6983
 7390SOL     OW33805   4.361   4.717   7.249 -0.3999  0.1888  0.7244
 7390SOL    HW133806   4.454   4.719   7.223 -0.7547  0.5478 -0.5199
 7390SOL    HW233807   4.340   4.626   7.231 -1.1351  0.5139 -0.0602
 7391SOL     OW33808   2.031   2.263   4.494  0.2855  0.1906 -0.8362
 7391SOL    HW133809   1.945   2.303   4.488 -0.6317 -1.5847  0.3810
 7391SOL    HW233810   2.091   2.336   4.512  0.1153  0.1300  0.0098
 7392SOL     OW33811   0.288   0.888   3.664 -0.2422  0.0744 -0.0548
 7392SOL    HW133812   0.219   0.953   3.678 -0.7058 -0.9528  2.3834
 7392SOL    HW233813   0.355   0.904   3.730  0.8203 -1.3131 -0.8025
 7393SOL     OW33814   4.652   2.247  11.371  0.0381 -0.1943 -0.4357
 7393SOL    HW133815   4.724   2.309  11.381 -0.3775 -0.1057  2.2444
 7393SOL    HW233816   4.663   2.211  11.284 -1.4832 -0.2508 -0.6034
 7394SOL     OW33817   2.001   0.687   1.951  0.1864 -0.3362  0.2013
 7394SOL    HW133818   1.922   0.679   1.898 -0.1119  0.9997  0.4370
 7394SOL    HW233819   2.008   0.604   1.997 -0.9250 -0.4981  0.0647
 7395SOL     OW33820   2.756   2.993   8.537  0.2576  0.1337 -0.3262
 7395SOL    HW133821   2.813   2.928   8.576  0.0265  0.2536  0.2066
 7395SOL    HW233822   2.775   3.069   8.592  2.7485 -0.7307 -0.0320
 7396SOL     OW33823   3.667   3.037   5.160 -0.0947  0.6107 -0.1478
 7396SOL    HW133824   3.675   2.959   5.214 -1.9142  0.1218 -0.5718
 7396SOL    HW233825   3.716   3.098   5.215  0.5180  0.1260 -0.1548
 7397SOL     OW33826   0.592   0.256   4.202 -0.4883 -0.2408  0.1975
 7397SOL    HW133827   0.620   0.206   4.126 -0.9241  1.1567 -0.9007
 7397SOL    HW233828   0.526   0.196   4.235  0.0995 -0.7644  0.4046
 7398SOL     OW33829   4.240   2.224  17.678  0.7303  0.8529  0.6355
 7398SOL    HW133830   4.223   2.133  17.705 -0.5332  1.1728  0.8990
 7398SOL    HW233831   4.229   2.225  17.583 -2.2142  0.4258  0.9713
 7399SOL     OW33832   4.275   0.479   7.020  0.1930 -0.2354  0.3701
 7399SOL    HW133833   4.228   0.557   6.990 -0.3656 -1.5687 -2.2605
 7399SOL    HW233834   4.367   0.501   7.032 -0.0287  1.3971 -0.9529
 7400SOL     OW33835   1.887   2.281   3.592 -0.0090 -0.2783 -0.3888
 7400SOL    HW133836   1.949   2.216   3.627 -0.1789  0.4124  1.1967
 7400SOL    HW233837   1.941   2.347   3.550 -0.3290  1.0637  1.3358
 7401SOL     OW33838   0.972   1.748  12.850  0.4850 -0.0496 -0.2460
 7401SOL    HW133839   0.947   1.701  12.771 -2.4860 -0.7702  1.1390
 7401SOL    HW233840   0.905   1.713  12.909 -1.8190  4.1726 -0.4289
 7402SOL     OW33841   0.719   3.815   4.453 -0.2756  0.7887  0.7255
 7402SOL    HW133842   0.804   3.855   4.465  0.1679 -0.0858  0.5156
 7402SOL    HW233843   0.755   3.731   4.425  0.9344  1.3125  0.7139
 7403SOL     OW33844   1.592   2.906   4.303  0.2951  0.3842 -0.8376
 7403SOL    HW133845   1.605   2.944   4.217 -0.5344 -1.1213 -1.6243
 7403SOL    HW233846   1.677   2.863   4.312  1.2093  2.2341 -0.5771
 7404SOL     OW33847   1.817   1.447   7.485  0.3239 -0.5650  0.3319
 7404SOL    HW133848   1.907   1.448   7.452  1.1159  0.3928  2.4723
 7404SOL    HW233849   1.841   1.486   7.569 -0.8856  2.6729 -0.8415
 7405SOL     OW33850   4.559   3.529   3.859  0.4188  0.1700  0.0770
 7405SOL    HW133851   4.530   3.479   3.783 -0.2328 -1.8896  1.7032
 7405SOL    HW233852   4.554   3.621   3.833  0.5059  0.0629 -0.3152
 7406SOL     OW33853   3.438   3.243   3.201  0.4519  0.5488  0.1853
 7406SOL    HW133854   3.413   3.320   3.251  0.0282  1.4478 -1.3841
 7406SOL    HW233855   3.425   3.168   3.258  0.6246 -0.0665 -0.5795
 7407SOL     OW33856   2.114   2.805   4.641 -0.1401  0.4397  0.3745
 7407SOL    HW133857   2.038   2.749   4.656 -0.9876  1.4577 -0.1263
 7407SOL    HW233858   2.131   2.807   4.547 -0.8370 -4.9218  0.1310
 7408SOL     OW33859   1.765   2.713   2.661  0.0597  0.0984 -0.6853
 7408SOL    HW133860   1.693   2.701   2.723  0.9969 -0.3211  0.3201
 7408SOL    HW233861   1.732   2.677   2.579  0.8325 -4.3108  0.9550
 7409SOL     OW33862   1.412   1.230   7.045  0.7321 -0.0695 -0.4033
 7409SOL    HW133863   1.506   1.234   7.063  0.5660  2.2947 -0.0459
 7409SOL    HW233864   1.388   1.223   7.137  1.1904  0.1840 -0.2658
 7410SOL     OW33865   0.988   1.118  11.132  0.4315 -0.2995 -0.1267
 7410SOL    HW133866   0.935   1.175  11.187 -0.8410 -0.2791 -1.3997
 7410SOL    HW233867   0.948   1.031  11.135 -1.6541  0.6963  0.9001
 7411SOL     OW33868   0.512   4.612  17.214 -0.6495 -0.3268 -0.0840
 7411SOL    HW133869   0.605   4.597  17.199 -0.1093  2.3526  0.6404
 7411SOL    HW233870   0.524   4.663  17.294  0.8975  3.0457 -2.4760
 7412SOL     OW33871   0.092   4.716   5.647 -0.2052 -0.3836  0.1536
 7412SOL    HW133872   0.090   4.713   5.743  0.0928  1.3055  0.2084
 7412SOL    HW233873   0.072   4.625   5.625 -1.2535 -0.5140  1.6633
 7413SOL     OW33874   3.949   0.894   2.834 -0.0439  0.4622 -0.0715
 7413SOL    HW133875   3.881   0.878   2.898 -0.3343 -1.1379 -0.7783
 7413SOL    HW233876   3.917   0.973   2.789 -3.0620  1.1033  3.2357
 7414SOL     OW33877   3.945   2.801   2.939 -0.1190 -0.0487  0.1716
 7414SOL    HW133878   3.943   2.850   3.021  1.1954  2.9408 -1.5785
 7414SOL    HW233879   4.036   2.826   2.920  0.2459 -1.5160 -0.0557
 7415SOL     OW33880   3.953   0.578   0.605 -0.1191 -0.0024 -0.1259
 7415SOL    HW133881   3.889   0.509   0.586 -0.0262 -0.2902  0.6098
 7415SOL    HW233882   4.017   0.567   0.535 -0.3717 -3.3501  0.1787
 7416SOL     OW33883   3.185   2.785   2.457  0.1317  0.1662 -0.4040
 7416SOL    HW133884   3.274   2.763   2.433  1.5179  1.0223  3.9884
 7416SOL    HW233885   3.133   2.737   2.392 -0.1010 -0.7344  0.4453
 7417SOL     OW33886   3.300   4.167   3.959 -0.3006  0.3748 -0.4264
 7417SOL    HW133887   3.205   4.162   3.965  0.0675 -1.3020  4.4350
 7417SOL    HW233888   3.311   4.157   3.865 -0.8493  0.2683 -0.4814
 7418SOL     OW33889   4.593   3.842   3.801 -0.0100 -0.1128  0.0249
 7418SOL    HW133890   4.688   3.844   3.791 -0.0745  0.1886 -0.5193
 7418SOL    HW233891   4.579   3.911   3.866 -2.1119 -0.6397  0.1365
 7419SOL     OW33892   0.840   1.780   6.654  0.1369 -0.2584  0.5596
 7419SOL    HW133893   0.756   1.826   6.656 -0.4224 -1.1930 -1.3260
 7419SOL    HW233894   0.841   1.749   6.745  0.4261 -0.4066  0.5062
 7420SOL     OW33895   4.080   2.957  17.727 -0.2054 -0.1983 -0.1960
 7420SOL    HW133896   4.142   2.891   0.017  1.9935  1.5791 -0.7720
 7420SOL    HW233897   3.996   2.912  17.734  0.5330 -1.4587  0.8482
 7421SOL     OW33898   0.915   3.630   3.844  0.1401 -0.2321 -0.2898
 7421SOL    HW133899   0.931   3.679   3.764  3.1212 -0.5220  0.1462
 7421SOL    HW233900   0.837   3.661   3.891 -0.9324 -2.5393 -0.5173
 7422SOL     OW33901   1.257   0.329   0.525 -0.2814 -0.1743  0.2210
 7422SOL    HW133902   1.227   0.240   0.539 -0.5799 -0.0449  0.4016
 7422SOL    HW233903   1.278   0.356   0.614  0.2899  2.4438 -0.6885
 7423SOL     OW33904   0.035   2.827   8.099 -0.4610  0.3709 -0.0813
 7423SOL    HW133905   0.028   2.874   8.182 -1.5363 -0.9899  0.5902
 7423SOL    HW233906   0.009   2.900   8.042 -0.4704  1.2601  1.0770
 7424SOL     OW33907   2.517   0.709  15.886  0.1252 -0.0269  0.5359
 7424SOL    HW133908   2.509   0.797  15.922 -0.1598 -0.3255  1.2082
 7424SOL    HW233909   2.531   0.663  15.968  2.8601 -0.2800 -0.0863
 7425SOL     OW33910   1.112   1.857  14.041  0.3698  0.5859  0.2187
 7425SOL    HW133911   1.132   1.950  14.052  0.0545  0.3701  2.5574
 7425SOL    HW233912   1.017   1.846  14.053  0.3706  2.2087  1.6661
 7426SOL     OW33913   2.034   2.636  17.571  0.0748  0.0708 -0.0878
 7426SOL    HW133914   2.056   2.712  17.625  0.4285 -0.4459  0.4945
 7426SOL    HW233915   2.028   2.673  17.484  0.5253 -0.3173 -0.2845
 7427SOL     OW33916   2.985   0.447   6.871 -0.4888  0.2413 -0.1737
 7427SOL    HW133917   3.054   0.508   6.899  0.1458  0.6879 -2.7687
 7427SOL    HW233918   3.005   0.363   6.912 -0.8523  0.5245  0.5990
 7428SOL     OW33919   0.838   2.911   6.107  0.1204 -0.1800  0.3251
 7428SOL    HW133920   0.850   2.820   6.131 -3.7681 -0.9128 -0.5270
 7428SOL    HW233921   0.910   2.921   6.044  0.8021 -0.6601  1.0277
 7429SOL     OW33922   3.859   0.147   7.650 -0.4756  0.0066 -0.2416
 7429SOL    HW133923   3.862   0.175   7.558 -0.5825  0.5001 -0.0958
 7429SOL    HW233924   3.948   0.161   7.681 -0.7340 -0.1769  0.5845
 7430SOL     OW33925   2.971   2.117  10.196  0.5245  0.0339 -0.2094
 7430SOL    HW133926   2.967   2.189  10.259 -1.7442 -0.0947 -0.2266
 7430SOL    HW233927   2.920   2.152  10.123  0.2503 -1.0152 -0.5155
 7431SOL     OW33928   3.652   1.446   6.973 -0.3955  0.5811 -0.3075
 7431SOL    HW133929   3.611   1.514   6.920  0.2335 -0.1608 -1.7578
 7431SOL    HW233930   3.587   1.421   7.039 -1.8932 -0.2309 -2.0970
 7432SOL     OW33931   1.322   3.511   4.343 -0.6327  0.3296 -0.1472
 7432SOL    HW133932   1.365   3.441   4.391 -0.9124 -0.1079 -0.5313
 7432SOL    HW233933   1.395   3.572   4.355 -0.7676  0.7873 -1.5268
 7433SOL     OW33934   1.051   0.544  12.396  0.1114  0.6205 -0.2410
 7433SOL    HW133935   1.092   0.545  12.310  0.2287 -0.0029 -0.1891
 7433SOL    HW233936   0.958   0.550  12.375 -0.6932 -0.1923  3.0442
 7434SOL     OW33937   4.606   4.315   3.627 -0.2765  0.3355 -0.4410
 7434SOL    HW133938   4.512   4.315   3.609 -1.1379 -0.7591  4.1148
 7434SOL    HW233939   4.630   4.254   3.556 -1.1118  0.2090 -0.6098
 7435SOL     OW33940   1.561   3.853   5.255  0.3363 -0.3720 -0.5330
 7435SOL    HW133941   1.649   3.880   5.281  1.0436 -1.8155 -1.3914
 7435SOL    HW233942   1.530   3.813   5.336  0.2013  2.2533  0.7004
 7436SOL     OW33943   0.239   3.164   7.766 -0.4400  0.2766 -0.1600
 7436SOL    HW133944   0.246   3.100   7.696  4.0308  0.7470 -0.1502
 7436SOL    HW233945   0.328   3.180   7.796 -0.5227 -0.6717  0.5966
 7437SOL     OW33946   2.437   0.068   3.048  0.0114  0.3200  0.1385
 7437SOL    HW133947   2.404   4.734   2.992  1.5746  0.5374 -1.0600
 7437SOL    HW233948   2.474   0.129   2.985 -0.8041 -0.6263 -1.2581
 7438SOL     OW33949   0.496   0.673   0.723  0.0593 -0.5027 -0.4361
 7438SOL    HW133950   0.451   0.598   0.685  0.6857  0.3213 -2.7969
 7438SOL    HW233951   0.457   0.749   0.679 -2.2063 -0.3179  1.9254
 7439SOL     OW33952   4.299   1.297  10.003 -0.5000 -0.3466 -0.4239
 7439SOL    HW133953   4.256   1.297  10.089 -1.6942  1.0442 -1.0214
 7439SOL    HW233954   4.331   1.387  10.003 -1.8503  0.1423 -0.7978
 7440SOL     OW33955   1.087   3.013   9.246 -0.1471 -0.0612  0.1060
 7440SOL    HW133956   1.178   2.985   9.240 -0.0788  0.2925 -0.4781
 7440SOL    HW233957   1.044   2.945   9.193 -0.3087 -2.4565  3.2567
 7441SOL     OW33958   3.325   2.452   5.951 -0.0897  0.2359 -0.2586
 7441SOL    HW133959   3.339   2.493   6.036  1.9907 -0.4278 -0.2863
 7441SOL    HW233960   3.239   2.412   5.963  1.2854 -2.1119  1.7736
 7442SOL     OW33961   1.377   3.091  17.118 -0.2357 -0.4302 -0.0567
 7442SOL    HW133962   1.330   3.127  17.043  0.8137 -0.2634 -0.6297
 7442SOL    HW233963   1.320   3.114  17.192  0.3661  0.4251  0.1366
 7443SOL     OW33964   4.402   3.326  16.428 -0.1236  0.0208  0.0336
 7443SOL    HW133965   4.311   3.299  16.443 -0.0562 -1.7808 -2.8370
 7443SOL    HW233966   4.404   3.319  16.333 -0.8513  0.5743 -0.0209
 7444SOL     OW33967   0.188   4.586  12.311 -0.3832  0.2288  0.2722
 7444SOL    HW133968   0.223   4.530  12.242 -4.6554  0.1895 -1.8614
 7444SOL    HW233969   0.224   4.548  12.391  0.3790 -0.7344 -0.5238
 7445SOL     OW33970   0.153   4.494   4.497  0.1248 -0.1496 -0.2605
 7445SOL    HW133971   0.142   4.429   4.427 -0.5746  1.6739 -1.8652
 7445SOL    HW233972   0.243   4.480   4.524 -0.2862 -3.6494 -0.6682
 7446SOL     OW33973   3.701   3.738   2.166  0.2414  0.5949 -0.3014
 7446SOL    HW133974   3.631   3.676   2.185  0.4973  0.6547  0.8509
 7446SOL    HW233975   3.773   3.675   2.163  0.4337  0.7851  0.2166
 7447SOL     OW33976   3.746   1.065   2.361 -0.1065  0.5203  0.3490
 7447SOL    HW133977   3.808   1.009   2.407 -1.3478 -0.8165  0.4052
 7447SOL    HW233978   3.672   1.090   2.416  0.5755  2.2623  0.4609
 7448SOL     OW33979   0.838   2.656   6.965  0.6771 -0.3830 -0.4666
 7448SOL    HW133980   0.809   2.680   6.877  1.8464 -0.1331 -0.7825
 7448SOL    HW233981   0.856   2.739   7.009 -0.3029  0.2630 -1.2834
 7449SOL     OW33982   1.111   3.795  10.808 -0.0561  0.0590 -0.3686
 7449SOL    HW133983   1.017   3.774  10.805 -0.3679  1.2347  1.3996
 7449SOL    HW233984   1.155   3.748  10.737 -1.5208 -1.1075 -0.5315
 7450SOL     OW33985   3.802   2.621   7.071 -0.4233  0.2440  0.1777
 7450SOL    HW133986   3.724   2.575   7.101  0.9003 -2.2947 -0.2991
 7450SOL    HW233987   3.865   2.549   7.063  0.4424  0.7619  2.4106
 7451SOL     OW33988   0.770   3.637   9.834  0.1343  0.5612 -0.0251
 7451SOL    HW133989   0.814   3.653   9.751  3.3805  1.8110  1.9158
 7451SOL    HW233990   0.709   3.568   9.809  0.8479 -0.2488  0.4664
 7452SOL     OW33991   0.925   3.160   4.307 -0.0690  0.0313 -0.4566
 7452SOL    HW133992   0.849   3.142   4.362  0.3560 -1.9629 -0.5263
 7452SOL    HW233993   0.957   3.073   4.284  2.3195  0.4754  1.1509
 7453SOL     OW33994   4.403   4.062   8.682 -0.3051 -0.4140 -0.4274
 7453SOL    HW133995   4.407   3.966   8.686  0.1045 -0.3964 -0.4419
 7453SOL    HW233996   4.370   4.091   8.767  0.0574 -2.5560  0.4495
 7454SOL     OW33997   1.465   1.298   4.374 -0.2785 -0.0839  0.1338
 7454SOL    HW133998   1.547   1.284   4.327 -0.8022 -0.5469 -0.6401
 7454SOL    HW233999   1.439   1.206   4.380 -0.8936  0.2153  1.9992
 7455SOL     OW34000   4.632   2.230   0.770 -0.0503  0.1116  0.2293
 7455SOL    HW134001   4.673   2.237   0.856  0.1313  1.2281  0.0578
 7455SOL    HW234002   4.680   2.303   0.731  0.8622 -0.3569  0.4932
 7456SOL     OW34003   4.288   3.453   4.212  0.3473 -0.0185 -0.3057
 7456SOL    HW134004   4.220   3.396   4.176  0.6614 -1.4045  1.3370
 7456SOL    HW234005   4.304   3.505   4.133 -1.4566  1.9033  0.5791
 7457SOL     OW34006   3.589   0.144  14.306 -0.5539 -0.1634  0.6621
 7457SOL    HW134007   3.545   0.186  14.232  0.1474 -1.0346 -0.2322
 7457SOL    HW234008   3.634   0.225  14.331  0.1826  0.4600 -2.7571
 7458SOL     OW34009   2.577   3.230   6.500 -0.2123 -0.0581 -0.6247
 7458SOL    HW134010   2.660   3.191   6.473 -0.0258  0.8609 -1.4121
 7458SOL    HW234011   2.580   3.208   6.593 -1.6080 -1.4660 -0.9219
 7459SOL     OW34012   3.870   1.735   6.892 -0.4300  0.0235  0.2022
 7459SOL    HW134013   3.865   1.831   6.887  0.6610  0.1674  2.2601
 7459SOL    HW234014   3.828   1.716   6.975  0.2562 -1.7956  0.1257
 7460SOL     OW34015   3.170   3.398   1.022 -0.1682  0.2331  0.0437
 7460SOL    HW134016   3.122   3.479   1.039 -0.9337 -0.2662  0.2709
 7460SOL    HW234017   3.158   3.348   1.102 -0.4606  0.0751 -0.1007
 7461SOL     OW34018   0.419   3.854   6.088 -0.0234 -0.1594  0.4230
 7461SOL    HW134019   0.364   3.926   6.055  0.8071  0.4030  0.2696
 7461SOL    HW234020   0.404   3.867   6.182 -0.3581  1.9172  0.0784
 7462SOL     OW34021   2.677   1.909   1.161  0.4579  0.3597 -0.2652
 7462SOL    HW134022   2.618   1.887   1.233 -0.5849 -1.2215 -1.5925
 7462SOL    HW234023   2.754   1.859   1.186  0.2504  0.0572 -0.2272
 7463SOL     OW34024   4.484   0.517   9.042 -0.2985  0.1069 -0.1599
 7463SOL    HW134025   4.535   0.492   9.119  0.1066 -0.3702 -0.5855
 7463SOL    HW234026   4.508   0.610   9.037  0.2458  0.0183  0.7781
 7464SOL     OW34027   0.654   4.642   7.406  0.2395 -0.2307 -0.6023
 7464SOL    HW134028   0.618   4.716   7.455  0.9698 -0.3874  0.1662
 7464SOL    HW234029   0.660   4.567   7.465 -0.5463  0.0686 -0.1468
 7465SOL     OW34030   2.664   3.638   3.021  0.1264 -0.0531  0.7363
 7465SOL    HW134031   2.609   3.596   3.088  0.1451  0.3023  0.9704
 7465SOL    HW234032   2.750   3.602   3.044  0.8466  0.9443 -0.3944
 7466SOL     OW34033   2.551   0.305   5.988 -0.3202 -0.1403  0.6749
 7466SOL    HW134034   2.611   0.336   5.920 -0.3270 -0.9451  0.2968
 7466SOL    HW234035   2.588   0.218   6.002  0.6013  0.0303 -0.6927
 7467SOL     OW34036   1.037   0.353  14.778 -0.2572  0.1214  0.0231
 7467SOL    HW134037   1.044   0.396  14.863  0.4301  1.4539 -0.6946
 7467SOL    HW234038   1.119   0.305  14.781 -0.3512 -0.0312  0.1610
 7468SOL     OW34039   3.234   4.400   8.452  0.2559  0.0601  0.1972
 7468SOL    HW134040   3.161   4.416   8.392  1.8062 -1.4013 -2.0605
 7468SOL    HW234041   3.309   4.446   8.413 -0.6187  0.7400 -0.6764
 7469SOL     OW34042   3.254   0.587  11.139 -0.1796 -0.1060 -0.6616
 7469SOL    HW134043   3.210   0.503  11.153  0.1456 -0.1973 -0.2237
 7469SOL    HW234044   3.236   0.634  11.220 -1.1320 -4.0542  1.4369
 7470SOL     OW34045   2.206   2.394   7.312  0.6127  0.2744 -0.3242
 7470SOL    HW134046   2.132   2.339   7.287  1.8366 -1.3697 -0.3851
 7470SOL    HW234047   2.243   2.347   7.386 -2.0402 -2.7264 -0.9120
 7471SOL     OW34048   4.001   1.181   3.014 -0.1616 -0.4544  0.3908
 7471SOL    HW134049   3.985   1.138   3.098 -0.3666  0.1546  0.6635
 7471SOL    HW234050   4.096   1.191   3.022 -0.0630 -0.0810 -1.0845
 7472SOL     OW34051   1.999   0.427  11.742  0.1231  0.1999  0.5348
 7472SOL    HW134052   1.934   0.390  11.683 -2.6388  2.2203  2.2884
 7472SOL    HW234053   1.980   0.373  11.818  1.2282  0.3995  0.9522
 7473SOL     OW34054   1.573   2.224  15.448  0.1721 -0.5133  0.4166
 7473SOL    HW134055   1.560   2.212  15.542  0.7382  1.7343  0.7985
 7473SOL    HW234056   1.563   2.132  15.426 -0.2846 -0.5750  0.8774
 7474SOL     OW34057   0.560   0.880   5.186 -0.6970  0.4423 -0.4099
 7474SOL    HW134058   0.597   0.914   5.105 -0.5201  1.9989  0.3185
 7474SOL    HW234059   0.556   0.960   5.239  1.6479  1.0610 -1.1402
 7475SOL     OW34060   2.814   1.589   1.360 -0.2189  0.1850 -0.3868
 7475SOL    HW134061   2.770   1.518   1.406 -0.1213  1.5941  1.9160
 7475SOL    HW234062   2.843   1.647   1.431  2.4500  0.5283 -1.7582
 7476SOL     OW34063   3.184   1.283   9.899  0.5361  0.1794  0.2226
 7476SOL    HW134064   3.177   1.207   9.842 -2.3112 -1.3189  2.5814
 7476SOL    HW234065   3.101   1.285   9.946  0.4956  0.2236  0.1477
 7477SOL     OW34066   3.377   2.535   8.305  0.5493  0.0029  0.0568
 7477SOL    HW134067   3.423   2.475   8.246  0.5310  0.0435  0.0013
 7477SOL    HW234068   3.434   2.608   8.280 -1.6160  1.5372 -0.4148
 7478SOL     OW34069   3.221   4.717   7.038  0.1805  0.6016  0.4610
 7478SOL    HW134070   3.239   0.066   6.999 -0.9822 -0.1498 -1.6941
 7478SOL    HW234071   3.138   4.693   6.996 -0.6820  2.0434  1.3245
 7479SOL     OW34072   2.377   3.908   5.234 -0.0354  0.4381 -0.3903
 7479SOL    HW134073   2.316   3.847   5.194 -0.9777  0.8502  0.4266
 7479SOL    HW234074   2.389   3.864   5.318  2.1462  1.2559 -0.2712
 7480SOL     OW34075   1.492   3.220   3.801  0.5032 -0.1470  0.3279
 7480SOL    HW134076   1.549   3.296   3.803  0.2229  0.0966 -1.4788
 7480SOL    HW234077   1.404   3.259   3.796  0.2658 -0.6251  0.7586
 7481SOL     OW34078   4.330   4.520   4.644 -0.6907 -0.9719  0.7491
 7481SOL    HW134079   4.239   4.493   4.630 -0.0796 -2.3198 -0.7607
 7481SOL    HW234080   4.370   4.440   4.679  1.6037  0.5036  1.4920
 7482SOL     OW34081   3.202   3.257  17.098  0.3792  0.3755 -0.6418
 7482SOL    HW134082   3.120   3.251  17.049 -1.0654  2.2874  1.5213
 7482SOL    HW234083   3.263   3.234  17.028  1.9313  1.0930  0.4934
 7483SOL     OW34084   3.211   0.964   5.464 -0.3869  0.0745 -0.4963
 7483SOL    HW134085   3.209   0.933   5.373  3.4209  2.5259 -1.4061
 7483SOL    HW234086   3.287   1.023   5.460  0.8949 -1.4870  0.5458
 7484SOL     OW34087   1.280   1.705  12.860 -0.1830 -0.2340  0.1194
 7484SOL    HW134088   1.279   1.783  12.804 -0.2174  0.5700  1.2571
 7484SOL    HW234089   1.186   1.709  12.879  0.0668  0.6003  1.1577
 7485SOL     OW34090   4.438   0.428   5.850  0.3755  0.3775  0.6351
 7485SOL    HW134091   4.440   0.358   5.915  1.6032 -0.9413 -0.7796
 7485SOL    HW234092   4.399   0.499   5.899  0.0285 -0.1312  1.0994
 7486SOL     OW34093   3.480   2.933  10.690 -0.4249  0.7524 -0.3962
 7486SOL    HW134094   3.516   3.016  10.723  1.5706 -0.5685  0.7047
 7486SOL    HW234095   3.555   2.912  10.635 -1.1143  0.0669 -1.0872
 7487SOL     OW34096   2.274   0.690  17.653  0.1596 -0.0043  0.2571
 7487SOL    HW134097   2.328   0.720  17.579 -1.8108 -1.3286 -1.7000
 7487SOL    HW234098   2.314   0.731  17.730 -0.6611 -1.0216  1.2322
 7488SOL     OW34099   3.755   2.102  15.761 -0.2289 -0.2516 -0.0296
 7488SOL    HW134100   3.751   2.173  15.697  0.6442  1.2147  1.5418
 7488SOL    HW234101   3.704   2.137  15.835 -1.3665 -0.2227 -0.8291
 7489SOL     OW34102   3.164   2.414   4.418  0.3032 -0.0535 -0.2030
 7489SOL    HW134103   3.257   2.399   4.400 -0.1284 -1.9148 -0.7914
 7489SOL    HW234104   3.175   2.459   4.502  2.9663  0.6399 -0.9259
 7490SOL     OW34105   0.484   1.178   1.882  0.0826  0.5471  0.4081
 7490SOL    HW134106   0.496   1.255   1.939 -1.5700  0.2342  1.1726
 7490SOL    HW234107   0.519   1.210   1.798  0.7569 -0.7048  0.2090
 7491SOL     OW34108   1.031   2.074   2.302  0.3481 -0.5999  0.1027
 7491SOL    HW134109   1.052   2.041   2.389  0.9788 -1.3469 -0.3322
 7491SOL    HW234110   1.111   2.060   2.251  1.2070  0.6439  1.1399
 7492SOL     OW34111   4.730   0.585  10.155  0.2332 -0.2530 -0.1931
 7492SOL    HW134112   0.039   0.599  10.072 -0.1491  0.4553 -0.2788
 7492SOL    HW234113   4.659   0.649  10.149  1.7400  1.5019  0.6723
 7493SOL     OW34114   0.825   2.312   5.893 -0.2377  0.0117  0.6508
 7493SOL    HW134115   0.732   2.314   5.912  0.0186 -2.4627  2.2355
 7493SOL    HW234116   0.846   2.403   5.913 -1.2420  0.1744  0.9286
 7494SOL     OW34117   3.668   3.003   4.872  0.6884 -0.0283 -0.3798
 7494SOL    HW134118   3.626   2.919   4.892 -0.3113  0.4054 -0.6773
 7494SOL    HW234119   3.674   3.042   4.959  1.0035 -2.6570  0.8048
 7495SOL     OW34120   4.133   0.300   1.130  1.1673 -0.2196 -0.2252
 7495SOL    HW134121   4.164   0.388   1.150 -0.6568  0.6736 -1.3381
 7495SOL    HW234122   4.114   0.272   1.219 -0.2353 -0.3820 -0.5809
 7496SOL     OW34123   1.334   3.745   1.509 -0.5824 -0.1841  0.6065
 7496SOL    HW134124   1.336   3.839   1.490  0.9272 -0.0735  1.3405
 7496SOL    HW234125   1.402   3.743   1.576  0.5870  1.4440 -0.5136
 7497SOL     OW34126   4.126   1.629   3.429 -0.1348 -0.4796 -0.0885
 7497SOL    HW134127   4.172   1.690   3.487 -1.9249 -2.1119  3.0785
 7497SOL    HW234128   4.047   1.616   3.482 -0.7209 -0.0987 -0.8722
 7498SOL     OW34129   4.393   1.170   2.117 -0.4088 -0.1777  0.0227
 7498SOL    HW134130   4.339   1.113   2.062 -1.0568 -0.4491  0.9532
 7498SOL    HW234131   4.340   1.249   2.110 -0.1490 -0.0474 -0.4391
 7499SOL     OW34132   3.244   3.448  16.473  0.1495 -0.4372  0.2276
 7499SOL    HW134133   3.311   3.382  16.489  0.9452  0.6418  1.4357
 7499SOL    HW234134   3.251   3.461  16.379 -0.8717  0.9376  0.3301
 7500SOL     OW34135   0.065   3.279   1.577  0.1182 -0.0496  0.2420
 7500SOL    HW134136   0.136   3.236   1.529 -0.2962 -2.5955  1.8940
 7500SOL    HW234137   4.723   3.286   1.523 -1.3010 -1.4879  2.0861
 7501SOL     OW34138   1.678   0.519   2.484 -0.4420 -0.2160  0.1663
 7501SOL    HW134139   1.719   0.602   2.508  2.0721 -1.0904 -1.0599
 7501SOL    HW234140   1.725   0.509   2.401 -2.4281 -3.5532 -0.5537
 7502SOL     OW34141   1.235   0.969   9.621 -0.1294 -0.2550 -0.7810
 7502SOL    HW134142   1.221   1.043   9.562  0.9612  1.0896  0.6221
 7502SOL    HW234143   1.324   0.994   9.646 -0.5870 -1.6429  2.2428
 7503SOL     OW34144   1.873   0.353   0.765 -0.5332 -0.5187  0.3321
 7503SOL    HW134145   1.815   0.282   0.736  0.5509 -1.5155  0.6168
 7503SOL    HW234146   1.809   0.420   0.790  2.3290  1.1994  2.9126
 7504SOL     OW34147   1.513   0.465   4.969  0.2263 -0.4010 -0.3244
 7504SOL    HW134148   1.495   0.544   4.917 -0.6927  0.0605  0.6807
 7504SOL    HW234149   1.465   0.410   4.906  1.0953  0.7468 -2.0046
 7505SOL     OW34150   2.355   2.371   3.548 -0.3988 -0.5342  0.0425
 7505SOL    HW134151   2.273   2.360   3.500  0.0264 -3.8300  0.0748
 7505SOL    HW234152   2.372   2.278   3.562  1.1094 -0.5933 -2.2014
 7506SOL     OW34153   0.564   3.521   3.112 -0.4547  0.0046 -0.2122
 7506SOL    HW134154   0.550   3.607   3.071  1.5181 -0.3689 -1.6664
 7506SOL    HW234155   0.625   3.478   3.053  0.2395  0.8356 -0.0978
 7507SOL     OW34156   3.833   4.528   4.206 -0.2818 -0.1245  0.8724
 7507SOL    HW134157   3.905   4.578   4.244  0.9367 -0.8726 -0.4517
 7507SOL    HW234158   3.803   4.591   4.140 -0.2633 -0.1874  0.8034
 7508SOL     OW34159   2.068   0.509   1.692  0.0146 -0.3748 -0.1555
 7508SOL    HW134160   2.075   0.523   1.786 -1.1366 -2.1900  0.2158
 7508SOL    HW234161   1.979   0.542   1.674  0.4556  1.4130  0.9709
 7509SOL     OW34162   2.110   0.486   4.335 -0.0053  0.4533  0.3739
 7509SOL    HW134163   2.178   0.543   4.370  1.1774 -0.0057 -1.1412
 7509SOL    HW234164   2.033   0.534   4.364 -1.0699  0.2694 -2.1875
 7510SOL     OW34165   3.316   4.126   3.497  0.0095 -0.2351 -0.2094
 7510SOL    HW134166   3.351   4.061   3.437  2.6271  1.1759 -0.1854
 7510SOL    HW234167   3.334   4.202   3.442  2.1371 -0.1960  0.5294
 7511SOL     OW34168   0.775   3.272  12.116  0.5649  0.1530  0.0829
 7511SOL    HW134169   0.808   3.182  12.113 -0.8612 -0.4123  1.9611
 7511SOL    HW234170   0.821   3.301  12.194 -1.0064  0.3936  0.9109
 7512SOL     OW34171   1.283   4.191  10.872 -0.5518 -0.1112  0.1672
 7512SOL    HW134172   1.282   4.109  10.922 -1.3339 -0.2670 -0.1110
 7512SOL    HW234173   1.232   4.161  10.797 -2.1504  2.4938  0.2053
 7513SOL     OW34174   0.115   2.221   1.963 -0.2386  0.4308  0.4769
 7513SOL    HW134175   0.119   2.272   2.043 -1.2288  1.4710 -0.1400
 7513SOL    HW234176   0.104   2.291   1.899  0.4202  0.7225  0.6829
 7514SOL     OW34177   4.234   1.392   0.167  0.2354  0.9470  0.3473
 7514SOL    HW134178   4.152   1.397   0.216  0.6556  0.7619  1.0604
 7514SOL    HW234179   4.279   1.320   0.211  0.4504 -0.1985 -1.7469
 7515SOL     OW34180   0.978   3.055  14.453 -0.3400  0.4230  0.2721
 7515SOL    HW134181   0.912   3.000  14.410 -1.3847  2.6524 -0.9648
 7515SOL    HW234182   0.955   3.147  14.439 -4.2191 -0.7165 -0.7921
 7516SOL     OW34183   1.953   3.590   4.175 -0.1596 -0.0101  0.0781
 7516SOL    HW134184   2.001   3.591   4.257  0.2803 -0.9460 -0.1716
 7516SOL    HW234185   2.008   3.529   4.125  0.5218  0.6445  0.0278
 7517SOL     OW34186   0.098   3.074  10.237 -0.6690 -0.1054  0.0419
 7517SOL    HW134187   0.008   3.070  10.267 -0.2678 -1.5387  1.0296
 7517SOL    HW234188   0.084   3.058  10.144  0.9681 -2.0700  0.1371
 7518SOL     OW34189   0.592   2.694  16.761 -0.3429 -0.0060  0.2935
 7518SOL    HW134190   0.501   2.712  16.785 -0.7573  1.9612 -2.8271
 7518SOL    HW234191   0.638   2.747  16.825  0.5399 -1.9725  1.2957
 7519SOL     OW34192   3.835   0.390  11.475  0.5581  0.4723 -0.4687
 7519SOL    HW134193   3.914   0.373  11.424 -0.0930 -0.8206 -1.0364
 7519SOL    HW234194   3.803   0.467  11.428  0.5128  1.3340  0.9599
 7520SOL     OW34195   4.260   1.275  11.285 -0.6621  0.1074  0.5198
 7520SOL    HW134196   4.222   1.327  11.355  1.8281  0.9438  1.2390
 7520SOL    HW234197   4.316   1.348  11.259 -1.4736  0.9466  1.0916
 7521SOL     OW34198   1.580   1.855   1.131 -0.4046  0.3665  0.2093
 7521SOL    HW134199   1.535   1.902   1.062 -0.2684 -0.0326 -0.1485
 7521SOL    HW234200   1.639   1.800   1.079  1.3703  3.3175 -0.8537
 7522SOL     OW34201   0.406   1.329  11.664 -0.1567 -0.3594  0.1730
 7522SOL    HW134202   0.355   1.271  11.720 -1.0553 -0.4349 -0.7194
 7522SOL    HW234203   0.406   1.276  11.585 -1.2516 -0.3596  0.1859
 7523SOL     OW34204   1.764   2.646   9.572  0.2545  0.2915  0.1129
 7523SOL    HW134205   1.760   2.609   9.660 -0.8062  2.5062  0.9788
 7523SOL    HW234206   1.732   2.734   9.591  0.2951  0.5367 -0.9431
 7524SOL     OW34207   3.133   3.000  15.840  0.1238 -0.6388 -0.0451
 7524SOL    HW134208   3.093   3.068  15.785  0.4171 -0.0125  0.5228
 7524SOL    HW234209   3.060   2.978  15.898  0.4804 -2.9870 -0.4858
 7525SOL     OW34210   3.281   4.141   4.409  0.0377 -0.2314  0.1356
 7525SOL    HW134211   3.192   4.114   4.387 -0.1535  1.5810 -1.2955
 7525SOL    HW234212   3.318   4.065   4.364  1.2336  0.4342 -0.0075
 7526SOL     OW34213   2.204   3.467  17.187 -0.2988 -0.5086  0.5585
 7526SOL    HW134214   2.298   3.465  17.170 -0.5026  2.4389 -0.8779
 7526SOL    HW234215   2.185   3.555  17.220  0.2966 -0.3921  0.5835
 7527SOL     OW34216   2.483   1.658  12.403  0.1993 -0.2910  0.2094
 7527SOL    HW134217   2.389   1.674  12.398  0.0913 -0.9439  0.1796
 7527SOL    HW234218   2.482   1.572  12.360 -0.3923 -0.1808  0.0030
 7528SOL     OW34219   1.568   2.110   7.371  0.3551  0.0556  0.9768
 7528SOL    HW134220   1.520   2.188   7.398  3.5112  1.5678  2.1923
 7528SOL    HW234221   1.539   2.106   7.280  2.8621 -0.7911  0.2154
 7529SOL     OW34222   4.663   2.027  11.588 -0.7009  0.0568 -0.0675
 7529SOL    HW134223   0.016   2.041  11.619 -0.2938 -0.7979 -0.8812
 7529SOL    HW234224   4.655   2.101  11.529  0.6176  0.3218  0.0859
 7530SOL     OW34225   3.835   1.572   5.041  0.0242  0.2411 -0.0762
 7530SOL    HW134226   3.907   1.545   5.099 -0.7816 -0.8997  0.3895
 7530SOL    HW234227   3.764   1.544   5.099  0.7404 -1.6234 -0.1026
 7531SOL     OW34228   3.897   0.466   4.236 -0.0336 -0.2554 -0.1803
 7531SOL    HW134229   3.953   0.436   4.307 -1.4285 -0.2786  0.8948
 7531SOL    HW234230   3.821   0.497   4.285  0.6386 -0.4213  0.9711
 7532SOL     OW34231   4.105   4.219   8.721  0.3809 -0.2791 -0.4909
 7532SOL    HW134232   4.118   4.192   8.812  1.3030  0.4385 -0.4142
 7532SOL    HW234233   4.111   4.314   8.729  0.7095 -0.2528 -1.0888
 7533SOL     OW34234   0.833   2.790   4.701  0.3786  0.6085 -0.0711
 7533SOL    HW134235   0.745   2.765   4.674  0.2307  0.9944  0.0553
 7533SOL    HW234236   0.840   2.716   4.762  0.4600  0.9342  0.3166
 7534SOL     OW34237   0.797   2.687   7.362  0.2293  0.9154  0.1641
 7534SOL    HW134238   0.887   2.658   7.352 -0.1924 -0.3924  0.1609
 7534SOL    HW234239   0.809   2.773   7.404 -1.4017  1.0904  0.2906
 7535SOL     OW34240   2.233   1.194   6.919 -0.5886 -0.3826  0.1612
 7535SOL    HW134241   2.196   1.158   6.839  2.0036 -1.8999 -0.3254
 7535SOL    HW234242   2.176   1.270   6.932  0.0847  0.0384  0.6542
 7536SOL     OW34243   0.588   0.374   9.975 -0.4045  0.2846  0.3706
 7536SOL    HW134244   0.651   0.342  10.040 -0.1552  0.7827  0.3736
 7536SOL    HW234245   0.593   0.308   9.907  0.8019  1.3458 -0.5606
 7537SOL     OW34246   4.540   3.267   3.253 -0.0942 -0.6561 -0.1942
 7537SOL    HW134247   4.547   3.190   3.310 -0.6877 -0.2070  0.4802
 7537SOL    HW234248   4.447   3.260   3.229 -0.1897  0.1124 -0.0252
 7538SOL     OW34249   0.850   3.882   6.121 -0.4557  0.3321  0.5507
 7538SOL    HW134250   0.932   3.891   6.170  0.6575 -1.1581 -1.0709
 7538SOL    HW234251   0.787   3.893   6.193  0.4026  0.5468  1.2746
 7539SOL     OW34252   3.260   1.100   2.284  0.6220  0.1491 -0.1297
 7539SOL    HW134253   3.278   1.007   2.271  0.6477  0.1970 -0.4148
 7539SOL    HW234254   3.165   1.090   2.285  0.6724 -0.2872  4.0104
 7540SOL     OW34255   3.019   3.963   8.476  0.3572 -0.4838  0.2815
 7540SOL    HW134256   3.056   3.951   8.388 -2.9144 -0.6728 -1.0729
 7540SOL    HW234257   3.026   4.058   8.483 -1.6351 -0.4218  1.3533
 7541SOL     OW34258   2.421   4.602   3.535  0.7533 -0.0543 -0.3880
 7541SOL    HW134259   2.498   4.627   3.484  0.1760 -1.3370 -1.8940
 7541SOL    HW234260   2.374   4.553   3.467  0.7883 -0.7384  0.0769
 7542SOL     OW34261   1.816   1.416   5.633 -0.6333 -0.7769 -0.0680
 7542SOL    HW134262   1.775   1.420   5.546  0.5876  0.3310 -0.5831
 7542SOL    HW234263   1.782   1.333   5.668 -0.1844 -1.2964 -0.8670
 7543SOL     OW34264   2.500   2.228   3.192 -0.0919 -0.3230  0.0864
 7543SOL    HW134265   2.410   2.249   3.167  0.0322  3.0293  2.4417
 7543SOL    HW234266   2.537   2.298   3.137  0.7983 -1.1721 -0.3858
 7544SOL     OW34267   2.724   2.164   0.467 -0.2848  0.1694  0.6501
 7544SOL    HW134268   2.673   2.151   0.546 -0.7534 -2.5869 -0.1124
 7544SOL    HW234269   2.777   2.085   0.463 -1.8481 -0.8453 -0.1542
 7545SOL     OW34270   4.677   0.447   1.661 -0.1061 -0.1099 -0.7437
 7545SOL    HW134271   0.016   0.483   1.708 -1.6618  2.1642 -0.0148
 7545SOL    HW234272   4.615   0.455   1.734  0.3660  2.6826 -0.6567
 7546SOL     OW34273   3.888   3.002   7.164  0.4288  0.0667 -0.1561
 7546SOL    HW134274   3.953   3.070   7.183 -0.2025  0.5683  0.2017
 7546SOL    HW234275   3.816   3.028   7.222 -0.0457  1.8199 -1.5205
 7547SOL     OW34276   3.333   2.652  14.094  0.5751 -0.0565  0.0910
 7547SOL    HW134277   3.367   2.648  14.183 -1.1148 -1.2816  0.6721
 7547SOL    HW234278   3.378   2.574  14.063  0.7310  0.5162 -1.1420
 7548SOL     OW34279   0.742   0.691   2.204 -0.3178 -0.2611 -0.3845
 7548SOL    HW134280   0.724   0.684   2.110  0.1363  3.5265 -0.7815
 7548SOL    HW234281   0.824   0.642   2.203  0.2628  0.7171 -2.3980
 7549SOL     OW34282   3.140   2.777   1.232 -0.2315  0.7690  0.1519
 7549SOL    HW134283   3.047   2.795   1.217 -0.1265  1.5374  0.4625
 7549SOL    HW234284   3.150   2.799   1.324  2.9881 -1.8244  0.4240
 7550SOL     OW34285   0.493   0.550  12.791  0.7881  0.1165 -0.3311
 7550SOL    HW134286   0.417   0.605  12.772  0.6187  0.6149  1.7962
 7550SOL    HW234287   0.551   0.582  12.722  2.0662  0.4095  0.9046
 7551SOL     OW34288   3.353   0.804   1.431  0.3296 -0.6949  0.1921
 7551SOL    HW134289   3.379   0.796   1.339  0.6293 -1.3428  0.3274
 7551SOL    HW234290   3.259   0.818   1.421  0.5694 -0.0361 -1.2309
 7552SOL     OW34291   2.173   1.876   5.049  0.1498 -0.9320  0.2941
 7552SOL    HW134292   2.238   1.943   5.028 -1.5771  1.5777  2.9837
 7552SOL    HW234293   2.231   1.803   5.074  1.0386 -0.5461 -0.6502
 7553SOL     OW34294   2.630   3.330   4.850 -0.0262  0.2233 -0.7550
 7553SOL    HW134295   2.693   3.392   4.814  1.2884 -0.7485 -0.1274
 7553SOL    HW234296   2.556   3.388   4.866  1.4783  1.2556  2.3533
 7554SOL     OW34297   2.465   0.586   4.732 -0.5611  0.2056 -0.1500
 7554SOL    HW134298   2.385   0.617   4.689 -0.7052 -0.2757 -0.2238
 7554SOL    HW234299   2.445   0.624   4.817  0.4943 -2.2452  1.1761
 7555SOL     OW34300   3.000   0.812   5.582  0.3450  0.1299 -0.2699
 7555SOL    HW134301   3.044   0.816   5.667  2.0230  2.4144 -1.2665
 7555SOL    HW234302   3.062   0.850   5.519  1.4423 -0.7302  0.2865
 7556SOL     OW34303   4.377   2.629   4.061  0.0624 -0.2484  0.5314
 7556SOL    HW134304   4.316   2.649   4.132  0.5726  0.4108  0.7920
 7556SOL    HW234305   4.354   2.685   3.988  0.1019 -1.1759 -0.1897
 7557SOL     OW34306   3.945   2.995   4.585 -0.4629  0.3685  0.4443
 7557SOL    HW134307   3.998   3.050   4.528  2.2814  0.6574  3.2786
 7557SOL    HW234308   4.010   2.935   4.623  1.4253  1.6352 -0.7891
 7558SOL     OW34309   0.320   4.729   9.431 -0.0007 -0.1483  0.3293
 7558SOL    HW134310   0.338   4.640   9.462  1.2501  0.1493  0.4509
 7558SOL    HW234311   0.226   0.011   9.443  0.0197 -0.8607  1.5771
 7559SOL     OW34312   1.911   0.194  16.471  0.3164  0.1185  0.4809
 7559SOL    HW134313   1.933   0.214  16.562 -0.9715  0.8942  0.6248
 7559SOL    HW234314   1.989   0.141  16.455 -0.1129 -1.3445  3.1643
 7560SOL     OW34315   1.734   1.070   2.351  0.1453  0.3054  0.0887
 7560SOL    HW134316   1.785   1.139   2.308 -0.3207  0.3023 -0.4719
 7560SOL    HW234317   1.650   1.114   2.346  0.1741  0.5613  1.6924
 7561SOL     OW34318   3.849   4.002   2.765 -0.5604  0.4235  0.9363
 7561SOL    HW134319   3.874   4.062   2.695  1.0826 -0.7324  0.5163
 7561SOL    HW234320   3.769   4.042   2.799 -0.7616  0.2163  0.7126
 7562SOL     OW34321   0.227   1.757   7.683 -0.4794  0.1586  0.1604
 7562SOL    HW134322   0.298   1.702   7.716 -1.1372 -0.3993  0.6528
 7562SOL    HW234323   0.256   1.846   7.704 -0.9177  0.0805  1.1014
 7563SOL     OW34324   1.216   1.475   1.902  0.1019  0.6276 -0.5953
 7563SOL    HW134325   1.177   1.388   1.907 -1.3940  1.3126 -0.5013
 7563SOL    HW234326   1.216   1.478   1.806 -1.5560  0.7723 -0.5908
 7564SOL     OW34327   1.472   2.548  17.354  0.9733  0.1438  0.2788
 7564SOL    HW134328   1.463   2.643  17.349  0.0549  0.1635  2.3077
 7564SOL    HW234329   1.521   2.523  17.275 -2.4839  2.6803 -2.6461
 7565SOL     OW34330   4.096   4.727   3.911  0.1228 -0.0958 -0.6303
 7565SOL    HW134331   4.102   4.671   3.834  1.1994 -1.3557  0.3750
 7565SOL    HW234332   4.178   4.701   3.952  0.1616  2.1432  0.6993
 7566SOL     OW34333   3.012   4.201   7.548 -0.7595  0.6150  0.2989
 7566SOL    HW134334   3.010   4.157   7.633 -3.6526 -1.3280 -0.7933
 7566SOL    HW234335   2.999   4.122   7.494  0.7305  0.6692 -0.1695
 7567SOL     OW34336   4.550   0.316   7.307  0.1281 -0.5671 -0.7454
 7567SOL    HW134337   4.561   0.226   7.338  0.9163 -0.1546  0.1761
 7567SOL    HW234338   4.485   0.352   7.367  0.4881 -1.0382 -0.0747
 7568SOL     OW34339   1.882   0.314   5.783 -0.1115 -0.0424  0.1318
 7568SOL    HW134340   1.856   0.233   5.739  0.3489 -0.0709 -0.0923
 7568SOL    HW234341   1.872   0.296   5.876 -2.1742  2.4657  0.4063
 7569SOL     OW34342   2.994   0.336   6.349  0.1171  0.4588 -0.3749
 7569SOL    HW134343   3.054   0.382   6.290  1.3860  0.1871  0.7113
 7569SOL    HW234344   3.041   0.354   6.430 -0.6430  1.1007 -0.0750
 7570SOL     OW34345   2.010   1.781   4.640 -0.4800  0.3095 -0.5864
 7570SOL    HW134346   2.007   1.800   4.734 -2.5404 -1.7120 -0.2446
 7570SOL    HW234347   2.105   1.771   4.632 -0.0796  2.9563  0.6997
 7571SOL     OW34348   0.628   2.916   5.961  0.1799  0.2346  0.2735
 7571SOL    HW134349   0.663   2.944   5.877 -0.0344  0.8563  0.3915
 7571SOL    HW234350   0.707   2.926   6.014 -0.3757  0.3692  1.0916
 7572SOL     OW34351   2.001   4.147  11.421 -0.5051  0.3909 -0.2190
 7572SOL    HW134352   2.058   4.116  11.491 -2.2361 -1.0677  0.5450
 7572SOL    HW234353   2.069   4.190  11.370 -0.4817 -0.5941 -1.0180
 7573SOL     OW34354   2.031   1.649   5.232  0.3308  0.4436 -0.0793
 7573SOL    HW134355   1.949   1.610   5.264  0.6578  0.0607  0.3012
 7573SOL    HW234356   2.045   1.609   5.146 -0.5722 -0.6337  0.2719
 7574SOL     OW34357   3.463   0.005   1.284 -0.2643  0.0538  0.4965
 7574SOL    HW134358   3.421   4.692   1.213  2.2144  1.4244 -1.9520
 7574SOL    HW234359   3.497   4.672   1.340  0.4467 -1.0517 -1.2867
 7575SOL     OW34360   1.709   1.189   7.134  0.0512  0.3463 -0.3864
 7575SOL    HW134361   1.749   1.273   7.156 -0.4344  0.3195  0.5686
 7575SOL    HW234362   1.712   1.152   7.222  1.5529  0.4701 -0.3728
 7576SOL     OW34363   1.501   4.359   2.233 -0.4240 -0.9016  0.1563
 7576SOL    HW134364   1.529   4.381   2.322 -0.5117  0.9404 -0.2681
 7576SOL    HW234365   1.538   4.271   2.231 -1.7858 -1.4691 -0.3839
 7577SOL     OW34366   0.368   4.420   0.080 -0.8426 -0.4857 -0.5618
 7577SOL    HW134367   0.439   4.475   0.050 -0.6369 -0.9436 -0.9097
 7577SOL    HW234368   0.402   4.366   0.151  2.2554  2.0774 -0.1436
 7578SOL     OW34369   3.391   2.924   9.738 -0.0002 -0.0006  0.1592
 7578SOL    HW134370   3.470   2.872   9.724  0.6717  0.7732  1.0481
 7578SOL    HW234371   3.357   2.871   9.810  2.3457 -0.5206  0.9028
 7579SOL     OW34372   4.077   1.026   4.949  0.4609  0.0884 -0.2676
 7579SOL    HW134373   3.988   1.040   4.916  0.9656 -1.6346 -2.2908
 7579SOL    HW234374   4.107   0.973   4.876  0.2820 -0.4831  0.0722
 7580SOL     OW34375   3.086   0.429   6.607 -0.1035 -0.2620 -0.1475
 7580SOL    HW134376   3.138   0.506   6.583 -1.0700  0.3923 -0.1556
 7580SOL    HW234377   3.035   0.461   6.682  2.2328  0.3949  1.1625
 7581SOL     OW34378   4.707   0.664   2.802 -0.0415  0.4607 -0.0909
 7581SOL    HW134379   4.631   0.608   2.810 -0.3195  0.5171 -2.2968
 7581SOL    HW234380   4.714   0.682   2.708  0.2005 -1.3219 -0.4107
 7582SOL     OW34381   0.982   0.820   4.802  0.4806 -0.0030 -0.0064
 7582SOL    HW134382   1.063   0.832   4.752  0.7521  0.0577  0.4512
 7582SOL    HW234383   0.939   0.871   4.733 -0.4738  0.4383  0.9301
 7583SOL     OW34384   0.197   1.898   6.737  0.3230  0.1697  0.0870
 7583SOL    HW134385   0.253   1.830   6.775 -1.5969  0.2773  3.0179
 7583SOL    HW234386   0.255   1.932   6.668  1.4649 -0.3564  0.7747
 7584SOL     OW34387   1.717   1.356   0.224 -0.3525 -0.6550  0.5032
 7584SOL    HW134388   1.624   1.358   0.248 -0.6331 -2.1615 -0.4634
 7584SOL    HW234389   1.761   1.367   0.308  0.5902 -2.7537  0.2781
 7585SOL     OW34390   1.962   0.165   0.393 -0.0299  0.1228  0.2018
 7585SOL    HW134391   1.895   0.147   0.328  0.4928  1.5589 -0.7136
 7585SOL    HW234392   2.007   0.082   0.373  0.5439  0.4365  0.1765
 7586SOL     OW34393   4.721   1.996   2.151 -0.3681  0.3670 -0.4080
 7586SOL    HW134394   0.022   2.000   2.063 -1.8940 -1.7710 -1.1496
 7586SOL    HW234395   0.007   1.908   2.179 -0.4907 -0.2824 -2.3907
 7587SOL     OW34396   0.058   2.612   7.546 -0.2210 -0.0000 -0.3517
 7587SOL    HW134397   4.729   2.542   7.548 -0.2970  0.0538 -0.9632
 7587SOL    HW234398   0.024   2.682   7.492 -1.1172 -1.6182 -1.8604
 7588SOL     OW34399   3.513   2.261   4.007 -0.4461  0.7676  0.2393
 7588SOL    HW134400   3.531   2.331   3.945  0.6108 -1.3749 -1.8800
 7588SOL    HW234401   3.521   2.185   3.949 -1.8160  0.5495  0.3395
 7589SOL     OW34402   3.093   3.624  11.638  0.0125 -0.4480  0.4431
 7589SOL    HW134403   3.189   3.629  11.632  0.1377 -1.1075  1.9496
 7589SOL    HW234404   3.073   3.705  11.685 -1.9053 -0.3936 -0.4838
 7590SOL     OW34405   4.385   2.552   7.174 -0.0104 -0.3347  0.0374
 7590SOL    HW134406   4.461   2.573   7.120 -2.0921 -0.6469 -3.0161
 7590SOL    HW234407   4.310   2.586   7.126  1.2115  0.7436 -1.0845
 7591SOL     OW34408   1.323   4.164   8.355 -0.2944 -0.2502 -0.6094
 7591SOL    HW134409   1.382   4.164   8.430 -1.2616  0.0295  0.1611
 7591SOL    HW234410   1.345   4.250   8.318 -0.2066 -0.2773 -0.6187
 7592SOL     OW34411   2.286   0.259  13.734 -0.1609 -0.1204  0.0407
 7592SOL    HW134412   2.228   0.277  13.660  0.2661  0.8753 -0.0552
 7592SOL    HW234413   2.366   0.236  13.686 -1.3270 -3.3789 -0.3124
 7593SOL     OW34414   0.977   3.522   3.428 -0.4348  0.0295  0.5444
 7593SOL    HW134415   1.024   3.438   3.419  0.0756  0.2851  0.8227
 7593SOL    HW234416   1.000   3.557   3.342  1.2224 -1.3692  0.4059
 7594SOL     OW34417   2.577   0.630   2.402  0.3337 -0.5136 -0.1825
 7594SOL    HW134418   2.613   0.609   2.489  1.8760 -1.0917 -0.9573
 7594SOL    HW234419   2.560   0.724   2.401  0.9397 -0.4017  0.1022
 7595SOL     OW34420   2.711   3.629   1.952 -0.0641  0.6645 -0.2627
 7595SOL    HW134421   2.655   3.704   1.970  1.2437  1.7871 -0.8965
 7595SOL    HW234422   2.780   3.644   2.016 -0.4455 -0.2429  0.3647
 7596SOL     OW34423   3.340   1.213   7.109 -0.3444 -1.0116  0.3144
 7596SOL    HW134424   3.420   1.192   7.061 -0.2219  0.0364  0.0759
 7596SOL    HW234425   3.354   1.148   7.179 -0.6441 -0.4266  0.9182
 7597SOL     OW34426   1.865   3.742   4.675 -0.2720  0.0377  0.7541
 7597SOL    HW134427   1.781   3.736   4.721  0.4811  0.9687  2.2704
 7597SOL    HW234428   1.924   3.736   4.751 -0.7894 -0.7002  1.1022
 7598SOL     OW34429   3.644   0.634   6.451  0.0654  0.7579 -0.2043
 7598SOL    HW134430   3.737   0.644   6.472  0.0323 -0.1307  0.3503
 7598SOL    HW234431   3.601   0.616   6.534 -2.5124 -2.0091 -2.1391
 7599SOL     OW34432   3.805   0.820   2.141  0.3414  0.1736 -0.4892
 7599SOL    HW134433   3.874   0.818   2.206 -0.2687 -0.2205  0.1478
 7599SOL    HW234434   3.779   0.911   2.134 -1.0393 -0.1081  1.0820
 7600SOL     OW34435   1.488   4.290  15.083  0.5698 -0.3020  0.4165
 7600SOL    HW134436   1.481   4.358  15.016 -3.3668  0.9998  2.1541
 7600SOL    HW234437   1.396   4.291  15.110  0.8193 -0.4880  1.2940
 7601SOL     OW34438   4.088   4.106   7.161 -0.2569 -0.2435 -0.5216
 7601SOL    HW134439   4.084   4.077   7.070 -0.3647  1.1315 -0.9518
 7601SOL    HW234440   4.005   4.077   7.201 -0.2090 -0.9976 -0.9793
 7602SOL     OW34441   1.013   2.959   7.307 -0.3953  0.3090 -0.3915
 7602SOL    HW134442   0.938   2.941   7.365  0.0869  1.0481  0.4625
 7602SOL    HW234443   1.082   2.919   7.361  1.4567  2.0484 -1.5028
 7603SOL     OW34444   2.793   2.049  13.209 -0.1312 -0.0640 -0.5145
 7603SOL    HW134445   2.790   1.977  13.145  0.9091  0.2123 -0.8789
 7603SOL    HW234446   2.750   2.007  13.283  2.0905  0.2162  0.9575
 7604SOL     OW34447   4.670   0.137   7.480  0.2327  0.4127  0.2515
 7604SOL    HW134448   0.004   0.179   7.530 -0.6127  0.3659  1.4872
 7604SOL    HW234449   4.595   0.148   7.539 -1.5959 -2.0778 -1.5570
 7605SOL     OW34450   4.563   1.706  10.937 -0.5791 -0.2334  0.1918
 7605SOL    HW134451   4.540   1.625  10.891  1.4148 -0.0958 -1.0811
 7605SOL    HW234452   4.636   1.680  10.994  0.6997 -1.3828 -1.9700
 7606SOL     OW34453   1.797   1.366  17.693 -0.4590  0.3749 -0.3199
 7606SOL    HW134454   1.791   1.368   0.044 -0.6590  2.2615 -0.3586
 7606SOL    HW234455   1.742   1.443  17.676  0.0091  0.6497 -0.5982
 7607SOL     OW34456   0.103   2.296   8.213  0.2752 -0.0159  0.2722
 7607SOL    HW134457   0.189   2.339   8.218  0.1385  0.1477  1.2685
 7607SOL    HW234458   0.069   2.320   8.299  1.9731  0.0489  0.9363
 7608SOL     OW34459   1.283   2.667  17.686  0.0962 -0.0393 -0.0000
 7608SOL    HW134460   1.342   2.738  17.660  0.2949 -0.0558  0.3945
 7608SOL    HW234461   1.332   2.589  17.659 -0.6157 -0.9053  1.2173
 7609SOL     OW34462   0.680   4.416   3.046  0.5249  0.5618 -0.0302
 7609SOL    HW134463   0.682   4.460   2.962 -0.2915  0.4503 -0.1047
 7609SOL    HW234464   0.767   4.445   3.072  1.2784 -2.5632  0.9989
 7610SOL     OW34465   0.034   1.185   1.796 -0.7967 -0.3630 -0.2632
 7610SOL    HW134466   0.001   1.101   1.827 -1.7799 -0.3380 -1.2534
 7610SOL    HW234467   0.078   1.167   1.713  0.6796  0.7364  0.2614
 7611SOL     OW34468   1.527   3.540   8.358  0.2675 -0.5198  0.4986
 7611SOL    HW134469   1.596   3.485   8.395  0.1670 -1.3084 -0.5007
 7611SOL    HW234470   1.529   3.620   8.411  0.0924 -0.5258  0.5144
 7612SOL     OW34471   2.594   2.677   8.032  0.4385 -0.0695  0.1532
 7612SOL    HW134472   2.672   2.659   7.981  0.4887  0.4222  0.0591
 7612SOL    HW234473   2.616   2.637   8.117 -0.1833  3.2299  1.8849
 7613SOL     OW34474   3.496   0.665   8.906  0.5140 -0.6778  0.3519
 7613SOL    HW134475   3.552   0.591   8.930  0.6375 -0.7184 -0.0600
 7613SOL    HW234476   3.493   0.715   8.988  0.5679 -0.1476  0.0340
 7614SOL     OW34477   0.713   4.699  10.947 -0.1300  0.0122 -0.8705
 7614SOL    HW134478   0.657   4.721  10.872 -1.3918 -0.9151 -0.2038
 7614SOL    HW234479   0.797   4.716  10.904 -1.6471  2.9064 -2.6618
 7615SOL     OW34480   3.322   3.604   7.123 -0.6206  0.3560  0.4568
 7615SOL    HW134481   3.304   3.659   7.047 -0.9350 -1.2784 -0.6467
 7615SOL    HW234482   3.362   3.524   7.088 -0.5477  0.0126  1.3343
 7616SOL     OW34483   2.728   0.177   7.320 -0.3462  0.2015  0.2527
 7616SOL    HW134484   2.783   0.122   7.376  0.5878 -0.7297 -1.5612
 7616SOL    HW234485   2.698   0.247   7.377 -0.7992  1.0903 -1.0866
 7617SOL     OW34486   2.955   3.374   2.837 -0.3183  0.4033  0.1696
 7617SOL    HW134487   3.027   3.406   2.891 -0.8292  0.1314  1.0190
 7617SOL    HW234488   2.885   3.377   2.902  1.3246  1.6072  1.8718
 7618SOL     OW34489   2.569   4.713  15.778  0.2930 -0.3141  0.0191
 7618SOL    HW134490   2.565   4.644  15.713 -3.1973 -0.0512 -0.0437
 7618SOL    HW234491   2.520   4.672  15.849 -0.5655  0.0870 -0.3365
 7619SOL     OW34492   3.653   0.239   2.835 -0.1111  0.0592 -0.2323
 7619SOL    HW134493   3.615   0.230   2.747  0.8397  0.8104 -0.7310
 7619SOL    HW234494   3.701   0.322   2.824 -0.6185  0.3531 -0.2176
 7620SOL     OW34495   3.030   3.635  10.271  0.5245 -0.0179  0.6892
 7620SOL    HW134496   2.967   3.700  10.242 -1.3292 -1.9762  0.3305
 7620SOL    HW234497   2.987   3.553  10.248  0.6482  0.0048  0.3644
 7621SOL     OW34498   2.702   3.964   5.179  0.4703  0.2680 -0.3568
 7621SOL    HW134499   2.624   4.018   5.171 -0.6094 -1.3656 -0.9259
 7621SOL    HW234500   2.741   3.998   5.099  0.0473  4.0295  1.0283
 7622SOL     OW34501   0.162   1.347   1.421 -0.4704 -0.2574 -0.1862
 7622SOL    HW134502   0.138   1.408   1.490 -0.4977  0.1168 -0.5242
 7622SOL    HW234503   0.256   1.363   1.428 -0.8146  1.9687 -0.5590
 7623SOL     OW34504   4.613   0.692   7.783  0.2175  0.0335  0.3599
 7623SOL    HW134505   4.547   0.650   7.726  0.8244 -1.5373  0.8167
 7623SOL    HW234506   4.664   0.753   7.730 -0.8432  0.8706  0.3110
 7624SOL     OW34507   4.522   1.534   7.065  0.1460 -0.0013  0.4238
 7624SOL    HW134508   4.572   1.613   7.087 -0.1399  1.0663 -2.7260
 7624SOL    HW234509   4.452   1.566   7.007 -0.4697  0.7740  1.6018
 7625SOL     OW34510   1.520   4.705  15.209 -0.1021  0.2377  0.0661
 7625SOL    HW134511   1.467   0.037  15.166  2.0444  0.4259 -2.3112
 7625SOL    HW234512   1.563   4.665  15.133  0.9972  0.9753  0.3051
 7626SOL     OW34513   3.209   3.300   5.891  1.0404 -0.3538  0.4934
 7626SOL    HW134514   3.231   3.220   5.843 -1.4189 -1.0923  0.5817
 7626SOL    HW234515   3.279   3.304   5.956  1.2436  1.3970  0.1576
 7627SOL     OW34516   4.354   4.721   4.363  0.6015 -0.1892 -0.7226
 7627SOL    HW134517   4.365   4.628   4.341 -3.9509 -1.1153  0.8309
 7627SOL    HW234518   4.442   0.019   4.348  0.4628 -0.2736 -1.7286
 7628SOL     OW34519   0.297   2.492   2.799  0.2393  0.1274 -0.3974
 7628SOL    HW134520   0.262   2.572   2.838  2.2429  1.1394 -0.6883
 7628SOL    HW234521   0.381   2.523   2.765 -0.9581  3.8411  0.0827
 7629SOL     OW34522   0.820   4.205   8.377  0.4114 -0.4182  0.5221
 7629SOL    HW134523   0.891   4.148   8.406 -1.3316 -1.5305  2.5598
 7629SOL    HW234524   0.764   4.217   8.454 -1.7714 -0.3607 -1.0748
 7630SOL     OW34525   2.788   2.880  11.034 -0.7055  0.2404  0.2737
 7630SOL    HW134526   2.857   2.924  10.985 -2.7613  0.9186 -1.9862
 7630SOL    HW234527   2.794   2.937  11.110 -0.1014  0.9073 -0.2870
 7631SOL     OW34528   2.989   1.364   5.450  0.0459 -0.2023  0.1949
 7631SOL    HW134529   2.951   1.447   5.480 -1.6267 -0.8085 -0.2162
 7631SOL    HW234530   2.953   1.364   5.361 -0.5480 -1.8169  0.4281
 7632SOL     OW34531   3.085   2.357   9.233 -0.3024 -0.1268  0.4381
 7632SOL    HW134532   3.107   2.324   9.320  2.4535  0.0489 -0.1826
 7632SOL    HW234533   2.998   2.389   9.257  0.1501 -0.8386  3.0179
 7633SOL     OW34534   0.864   1.085  14.703 -0.5468 -0.6812  0.7144
 7633SOL    HW134535   0.952   1.076  14.665 -0.7439 -1.7009  0.5016
 7633SOL    HW234536   0.873   1.102  14.797 -0.5558 -1.4427  0.8574
 7634SOL     OW34537   4.415   3.626   6.392 -0.3503  0.0370  0.4280
 7634SOL    HW134538   4.358   3.702   6.402 -1.9414 -0.9615 -1.1568
 7634SOL    HW234539   4.432   3.644   6.300 -0.1203  0.9229  0.6476
 7635SOL     OW34540   3.879   3.659   2.997 -0.0338 -0.0387 -0.4294
 7635SOL    HW134541   3.861   3.613   2.915 -0.7453  3.2271 -2.1167
 7635SOL    HW234542   3.871   3.589   3.062  2.2407  0.6372  0.5770
 7636SOL     OW34543   2.973   4.706   1.378 -0.1329  0.1813  0.1370
 7636SOL    HW134544   3.060   4.730   1.349  0.4098 -0.2297  1.4289
 7636SOL    HW234545   2.924   0.044   1.342 -1.2401 -0.4679  0.2735
 7637SOL     OW34546   0.468   4.114   7.459  0.2639  0.1707  0.0933
 7637SOL    HW134547   0.415   4.080   7.531  0.7024 -0.3817  0.1617
 7637SOL    HW234548   0.453   4.208   7.469 -1.7979 -0.1573  0.0396
 7638SOL     OW34549   4.177   4.190   4.210  0.0719  0.0351  0.0754
 7638SOL    HW134550   4.265   4.203   4.175  0.0071  0.3456  0.0267
 7638SOL    HW234551   4.132   4.172   4.127 -4.4644 -0.0188  2.5900
 7639SOL     OW34552   2.398   2.586   0.104  0.0852 -0.0252 -0.1761
 7639SOL    HW134553   2.339   2.536   0.047 -3.4548  0.3156  3.1823
 7639SOL    HW234554   2.358   2.672   0.087  0.0469  0.1730  0.9141
 7640SOL     OW34555   2.671   0.983   5.625 -0.3477  0.3619 -0.3720
 7640SOL    HW134556   2.673   0.960   5.718  0.8328  0.1429 -0.4563
 7640SOL    HW234557   2.577   0.991   5.609 -0.4359 -2.0078 -0.9886
 7641SOL     OW34558   3.897   3.177  15.031 -0.3020  0.8090 -0.0069
 7641SOL    HW134559   3.908   3.127  14.951  0.5142 -0.6478  1.0279
 7641SOL    HW234560   3.912   3.270  15.012  1.1454  0.1621 -1.9637
 7642SOL     OW34561   0.460   1.272   3.630  0.1524 -0.0074 -0.0799
 7642SOL    HW134562   0.489   1.231   3.711 -1.0646 -0.8973 -0.0948
 7642SOL    HW234563   0.366   1.266   3.648  0.1526 -0.4909 -0.2440
 7643SOL     OW34564   0.358   1.893   9.345  0.5741 -0.6620 -0.0666
 7643SOL    HW134565   0.311   1.880   9.262 -1.3730  1.2635  0.7575
 7643SOL    HW234566   0.421   1.822   9.329  0.5501 -0.6265 -0.3260
 7644SOL     OW34567   4.134   0.929   1.535  0.0857  0.0342 -0.0568
 7644SOL    HW134568   4.081   0.864   1.581 -0.7673  0.2511 -0.7237
 7644SOL    HW234569   4.221   0.902   1.564 -1.3121 -2.6843  1.5777
 7645SOL     OW34570   0.665   1.041  10.887 -0.0387  0.4628  0.2107
 7645SOL    HW134571   0.720   1.110  10.925  0.1235 -0.1060  1.0245
 7645SOL    HW234572   0.586   1.070  10.933 -0.5364  1.0940 -1.0512
 7646SOL     OW34573   0.977   4.659   8.778 -0.5548  0.2729 -0.2465
 7646SOL    HW134574   0.989   0.006   8.734 -0.9202  0.2165 -0.4580
 7646SOL    HW234575   0.965   4.601   8.703 -1.1631  0.1903 -0.0848
 7647SOL     OW34576   4.344   0.747   5.050 -0.1061 -0.2705  0.3375
 7647SOL    HW134577   4.381   0.765   5.136  0.7025 -1.5580  0.2411
 7647SOL    HW234578   4.388   0.670   5.017  1.5239  1.0340 -0.5402
 7648SOL     OW34579   1.985   2.396   6.836 -0.3634  0.1676 -0.1041
 7648SOL    HW134580   1.979   2.340   6.913  1.6674 -2.7449 -2.0627
 7648SOL    HW234581   1.981   2.481   6.879  1.1736 -0.2771  0.9444
 7649SOL     OW34582   3.946   3.085   8.208  0.3079 -0.4889  0.4180
 7649SOL    HW134583   3.997   3.047   8.279 -1.5710 -1.2195  1.3711
 7649SOL    HW234584   3.884   3.016   8.185 -0.5370 -0.0220  1.2905
 7650SOL     OW34585   4.612   2.634   5.402  0.4789 -0.1718 -0.3396
 7650SOL    HW134586   4.553   2.591   5.464 -0.2764  3.7827  1.7287
 7650SOL    HW234587   4.565   2.619   5.320 -2.6026 -0.9714  1.5459
 7651SOL     OW34588   1.001   1.763   9.375 -0.3816 -0.1085 -0.5494
 7651SOL    HW134589   0.939   1.780   9.305 -1.5889 -1.1344  0.2519
 7651SOL    HW234590   0.963   1.687   9.420  1.3031 -0.7572 -0.2213
 7652SOL     OW34591   1.116   3.972   5.720 -0.3751 -0.0447  0.0375
 7652SOL    HW134592   1.054   4.005   5.786  0.1790 -0.7907  0.9273
 7652SOL    HW234593   1.059   3.911   5.674  1.4585 -2.1385  0.5525
 7653SOL     OW34594   1.829   2.873   4.975 -0.2971 -0.1777 -0.1700
 7653SOL    HW134595   1.908   2.926   4.984 -2.2405  2.5369  0.6818
 7653SOL    HW234596   1.762   2.932   5.010 -0.6295  0.2091 -1.4764
 7654SOL     OW34597   0.003   2.436   1.830  0.4363 -0.2638 -0.3186
 7654SOL    HW134598   0.020   2.517   1.783  0.8391  0.1841  0.6127
 7654SOL    HW234599   4.703   2.469   1.912  3.3912  0.5922  0.6732
 7655SOL     OW34600   4.413   4.518   8.095  1.3066 -0.2475  0.4001
 7655SOL    HW134601   4.455   4.454   8.037  1.4582 -0.0001  0.2363
 7655SOL    HW234602   4.377   4.470   8.169 -0.8058 -1.4180 -1.3545
 7656SOL     OW34603   0.811   2.013   3.280 -0.0908  0.2399  0.0720
 7656SOL    HW134604   0.813   1.988   3.372  0.8879 -3.5427 -0.9640
 7656SOL    HW234605   0.746   2.083   3.274  0.0975  0.4314  0.2852
 7657SOL     OW34606   0.474   4.710   1.038 -0.1875  0.1360 -0.5551
 7657SOL    HW134607   0.409   0.021   0.987  0.0891  2.2486  1.0184
 7657SOL    HW234608   0.479   0.038   1.109  2.6351  0.3292 -0.9462
 7658SOL     OW34609   4.049   2.308   8.138  0.5153  0.8437 -0.1139
 7658SOL    HW134610   4.121   2.353   8.094  0.1699  1.2655 -0.2529
 7658SOL    HW234611   4.083   2.218   8.142 -2.6087 -0.3285  0.3634
 7659SOL     OW34612   2.947   3.834   5.052  0.0872  0.0041  0.4683
 7659SOL    HW134613   2.859   3.871   5.048  0.3608  0.6965  0.9816
 7659SOL    HW234614   3.002   3.881   4.989 -1.6632 -0.6700 -1.5746
 7660SOL     OW34615   1.516   1.784   1.534  0.1199  0.2993  0.2263
 7660SOL    HW134616   1.514   1.755   1.625 -2.4883  0.5413  0.2381
 7660SOL    HW234617   1.433   1.830   1.521 -1.3784 -2.0960  1.6261
 7661SOL     OW34618   1.659   4.591  16.125  0.0234 -0.1232 -0.3358
 7661SOL    HW134619   1.648   4.643  16.204  1.0585 -0.6481  0.1595
 7661SOL    HW234620   1.605   4.628  16.055  0.0902  0.4402 -0.0868
 7662SOL     OW34621   0.831   4.126  13.959 -0.0713 -0.4777 -0.4117
 7662SOL    HW134622   0.779   4.089  13.887  1.3803 -0.4105 -1.5000
 7662SOL    HW234623   0.917   4.144  13.921 -0.7077  3.0508 -0.1805
 7663SOL     OW34624   2.703   3.564   8.232 -0.4056  0.0336  0.5579
 7663SOL    HW134625   2.643   3.507   8.281 -0.5355  0.6170  1.0802
 7663SOL    HW234626   2.733   3.510   8.160 -0.7055  0.1644  0.3365
 7664SOL     OW34627   0.125   2.597   3.470  0.2329  0.3938  0.7492
 7664SOL    HW134628   0.195   2.659   3.448 -0.8360 -0.2085 -4.2578
 7664SOL    HW234629   0.041   2.642   3.465  0.1954  0.3453  0.9542
 7665SOL     OW34630   0.920   0.467  17.400 -0.8463 -0.1507  0.6403
 7665SOL    HW134631   0.923   0.371  17.391  0.5637 -0.0551  0.1287
 7665SOL    HW234632   0.832   0.480  17.366 -0.3708  1.5208  0.0418
 7666SOL     OW34633   1.023   1.390   5.229 -0.1742  0.0828 -0.3597
 7666SOL    HW134634   1.114   1.372   5.252  0.1054  0.8371 -0.8929
 7666SOL    HW234635   1.032   1.391   5.134 -1.2518  2.1334 -0.4540
 7667SOL     OW34636   3.832   3.279   2.955 -0.7101 -0.8230  0.0852
 7667SOL    HW134637   3.757   3.220   2.964 -2.1049  0.6912 -1.7924
 7667SOL    HW234638   3.872   3.229   2.884 -0.0454  1.8636 -1.4152
 7668SOL     OW34639   1.298   2.109   4.473 -0.3186  0.0366 -0.2231
 7668SOL    HW134640   1.289   2.014   4.478  0.5474  0.0384  1.5062
 7668SOL    HW234641   1.228   2.135   4.533 -0.3641 -0.0922 -0.2205
 7669SOL     OW34642   3.750   0.393   6.391  0.3019  0.2038  0.1317
 7669SOL    HW134643   3.660   0.367   6.373  0.8632 -1.8447  0.2696
 7669SOL    HW234644   3.735   0.484   6.417  0.5134  0.2681  0.0286
 7670SOL     OW34645   2.675   1.959   8.217 -0.1006  0.1956 -0.3544
 7670SOL    HW134646   2.695   1.928   8.305 -1.7204 -1.0266 -0.4241
 7670SOL    HW234647   2.740   2.023   8.189 -0.2618 -0.1677 -1.5850
 7671SOL     OW34648   4.457   1.172   2.801 -0.0644 -0.2013  0.1267
 7671SOL    HW134649   4.464   1.138   2.890 -1.3520 -1.3335 -0.2060
 7671SOL    HW234650   4.530   1.134   2.752  0.8395  0.4517  0.9689
 7672SOL     OW34651   3.741   1.884   6.314 -0.0513 -0.2489 -0.0294
 7672SOL    HW134652   3.663   1.835   6.289  0.4590 -0.3920 -1.3215
 7672SOL    HW234653   3.732   1.960   6.256  0.8907  1.7674  2.4620
 7673SOL     OW34654   2.504   0.195   6.399  0.1503  0.6451 -0.8343
 7673SOL    HW134655   2.444   0.268   6.386  0.7780  1.1562 -0.8985
 7673SOL    HW234656   2.473   0.128   6.339  3.1562 -2.2615  0.8511
 7674SOL     OW34657   2.088   3.586   5.401  0.3218  0.2012  0.1994
 7674SOL    HW134658   1.998   3.605   5.375 -0.1510 -2.1605  0.1682
 7674SOL    HW234659   2.078   3.492   5.391 -1.0336  0.2595  0.9547
 7675SOL     OW34660   1.016   3.663  17.244  0.6713 -0.2289  0.2363
 7675SOL    HW134661   0.968   3.675  17.162  2.2871  2.5455 -0.2906
 7675SOL    HW234662   0.953   3.605  17.286 -1.6208  1.3353 -1.0607
 7676SOL     OW34663   2.517   2.080   8.004 -0.5766  0.5239  0.4151
 7676SOL    HW134664   2.430   2.041   8.000  0.0583 -0.6406 -2.0195
 7676SOL    HW234665   2.553   2.044   8.085  0.4788  0.8276  0.0779
 7677SOL     OW34666   0.318   0.582   4.829 -0.2398 -0.2526 -0.1550
 7677SOL    HW134667   0.294   0.661   4.780 -0.2751 -2.0111 -2.9640
 7677SOL    HW234668   0.274   0.597   4.912  3.0945  0.0505  1.5515
 7678SOL     OW34669   3.416   3.145   7.724 -0.2218 -0.6827 -0.2470
 7678SOL    HW134670   3.346   3.112   7.781 -0.2286  1.9694  1.2588
 7678SOL    HW234671   3.493   3.099   7.757  1.6648 -0.1243 -3.8853
 7679SOL     OW34672   2.836   3.722  17.121  0.4128 -0.1571 -0.0036
 7679SOL    HW134673   2.828   3.653  17.186  0.0019 -0.1494 -0.0436
 7679SOL    HW234674   2.854   3.667  17.045  1.8004 -1.7992  1.5224
 7680SOL     OW34675   2.688   3.691   5.749  0.2516 -0.5206  0.1019
 7680SOL    HW134676   2.725   3.771   5.786  0.5667  0.4983 -2.4041
 7680SOL    HW234677   2.648   3.734   5.674  0.5436 -0.4070  0.0124
 7681SOL     OW34678   1.683   3.455   1.425 -0.2897 -0.1207 -0.3153
 7681SOL    HW134679   1.678   3.549   1.412  0.9119 -0.2195 -1.5149
 7681SOL    HW234680   1.751   3.425   1.364 -0.3500  1.0971 -0.9841
 7682SOL     OW34681   1.405   2.448   7.156 -0.8386 -0.3058  0.3927
 7682SOL    HW134682   1.442   2.462   7.243  0.7897  1.1966 -0.5273
 7682SOL    HW234683   1.347   2.524   7.143 -1.4479 -0.9352 -0.5961
 7683SOL     OW34684   0.598   3.603   3.685  0.0790 -0.5704 -0.8082
 7683SOL    HW134685   0.622   3.531   3.627 -1.4475  0.3023 -2.5204
 7683SOL    HW234686   0.574   3.557   3.766  1.3684 -1.9773 -1.2305
 7684SOL     OW34687   3.419   3.867  10.080 -0.0858  0.0849  0.4342
 7684SOL    HW134688   3.452   3.910  10.001 -2.2873  2.5330  0.8427
 7684SOL    HW234689   3.491   3.885  10.141 -1.5121  0.5529  1.9533
 7685SOL     OW34690   1.529   0.112  15.567  1.1434  0.3604  0.0943
 7685SOL    HW134691   1.587   0.124  15.492  0.9299  0.3673 -0.0681
 7685SOL    HW234692   1.586   0.058  15.622  2.4397 -0.8835 -2.4356
 7686SOL     OW34693   4.368   2.748   2.194 -0.3830 -0.1969 -0.1767
 7686SOL    HW134694   4.439   2.761   2.257 -2.2835  1.7476  1.5619
 7686SOL    HW234695   4.378   2.827   2.140 -1.7791  1.9316  2.6532
 7687SOL     OW34696   1.129   1.835   8.348  0.2288  0.5170 -0.4723
 7687SOL    HW134697   1.068   1.767   8.377  1.7012  0.2061  1.9212
 7687SOL    HW234698   1.141   1.829   8.253  2.5483 -1.2483 -0.0785
 7688SOL     OW34699   3.224   3.391   2.110  0.3652  0.1513 -0.1401
 7688SOL    HW134700   3.169   3.446   2.166  0.8437 -0.5987  1.0518
 7688SOL    HW234701   3.215   3.433   2.024 -0.8528 -0.0357 -0.1125
 7689SOL     OW34702   0.364   1.471   1.553  0.0773 -0.1044  0.3238
 7689SOL    HW134703   0.326   1.529   1.620  0.0688 -1.2555  1.3064
 7689SOL    HW234704   0.410   1.533   1.496 -0.9644  0.1070 -0.2858
 7690SOL     OW34705   0.693   3.225   5.485 -0.4281 -0.4831  0.4501
 7690SOL    HW134706   0.716   3.311   5.519 -0.8272  0.2649 -1.2231
 7690SOL    HW234707   0.597   3.225   5.484 -0.4929 -0.5598  4.2700
 7691SOL     OW34708   0.294   1.604   1.848 -0.5750 -0.3739  0.1987
 7691SOL    HW134709   0.238   1.536   1.884  1.2772 -1.2699  1.3740
 7691SOL    HW234710   0.227   1.655   1.803 -0.3649 -0.0313  0.2724
 7692SOL     OW34711   0.193   4.246  11.932  0.1516 -0.5410 -0.1120
 7692SOL    HW134712   0.215   4.298  11.855  1.1560  0.5464  0.9054
 7692SOL    HW234713   0.099   4.236  11.920  0.2965 -0.9280 -0.9117
 7693SOL     OW34714   1.195   3.298  12.025 -0.5715 -0.0873 -0.5961
 7693SOL    HW134715   1.152   3.351  12.092  0.7839  1.8604 -1.2771
 7693SOL    HW234716   1.180   3.340  11.941 -0.6366 -1.6461 -1.3805
 7694SOL     OW34717   3.388   2.645  13.791 -0.0987 -0.0166 -0.3983
 7694SOL    HW134718   3.441   2.673  13.866 -1.7279 -1.5122  1.3027
 7694SOL    HW234719   3.367   2.554  13.812  0.5027  0.4105  2.0554
 7695SOL     OW34720   3.089   0.917  10.188  0.7824 -0.4381  0.1999
 7695SOL    HW134721   3.047   0.844  10.233 -3.2619  0.9456 -1.4035
 7695SOL    HW234722   3.166   0.943  10.240  1.0971 -1.7998  0.4228
 7696SOL     OW34723   0.000   3.866  16.484  0.4010 -0.3162  0.0266
 7696SOL    HW134724   4.676   3.933  16.515  0.0763 -0.6435  0.1060
 7696SOL    HW234725   4.676   3.821  16.425 -1.7901  0.0501  1.9960
 7697SOL     OW34726   2.882   0.056   3.657 -0.3046 -0.6299  0.1774
 7697SOL    HW134727   2.920   0.061   3.569  0.3042 -3.7514  0.2583
 7697SOL    HW234728   2.789   0.051   3.633 -0.2777  1.1555 -0.3014
 7698SOL     OW34729   4.171   2.926   2.813  0.2428 -0.1876 -0.4360
 7698SOL    HW134730   4.251   2.977   2.819 -0.1006  0.1927  0.8646
 7698SOL    HW234731   4.130   2.955   2.732  1.2018  1.4631 -0.3225
 7699SOL     OW34732   3.471   1.562   5.663  0.1945  0.0199 -0.1269
 7699SOL    HW134733   3.405   1.613   5.710 -0.4768 -0.9023 -0.0414
 7699SOL    HW234734   3.436   1.588   5.578  1.3291 -0.6521 -0.7878
 7700SOL     OW34735   1.549   1.042   6.698 -0.1625 -0.2844 -0.1833
 7700SOL    HW134736   1.577   1.066   6.786 -1.2501 -0.2383  0.1434
 7700SOL    HW234737   1.631   1.019   6.654  0.5951  0.0694  1.0482
 7701SOL     OW34738   2.043   2.256  16.656  0.1606 -0.2788 -0.6589
 7701SOL    HW134739   2.093   2.325  16.701 -0.3732  0.9636 -1.9833
 7701SOL    HW234740   1.988   2.218  16.725 -0.2163 -0.7568 -1.2297
 7702SOL     OW34741   3.780   0.190   4.165 -0.1250  1.0906  0.6774
 7702SOL    HW134742   3.798   0.125   4.097 -1.7474  1.7401 -0.3824
 7702SOL    HW234743   3.796   0.276   4.126  1.7490 -0.6189 -2.3014
 7703SOL     OW34744   2.188   1.889   7.584  0.0375  0.5901 -0.3330
 7703SOL    HW134745   2.122   1.937   7.634 -2.0118 -1.4478 -1.0898
 7703SOL    HW234746   2.171   1.802   7.621  1.0504  0.9560  1.0016
 7704SOL     OW34747   3.358   1.979   6.641  0.1120 -0.0582  0.0298
 7704SOL    HW134748   3.284   1.934   6.681 -0.7917  2.6331  1.4420
 7704SOL    HW234749   3.434   1.960   6.697 -1.1964 -0.0161  1.8210
 7705SOL     OW34750   1.487   1.122   8.970  0.6160  0.4934  0.0137
 7705SOL    HW134751   1.542   1.192   8.936  2.1580 -0.5772  0.3308
 7705SOL    HW234752   1.451   1.159   9.051 -0.8544 -0.7390 -0.0711
 7706SOL     OW34753   3.885   2.225   4.579  0.5279 -0.1282 -0.1979
 7706SOL    HW134754   3.819   2.193   4.517 -0.0645 -1.4911  1.1202
 7706SOL    HW234755   3.918   2.307   4.544 -2.1339  0.3149 -1.6582
 7707SOL     OW34756   2.141   0.903  15.116 -0.0611 -0.0655 -0.1194
 7707SOL    HW134757   2.139   0.810  15.137 -0.6656  0.0294  0.2181
 7707SOL    HW234758   2.215   0.933  15.168  0.4181 -0.5565 -0.5142
 7708SOL     OW34759   4.154   2.426   5.546 -0.6683 -0.3465  0.7788
 7708SOL    HW134760   4.123   2.336   5.540 -0.0237 -0.4964 -0.3712
 7708SOL    HW234761   4.079   2.480   5.569  0.5845  1.6313  0.2860
 7709SOL     OW34762   2.621   3.876   3.556  0.4818  0.1524 -0.1937
 7709SOL    HW134763   2.645   3.954   3.606 -2.5720  0.4867  0.7509
 7709SOL    HW234764   2.527   3.868   3.573  0.0857  0.1099 -2.3745
 7710SOL     OW34765   2.749   1.786   7.615  0.5046 -0.3073 -0.1590
 7710SOL    HW134766   2.678   1.762   7.675 -0.5550  0.4319 -1.1368
 7710SOL    HW234767   2.796   1.852   7.666 -0.0180  0.2170 -0.3532
 7711SOL     OW34768   0.642   2.900  15.148 -0.5292  0.2495 -0.5204
 7711SOL    HW134769   0.690   2.821  15.171  0.1629  1.1590  1.2389
 7711SOL    HW234770   0.667   2.909  15.056  0.9964 -0.1470 -0.1425
 7712SOL     OW34771   1.257   2.328  14.104 -0.2034 -0.0874 -0.4864
 7712SOL    HW134772   1.348   2.336  14.130 -0.3645  1.4969 -0.3741
 7712SOL    HW234773   1.223   2.418  14.111  0.3518  0.1448 -0.8021
 7713SOL     OW34774   2.247   0.215   4.338  0.0507  0.1890  0.0690
 7713SOL    HW134775   2.206   0.298   4.313 -1.0556  0.1543  1.7751
 7713SOL    HW234776   2.333   0.254   4.356  0.1606 -0.0466  0.0448
 7714SOL     OW34777   0.494   3.213   3.466  0.6054  0.2532 -0.3405
 7714SOL    HW134778   0.426   3.276   3.444 -1.3437 -1.8534 -0.2825
 7714SOL    HW234779   0.439   3.134   3.464 -0.0561  0.7306 -0.9257
 7715SOL     OW34780   4.431   1.958   8.244  0.8334 -0.2251  0.0634
 7715SOL    HW134781   4.468   2.044   8.261  1.6951 -1.0730  2.5319
 7715SOL    HW234782   4.338   1.980   8.245  0.5612 -1.4232  2.7989
 7716SOL     OW34783   4.734   3.457   6.224  0.3108 -0.0937  0.2289
 7716SOL    HW134784   4.699   3.535   6.268  0.0790  0.0782 -0.2597
 7716SOL    HW234785   0.070   3.491   6.172  0.3528  0.2076  0.4829
 7717SOL     OW34786   0.599   4.369  10.135  0.5004  0.0971  0.0681
 7717SOL    HW134787   0.564   4.287  10.102  1.9498  0.6542 -2.8481
 7717SOL    HW234788   0.693   4.357  10.126  0.3472 -0.3827 -0.8572
 7718SOL     OW34789   0.975   1.582   6.116  0.5693  0.1103  0.1298
 7718SOL    HW134790   1.042   1.564   6.182  0.5534  0.5923  0.2760
 7718SOL    HW234791   0.889   1.580   6.159  0.6096 -2.9121  0.0659
 7719SOL     OW34792   1.027   0.703   9.482 -0.1154  0.0651 -0.1735
 7719SOL    HW134793   1.058   0.753   9.406 -1.9751  2.1894  0.4493
 7719SOL    HW234794   1.102   0.699   9.540  1.7176 -0.3529 -2.5487
 7720SOL     OW34795   1.656   1.011   6.957 -0.0576  0.8193  0.2664
 7720SOL    HW134796   1.702   1.068   7.019 -0.5613  0.3378  1.0944
 7720SOL    HW234797   1.678   0.927   6.998  1.3742  0.3772 -1.4542
 7721SOL     OW34798   4.634   1.442   9.876  0.0511  0.0462 -0.1937
 7721SOL    HW134799   4.634   1.454   9.971  0.2542 -1.4834  0.0055
 7721SOL    HW234800   4.539   1.436   9.864  0.1991  0.0809 -1.3366
 7722SOL     OW34801   1.544   2.168   4.377  0.6277  1.1076 -0.0602
 7722SOL    HW134802   1.565   2.078   4.402  0.9018  1.2147  0.0900
 7722SOL    HW234803   1.450   2.164   4.396  0.7384  0.8319  0.4164
 7723SOL     OW34804   0.499   3.852   3.384  0.2296  0.2944  0.1416
 7723SOL    HW134805   0.569   3.813   3.333  2.2199  0.1014  3.0113
 7723SOL    HW234806   0.425   3.803   3.348 -0.0319 -0.0528  1.1509
 7724SOL     OW34807   2.541   4.276   3.015  0.6009 -0.5647  0.3505
 7724SOL    HW134808   2.563   4.196   3.062  1.5174  0.1905  1.1890
 7724SOL    HW234809   2.501   4.242   2.935 -2.2793 -1.0688  2.0276
 7725SOL     OW34810   4.326   0.909   9.830  0.3117 -0.2099  0.1896
 7725SOL    HW134811   4.266   0.871   9.766  0.0474  0.4085  0.0741
 7725SOL    HW234812   4.284   0.990   9.860 -1.6012 -1.1003 -0.1006
 7726SOL     OW34813   3.440   3.900   2.213 -0.2648 -0.2918 -0.2142
 7726SOL    HW134814   3.451   3.805   2.206 -2.5768 -0.4303 -1.6455
 7726SOL    HW234815   3.438   3.931   2.123  3.0015  1.2226  0.1992
 7727SOL     OW34816   2.304   2.721   2.692  0.5793 -0.2124 -1.0920
 7727SOL    HW134817   2.308   2.677   2.778  1.9888  1.8416 -0.0973
 7727SOL    HW234818   2.232   2.683   2.641  0.6416 -2.6872  0.6247
 7728SOL     OW34819   3.217   4.190   7.048  0.9775 -0.6063  0.1012
 7728SOL    HW134820   3.230   4.187   6.953 -0.7153 -0.0286 -0.1448
 7728SOL    HW234821   3.135   4.240   7.054  1.8174  0.6990  0.7746
 7729SOL     OW34822   0.951   2.072   6.176 -0.0045 -0.5352  0.0156
 7729SOL    HW134823   0.860   2.042   6.164 -1.0230  1.1259  3.5594
 7729SOL    HW234824   0.980   2.086   6.086  0.0388 -3.4915 -0.4431
 7730SOL     OW34825   2.425   4.468   8.378 -0.3907 -0.4191 -0.0752
 7730SOL    HW134826   2.348   4.515   8.347 -2.0272 -3.0028  0.0053
 7730SOL    HW234827   2.467   4.524   8.443 -1.0000  1.2745 -1.1633
 7731SOL     OW34828   0.578   0.746   4.215 -0.4304 -1.4552  0.1259
 7731SOL    HW134829   0.491   0.764   4.250  0.4769  1.8480  0.6820
 7731SOL    HW234830   0.562   0.654   4.195  0.4112 -1.8892  1.4358
 7732SOL     OW34831   3.529   2.405  16.227 -0.1802  0.5239  0.0485
 7732SOL    HW134832   3.436   2.415  16.247 -0.3913 -0.3600 -0.4902
 7732SOL    HW234833   3.543   2.325  16.277 -2.0312  0.7779  0.9629
 7733SOL     OW34834   4.725   1.879   1.829 -0.1735 -0.0675  0.0248
 7733SOL    HW134835   0.071   1.919   1.856 -2.7682  2.2463  4.4383
 7733SOL    HW234836   4.667   1.952   1.810 -1.0449 -1.0594 -1.1676
 7734SOL     OW34837   3.176   2.683  11.352 -0.0499  0.1184 -0.1346
 7734SOL    HW134838   3.265   2.714  11.369 -0.4731  0.3876  1.5875
 7734SOL    HW234839   3.179   2.591  11.378 -1.4271  0.6776  1.9512
 7735SOL     OW34840   0.549   3.971   2.759 -0.7709 -0.7694  0.0176
 7735SOL    HW134841   0.519   4.037   2.822 -0.6000 -0.8698  0.2033
 7735SOL    HW234842   0.637   4.001   2.735 -0.8050  0.6072  1.5452
 7736SOL     OW34843   3.156   2.273  14.332  0.2092  0.2489 -0.1341
 7736SOL    HW134844   3.211   2.296  14.407  1.5938 -1.9573 -0.4898
 7736SOL    HW234845   3.100   2.349  14.317 -1.1342 -0.8954 -0.8773
 7737SOL     OW34846   1.507   4.182   8.533 -0.3063  0.3679  0.0377
 7737SOL    HW134847   1.584   4.210   8.482 -0.5823  2.4327  0.7426
 7737SOL    HW234848   1.541   4.150   8.616 -0.8155  0.4355  0.2677
 7738SOL     OW34849   1.121   4.642   9.849 -0.0638 -0.2262  0.0299
 7738SOL    HW134850   1.134   4.580   9.921 -0.5949 -3.8051 -2.9648
 7738SOL    HW234851   1.036   4.679   9.873  0.6345  1.3866 -0.0086
 7739SOL     OW34852   3.052   4.006   9.791 -0.0779 -0.0007  0.1893
 7739SOL    HW134853   3.128   3.949   9.777  1.2869  1.2202  2.7229
 7739SOL    HW234854   3.019   4.018   9.702  1.9292 -0.2829 -0.6036
 7740SOL     OW34855   1.882   3.984   3.578 -0.2328 -0.0263  0.3366
 7740SOL    HW134856   1.949   3.940   3.526  2.1650  0.6482  2.8572
 7740SOL    HW234857   1.917   3.975   3.667 -0.5188  0.4973  0.5019
 7741SOL     OW34858   1.919   2.871   7.286 -0.4832  0.1830 -0.3062
 7741SOL    HW134859   2.000   2.890   7.334  0.6235 -0.2347 -2.0102
 7741SOL    HW234860   1.944   2.782   7.261 -0.4635 -0.5736  2.4195
 7742SOL     OW34861   2.638   2.863  14.534  0.4958  0.0377 -0.7841
 7742SOL    HW134862   2.705   2.819  14.586 -1.9310 -0.5037  1.9203
 7742SOL    HW234863   2.561   2.806  14.545  0.8799 -0.3810 -0.2720
 7743SOL     OW34864   3.491   0.578   8.496  0.4330 -0.5546 -0.0629
 7743SOL    HW134865   3.398   0.564   8.479  0.6270 -1.4851 -0.3680
 7743SOL    HW234866   3.524   0.570   8.406  0.8851 -2.3509  0.2632
 7744SOL     OW34867   3.369   0.590   4.671  0.5543 -0.2169 -0.2607
 7744SOL    HW134868   3.412   0.630   4.595  1.1267 -1.4941 -0.6136
 7744SOL    HW234869   3.408   0.503   4.674  0.4400 -0.2680 -0.2528
 7745SOL     OW34870   0.394   2.768   6.008 -0.4447  0.9060 -0.1790
 7745SOL    HW134871   0.428   2.680   5.992 -2.0462  0.5046 -1.4683
 7745SOL    HW234872   0.472   2.821   5.995  0.4042 -0.3414 -0.1946
 7746SOL     OW34873   1.006   3.616   8.267 -0.2854  0.6293  0.6022
 7746SOL    HW134874   1.101   3.627   8.278 -0.2179  1.9894 -1.3316
 7746SOL    HW234875   0.996   3.648   8.178 -0.2689  0.3650  0.5040
 7747SOL     OW34876   3.245   2.134   3.138 -0.4047  0.1551  0.2050
 7747SOL    HW134877   3.280   2.207   3.085  1.3289 -0.9828 -0.1968
 7747SOL    HW234878   3.160   2.171   3.163 -0.5350 -0.2501  0.3592
 7748SOL     OW34879   2.941   4.350   6.341  0.1829 -0.3063 -0.4275
 7748SOL    HW134880   2.997   4.316   6.411 -1.2773  1.0233  1.3784
 7748SOL    HW234881   3.003   4.369   6.270 -0.9062 -0.6858 -1.4890
 7749SOL     OW34882   2.074   2.072   2.530  0.2819 -0.2389  0.1302
 7749SOL    HW134883   2.042   1.984   2.510  0.2330 -0.2000  0.0317
 7749SOL    HW234884   2.020   2.093   2.606  0.3611 -0.3792  0.2226
 7750SOL     OW34885   3.590   3.209  15.133  0.0230 -0.2896  0.0173
 7750SOL    HW134886   3.581   3.124  15.176 -0.8160  0.1590  0.7196
 7750SOL    HW234887   3.675   3.201  15.090  0.1483  0.0149  0.2092
 7751SOL     OW34888   4.080   1.950  10.884  0.1660  0.1919  0.0652
 7751SOL    HW134889   4.053   2.038  10.910  0.1408  0.9363 -2.4579
 7751SOL    HW234890   4.067   1.889  10.957  0.9561 -0.4111 -0.3006
 7752SOL     OW34891   0.104   3.298  14.329 -0.4233 -0.6723  0.1004
 7752SOL    HW134892   0.016   3.320  14.357 -0.3425  0.8394 -0.7915
 7752SOL    HW234893   0.092   3.305  14.234  0.5626 -2.7625 -0.1707
 7753SOL     OW34894   1.024   4.373   1.733 -0.3433  0.1771 -0.5833
 7753SOL    HW134895   1.094   4.397   1.672 -0.5717  0.5114 -0.7130
 7753SOL    HW234896   0.954   4.341   1.676 -0.2096  1.0016 -1.2187
 7754SOL     OW34897   2.557   2.876  12.249 -0.1001 -0.3261 -0.2433
 7754SOL    HW134898   2.503   2.874  12.327 -0.9210 -0.3859 -0.8116
 7754SOL    HW234899   2.515   2.935  12.187  1.3938  0.1820 -0.7785
 7755SOL     OW34900   1.214   3.691  11.808 -0.1552  0.5601 -0.2798
 7755SOL    HW134901   1.206   3.601  11.776 -1.5999  0.8074 -0.6183
 7755SOL    HW234902   1.285   3.685  11.872  0.0100 -1.5738 -0.6403
 7756SOL     OW34903   4.221   2.540   3.206 -0.5289 -0.4002 -0.6655
 7756SOL    HW134904   4.270   2.583   3.276  0.1417 -1.2935 -0.5904
 7756SOL    HW234905   4.272   2.561   3.127 -0.0862  0.3623 -0.1826
 7757SOL     OW34906   3.595   4.386  11.545  0.3751  0.0483 -0.1987
 7757SOL    HW134907   3.657   4.343  11.603 -0.1570  2.2722  1.9881
 7757SOL    HW234908   3.509   4.365  11.582  0.8433 -1.2406  0.1472
 7758SOL     OW34909   4.569   3.169   5.542  0.0274 -0.7323 -0.4413
 7758SOL    HW134910   4.614   3.123   5.612  0.1213 -0.5247 -0.3651
 7758SOL    HW234911   4.517   3.093   5.516 -0.7094 -0.6797  0.8728
 7759SOL     OW34912   4.418   3.501   7.093  0.0020 -0.4966 -0.3407
 7759SOL    HW134913   4.474   3.480   7.018 -1.0306 -1.8971 -0.7292
 7759SOL    HW234914   4.474   3.480   7.168 -1.0724  1.2526  0.9488
 7760SOL     OW34915   0.990   4.363  12.705 -0.0482  0.6384 -0.2122
 7760SOL    HW134916   1.019   4.451  12.680 -1.9073  1.7190  1.4364
 7760SOL    HW234917   0.898   4.386  12.722 -0.2886 -0.3030 -0.2093
 7761SOL     OW34918   2.672   2.021   3.252 -0.6833  0.0413  0.1344
 7761SOL    HW134919   2.612   2.086   3.216 -1.6827 -1.0606 -0.1803
 7761SOL    HW234920   2.607   1.962   3.291  0.3135 -0.6435  0.7578
 7762SOL     OW34921   1.447   1.412  12.266  0.2377  0.4830 -0.1003
 7762SOL    HW134922   1.516   1.416  12.200  0.8237 -1.7915  0.3645
 7762SOL    HW234923   1.491   1.366  12.338 -1.8439 -1.5612 -0.1138
 7763SOL     OW34924   2.257   0.707  16.282  0.3804  0.0224  0.0986
 7763SOL    HW134925   2.280   0.666  16.365 -0.2015 -1.2226 -0.3552
 7763SOL    HW234926   2.270   0.801  16.294 -1.4452  0.5076 -1.7288
 7764SOL     OW34927   1.106   0.588   1.551 -0.0940  0.3479 -0.0449
 7764SOL    HW134928   1.055   0.609   1.630  0.2233 -2.2905  0.8537
 7764SOL    HW234929   1.036   0.566   1.490  0.3733 -0.2216 -0.3703
 7765SOL     OW34930   1.235   4.604   5.903  0.1297  0.1017 -0.0570
 7765SOL    HW134931   1.312   4.560   5.869  0.9896  1.7691 -0.2786
 7765SOL    HW234932   1.224   4.556   5.986 -1.7955 -0.5687 -0.6988
 7766SOL     OW34933   2.058   1.580   3.802 -0.2125 -0.6670  0.2798
 7766SOL    HW134934   1.975   1.556   3.844 -1.6080 -0.6064 -2.4985
 7766SOL    HW234935   2.043   1.663   3.758 -0.0899  0.4264  2.2957
 7767SOL     OW34936   1.360   4.461   2.786 -0.1161  0.2264 -0.1025
 7767SOL    HW134937   1.346   4.532   2.849 -4.5323 -0.7378 -0.0179
 7767SOL    HW234938   1.400   4.397   2.845  0.6241 -0.2067 -1.0734
 7768SOL     OW34939   1.604   1.167   4.134  0.4127  0.5393 -0.1965
 7768SOL    HW134940   1.647   1.243   4.095 -0.6945  1.2733  0.0178
 7768SOL    HW234941   1.676   1.121   4.178  0.7487 -0.6200 -1.9203
 7769SOL     OW34942   0.957   4.595   2.237  0.1477  0.0948 -0.6680
 7769SOL    HW134943   1.040   4.613   2.281 -0.0551  0.9298 -0.6333
 7769SOL    HW234944   0.991   4.533   2.171  0.5994 -1.0249  0.6176
 7770SOL     OW34945   4.418   3.771   0.974  0.0318  0.0030  0.1488
 7770SOL    HW134946   4.439   3.862   0.991 -2.7838  0.5188  0.9139
 7770SOL    HW234947   4.501   3.725   0.989  0.7770  1.5094  0.5506
 7771SOL     OW34948   3.687   1.847  11.839  0.0547 -0.1746 -1.0910
 7771SOL    HW134949   3.745   1.884  11.905 -2.2185  0.3863  0.5794
 7771SOL    HW234950   3.621   1.916  11.832  0.1848  0.2687  1.9206
 7772SOL     OW34951   1.231   3.829  11.405 -0.0681 -0.5589  0.2438
 7772SOL    HW134952   1.253   3.753  11.460 -2.0956 -1.0555  0.3760
 7772SOL    HW234953   1.154   3.796  11.359 -0.2458  0.3452 -0.1057
 7773SOL     OW34954   3.221   3.255   6.381  0.3390 -0.2908  0.4838
 7773SOL    HW134955   3.252   3.192   6.446  2.2703  0.0123 -0.1528
 7773SOL    HW234956   3.163   3.200   6.327 -0.8717  2.7281 -1.2607
 7774SOL     OW34957   3.849   1.837  12.806 -0.3960 -0.0419 -0.0050
 7774SOL    HW134958   3.901   1.874  12.735 -0.3716  0.6662  0.3856
 7774SOL    HW234959   3.790   1.911  12.820  0.2026  0.3244  0.6238
 7775SOL     OW34960   4.361   2.313  16.989 -0.5368  0.1938  0.5422
 7775SOL    HW134961   4.307   2.269  16.923 -0.9897  0.7644  0.5297
 7775SOL    HW234962   4.309   2.393  16.996  0.5948  0.8834  1.0374
 7776SOL     OW34963   0.729   2.930   8.899 -1.0153  0.0431  0.0113
 7776SOL    HW134964   0.715   2.970   8.813 -0.3640  2.0221  0.8301
 7776SOL    HW234965   0.824   2.924   8.910 -0.9463 -0.3680 -0.8145
 7777SOL     OW34966   0.675   3.357   4.129  0.0948  0.0481  0.1573
 7777SOL    HW134967   0.755   3.359   4.077  0.7084 -0.8283  1.0858
 7777SOL    HW234968   0.626   3.304   4.066  2.8818 -2.6287  0.2415
 7778SOL     OW34969   0.355   4.386   5.634 -0.2427 -0.0089  0.5224
 7778SOL    HW134970   0.357   4.294   5.607  0.0584  0.8420 -2.4073
 7778SOL    HW234971   0.270   4.423   5.611  0.6104  2.2083  0.9091
 7779SOL     OW34972   1.921   0.633   8.133  0.3757  0.6042 -0.3061
 7779SOL    HW134973   1.839   0.682   8.131 -0.8021 -1.3443  0.8331
 7779SOL    HW234974   1.930   0.600   8.044  0.0432  1.2444 -0.5787
 7780SOL     OW34975   3.917   3.713   7.424  0.4260 -0.0365 -0.0841
 7780SOL    HW134976   3.899   3.628   7.385  0.0276  0.0822 -0.1565
 7780SOL    HW234977   3.836   3.736   7.470  0.6835 -0.2348  0.4706
 7781SOL     OW34978   2.708   3.823   9.569 -0.0394 -0.0962  0.2607
 7781SOL    HW134979   2.683   3.906   9.609 -1.4079 -0.4177  0.0417
 7781SOL    HW234980   2.646   3.775   9.624 -1.1455  1.9738  0.8123
 7782SOL     OW34981   2.370   4.508  12.962 -0.0788  0.7654  0.3726
 7782SOL    HW134982   2.461   4.537  12.965 -0.3769  1.9451 -2.2323
 7782SOL    HW234983   2.332   4.586  12.922 -0.2503  0.1087 -0.7327
 7783SOL     OW34984   1.641   3.409   3.652  0.2111 -0.2064  0.1601
 7783SOL    HW134985   1.581   3.390   3.579 -0.6438 -0.9638  1.0582
 7783SOL    HW234986   1.611   3.486   3.699  2.0022  0.5979 -0.0163
 7784SOL     OW34987   4.634   2.765   3.513  0.1158  0.2345  0.7898
 7784SOL    HW134988   4.558   2.734   3.563 -0.4343 -1.2064 -0.9616
 7784SOL    HW234989   4.596   2.743   3.428  0.0973  0.3006  0.7807
 7785SOL     OW34990   3.647   3.460   4.058  0.6805 -0.2724 -0.2034
 7785SOL    HW134991   3.616   3.428   4.143 -1.3615  0.6759 -0.6155
 7785SOL    HW234992   3.737   3.427   4.057  0.0973 -1.8142 -0.7297
 7786SOL     OW34993   3.237   3.125   1.630 -0.1536  0.1243  0.2646
 7786SOL    HW134994   3.160   3.068   1.632  0.4260 -0.7156 -1.3054
 7786SOL    HW234995   3.196   3.207   1.658 -2.2801 -0.4132 -1.2489
 7787SOL     OW34996   0.763   1.380  14.218 -0.0864  0.3455 -0.3447
 7787SOL    HW134997   0.745   1.356  14.308 -1.0548  1.0351 -0.3475
 7787SOL    HW234998   0.817   1.458  14.233 -1.0728  1.2510 -1.5194
 7788SOL     OW34999   4.256   2.348  12.370 -0.8002 -0.1454 -0.6926
 7788SOL    HW135000   4.196   2.418  12.346 -1.0641 -0.8796 -2.1713
 7788SOL    HW235001   4.331   2.394  12.408 -0.5100 -0.7131 -0.5819
 7789SOL     OW35002   4.323   0.247   5.441 -0.4135  0.1625  0.4051
 7789SOL    HW135003   4.357   0.206   5.520  0.2896  0.5576  0.3073
 7789SOL    HW235004   4.303   0.330   5.483 -2.2537 -0.1961  0.2083
 7790SOL     OW35005   1.349   2.084  13.610  0.1745  0.1359  0.3343
 7790SOL    HW135006   1.293   2.030  13.553 -0.3070  0.3397  0.6084
 7790SOL    HW235007   1.427   2.029  13.616 -1.2420 -1.8471  0.8325
 7791SOL     OW35008   1.209   3.775   4.280  0.2377  0.3312  0.3363
 7791SOL    HW135009   1.269   3.705   4.304 -0.4376  0.0789  1.2688
 7791SOL    HW235010   1.151   3.728   4.220  0.0931 -0.3189  0.9800
 7792SOL     OW35011   3.965   1.027  10.066  0.0584 -0.7036  0.4842
 7792SOL    HW135012   4.010   1.057   9.987 -2.2647  1.5800  0.0298
 7792SOL    HW235013   3.930   1.106  10.107 -0.6281  1.0957 -3.5158
 7793SOL     OW35014   4.289   3.172   6.355  0.3669  0.1741 -1.0172
 7793SOL    HW135015   4.214   3.221   6.322 -0.5205  0.7125  1.8118
 7793SOL    HW235016   4.344   3.210   6.287 -0.0661  2.0854 -0.2851
 7794SOL     OW35017   3.892   1.614   4.007 -0.7012 -0.2750  0.5468
 7794SOL    HW135018   3.909   1.642   4.096  0.2185 -2.1857  0.9835
 7794SOL    HW235019   3.885   1.520   4.024 -0.1165 -0.6313 -1.1010
 7795SOL     OW35020   3.572   1.283   3.471 -0.1776 -0.6601 -0.0033
 7795SOL    HW135021   3.486   1.245   3.453 -0.6137  0.8944 -1.1256
 7795SOL    HW235022   3.551   1.365   3.514  0.3848 -0.7875  0.5232
 7796SOL     OW35023   4.362   2.831   6.123  0.3113  0.0829  0.3573
 7796SOL    HW135024   4.377   2.861   6.033  1.6357 -2.4588 -0.2656
 7796SOL    HW235025   4.440   2.775   6.128 -0.9230 -1.7196 -0.2359
 7797SOL     OW35026   0.987   3.848   2.340  0.2492 -0.2847  0.0811
 7797SOL    HW135027   0.893   3.853   2.358  0.4568  0.6711  0.9276
 7797SOL    HW235028   0.994   3.753   2.330 -0.8355 -0.1796 -1.7368
 7798SOL     OW35029   3.428   2.781   3.883  0.3891  0.2675  0.5919
 7798SOL    HW135030   3.470   2.732   3.953  0.6094 -1.5263 -0.7937
 7798SOL    HW235031   3.336   2.763   3.905  0.1041  0.1316 -0.7146
 7799SOL     OW35032   2.227   1.558  13.326  0.0813 -0.2473 -0.6702
 7799SOL    HW135033   2.228   1.609  13.245  1.8664 -0.0057 -0.4868
 7799SOL    HW235034   2.170   1.482  13.317  0.8368 -1.1751  2.3361
 7800SOL     OW35035   0.225   2.345   7.445 -0.2481 -0.2922  0.0288
 7800SOL    HW135036   0.226   2.440   7.449 -1.1954 -0.1645 -2.9260
 7800SOL    HW235037   0.136   2.312   7.456 -0.6118 -0.2871 -2.8814
 7801SOL     OW35038   1.085   0.076   5.524  0.1326  0.2717  0.3092
 7801SOL    HW135039   1.137   0.116   5.593  1.7058 -0.4458 -0.4582
 7801SOL    HW235040   1.001   0.072   5.570 -0.4371  0.7433 -0.6940
 7802SOL     OW35041   0.621   0.298   8.590 -0.3735 -0.2861  0.7781
 7802SOL    HW135042   0.648   0.210   8.618  1.6288  0.3180  0.7384
 7802SOL    HW235043   0.589   0.271   8.504  1.4888 -0.2118  0.0639
 7803SOL     OW35044   4.230   0.071   8.371 -0.5673  0.0550 -0.0039
 7803SOL    HW135045   4.277   0.142   8.327  0.9905 -0.5804  0.6747
 7803SOL    HW235046   4.299   0.030   8.423 -0.1809  0.1806 -0.4143
 7804SOL     OW35047   0.643   1.408  10.749 -0.3155  0.2915  0.1758
 7804SOL    HW135048   0.562   1.359  10.735  0.4895 -1.2587  1.0039
 7804SOL    HW235049   0.695   1.385  10.672 -2.0170 -1.2177 -0.5276
 7805SOL     OW35050   4.512   1.740   9.551  0.6759 -0.5323  0.0216
 7805SOL    HW135051   4.584   1.680   9.571  1.0907 -0.0214  0.0442
 7805SOL    HW235052   4.551   1.827   9.555 -4.2261  1.4898  3.1693
 7806SOL     OW35053   4.019   4.010  14.621  0.3089 -0.0535  0.1006
 7806SOL    HW135054   3.992   3.934  14.673  1.4241  0.3639  1.3042
 7806SOL    HW235055   4.109   3.990  14.598  0.4935 -0.9357  1.5304
 7807SOL     OW35056   3.827   2.302   5.697  0.1920 -0.2776  0.0220
 7807SOL    HW135057   3.750   2.302   5.754  0.3708  0.6325  0.2690
 7807SOL    HW235058   3.790   2.286   5.610 -1.7223 -2.0769  1.1740
 7808SOL     OW35059   0.403   4.517   8.888 -0.3357 -0.3537  0.8349
 7808SOL    HW135060   0.457   4.587   8.854  0.7421 -0.3850  2.5024
 7808SOL    HW235061   0.360   4.556   8.964  2.6737 -1.8589  3.2950
 7809SOL     OW35062   4.187   3.498  14.690 -0.1480 -0.7166 -0.7044
 7809SOL    HW135063   4.139   3.573  14.655  1.4095  1.2419  1.2910
 7809SOL    HW235064   4.150   3.432  14.631 -0.4490  0.3258 -1.6686
 7810SOL     OW35065   2.784   4.333   9.829 -0.1519  0.3504  0.6097
 7810SOL    HW135066   2.694   4.358   9.806 -0.3459  0.3725  1.4029
 7810SOL    HW235067   2.832   4.378   9.760 -0.8161 -0.3800 -0.3393
 7811SOL     OW35068   3.934   2.016   3.786  0.1969 -0.1074  0.1204
 7811SOL    HW135069   3.983   1.934   3.796 -0.0437 -0.0592  1.6438
 7811SOL    HW235070   3.942   2.026   3.691 -0.2153 -1.7819 -0.0990
 7812SOL     OW35071   3.807   0.706   2.502  0.1729 -0.0007 -0.1319
 7812SOL    HW135072   3.848   0.786   2.471 -0.2734  0.2510 -0.0784
 7812SOL    HW235073   3.852   0.636   2.455 -1.0485 -2.0367  1.6934
 7813SOL     OW35074   0.704   0.622   3.383  0.3712  0.6627  0.4584
 7813SOL    HW135075   0.693   0.623   3.288 -0.7630 -1.1287  0.5747
 7813SOL    HW235076   0.628   0.675   3.407 -1.1054 -1.1036 -0.3675
 7814SOL     OW35077   2.497   4.139   5.176  0.3191 -0.1016 -0.1115
 7814SOL    HW135078   2.431   4.074   5.197  1.4383 -0.7430  1.4457
 7814SOL    HW235079   2.451   4.192   5.112 -1.7234 -1.0569  0.5807
 7815SOL     OW35080   2.045   3.929   7.759 -0.2709 -0.6278  0.5670
 7815SOL    HW135081   1.993   3.946   7.681 -0.2982 -2.7437  0.1248
 7815SOL    HW235082   1.983   3.920   7.831  0.4131  0.1486  1.2541
 7816SOL     OW35083   1.900   3.325   7.235  0.3736 -0.3376 -0.4754
 7816SOL    HW135084   1.931   3.272   7.162  1.4747 -0.7941  0.3232
 7816SOL    HW235085   1.813   3.350   7.203  0.1385  0.9257  1.1331
 7817SOL     OW35086   1.928   0.559   7.861  0.2181  0.0554  0.9614
 7817SOL    HW135087   1.851   0.581   7.809  0.3522 -0.4795  0.5397
 7817SOL    HW235088   1.971   0.489   7.813 -0.3696 -0.7316  1.5910
 7818SOL     OW35089   3.235   1.755   4.399  0.2636  0.0485 -0.0007
 7818SOL    HW135090   3.238   1.675   4.451  0.5681  0.9363  1.3478
 7818SOL    HW235091   3.154   1.750   4.347  0.5067 -0.1392 -0.3590
 7819SOL     OW35092   0.166   1.928   2.396  0.5214  0.2128  0.1076
 7819SOL    HW135093   0.135   2.008   2.355  1.1568 -0.1020 -0.9927
 7819SOL    HW235094   0.155   1.858   2.330 -0.2370  0.9252 -0.5191
 7820SOL     OW35095   1.956   2.244   7.392 -0.0300 -0.3470  0.2563
 7820SOL    HW135096   1.950   2.248   7.487  1.6551  1.1824  0.3029
 7820SOL    HW235097   2.006   2.163   7.378  1.3345  0.6660 -0.7983
 7821SOL     OW35098   0.054   3.992   6.942 -0.1169  0.2157 -0.5675
 7821SOL    HW135099   0.021   4.065   6.994  1.8749 -0.5213  1.7342
 7821SOL    HW235100   0.042   3.914   6.996  0.2734 -0.8954 -2.1052
 7822SOL     OW35101   1.719   2.907   9.579  0.1977  0.1017 -0.0461
 7822SOL    HW135102   1.746   2.990   9.617  1.3351 -0.1717 -0.2545
 7822SOL    HW235103   1.695   2.937   9.491  2.8364 -1.7302 -1.4035
 7823SOL     OW35104   3.059   4.213  10.052 -0.0724  0.2489  0.4751
 7823SOL    HW135105   3.002   4.147  10.091 -1.5382 -0.6507 -3.2189
 7823SOL    HW235106   3.118   4.227  10.126 -1.5489  0.9525  1.5135
 7824SOL     OW35107   2.511   1.127   2.554 -0.0296 -0.1157 -0.0954
 7824SOL    HW135108   2.425   1.168   2.552  0.0297  0.0317  0.3782
 7824SOL    HW235109   2.485   1.043   2.591  0.5781 -0.0865  0.3989
 7825SOL     OW35110   0.412   3.566   6.407  0.3615  0.0357 -0.0088
 7825SOL    HW135111   0.360   3.518   6.471 -0.3668 -0.4141 -0.9469
 7825SOL    HW235112   0.489   3.512   6.386 -0.7639 -0.2953 -3.3803
 7826SOL     OW35113   1.897   2.231   0.029 -0.4546 -0.3455  0.9881
 7826SOL    HW135114   1.990   2.248   0.043 -0.4083  0.2902 -0.0897
 7826SOL    HW235115   1.887   2.284  17.694  1.3062  0.2235  1.1407
 7827SOL     OW35116   1.313   1.519   4.335  0.0645 -0.3523 -0.4752
 7827SOL    HW135117   1.314   1.563   4.421 -1.0425 -2.2591  0.5034
 7827SOL    HW235118   1.381   1.454   4.351 -0.2980  0.0427  2.8139
 7828SOL     OW35119   4.047   3.296  13.762  0.4131 -0.2574  0.1362
 7828SOL    HW135120   4.010   3.274  13.677 -0.0769  0.4168  0.1761
 7828SOL    HW235121   4.102   3.218  13.755 -2.5066 -2.2725 -0.4750
 7829SOL     OW35122   1.872   2.972  13.336 -0.1274  0.2810  0.0194
 7829SOL    HW135123   1.923   2.901  13.376 -0.0273  0.5208  0.3227
 7829SOL    HW235124   1.790   2.927  13.322  0.5521 -0.9776  0.0976
 7830SOL     OW35125   3.696   1.124   8.586  0.0931  0.1629  0.0963
 7830SOL    HW135126   3.717   1.052   8.527  1.6676  0.0452  0.8063
 7830SOL    HW235127   3.644   1.088   8.658 -0.4964  1.8841  0.5399
 7831SOL     OW35128   3.800   0.907   9.501 -0.2578 -0.7417  0.3525
 7831SOL    HW135129   3.868   0.863   9.451 -0.6348  2.3056 -2.8926
 7831SOL    HW235130   3.825   0.999   9.505 -1.2009 -0.5763  2.5964
 7832SOL     OW35131   3.690   2.883   4.196 -0.0015  0.0363 -0.6772
 7832SOL    HW135132   3.782   2.907   4.181  0.4983 -0.3934  1.7836
 7832SOL    HW235133   3.642   2.962   4.172  2.2345  1.4965 -0.2832
 7833SOL     OW35134   0.918   1.831   3.751  0.3620  0.5723  0.1428
 7833SOL    HW135135   0.915   1.736   3.767  2.2412  0.2317 -1.5721
 7833SOL    HW235136   0.985   1.853   3.815  0.5844  0.5350 -0.0775
 7834SOL     OW35137   4.600   1.980   5.906  0.1006  0.0813  0.8025
 7834SOL    HW135138   4.692   1.958   5.915  0.2684  1.0880  1.5680
 7834SOL    HW235139   4.579   2.004   5.996  1.2855 -2.6139  1.7991
 7835SOL     OW35140   2.091   0.930   1.961 -0.0618  0.3079  0.0913
 7835SOL    HW135141   2.098   0.954   1.868 -1.4924  0.1636 -0.0614
 7835SOL    HW235142   2.066   0.838   1.957  0.5031  0.1256  0.8603
 7836SOL     OW35143   3.382   3.159   4.176  0.3138  0.1791 -0.0484
 7836SOL    HW135144   3.313   3.107   4.136  0.9612 -0.5258 -0.2571
 7836SOL    HW235145   3.396   3.103   4.252 -1.2625  1.9694  1.5702
 7837SOL     OW35146   3.712   0.663   3.813  0.0814 -0.0219 -0.8815
 7837SOL    HW135147   3.618   0.679   3.805 -0.3694 -0.9144  2.3941
 7837SOL    HW235148   3.732   0.688   3.723  2.9729  0.0946 -0.2103
 7838SOL     OW35149   4.103   2.639   7.638 -0.2115  0.1230 -0.0265
 7838SOL    HW135150   4.083   2.717   7.689  0.8417  1.1664 -1.1917
 7838SOL    HW235151   4.078   2.660   7.548 -0.8279 -0.3405  0.0319
 7839SOL     OW35152   1.272   0.056  16.890 -0.2911  1.0057 -0.1523
 7839SOL    HW135153   1.186   0.091  16.912 -0.4433  0.2005  0.5246
 7839SOL    HW235154   1.251   4.725  16.824 -2.2871  0.7090  0.7811
 7840SOL     OW35155   0.233   0.928   0.312 -0.4008  0.3465  0.2459
 7840SOL    HW135156   0.175   0.855   0.332  2.1241 -1.3255  1.4814
 7840SOL    HW235157   0.206   0.930   0.220  0.2795 -2.7386 -0.0214
 7841SOL     OW35158   2.951   2.492  12.535 -0.1791  0.0373  0.1237
 7841SOL    HW135159   2.938   2.578  12.493 -1.8564 -0.0250  0.5046
 7841SOL    HW235160   2.989   2.509  12.621  0.5987  0.7901 -0.3622
 7842SOL     OW35161   2.696   1.772  13.143  0.1022  0.9368  0.5844
 7842SOL    HW135162   2.681   1.720  13.222 -1.2848 -0.5358 -0.6663
 7842SOL    HW235163   2.719   1.703  13.081  0.2295  3.3885 -2.1118
 7843SOL     OW35164   3.683   3.609   0.152  0.5317 -0.2463 -0.4958
 7843SOL    HW135165   3.776   3.587   0.151  0.7017  0.5287 -0.9968
 7843SOL    HW235166   3.668   3.608   0.247  2.1130 -0.6299 -0.2470
 7844SOL     OW35167   4.046   4.168   3.378  0.3660  0.1141 -0.6922
 7844SOL    HW135168   3.986   4.153   3.451  2.0403  0.0640  0.6724
 7844SOL    HW235169   4.096   4.087   3.369  1.9011  1.0212 -0.4953
 7845SOL     OW35170   3.592   0.026   9.350 -0.4092  0.2918  0.1113
 7845SOL    HW135171   3.519   0.080   9.321 -2.5494 -1.0078  3.1620
 7845SOL    HW235172   3.540   4.718   9.417  4.2979 -2.9011  1.6584
 7846SOL     OW35173   2.679   2.940  11.480 -0.0395  0.0693 -0.2248
 7846SOL    HW135174   2.734   2.895  11.544 -0.2621  0.0638 -0.0355
 7846SOL    HW235175   2.731   2.950  11.400  0.5367  2.5057  0.4727
 7847SOL     OW35176   4.061   1.764   4.529 -0.2819  0.1244  0.0077
 7847SOL    HW135177   4.079   1.855   4.550  2.1657 -0.9489  2.4887
 7847SOL    HW235178   4.045   1.729   4.616 -0.1013 -0.0231 -0.0182
 7848SOL     OW35179   3.906   4.654   5.873 -0.2283  0.2373  0.6174
 7848SOL    HW135180   3.991   4.632   5.835  0.1170  3.6802 -0.6004
 7848SOL    HW235181   3.928   4.722   5.937 -1.7278  0.3483  1.0203
 7849SOL     OW35182   4.598   0.959   1.549 -0.2192 -0.0253 -0.0956
 7849SOL    HW135183   4.517   1.009   1.555 -0.9439 -0.9847 -1.9089
 7849SOL    HW235184   4.603   0.920   1.462  0.6359  1.6880 -0.8145
 7850SOL     OW35185   0.511   4.141   5.111 -0.2174  0.4875 -0.4342
 7850SOL    HW135186   0.600   4.108   5.104 -0.8625 -0.9571 -1.7997
 7850SOL    HW235187   0.492   4.090   5.190 -1.6546  0.3698 -0.8421
 7851SOL     OW35188   2.785   2.180   2.189  0.3153  0.1635  0.6587
 7851SOL    HW135189   2.867   2.157   2.232  0.8455  0.7823 -0.0122
 7851SOL    HW235190   2.719   2.175   2.257 -1.5405  2.2100 -0.9831
 7852SOL     OW35191   1.949   3.751   4.974  0.4238  0.0180  0.2420
 7852SOL    HW135192   1.957   3.840   4.941  1.1079 -1.1977 -2.8649
 7852SOL    HW235193   1.976   3.768   5.064  1.9989  0.8475 -0.3995
 7853SOL     OW35194   0.032   3.856   4.203 -0.4421  0.2715  0.6865
 7853SOL    HW135195   0.097   3.898   4.147  0.5850 -0.7699  1.1141
 7853SOL    HW235196   0.080   3.776   4.223 -2.6909 -1.7275 -1.8569
 7854SOL     OW35197   1.386   3.026   8.473  0.6636  0.6260  0.5877
 7854SOL    HW135198   1.322   3.051   8.541  1.8634  0.3573  1.8148
 7854SOL    HW235199   1.328   3.039   8.398 -0.1985  0.0775  1.1527
 7855SOL     OW35200   1.372   4.022   1.512 -0.0639  0.8418  0.6892
 7855SOL    HW135201   1.303   4.055   1.570 -0.8466  1.5070 -0.6426
 7855SOL    HW235202   1.441   4.078   1.548 -2.2706  2.9733  1.5676
 7856SOL     OW35203   1.665   0.043   3.285 -0.2215  0.3987  0.4739
 7856SOL    HW135204   1.632   0.110   3.224  0.3927 -0.7758 -1.1495
 7856SOL    HW235205   1.759   0.056   3.270 -0.0442 -0.4524  0.8782
 7857SOL     OW35206   2.898   0.778   0.762 -0.4706 -0.4388  0.4331
 7857SOL    HW135207   2.843   0.725   0.704  0.6873 -0.2400 -0.8302
 7857SOL    HW235208   2.878   0.861   0.720  2.9082  0.2776  0.2612
 7858SOL     OW35209   0.483   3.608   0.955 -0.1627  0.3458  0.0830
 7858SOL    HW135210   0.516   3.542   0.894 -0.2318  0.5194 -0.1425
 7858SOL    HW235211   0.515   3.681   0.902 -0.1424  0.4557  0.2448
 7859SOL     OW35212   0.998   1.728   7.675 -0.0797 -0.1657  0.1183
 7859SOL    HW135213   0.919   1.740   7.728  0.0161  2.7414 -0.3952
 7859SOL    HW235214   1.023   1.820   7.689  0.3469 -0.4043  0.9070
 7860SOL     OW35215   1.639   2.060   8.381  0.5666 -0.2762  0.1315
 7860SOL    HW135216   1.694   1.982   8.391  0.1231 -0.5943  0.0881
 7860SOL    HW235217   1.567   2.014   8.338  1.2117 -1.8874  0.7820
 7861SOL     OW35218   4.729   0.298  12.068  0.1249  0.2213  0.0122
 7861SOL    HW135219   0.055   0.233  12.100  0.8098 -0.3610 -2.5585
 7861SOL    HW235220   4.708   0.255  11.986  0.2964  0.6942 -0.2817
 7862SOL     OW35221   1.637   2.124   6.904 -0.1465  0.3273 -0.6023
 7862SOL    HW135222   1.609   2.194   6.845  1.3348  0.0722 -1.5913
 7862SOL    HW235223   1.631   2.051   6.842  1.1022 -1.0493  0.9016
 7863SOL     OW35224   0.766   2.219  14.576 -0.0183  0.2857  0.0508
 7863SOL    HW135225   0.838   2.273  14.542  2.0504 -3.4791 -1.6840
 7863SOL    HW235226   0.758   2.234  14.670  0.7096  0.1501  0.1385
 7864SOL     OW35227   1.427   4.639   5.628  0.4512 -0.4244  0.2946
 7864SOL    HW135228   1.398   4.596   5.547 -2.6808  0.7501  0.7998
 7864SOL    HW235229   1.434   4.729   5.594  0.8615 -1.3601 -2.0700
 7865SOL     OW35230   0.380   4.631  10.816 -0.1408 -0.1420  0.4072
 7865SOL    HW135231   0.452   4.693  10.826 -1.5893  1.8332 -1.3125
 7865SOL    HW235232   0.355   4.631  10.723 -0.6255 -1.3341  0.5285
 7866SOL     OW35233   2.224   2.000  12.576 -0.2288 -0.4822 -0.0843
 7866SOL    HW135234   2.291   2.039  12.632 -0.6160 -0.3071  0.2545
 7866SOL    HW235235   2.227   2.045  12.491 -3.2092  1.5078  0.8932
 7867SOL     OW35236   1.237   3.466  15.399  0.2079 -0.0109  0.3390
 7867SOL    HW135237   1.196   3.437  15.318 -1.8262 -0.5280  1.5703
 7867SOL    HW235238   1.317   3.506  15.364  0.4303 -0.6765  0.0869
 7868SOL     OW35239   0.112   0.748  16.365  0.2169  0.4761 -0.2122
 7868SOL    HW135240   0.074   0.719  16.282  0.1632 -0.9438  0.3035
 7868SOL    HW235241   0.153   0.667  16.397  0.6410  1.5199  1.9127
 7869SOL     OW35242   4.426   2.658  14.277  0.3728 -0.1920  0.0122
 7869SOL    HW135243   4.471   2.608  14.209 -1.0670 -1.3708 -0.0788
 7869SOL    HW235244   4.356   2.601  14.309 -0.2050  0.0576 -0.8023
 7870SOL     OW35245   0.608   2.689   7.142 -0.1137 -0.0585 -0.1086
 7870SOL    HW135246   0.683   2.692   7.202  0.5607 -1.3706 -0.8702
 7870SOL    HW235247   0.650   2.646   7.067  2.7666  0.4612  1.1823
 7871SOL     OW35248   3.471   2.743   8.152 -0.1952  0.0325 -0.1691
 7871SOL    HW135249   3.502   2.679   8.088 -2.2505 -0.5940 -0.5502
 7871SOL    HW235250   3.384   2.758   8.114  0.1947  3.2403  0.1880
 7872SOL     OW35251   4.725   1.436   7.317 -0.1676 -0.0933  0.5538
 7872SOL    HW135252   0.059   1.499   7.300  1.9400 -2.8082 -0.9274
 7872SOL    HW235253   4.680   1.485   7.386  0.5221  1.0038  0.2162
 7873SOL     OW35254   4.480   4.588  16.325  0.2981  0.1794  0.0230
 7873SOL    HW135255   4.385   4.592  16.331  0.2980 -0.0643  0.1942
 7873SOL    HW235256   4.500   4.561  16.415  1.3950  0.9210  0.0063
 7874SOL     OW35257   2.068   1.484   7.332 -0.1687 -0.1065  0.5955
 7874SOL    HW135258   2.093   1.403   7.288  1.1457  1.7604 -2.0953
 7874SOL    HW235259   2.143   1.540   7.313  0.9544 -2.1149 -0.7985
 7875SOL     OW35260   2.107   4.110   4.129 -0.4653 -0.2974 -0.1869
 7875SOL    HW135261   2.148   4.179   4.078 -1.9336 -0.8584 -2.1174
 7875SOL    HW235262   2.025   4.158   4.143 -1.1200 -1.4579  0.0313
 7876SOL     OW35263   0.942   1.257   7.148  0.1951  0.0113 -0.3149
 7876SOL    HW135264   0.931   1.186   7.085  0.6513 -0.6894  0.3893
 7876SOL    HW235265   1.022   1.297   7.116  1.1528 -0.1355  1.9449
 7877SOL     OW35266   1.470   3.506   5.484 -0.4033 -0.0122 -0.2690
 7877SOL    HW135267   1.385   3.474   5.456 -0.3138 -0.7486  0.3274
 7877SOL    HW235268   1.522   3.426   5.484  0.1920  0.3608  3.0509
 7878SOL     OW35269   3.252   1.310   5.457 -0.2469  0.2652  0.2258
 7878SOL    HW135270   3.157   1.303   5.444 -0.3784 -0.8223  1.7504
 7878SOL    HW235271   3.261   1.404   5.439  3.4686  0.0130  0.9603
 7879SOL     OW35272   2.014   3.579  14.156 -1.2666  0.0527  0.5885
 7879SOL    HW135273   1.939   3.528  14.187 -1.9118 -0.2589 -1.5084
 7879SOL    HW235274   1.984   3.669  14.167 -1.0845  0.1730  0.1083
 7880SOL     OW35275   1.997   4.144  15.037 -0.2291 -0.3133 -0.5433
 7880SOL    HW135276   2.021   4.223  14.988  1.2360  0.0104  0.7238
 7880SOL    HW235277   1.910   4.131  14.999 -1.3649  1.5510  1.3931
 7881SOL     OW35278   3.677   2.963   4.596  0.5313 -0.6607  0.3156
 7881SOL    HW135279   3.666   2.979   4.690 -1.3665 -1.9704  0.3149
 7881SOL    HW235280   3.772   2.979   4.594  0.3641  0.6027  3.4214
 7882SOL     OW35281   1.665   2.675   9.060 -0.1618  0.0029  0.0465
 7882SOL    HW135282   1.626   2.759   9.035 -0.8528 -0.7901 -1.5540
 7882SOL    HW235283   1.678   2.678   9.155 -0.8751  0.6152  0.1320
 7883SOL     OW35284   3.277   2.381   1.884 -0.4246  0.1863  0.3065
 7883SOL    HW135285   3.295   2.452   1.946  2.1936 -0.0434 -0.1795
 7883SOL    HW235286   3.329   2.417   1.812  0.1041  0.4002  0.7988
 7884SOL     OW35287   0.995   0.566  10.537  0.1795  0.0957 -0.0346
 7884SOL    HW135288   0.988   0.587  10.630  0.7783  0.1889 -0.0111
 7884SOL    HW235289   1.064   0.627  10.512 -0.7908  1.2068  0.0151
 7885SOL     OW35290   1.436   3.956   7.196 -0.2366  0.1761 -0.4056
 7885SOL    HW135291   1.386   3.910   7.129  0.0839 -2.3314  1.1019
 7885SOL    HW235292   1.521   3.966   7.153 -0.6806 -0.2971 -1.3755
 7886SOL     OW35293   4.598   3.249   9.554 -0.4501  0.0843  0.4414
 7886SOL    HW135294   4.635   3.164   9.578  0.0766 -0.4896 -2.3893
 7886SOL    HW235295   4.520   3.247   9.609 -0.2532 -2.1035  0.6321
 7887SOL     OW35296   3.504   3.922   5.432  0.2308 -0.2164 -0.2705
 7887SOL    HW135297   3.493   3.900   5.524 -0.5803  1.0040 -0.0722
 7887SOL    HW235298   3.479   3.841   5.387  0.5400 -1.8527  2.5138
 7888SOL     OW35299   1.976   1.871  11.840 -0.2369  0.6875  0.5763
 7888SOL    HW135300   2.006   1.916  11.919  3.0525 -1.4446  0.5528
 7888SOL    HW235301   1.925   1.941  11.800 -2.1605 -1.4429 -0.6593
 7889SOL     OW35302   2.889   2.285   7.727  0.5802  0.0033  0.2565
 7889SOL    HW135303   2.976   2.258   7.699 -0.0045 -0.8864 -0.7025
 7889SOL    HW235304   2.835   2.210   7.701  1.7175 -0.8063  0.2342
 7890SOL     OW35305   2.324   1.075  14.398 -0.4310  0.3245 -0.0120
 7890SOL    HW135306   2.360   1.099  14.483  1.8418 -1.9093 -0.3204
 7890SOL    HW235307   2.260   1.014  14.436  1.1395  0.4130  2.8380
 7891SOL     OW35308   1.378   2.662   4.580  0.1727  0.2420  0.6495
 7891SOL    HW135309   1.302   2.690   4.631  1.6273  1.0957  2.3271
 7891SOL    HW235310   1.404   2.745   4.540  1.0647 -1.4538 -2.2809
 7892SOL     OW35311   3.714   4.358  10.947 -0.2505 -0.0233 -0.2133
 7892SOL    HW135312   3.686   4.266  10.944  1.8141 -0.6053 -1.2558
 7892SOL    HW235313   3.635   4.405  10.973 -0.0558 -0.0097  0.3726
 7893SOL     OW35314   2.114   3.798  15.785 -0.2071  0.6115 -0.2203
 7893SOL    HW135315   2.188   3.804  15.724  1.0040 -2.3200  0.9530
 7893SOL    HW235316   2.035   3.806  15.732  1.4269  1.6022 -2.5275
 7894SOL     OW35317   0.854   0.325   3.105  0.3568  0.0955  0.2310
 7894SOL    HW135318   0.843   0.274   3.186  0.4516  0.8323  0.7067
 7894SOL    HW235319   0.774   0.377   3.095  0.4011  0.1745  0.2833
 7895SOL     OW35320   1.452   3.113   6.703 -0.6354  0.2893 -1.0934
 7895SOL    HW135321   1.398   3.153   6.635  0.2384  1.6299 -0.9917
 7895SOL    HW235322   1.444   3.175   6.775  1.6052 -0.0109 -0.5962
 7896SOL     OW35323   1.374   1.987   3.476  0.1434 -0.3212  0.6438
 7896SOL    HW135324   1.302   2.024   3.526  0.5323  0.5348  0.5714
 7896SOL    HW235325   1.313   1.927   3.433 -0.3756  0.8902 -0.2774
 7897SOL     OW35326   1.726   1.008  15.609  0.3976  0.1717  0.1502
 7897SOL    HW135327   1.677   1.005  15.691 -0.0383  2.1255 -0.0347
 7897SOL    HW235328   1.741   1.101  15.621 -1.2195  0.3948  0.4428
 7898SOL     OW35329   1.363   4.261   8.103 -0.3862  0.1135  0.0583
 7898SOL    HW135330   1.302   4.197   8.140  0.7154 -1.2424 -0.4337
 7898SOL    HW235331   1.451   4.235   8.133 -0.9221  0.7634  2.1766
 7899SOL     OW35332   4.174   2.704   6.332  0.2793 -0.4565  0.0006
 7899SOL    HW135333   4.243   2.735   6.275  1.0511 -0.1553  1.0950
 7899SOL    HW235334   4.099   2.719   6.274 -0.1966 -1.3332  0.3764
 7900SOL     OW35335   2.389   4.404   1.700 -0.3312  0.5176 -0.4838
 7900SOL    HW135336   2.468   4.365   1.737 -2.0645 -2.9753 -0.4547
 7900SOL    HW235337   2.351   4.447   1.776 -0.6848  1.9202 -1.4649
 7901SOL     OW35338   3.816   3.080   1.735 -0.5849 -0.2931  0.0828
 7901SOL    HW135339   3.833   3.053   1.645  0.8755 -0.9476  0.5510
 7901SOL    HW235340   3.891   3.133   1.763  0.7996 -2.2065  0.0207
 7902SOL     OW35341   3.554   0.996   5.212 -0.2843 -0.0992  0.5596
 7902SOL    HW135342   3.642   0.975   5.182  0.2306  0.0792  1.9532
 7902SOL    HW235343   3.571   0.999   5.306 -0.2625  0.1105  0.5490
 7903SOL     OW35344   3.951   2.781  13.301  0.3659  0.2021  0.3305
 7903SOL    HW135345   4.003   2.857  13.273 -2.2214  0.9285 -2.4192
 7903SOL    HW235346   3.962   2.794  13.395  3.8069 -0.5994  0.0611
 7904SOL     OW35347   2.099   0.044  10.157  0.0886 -0.2463  0.2418
 7904SOL    HW135348   2.032   0.003  10.212 -0.2586  0.8553  0.6346
 7904SOL    HW235349   2.179   4.736  10.184  0.0137 -1.4945 -1.5357
 7905SOL     OW35350   3.031   2.894   4.223 -0.1524 -0.3335 -0.3511
 7905SOL    HW135351   2.991   2.922   4.305 -0.1348 -0.5291 -0.2752
 7905SOL    HW235352   2.988   2.810   4.208  1.2277 -0.5761 -3.0666
 7906SOL     OW35353   3.512   0.446   5.493  0.2854  0.3347  0.2457
 7906SOL    HW135354   3.539   0.437   5.401 -0.1072 -0.5505  0.2167
 7906SOL    HW235355   3.430   0.400   5.509  1.9087 -2.3484  0.7516
 7907SOL     OW35356   1.048   1.490   7.543  0.0056 -0.2244  0.1708
 7907SOL    HW135357   1.020   1.544   7.469  1.1692  0.5371  0.3022
 7907SOL    HW235358   1.023   1.554   7.610  0.8004  1.9767 -1.6248
 7908SOL     OW35359   4.090   2.457   6.150 -0.0785  0.2074 -0.6415
 7908SOL    HW135360   4.148   2.427   6.220 -0.2873  1.6922  0.1654
 7908SOL    HW235361   4.019   2.393   6.143 -0.6227  0.5638  1.5551
 7909SOL     OW35362   2.382   0.452  15.203  0.0408 -0.2917  0.2733
 7909SOL    HW135363   2.463   0.410  15.173  1.2867  1.2822  1.4122
 7909SOL    HW235364   2.354   0.383  15.263  0.0980  0.2434  0.9204
 7910SOL     OW35365   4.402   2.545  10.510  0.0616  0.2836  0.2136
 7910SOL    HW135366   4.319   2.502  10.531 -0.8563  0.7133 -2.5941
 7910SOL    HW235367   4.422   2.510  10.424  2.2988 -2.2875  1.7607
 7911SOL     OW35368   3.798   1.744   6.549 -0.3380 -0.4655 -0.3092
 7911SOL    HW135369   3.789   1.790   6.465  0.1514  0.4255  0.1221
 7911SOL    HW235370   3.893   1.736   6.560 -0.2705 -1.2889 -1.4673
 7912SOL     OW35371   3.980   1.173   5.239  0.0195 -0.5078  0.0390
 7912SOL    HW135372   4.062   1.127   5.221  0.3724  0.0754  0.1355
 7912SOL    HW235373   3.996   1.265   5.217  0.6418 -0.9833 -1.5501
 7913SOL     OW35374   1.944   2.696  12.975 -0.1686 -0.1326  0.2041
 7913SOL    HW135375   1.904   2.635  13.037 -1.1683 -2.2090 -2.4607
 7913SOL    HW235376   1.985   2.754  13.038  1.0087 -1.9185  1.0691
 7914SOL     OW35377   2.008   3.628   5.782  0.1671  0.3129  0.0255
 7914SOL    HW135378   1.927   3.610   5.735 -1.9874 -0.3179  3.9622
 7914SOL    HW235379   1.967   3.665   5.860  1.5090  2.0736 -0.1096
 7915SOL     OW35380   2.189   4.707   4.889  0.1774  0.1099 -0.3328
 7915SOL    HW135381   2.099   4.678   4.902  0.5566 -0.7083  0.4902
 7915SOL    HW235382   2.228   4.666   4.967  0.4924  0.5325 -0.2666
 7916SOL     OW35383   2.415   1.555   3.052  0.4052  0.2198  0.6813
 7916SOL    HW135384   2.393   1.528   2.963 -1.3488  1.6421  0.6988
 7916SOL    HW235385   2.334   1.560   3.102  0.4736  3.1527  0.4547
 7917SOL     OW35386   4.395   1.730   6.097  0.0300  0.4378 -0.5930
 7917SOL    HW135387   4.302   1.714   6.081 -0.0573 -1.9723  2.2816
 7917SOL    HW235388   4.430   1.710   6.010 -0.7647  1.8692 -1.2394
 7918SOL     OW35389   0.237   4.609   8.677 -0.1754 -0.1945  0.1658
 7918SOL    HW135390   0.295   4.569   8.742 -0.2227 -0.1945  0.2076
 7918SOL    HW235391   0.251   4.700   8.703 -2.0651  0.4900 -1.1972
 7919SOL     OW35392   4.047   4.646   6.738 -0.4164  0.1337 -0.2645
 7919SOL    HW135393   4.076   4.733   6.767  3.0882  0.2682 -4.0934
 7919SOL    HW235394   4.129   4.602   6.760  0.2543  2.0851  1.1607
 7920SOL     OW35395   2.672   3.929   0.696  0.1232  0.3051 -0.1366
 7920SOL    HW135396   2.640   3.958   0.782 -3.1816 -1.1500 -0.8799
 7920SOL    HW235397   2.617   3.851   0.689  0.0320  0.2527  1.0258
 7921SOL     OW35398   2.327   3.282   4.817 -0.1781 -0.2483  0.0923
 7921SOL    HW135399   2.297   3.230   4.742 -0.2568 -1.0224  0.6668
 7921SOL    HW235400   2.261   3.251   4.878 -0.8986 -1.5860 -1.3509
 7922SOL     OW35401   2.247   0.846  11.585  0.5918 -0.5209  0.0894
 7922SOL    HW135402   2.306   0.784  11.542 -1.3457 -2.6331  0.4775
 7922SOL    HW235403   2.180   0.849  11.516  1.0653 -1.5139 -0.4168
 7923SOL     OW35404   0.038   1.962   0.365 -0.0170  0.1834  0.5048
 7923SOL    HW135405   4.723   1.933   0.440 -1.6292 -0.1200 -0.7236
 7923SOL    HW235406   0.078   1.878   0.341  1.7528  1.0495  0.3775
 7924SOL     OW35407   4.293   2.877   3.098  0.0269 -0.2953  0.2515
 7924SOL    HW135408   4.308   2.833   3.014  0.0751 -0.4159  0.3231
 7924SOL    HW235409   4.217   2.932   3.082  0.4110 -0.4496 -2.2540
 7925SOL     OW35410   0.330   2.657   2.460 -0.2609 -0.0345  0.0201
 7925SOL    HW135411   0.359   2.568   2.438 -0.8920 -0.4378  0.8116
 7925SOL    HW235412   0.398   2.682   2.523  0.1811  1.3725 -1.0164
 7926SOL     OW35413   4.198   1.736   2.969  0.1650  0.1147  0.0331
 7926SOL    HW135414   4.157   1.759   3.052 -1.0194  3.6771 -1.5274
 7926SOL    HW235415   4.228   1.825   2.948  1.3044 -0.1877  0.3694
 7927SOL     OW35416   4.411   2.512   5.553  0.2484  0.2651  0.1855
 7927SOL    HW135417   4.329   2.463   5.560  1.6763 -2.2623 -0.6394
 7927SOL    HW235418   4.379   2.591   5.596 -0.2484 -0.1247  0.5257
 7928SOL     OW35419   0.379   0.410   7.957  0.1351 -0.0559 -0.1294
 7928SOL    HW135420   0.414   0.499   7.959  0.0624 -0.0173 -0.6309
 7928SOL    HW235421   0.443   0.366   7.900  1.0350 -0.0800  0.8965
 7929SOL     OW35422   1.627   0.230   2.136  0.0461  0.1896  0.6661
 7929SOL    HW135423   1.627   0.158   2.072 -2.3753  0.2695  0.5860
 7929SOL    HW235424   1.718   0.226   2.165  0.4512 -2.4365 -0.9252
 7930SOL     OW35425   3.365   2.862  17.485  0.5025  0.6785 -0.3654
 7930SOL    HW135426   3.458   2.883  17.482  1.1370 -1.9287  0.3597
 7930SOL    HW235427   3.354   2.860  17.580  0.2250 -0.3607 -0.4084
 7931SOL     OW35428   4.733   0.859   5.578  0.2729  0.2602  0.3728
 7931SOL    HW135429   4.719   0.820   5.664 -1.0664  0.9646  0.4767
 7931SOL    HW235430   0.055   0.802   5.527  1.1843  1.0347  0.5386
 7932SOL     OW35431   1.039   1.630   8.729  0.2704 -0.1002 -0.7925
 7932SOL    HW135432   1.088   1.652   8.808 -1.8635 -0.9999  0.7860
 7932SOL    HW235433   1.000   1.549   8.763  2.1049 -0.4117  0.5905
 7933SOL     OW35434   1.654   0.813   3.149 -0.0733 -0.7349  0.1525
 7933SOL    HW135435   1.590   0.784   3.085  1.8032  0.9862 -2.5196
 7933SOL    HW235436   1.689   0.731   3.186 -1.0637 -2.0821 -1.8929
 7934SOL     OW35437   0.522   0.398   3.505 -0.0347 -0.1754  0.1219
 7934SOL    HW135438   0.438   0.390   3.549 -0.0046  0.9452  0.3822
 7934SOL    HW235439   0.563   0.480   3.533 -0.4535 -0.2896  1.0408
 7935SOL     OW35440   0.720   0.274  17.081  0.0696 -0.3587  0.1017
 7935SOL    HW135441   0.639   0.307  17.043 -1.9287 -2.1677  2.7999
 7935SOL    HW235442   0.756   0.236  17.001  1.4871 -0.1266  0.6316
 7936SOL     OW35443   4.241   3.450   5.524  0.5123  0.5416  0.0297
 7936SOL    HW135444   4.317   3.438   5.581 -0.4761  2.4680  1.7138
 7936SOL    HW235445   4.236   3.362   5.485 -0.0374  0.8418 -0.5852
 7937SOL     OW35446   2.076   0.877   0.942 -0.6116  0.2833  0.2379
 7937SOL    HW135447   2.077   0.954   0.886  2.1014 -0.1342 -0.2726
 7937SOL    HW235448   1.996   0.841   0.903 -0.3263 -1.7888  1.5206
 7938SOL     OW35449   3.392   1.469   9.414  0.7815 -1.0953 -0.6766
 7938SOL    HW135450   3.313   1.512   9.448  1.7229  0.0918 -0.0026
 7938SOL    HW235451   3.432   1.542   9.366 -1.5624  1.3686  1.0883
 7939SOL     OW35452   0.358   0.676   3.364 -0.2262 -0.3349 -0.0309
 7939SOL    HW135453   0.366   0.650   3.455  0.7813  0.8242  0.2214
 7939SOL    HW235454   0.421   0.749   3.368 -1.7424  1.0238 -0.7197
 7940SOL     OW35455   3.115   1.073   5.728 -0.2581 -0.0937 -0.7536
 7940SOL    HW135456   3.149   1.034   5.647  0.3844  1.0468 -1.0301
 7940SOL    HW235457   3.060   1.009   5.774  0.3044  0.6330  0.9100
 7941SOL     OW35458   3.243   4.301   3.264 -0.3663 -0.2519  0.3221
 7941SOL    HW135459   3.280   4.270   3.182 -0.6799 -0.2715  0.1875
 7941SOL    HW235460   3.151   4.276   3.253 -0.1439 -1.0540  0.2881
 7942SOL     OW35461   3.255   3.821  10.318 -0.1883  0.2817  0.2751
 7942SOL    HW135462   3.198   3.754  10.280  0.3863 -0.5390  0.8715
 7942SOL    HW235463   3.241   3.890  10.253  0.4055  2.4782  2.4873
 7943SOL     OW35464   0.412   0.602   1.927 -0.0373 -0.0147  0.5605
 7943SOL    HW135465   0.484   0.542   1.946  0.4280  0.4938  0.4152
 7943SOL    HW235466   0.449   0.670   1.871 -0.4888 -0.1199  0.1448
 7944SOL     OW35467   2.977   2.808   2.038 -0.2709 -0.4060 -0.6143
 7944SOL    HW135468   2.981   2.826   2.132 -0.5241 -3.2497 -0.0617
 7944SOL    HW235469   2.915   2.736   2.031  1.3756 -1.9459  0.8661
 7945SOL     OW35470   2.721   4.319   9.099 -0.7358  0.5409  0.4973
 7945SOL    HW135471   2.763   4.305   9.184 -0.4259 -1.7795 -0.0418
 7945SOL    HW235472   2.629   4.307   9.121 -0.7204  0.3099  0.4383
 7946SOL     OW35473   0.614   2.664   3.208 -0.1633  0.0194 -0.4473
 7946SOL    HW135474   0.704   2.633   3.211 -0.5035 -1.1403 -2.4743
 7946SOL    HW235475   0.620   2.760   3.206 -1.1680  0.1083  0.9339
 7947SOL     OW35476   3.770   2.401   8.304  0.0396 -0.0098 -0.1229
 7947SOL    HW135477   3.767   2.496   8.299  1.4216  0.0588  0.3799
 7947SOL    HW235478   3.837   2.397   8.373  2.1159  0.7542 -2.0766
 7948SOL     OW35479   0.721   4.544   4.035  0.1745 -0.2141 -0.0592
 7948SOL    HW135480   0.685   4.464   3.996 -2.9583  1.9008 -1.4837
 7948SOL    HW235481   0.638   4.591   4.033  1.0728  1.4077  0.2819
 7949SOL     OW35482   0.942   2.453   1.336  0.0394  0.3014  0.6385
 7949SOL    HW135483   0.907   2.537   1.306  0.4469  0.0214 -0.6256
 7949SOL    HW235484   0.981   2.474   1.421  0.8650  0.3321  0.2499
 7950SOL     OW35485   0.727   4.445  12.700 -0.0281  0.9548 -0.4105
 7950SOL    HW135486   0.662   4.464  12.768 -0.0527 -2.1783  0.4235
 7950SOL    HW235487   0.666   4.443  12.627  0.6006 -0.9183 -0.8711
 7951SOL     OW35488   3.069   4.240   4.092 -0.0987  0.4528  0.5539
 7951SOL    HW135489   3.008   4.218   4.022  0.2475 -0.1794  0.4558
 7951SOL    HW235490   3.047   4.180   4.163  0.3356  0.3544  0.6040
 7952SOL     OW35491   3.351   2.838   4.734  1.0606 -0.0996  0.2478
 7952SOL    HW135492   3.305   2.783   4.670  0.9506  0.9453 -0.5793
 7952SOL    HW235493   3.357   2.921   4.686  0.7197  1.3422  2.7315
 7953SOL     OW35494   2.731   4.338   6.534 -0.2365 -0.7431  0.9669
 7953SOL    HW135495   2.785   4.323   6.456 -0.3964 -0.6477  0.8383
 7953SOL    HW235496   2.794   4.372   6.597  0.5371 -0.2606 -0.0591
 7954SOL     OW35497   3.914   3.158   2.743 -0.3777  0.0888 -0.4049
 7954SOL    HW135498   3.991   3.104   2.722 -0.9096 -1.0596  0.5665
 7954SOL    HW235499   3.905   3.185   2.651 -2.3495  1.1639  0.1212
 7955SOL     OW35500   1.904   1.971   6.287  0.9406  0.1809  0.2328
 7955SOL    HW135501   1.971   2.015   6.340 -0.7646  0.8289  1.8580
 7955SOL    HW235502   1.942   1.961   6.200  2.6320 -1.5542  1.1857
 7956SOL     OW35503   3.806   3.919   6.931 -0.3403  0.0313  0.4487
 7956SOL    HW135504   3.749   3.960   6.997 -2.7529 -1.5890 -0.6427
 7956SOL    HW235505   3.848   3.847   6.979  1.7659 -0.7457 -2.5462
 7957SOL     OW35506   1.884   1.128   4.341 -0.6211 -0.4256 -0.5306
 7957SOL    HW135507   1.876   1.045   4.296 -0.4889 -0.3084 -0.7671
 7957SOL    HW235508   1.946   1.163   4.278  1.0187 -0.7444  0.8987
 7958SOL     OW35509   1.223   2.245  15.450 -0.3358  0.0690  0.3164
 7958SOL    HW135510   1.291   2.254  15.384 -0.7900  2.0515  0.1080
 7958SOL    HW235511   1.260   2.305  15.514  1.5814 -1.1851  0.3726
 7959SOL     OW35512   0.233   3.233  10.949  0.3000 -0.8277 -0.3021
 7959SOL    HW135513   0.277   3.185  10.878  0.8524 -0.7020 -0.0477
 7959SOL    HW235514   0.215   3.316  10.904  0.8138 -1.2668 -1.3206
 7960SOL     OW35515   0.540   4.495   8.194 -0.0121 -0.0078  0.4314
 7960SOL    HW135516   0.445   4.486   8.200  0.0949 -2.1511 -1.3972
 7960SOL    HW235517   0.570   4.404   8.196  1.5446  0.4961 -0.0404
 7961SOL     OW35518   4.057   3.159  12.768 -0.0378  0.1458  0.5685
 7961SOL    HW135519   4.118   3.108  12.822  0.7591 -0.1980 -0.6637
 7961SOL    HW235520   3.991   3.091  12.757  0.6157 -0.6070  1.2695
 7962SOL     OW35521   1.922   3.426  13.473  0.2210  0.8537  0.2723
 7962SOL    HW135522   1.931   3.519  13.455 -2.1403  0.8087 -1.1682
 7962SOL    HW235523   1.828   3.424  13.492  0.3251 -0.7552  0.6263
 7963SOL     OW35524   1.892   3.948   3.848  0.3321 -0.9269 -0.3080
 7963SOL    HW135525   1.848   3.981   3.926  1.9616 -2.7423  1.3683
 7963SOL    HW235526   1.869   3.856   3.851  1.7600 -1.2630  0.2874
 7964SOL     OW35527   3.775   2.861   2.696  0.6503  0.3834 -0.3215
 7964SOL    HW135528   3.725   2.941   2.683  1.0123  0.7553  0.6288
 7964SOL    HW235529   3.810   2.879   2.783 -2.8488 -2.1423  1.6269
 7965SOL     OW35530   4.504   2.726   9.211  0.3476  0.0099 -0.7660
 7965SOL    HW135531   4.588   2.719   9.256 -0.1972 -0.3056  0.1989
 7965SOL    HW235532   4.513   2.817   9.183 -0.6079  0.3022 -0.1028
 7966SOL     OW35533   3.293   3.838   7.927  0.2602  0.2605  0.1024
 7966SOL    HW135534   3.371   3.805   7.972  0.3048 -0.3903 -0.4376
 7966SOL    HW235535   3.228   3.779   7.964  1.2639 -2.6136 -2.6978
 7967SOL     OW35536   2.436   3.258   2.677  0.7427 -0.1213 -1.0152
 7967SOL    HW135537   2.491   3.318   2.625  1.4442 -0.8207 -1.0763
 7967SOL    HW235538   2.500   3.195   2.709 -1.8974 -2.5719 -0.5974
 7968SOL     OW35539   2.276   2.767  13.800  0.1281  0.2391  0.3428
 7968SOL    HW135540   2.203   2.706  13.803 -0.6646  1.1672 -0.0487
 7968SOL    HW235541   2.227   2.849  13.806 -0.6550 -0.3768  2.1854
 7969SOL     OW35542   3.043   3.612   7.987  0.1493  0.5242  0.0126
 7969SOL    HW135543   3.001   3.536   8.029 -0.0050 -1.3588 -3.5729
 7969SOL    HW235544   3.047   3.589   7.894 -0.5428 -1.0370  0.3668
 7970SOL     OW35545   2.414   2.085   8.945  0.5557 -0.0792 -0.1310
 7970SOL    HW135546   2.419   2.025   9.018 -0.5509 -0.3212 -0.2488
 7970SOL    HW235547   2.441   2.168   8.985 -3.8653  1.4017 -0.1622
 7971SOL     OW35548   0.967   2.583   0.318 -0.4856 -0.2307 -0.2394
 7971SOL    HW135549   0.908   2.508   0.333 -0.3074 -0.0207  1.5829
 7971SOL    HW235550   1.028   2.558   0.388 -1.3918 -0.0762  0.6089
 7972SOL     OW35551   0.978   0.525   2.136  0.5551 -0.4922  0.5653
 7972SOL    HW135552   0.969   0.431   2.117 -1.9285  0.0924 -1.2240
 7972SOL    HW235553   1.072   0.525   2.152  0.7944 -1.9679 -0.8284
 7973SOL     OW35554   4.485   3.684   9.430 -0.3819  0.2412  0.3430
 7973SOL    HW135555   4.491   3.762   9.376  0.3014  0.9625  1.4716
 7973SOL    HW235556   4.489   3.729   9.515  1.6867 -2.3570  1.6141
 7974SOL     OW35557   3.115   4.400   6.145  0.1431  0.1441  0.1344
 7974SOL    HW135558   3.124   4.459   6.070 -1.9599 -0.0358 -0.2652
 7974SOL    HW235559   3.193   4.344   6.145  0.5997  0.7810 -0.1906
 7975SOL     OW35560   1.453   2.668   6.734  0.1952 -0.3390 -0.1025
 7975SOL    HW135561   1.438   2.718   6.815 -0.9798 -0.9505  0.0564
 7975SOL    HW235562   1.516   2.727   6.694 -0.5286  0.7003  0.2926
 7976SOL     OW35563   2.785   0.471   8.760 -0.2244 -0.2909  0.4239
 7976SOL    HW135564   2.697   0.461   8.725 -0.5748  2.0875  0.6242
 7976SOL    HW235565   2.796   0.377   8.773  0.2837 -0.3646 -0.5683
 7977SOL     OW35566   1.129   0.817   6.925 -0.0055  0.0585  0.0877
 7977SOL    HW135567   1.193   0.868   6.876 -0.3750 -0.0125 -0.4648
 7977SOL    HW235568   1.129   0.739   6.870  0.7542  0.4026 -0.3952
 7978SOL     OW35569   2.808   1.145   7.568  0.5329  0.6334  0.1844
 7978SOL    HW135570   2.731   1.201   7.565  0.3186  0.4149  1.4797
 7978SOL    HW235571   2.825   1.128   7.475  1.8097  0.2189  0.4914
 7979SOL     OW35572   0.302   2.134   7.621  0.8936 -0.1089 -0.2301
 7979SOL    HW135573   0.380   2.102   7.667  1.9450  3.0693  0.1884
 7979SOL    HW235574   0.321   2.226   7.607 -1.9735  0.3167 -1.2726
 7980SOL     OW35575   1.227   2.349   5.338 -0.5130 -0.4253 -0.6508
 7980SOL    HW135576   1.202   2.419   5.278  0.1468  0.1473 -0.2666
 7980SOL    HW235577   1.323   2.356   5.346 -0.4631 -0.4993 -1.1942
 7981SOL     OW35578   2.781   3.529   7.178  0.1897  0.6858  0.2368
 7981SOL    HW135579   2.775   3.570   7.264 -2.6268 -2.1545  1.4304
 7981SOL    HW235580   2.862   3.568   7.145  1.1925  0.1999  2.1081
 7982SOL     OW35581   2.716   4.568  14.322  0.9091 -0.0131  0.5358
 7982SOL    HW135582   2.764   4.509  14.380 -0.3439  1.4004  3.0515
 7982SOL    HW235583   2.629   4.573  14.363  0.4854 -1.5893 -0.1602
 7983SOL     OW35584   0.241   2.332   5.427  0.3000  0.1448  0.2036
 7983SOL    HW135585   0.230   2.401   5.362 -0.7212  0.4830  0.7207
 7983SOL    HW235586   0.332   2.335   5.455 -0.1487  1.3840  1.5710
 7984SOL     OW35587   2.309   4.017   6.300  0.8171  0.1448  0.1105
 7984SOL    HW135588   2.367   4.059   6.237  2.7577  0.0874  1.8443
 7984SOL    HW235589   2.306   4.084   6.369  0.0276  0.0822  0.1366
 7985SOL     OW35590   1.183   3.354   4.965 -0.4738  0.0374 -0.1208
 7985SOL    HW135591   1.176   3.263   4.995  3.2170 -0.3621 -0.4388
 7985SOL    HW235592   1.156   3.334   4.875  1.4528 -0.4608 -0.6128
 7986SOL     OW35593   4.284   3.477   3.387 -0.7232  0.3038 -0.0311
 7986SOL    HW135594   4.195   3.496   3.357 -1.0324 -2.8493 -1.0676
 7986SOL    HW235595   4.307   3.430   3.306 -2.2535 -0.7184  0.1341
 7987SOL     OW35596   0.347   1.969   6.513 -0.3576  0.0831  0.4298
 7987SOL    HW135597   0.295   2.007   6.442  1.0425 -0.6508 -0.9828
 7987SOL    HW235598   0.431   2.007   6.490 -0.7137 -0.2835 -1.4592
 7988SOL     OW35599   4.534   2.139   7.348 -0.3887  0.1528 -0.9096
 7988SOL    HW135600   4.565   2.135   7.258 -0.0320 -1.7806 -0.7040
 7988SOL    HW235601   4.560   2.228   7.372  2.2412 -0.7057 -0.5132
 7989SOL     OW35602   2.406   2.115   3.579 -0.5507  0.2600  0.5215
 7989SOL    HW135603   2.377   2.038   3.531  0.7727 -0.3452  0.6896
 7989SOL    HW235604   2.382   2.083   3.666 -2.4134 -0.0410 -0.1130
 7990SOL     OW35605   1.336   3.720   6.024  0.3996 -0.2535 -0.5646
 7990SOL    HW135606   1.332   3.780   5.949  1.2955  0.9316  0.3342
 7990SOL    HW235607   1.366   3.778   6.094 -0.4264  0.1687 -0.5586
 7991SOL     OW35608   3.434   0.589  10.925 -0.3292  0.0356 -0.2530
 7991SOL    HW135609   3.415   0.623  10.838  0.1339 -0.7412 -0.6679
 7991SOL    HW235610   3.360   0.618  10.977  0.1505  2.9665 -1.2336
 7992SOL     OW35611   0.864   2.870   8.592 -0.2388 -0.1028 -0.2213
 7992SOL    HW135612   0.801   2.939   8.614  2.2886  1.9026  0.5664
 7992SOL    HW235613   0.914   2.919   8.527  2.1976  0.0238  1.7666
 7993SOL     OW35614   1.164   0.328  15.567  0.2003 -0.6711 -0.1907
 7993SOL    HW135615   1.086   0.384  15.557  0.3807 -0.6174 -1.2757
 7993SOL    HW235616   1.125   0.254  15.520  0.0724 -2.2009  2.3605
 7994SOL     OW35617   3.630   3.219   5.631 -0.2159  0.4281 -0.2624
 7994SOL    HW135618   3.695   3.289   5.640  0.3886 -0.1253 -0.2625
 7994SOL    HW235619   3.563   3.276   5.594 -0.7052 -0.4188 -0.7033
 7995SOL     OW35620   3.762   0.037  13.170  0.7540 -0.4499  0.0742
 7995SOL    HW135621   3.732   0.107  13.228  1.0416  0.0128 -0.3337
 7995SOL    HW235622   3.806   4.706  13.222  2.5014 -1.0931 -2.2290
 7996SOL     OW35623   0.880   2.536   7.622  0.8114  0.4497 -0.4072
 7996SOL    HW135624   0.813   2.533   7.554  0.5913 -0.8753 -0.1466
 7996SOL    HW235625   0.943   2.465   7.609  2.1495  2.0564 -2.4004
 7997SOL     OW35626   3.892   1.171   0.879  0.2989  0.8303  0.0496
 7997SOL    HW135627   3.871   1.263   0.870 -0.0207  0.8933  1.4576
 7997SOL    HW235628   3.902   1.151   0.786 -0.7282  1.0694 -0.1116
 7998SOL     OW35629   3.042   4.270  11.787 -0.4529 -0.0393 -0.6079
 7998SOL    HW135630   3.093   4.230  11.858 -0.1178 -0.8543 -1.3103
 7998SOL    HW235631   3.030   4.192  11.733 -0.1999 -1.0722  0.8075
 7999SOL     OW35632   3.289   2.598   3.581  0.6932  0.2383 -0.3922
 7999SOL    HW135633   3.232   2.529   3.546  1.0782  0.2401 -1.0086
 7999SOL    HW235634   3.226   2.650   3.630  1.1621  2.2676 -1.9516
 8000SOL     OW35635   2.061   3.133   3.283  0.0350  0.1296 -0.3006
 8000SOL    HW135636   2.059   3.147   3.378  0.0034 -2.0782  0.0422
 8000SOL    HW235637   2.032   3.041   3.281 -0.1050  0.1365  1.1367
 8001SOL     OW35638   2.902   1.800  16.718  0.1057  0.5997  0.2054
 8001SOL    HW135639   2.847   1.739  16.768  0.1360 -0.3375 -0.9171
 8001SOL    HW235640   2.988   1.775  16.750 -1.4569  0.4101  4.2819
 8002SOL     OW35641   3.706   0.590   4.671 -0.0147 -0.3333  0.1420
 8002SOL    HW135642   3.714   0.682   4.698 -2.0940 -0.2198  0.3320
 8002SOL    HW235643   3.789   0.552   4.699 -0.9768 -2.5323 -0.0240
 8003SOL     OW35644   4.702   0.005  10.638  0.0229 -0.2590  0.3452
 8003SOL    HW135645   4.730   0.012  10.547  0.4750 -1.9155  0.3600
 8003SOL    HW235646   4.725   0.090  10.674  1.2940 -0.5007  0.0866
 8004SOL     OW35647   2.134   2.962   4.226 -0.0042 -0.2069 -1.2541
 8004SOL    HW135648   2.088   3.043   4.249  1.9181  0.2792  0.9274
 8004SOL    HW235649   2.169   2.989   4.141  0.0155 -3.3721 -2.2599
 8005SOL     OW35650   1.476   3.188   4.364  0.3828  0.3320 -0.1887
 8005SOL    HW135651   1.493   3.261   4.424  0.3393 -0.5345  0.8772
 8005SOL    HW235652   1.549   3.208   4.306  3.4485  0.6113  3.7621
 8006SOL     OW35653   2.390   0.332   5.064 -0.0899 -0.1802 -0.3020
 8006SOL    HW135654   2.425   0.372   5.144 -2.0214 -0.4199  0.6589
 8006SOL    HW235655   2.461   0.268   5.055 -0.7149 -1.0190  0.8727
 8007SOL     OW35656   0.521   1.008   6.550  0.0154  0.0549  0.7253
 8007SOL    HW135657   0.601   1.058   6.564  0.5054 -0.6816  0.5479
 8007SOL    HW235658   0.530   0.931   6.607  5.7842 -1.0082 -1.6074
 8008SOL     OW35659   0.874   4.332   2.326 -0.3251  0.0450 -0.0529
 8008SOL    HW135660   0.910   4.412   2.287 -0.7966 -0.0688 -0.7165
 8008SOL    HW235661   0.799   4.319   2.269 -0.9185 -0.6339  0.8867
 8009SOL     OW35662   3.433   1.574  16.137  0.6319  0.0904  0.2500
 8009SOL    HW135663   3.396   1.512  16.200 -0.1067 -1.1151 -1.3747
 8009SOL    HW235664   3.387   1.560  16.054 -0.3082  1.2324  0.5763
 8010SOL     OW35665   4.309   3.959   5.946 -0.2830 -0.3142  0.0735
 8010SOL    HW135666   4.345   3.945   5.858 -2.5243  0.8164 -1.0426
 8010SOL    HW235667   4.282   4.050   5.933  1.7825  0.3323  0.4049
 8011SOL     OW35668   4.115   2.294   6.530 -0.2714  0.4273  0.1272
 8011SOL    HW135669   4.134   2.337   6.613 -1.6702  1.0812  0.1014
 8011SOL    HW235670   4.171   2.351   6.478 -1.8297  1.2586 -0.6437
 8012SOL     OW35671   2.091   1.209   9.699 -0.1174  0.0306 -0.4239
 8012SOL    HW135672   2.168   1.154   9.713 -0.2514  0.1279  0.6830
 8012SOL    HW235673   2.114   1.286   9.750  1.2613 -0.7350  0.0948
 8013SOL     OW35674   0.362   0.497   8.983 -0.1636  0.0515 -0.1609
 8013SOL    HW135675   0.369   0.412   8.938  3.1702  0.8509 -1.1658
 8013SOL    HW235676   0.280   0.530   8.946 -1.3706 -3.1557 -0.3976
 8014SOL     OW35677   0.531   0.895   8.114 -0.4353 -0.1106  0.1026
 8014SOL    HW135678   0.439   0.889   8.089 -0.2524 -0.8448 -0.3829
 8014SOL    HW235679   0.517   0.930   8.202 -0.3312 -0.5719  0.3029
 8015SOL     OW35680   3.081   0.688   3.300  0.6533 -0.6484  0.7905
 8015SOL    HW135681   3.086   0.599   3.334  1.1414 -1.2375 -0.8634
 8015SOL    HW235682   3.036   0.735   3.370 -0.0291  1.5052 -1.0956
 8016SOL     OW35683   3.832   1.387   3.489 -0.9895 -0.2317 -0.1937
 8016SOL    HW135684   3.762   1.330   3.457  1.1159 -1.6664 -2.1756
 8016SOL    HW235685   3.863   1.426   3.407  0.3706 -0.2939  0.2991
 8017SOL     OW35686   2.095   0.755   5.355  0.6766 -0.1694 -0.4096
 8017SOL    HW135687   2.021   0.807   5.387  3.2043  3.0526  0.1370
 8017SOL    HW235688   2.147   0.810   5.297 -0.4155  1.6488  0.3362
 8018SOL     OW35689   0.635   1.677   5.015  0.4119  0.4732  0.0711
 8018SOL    HW135690   0.648   1.584   5.033  0.0413  0.4587  0.2629
 8018SOL    HW235691   0.701   1.689   4.947 -2.4365  0.5978 -2.7150
 8019SOL     OW35692   3.823   4.623   9.264 -0.0677  0.3374 -0.3608
 8019SOL    HW135693   3.752   4.678   9.297 -0.7497 -0.5797 -0.3139
 8019SOL    HW235694   3.859   4.574   9.339  0.3972 -1.6865 -1.9064
 8020SOL     OW35695   2.659   2.076  15.254  0.2655  0.5993  0.3953
 8020SOL    HW135696   2.695   2.162  15.272  2.6186 -0.5129  0.9997
 8020SOL    HW235697   2.653   2.091  15.159 -0.3419 -2.5891 -0.1042
 8021SOL     OW35698   4.346   1.477   3.708 -0.3253 -0.0090  0.6034
 8021SOL    HW135699   4.251   1.484   3.714 -0.3219  1.0659 -0.5938
 8021SOL    HW235700   4.385   1.509   3.789  2.1946 -0.8709 -0.2814
 8022SOL     OW35701   0.189   4.386  17.616 -0.1865 -0.7416  0.1505
 8022SOL    HW135702   0.242   4.443  17.560  0.5542 -0.8241  0.7663
 8022SOL    HW235703   0.246   4.381  17.693 -0.1086 -0.2624  0.1263
 8023SOL     OW35704   2.618   2.261  15.035  0.3294  0.5189  0.1874
 8023SOL    HW135705   2.601   2.290  14.946 -0.8394  0.1211  0.2694
 8023SOL    HW235706   2.712   2.245  15.045 -0.0304 -2.5178 -1.1424
 8024SOL     OW35707   1.492   0.279  16.059  0.0664  0.0511 -0.2855
 8024SOL    HW135708   1.422   0.256  16.120  1.0132 -0.4000  0.6389
 8024SOL    HW235709   1.570   0.275  16.114  1.1923 -2.3520 -2.0038
 8025SOL     OW35710   2.696   2.071   4.839  0.2753 -0.3897 -0.4108
 8025SOL    HW135711   2.742   2.074   4.923  0.7296 -1.8376 -0.6203
 8025SOL    HW235712   2.730   2.148   4.793 -0.5963  0.1941 -0.0928
 8026SOL     OW35713   4.652   1.837   4.304 -0.0413  0.2254 -0.3927
 8026SOL    HW135714   4.700   1.900   4.357 -1.1817  1.2715 -0.6091
 8026SOL    HW235715   4.597   1.807   4.377  1.5058 -1.1078  0.2304
 8027SOL     OW35716   1.288   4.157   0.413  0.1149 -0.3587 -0.6825
 8027SOL    HW135717   1.317   4.126   0.499  1.2265 -0.1526 -0.9939
 8027SOL    HW235718   1.316   4.082   0.360  2.6933  0.5064 -0.5284
 8028SOL     OW35719   0.834   2.362   2.178 -0.6105  0.1492 -0.1181
 8028SOL    HW135720   0.773   2.306   2.131  1.5993 -1.0397 -1.5611
 8028SOL    HW235721   0.873   2.411   2.106  0.9344  0.6735  1.0849
 8029SOL     OW35722   3.484   0.770  11.356 -0.1367  0.6356 -0.4463
 8029SOL    HW135723   3.450   0.725  11.433  2.2556 -0.7928 -0.2059
 8029SOL    HW235724   3.572   0.732  11.357  0.7102  2.6541  0.0605
 8030SOL     OW35725   0.483   0.169  11.796 -0.3784  0.8076  0.0279
 8030SOL    HW135726   0.457   0.204  11.711 -0.2525 -0.1230 -0.3931
 8030SOL    HW235727   0.550   0.104  11.776 -0.7024  0.5056 -0.0897
 8031SOL     OW35728   2.376   1.677   5.974 -0.3097  0.0290 -0.0667
 8031SOL    HW135729   2.281   1.680   5.962 -0.3682 -0.6803  0.2390
 8031SOL    HW235730   2.402   1.611   5.909  0.8794 -0.0349  0.4655
 8032SOL     OW35731   3.975   1.430   1.235 -0.3209 -0.2145  0.0761
 8032SOL    HW135732   3.966   1.415   1.329  1.5746 -0.0757  0.2975
 8032SOL    HW235733   4.043   1.367   1.211 -0.4391  0.0081 -0.8377
 8033SOL     OW35734   1.170   1.793   5.953 -0.2733  0.1784  0.5476
 8033SOL    HW135735   1.228   1.725   5.989 -0.8592  0.3040  1.7210
 8033SOL    HW235736   1.087   1.765   5.992  0.3714  0.7877  2.3727
 8034SOL     OW35737   4.475   1.227  10.770 -0.0790 -0.6273  0.0227
 8034SOL    HW135738   4.444   1.148  10.725 -1.1847  0.4440 -1.1075
 8034SOL    HW235739   4.415   1.226  10.844  0.8184 -1.4206  0.7415
 8035SOL     OW35740   2.426   3.544   9.363  0.4633  0.0649 -0.2104
 8035SOL    HW135741   2.468   3.610   9.307 -1.3383  1.3383 -0.0407
 8035SOL    HW235742   2.394   3.612   9.422  0.7472 -0.1598  0.1971
 8036SOL     OW35743   4.082   0.721   5.793 -0.1887 -0.2451  0.5830
 8036SOL    HW135744   4.168   0.734   5.753 -0.3140 -0.7042  0.1752
 8036SOL    HW235745   4.077   0.626   5.786  0.3425 -0.2611  0.3901
 8037SOL     OW35746   1.892   1.646   2.216 -0.4487 -0.4322 -0.6172
 8037SOL    HW135747   1.893   1.551   2.219  1.0810 -0.4064 -0.4860
 8037SOL    HW235748   1.831   1.663   2.287  0.0950  0.1300 -0.2813
 8038SOL     OW35749   3.630   0.472   9.058 -0.5217  0.2247  0.2717
 8038SOL    HW135750   3.653   0.380   9.045  1.7948  0.3433  3.2996
 8038SOL    HW235751   3.628   0.478   9.154 -0.8999  0.6038  0.2362
 8039SOL     OW35752   2.908   3.074   1.389  0.2501  0.1895  0.2287
 8039SOL    HW135753   2.933   3.067   1.481 -0.2702 -3.4414  0.1171
 8039SOL    HW235754   2.827   3.124   1.391 -0.1044 -0.3318 -0.8843
 8040SOL     OW35755   1.995   2.082   8.012  0.5088  0.5493 -0.0068
 8040SOL    HW135756   2.077   2.080   8.060  1.4640  0.1999 -1.6683
 8040SOL    HW235757   1.992   2.174   7.986 -1.1872  0.8261  1.1745
 8041SOL     OW35758   4.734   1.058   9.918  0.2697  0.0667 -0.1558
 8041SOL    HW135759   4.712   1.086  10.007 -1.9551 -0.2952 -0.5854
 8041SOL    HW235760   4.678   1.104   9.856  0.8120  0.9941  0.0481
 8042SOL     OW35761   3.711   3.211  12.326 -0.2814 -0.3866  0.4459
 8042SOL    HW135762   3.754   3.239  12.245 -0.2681 -2.2923 -0.2200
 8042SOL    HW235763   3.623   3.250  12.327  0.1696  0.6396  0.0478
 8043SOL     OW35764   1.324   0.919  13.369 -0.1741 -0.2497 -0.2077
 8043SOL    HW135765   1.321   0.912  13.464 -2.8879  0.1958 -0.2475
 8043SOL    HW235766   1.240   0.873  13.362 -0.7681  0.4526  2.2444
 8044SOL     OW35767   1.699   1.450   1.684 -0.1499  0.1729 -0.0812
 8044SOL    HW135768   1.724   1.420   1.596  0.5821  1.4399 -0.2943
 8044SOL    HW235769   1.618   1.399   1.692 -0.0304  0.0189  0.1468
 8045SOL     OW35770   4.298   0.450   8.504  0.2540 -0.3733 -0.0990
 8045SOL    HW135771   4.313   0.444   8.410 -0.3030  3.4406 -0.4245
 8045SOL    HW235772   4.382   0.485   8.534  0.4327  0.4287 -1.5243
 8046SOL     OW35773   1.405   2.894   6.350  0.9136  0.2117  0.0364
 8046SOL    HW135774   1.466   2.965   6.369 -0.4537  1.5938 -0.7648
 8046SOL    HW235775   1.326   2.942   6.373  0.0552 -0.8525 -0.6476
 8047SOL     OW35776   2.738   4.420   2.719  0.0889 -0.8709 -0.3724
 8047SOL    HW135777   2.678   4.351   2.691 -1.2681  1.0211 -2.1425
 8047SOL    HW235778   2.677   4.485   2.754 -0.1883 -0.1627 -2.1963
 8048SOL     OW35779   3.139   0.496   2.233 -0.8389 -0.2452 -0.5129
 8048SOL    HW135780   3.105   0.533   2.315  0.0293 -0.3971 -0.0781
 8048SOL    HW235781   3.185   0.422   2.273  0.1402  1.5618  1.7597
 8049SOL     OW35782   1.240   1.836  14.785 -0.2973  0.7514  0.1718
 8049SOL    HW135783   1.202   1.753  14.754  2.2528 -0.0786 -0.7614
 8049SOL    HW235784   1.169   1.898  14.802 -1.3226 -0.1353 -0.7882
 8050SOL     OW35785   1.260   0.504   9.197  0.2068  0.3562  0.4471
 8050SOL    HW135786   1.324   0.432   9.193 -0.0009  0.2569 -1.3391
 8050SOL    HW235787   1.262   0.522   9.291 -0.7578  1.6686  0.2085
 8051SOL     OW35788   2.052   3.194  12.428 -0.4134 -0.2197  0.0839
 8051SOL    HW135789   1.970   3.192  12.379 -0.0120  1.9794 -0.6798
 8051SOL    HW235790   2.030   3.269  12.483 -3.1293 -1.5426  0.7919
 8052SOL     OW35791   2.337   4.409   3.700 -0.1464  0.4552  0.1593
 8052SOL    HW135792   2.325   4.441   3.790 -0.1460  0.7633  0.0486
 8052SOL    HW235793   2.327   4.492   3.653 -0.0323 -1.2296 -2.8429
 8053SOL     OW35794   1.556   1.880   4.086 -0.0314 -0.0357  0.5592
 8053SOL    HW135795   1.569   1.890   4.180 -0.1310  2.4860  0.3222
 8053SOL    HW235796   1.474   1.830   4.090  0.1647 -0.2749  1.5749
 8054SOL     OW35797   4.046   2.130   5.411 -0.4527  0.3924 -0.1262
 8054SOL    HW135798   3.984   2.084   5.468  0.8404 -0.6917  0.4098
 8054SOL    HW235799   4.126   2.078   5.424 -0.8318 -1.2014 -3.9260
 8055SOL     OW35800   1.748   1.721   6.982 -0.2677  0.3209 -0.3590
 8055SOL    HW135801   1.714   1.705   7.070 -2.0775  0.8215 -0.9484
 8055SOL    HW235802   1.666   1.718   6.933  0.1305  1.3953 -1.1007
 8056SOL     OW35803   4.369   2.806   7.921  0.2128 -0.6856 -0.4654
 8056SOL    HW135804   4.293   2.851   7.884  0.8515  1.3102  0.6375
 8056SOL    HW235805   4.425   2.881   7.945 -1.7057  0.3360  0.8249
 8057SOL     OW35806   0.210   4.282  15.522  0.1290 -0.3267 -0.3515
 8057SOL    HW135807   0.128   4.288  15.472  0.7946  2.5647 -1.0765
 8057SOL    HW235808   0.178   4.233  15.598 -2.0280  0.3940 -0.7984
 8058SOL     OW35809   0.712   3.497   6.713 -0.1409  0.1828 -0.2316
 8058SOL    HW135810   0.690   3.419   6.764 -1.6989  0.9799  0.3151
 8058SOL    HW235811   0.625   3.538   6.712 -0.7587 -1.1179 -0.6711
 8059SOL     OW35812   3.134   0.237   5.892 -1.0471  0.7044  0.4327
 8059SOL    HW135813   3.218   0.234   5.847 -0.4164  2.3669  1.5338
 8059SOL    HW235814   3.153   0.185   5.969 -1.7088 -0.0806  0.0733
 8060SOL     OW35815   1.399   1.521   8.511  0.0690  0.4655 -0.1506
 8060SOL    HW135816   1.344   1.461   8.461  0.1555  1.3864 -1.3299
 8060SOL    HW235817   1.353   1.513   8.595 -0.2137  0.5179 -0.2993
 8061SOL     OW35818   3.502   0.700  12.214 -0.7155 -0.0502 -0.5093
 8061SOL    HW135819   3.466   0.749  12.288 -0.0451 -0.7680  0.2893
 8061SOL    HW235820   3.583   0.747  12.197 -1.7456  1.7939 -0.3958
 8062SOL     OW35821   4.291   2.416   3.902 -0.3835  0.3152  0.3288
 8062SOL    HW135822   4.377   2.413   3.861  0.0271  2.4878  1.0114
 8062SOL    HW235823   4.320   2.468   3.977  0.9033 -0.0224  0.0541
 8063SOL     OW35824   2.983   2.105  16.983 -0.5712  0.1753  0.7935
 8063SOL    HW135825   2.909   2.127  17.040 -1.4300  0.2647 -0.3731
 8063SOL    HW235826   2.924   2.087  16.911  2.3695  1.0348 -1.8111
 8064SOL     OW35827   2.879   0.863   7.548 -0.0295 -0.0280 -0.2462
 8064SOL    HW135828   2.831   0.936   7.510  0.0578  1.4064  2.4043
 8064SOL    HW235829   2.809   0.812   7.590  0.1720  0.5560  0.7922
 8065SOL     OW35830   0.347   0.407   5.978  0.7474  0.7165 -0.2334
 8065SOL    HW135831   0.272   0.351   6.001  0.2302  2.5163  2.4716
 8065SOL    HW235832   0.403   0.338   5.943 -0.7798 -1.6545  1.9708
 8066SOL     OW35833   1.481   1.045   5.457 -0.2200 -0.1440  0.3685
 8066SOL    HW135834   1.434   1.126   5.475 -1.7323 -0.6843 -1.0926
 8066SOL    HW235835   1.518   1.020   5.542 -1.2058 -2.9549 -0.0211
 8067SOL     OW35836   1.293   4.255   4.455 -0.7217  0.0364 -0.1680
 8067SOL    HW135837   1.221   4.318   4.452 -0.9090 -0.1159  0.8456
 8067SOL    HW235838   1.247   4.172   4.446  1.1846 -1.2906  2.1221
 8068SOL     OW35839   2.422   4.734  13.828 -0.6957 -0.0888  0.5280
 8068SOL    HW135840   2.499   0.020  13.880 -0.1254  1.6724 -1.0625
 8068SOL    HW235841   2.429   0.045  13.745 -1.2943  0.5407  0.8372
 8069SOL     OW35842   3.568   4.576  13.885  0.3697 -0.6993 -0.2457
 8069SOL    HW135843   3.599   4.545  13.971 -0.0989 -0.3680  0.0413
 8069SOL    HW235844   3.531   4.663  13.898  1.3563 -0.2653 -0.3213
 8070SOL     OW35845   4.099   1.975   8.462  0.5788  0.5934 -0.6950
 8070SOL    HW135846   4.042   2.011   8.529  1.2777 -0.8052  0.6430
 8070SOL    HW235847   4.143   1.904   8.508  1.0757  2.2701  1.4189
 8071SOL     OW35848   2.637   0.335   3.931  0.4731 -0.6101 -0.5508
 8071SOL    HW135849   2.636   0.380   4.016  0.9416 -0.1353 -0.7993
 8071SOL    HW235850   2.718   0.362   3.888  0.3504 -0.8725 -0.9460
 8072SOL     OW35851   1.880   3.880   8.274  0.0345  0.3052  0.5596
 8072SOL    HW135852   1.945   3.883   8.204 -1.1343 -1.0975 -0.6127
 8072SOL    HW235853   1.900   3.788   8.293  0.2999  0.1543 -0.4105
 8073SOL     OW35854   2.051   4.385   4.822 -0.4264  0.3451 -0.3951
 8073SOL    HW135855   2.019   4.370   4.733  0.5725  0.2521 -0.7411
 8073SOL    HW235856   2.036   4.478   4.838  2.1931  0.7254 -0.1929
 8074SOL     OW35857   3.291   1.868   3.585 -0.4853  0.1094 -0.0206
 8074SOL    HW135858   3.298   1.914   3.668  0.5737  0.4632 -0.3122
 8074SOL    HW235859   3.297   1.932   3.514 -2.0554  0.6581  0.3243
 8075SOL     OW35860   0.293   1.172   5.147 -0.3313  0.5470 -0.5257
 8075SOL    HW135861   0.280   1.078   5.141 -0.7241  0.5541  0.2674
 8075SOL    HW235862   0.331   1.192   5.233  1.0049 -0.4522 -0.8846
 8076SOL     OW35863   2.533   3.892   7.912 -0.2415 -0.5519  0.1560
 8076SOL    HW135864   2.485   3.973   7.895  0.8097 -0.6535 -3.3150
 8076SOL    HW235865   2.549   3.855   7.825 -0.9354 -0.3227 -0.0665
 8077SOL     OW35866   0.051   1.587   2.441 -0.0485  0.3205 -0.4418
 8077SOL    HW135867   4.701   1.580   2.481  0.0488  3.4487  0.3334
 8077SOL    HW235868   0.011   1.593   2.354 -1.7309  0.2757  0.3441
 8078SOL     OW35869   3.440   0.528   7.054  0.4040 -0.4295 -0.6278
 8078SOL    HW135870   3.489   0.555   6.977  1.8943 -2.3479 -0.3429
 8078SOL    HW235871   3.509   0.492   7.109 -0.4052  1.8174  1.9089
 8079SOL     OW35872   3.062   3.966   7.169 -0.0098 -0.1777 -0.0307
 8079SOL    HW135873   3.031   3.926   7.088 -2.6793 -2.5882  2.1858
 8079SOL    HW235874   3.099   4.049   7.138  1.0081 -0.2030  1.0896
 8080SOL     OW35875   3.103   2.463  10.955  0.1292  0.4076 -0.1473
 8080SOL    HW135876   3.126   2.374  10.982 -2.3871 -0.7406 -1.8185
 8080SOL    HW235877   3.178   2.518  10.980  0.8863 -0.8793  0.4132
 8081SOL     OW35878   2.350   2.641   2.327  0.2905  0.1662 -0.7096
 8081SOL    HW135879   2.305   2.706   2.380  1.5158 -0.6293  1.2992
 8081SOL    HW235880   2.303   2.658   2.245  1.2432  0.5426 -1.1888
 8082SOL     OW35881   3.457   1.471   3.907 -0.2680 -0.1560  0.0004
 8082SOL    HW135882   3.516   1.421   3.850 -0.9355 -1.9141  0.8648
 8082SOL    HW235883   3.502   1.465   3.992 -0.7491 -0.6473  0.2193
 8083SOL     OW35884   4.006   0.632   2.772 -0.3098 -0.6747 -0.2814
 8083SOL    HW135885   4.009   0.727   2.757  2.3987 -0.7171 -0.0129
 8083SOL    HW235886   4.086   0.616   2.821  0.1288 -0.9243 -1.0701
 8084SOL     OW35887   4.214   0.197   8.778  0.3023  0.0389  0.1700
 8084SOL    HW135888   4.263   0.222   8.856 -0.4315  0.8834  0.3580
 8084SOL    HW235889   4.277   0.202   8.706 -1.5749 -0.1615 -1.4832
 8085SOL     OW35890   4.327   3.199  13.946 -0.6059  0.3698  0.3413
 8085SOL    HW135891   4.314   3.185  13.852 -0.9349  0.0827  0.4256
 8085SOL    HW235892   4.251   3.147  13.975  0.6991  0.2604  3.5759
 8086SOL     OW35893   1.725   4.144   9.728 -0.6674 -0.5082  0.3407
 8086SOL    HW135894   1.659   4.211   9.714 -0.7371 -0.2283  1.9424
 8086SOL    HW235895   1.794   4.188   9.778  0.0147 -0.8363 -0.3016
 8087SOL     OW35896   2.870   3.339   5.199  0.0662  0.1480 -0.1731
 8087SOL    HW135897   2.903   3.406   5.259 -1.3476  1.1562 -0.5420
 8087SOL    HW235898   2.845   3.395   5.126  4.1076 -1.5977 -2.8477
 8088SOL     OW35899   0.950   2.379   4.441 -0.2356  0.4485 -0.0811
 8088SOL    HW135900   0.951   2.371   4.346 -0.6183  1.0085 -0.1341
 8088SOL    HW235901   1.013   2.448   4.462 -0.2845  0.8203 -1.1530
 8089SOL     OW35902   1.789   2.545   5.254 -0.1742  0.1526 -0.4936
 8089SOL    HW135903   1.756   2.512   5.337  0.3302 -0.1495 -0.4184
 8089SOL    HW235904   1.791   2.639   5.274 -0.3952 -0.2937  1.6048
 8090SOL     OW35905   2.956   2.297   5.420  1.0165 -0.6393  0.3365
 8090SOL    HW135906   3.039   2.340   5.399 -1.3694  3.3856 -1.0146
 8090SOL    HW235907   2.960   2.312   5.515  1.7725 -1.4443  0.4246
 8091SOL     OW35908   2.678   2.214   3.544 -0.0570  0.4389 -0.2454
 8091SOL    HW135909   2.592   2.182   3.572  1.0113 -2.3038 -0.0133
 8091SOL    HW235910   2.661   2.237   3.453  1.2309 -0.8426 -0.8083
 8092SOL     OW35911   0.707   1.173  13.999 -0.3719  0.2615  0.0837
 8092SOL    HW135912   0.638   1.134  14.053  0.7961 -1.2997  0.4527
 8092SOL    HW235913   0.748   1.216  14.074  0.0984 -1.7509  0.9846
 8093SOL     OW35914   2.125   2.561  13.370  0.2277 -0.3864  0.1452
 8093SOL    HW135915   2.081   2.480  13.347  0.7061 -1.0454  1.5404
 8093SOL    HW235916   2.151   2.531  13.457  1.8757 -0.1685 -0.2689
 8094SOL     OW35917   0.574   0.890   8.606 -0.1055  0.3603  0.3677
 8094SOL    HW135918   0.535   0.808   8.636  2.1853 -1.3505 -1.3029
 8094SOL    HW235919   0.625   0.909   8.685 -0.2950  1.5657  0.1950
 8095SOL     OW35920   4.607   3.133   0.842 -0.2523  0.0774  0.4536
 8095SOL    HW135921   4.605   3.093   0.755  0.6048  0.4518  0.2641
 8095SOL    HW235922   4.525   3.100   0.878 -0.2468  0.0465  0.4381
 8096SOL     OW35923   1.741   4.352   8.404  0.0271 -0.2277  0.1058
 8096SOL    HW135924   1.686   4.334   8.328 -1.4214 -0.1971  1.1359
 8096SOL    HW235925   1.806   4.282   8.402 -1.0917 -1.2231 -1.5045
 8097SOL     OW35926   2.872   4.450   1.274 -0.3234 -0.3515 -0.2833
 8097SOL    HW135927   2.815   4.429   1.347  0.6810  0.3607  0.7005
 8097SOL    HW235928   2.893   4.543   1.286 -2.5604 -0.0150  1.0368
 8098SOL     OW35929   0.326   0.211  15.849  0.0067  0.0121  0.0828
 8098SOL    HW135930   0.240   0.190  15.814  0.4012 -1.4044 -0.0105
 8098SOL    HW235931   0.303   0.282  15.910  0.4882 -0.0548  0.3436
 8099SOL     OW35932   3.836   1.560  10.163 -0.0999 -0.0739 -0.0905
 8099SOL    HW135933   3.809   1.562  10.071 -1.1276  2.8558  0.2875
 8099SOL    HW235934   3.927   1.531  10.151 -0.3942 -2.2716  3.0972
 8100SOL     OW35935   0.679   1.446   5.221  0.3336 -0.1653 -0.2267
 8100SOL    HW135936   0.742   1.496   5.272  0.3499  0.1856 -0.5860
 8100SOL    HW235937   0.731   1.386   5.168  1.2095  0.9252 -0.6100
 8101SOL     OW35938   2.983   3.880   6.929 -0.5069  0.2177  0.0311
 8101SOL    HW135939   2.938   3.948   6.879 -2.8621 -0.2921  1.4975
 8101SOL    HW235940   2.910   3.819   6.937  0.7589 -1.4543 -1.2551
 8102SOL     OW35941   2.971   4.211   3.162 -0.8347 -0.1525  0.4320
 8102SOL    HW135942   2.918   4.134   3.140 -1.3261  1.1179 -2.8051
 8102SOL    HW235943   2.942   4.268   3.091  0.1540 -0.1491  0.0399
 8103SOL     OW35944   0.153   0.020   7.213  0.0820 -0.1861  0.3652
 8103SOL    HW135945   0.176   4.700   7.287  0.0246 -0.2012  0.3716
 8103SOL    HW235946   0.204   4.721   7.140 -0.0142  1.0200 -0.2902
 8104SOL     OW35947   3.536   3.058   2.694  0.4130  0.5080  0.3117
 8104SOL    HW135948   3.495   3.144   2.695 -1.5443 -0.4405  1.1664
 8104SOL    HW235949   3.488   3.020   2.767 -0.5329 -1.0479 -1.1108
 8105SOL     OW35950   1.543   0.786   5.427 -0.3459  0.1823 -0.0998
 8105SOL    HW135951   1.464   0.750   5.466 -2.3452  2.4881 -2.0271
 8105SOL    HW235952   1.526   0.880   5.420 -1.8128  0.0210  1.2356
 8106SOL     OW35953   1.046   0.867   4.063  0.0457  0.6373 -0.0396
 8106SOL    HW135954   1.050   0.788   4.009 -2.3053  0.9642 -0.6888
 8106SOL    HW235955   0.978   0.834   4.120  0.6259  0.4893  0.5629
 8107SOL     OW35956   4.397   0.237  11.565  1.0665  0.0193  0.5516
 8107SOL    HW135957   4.462   0.202  11.504  1.5318 -1.0551  1.6570
 8107SOL    HW235958   4.420   0.183  11.641  1.9224  1.0310  1.0057
 8108SOL     OW35959   1.089   0.676   2.457  0.3203 -0.1816 -0.0832
 8108SOL    HW135960   1.041   0.596   2.475 -0.9137  0.7055  0.5388
 8108SOL    HW235961   1.144   0.678   2.535  1.5968  2.9900 -1.0460
 8109SOL     OW35962   4.336   1.209   6.949  0.5845 -0.0191 -0.2330
 8109SOL    HW135963   4.298   1.274   6.890  1.8040 -0.1704 -1.1747
 8109SOL    HW235964   4.283   1.235   7.025  0.3780 -0.8265 -0.0984
 8110SOL     OW35965   4.077   3.876   8.935  0.2367  0.2393 -0.0079
 8110SOL    HW135966   4.070   3.860   9.029  0.2576  1.4198  0.1839
 8110SOL    HW235967   4.151   3.935   8.929 -0.7688  1.5310  0.3409
 8111SOL     OW35968   0.872   3.576   8.004  0.4757 -0.0075 -0.1793
 8111SOL    HW135969   0.896   3.508   7.940 -1.9181 -1.1404  0.1136
 8111SOL    HW235970   0.777   3.565   8.000  0.3941  0.8691 -0.6210
 8112SOL     OW35971   4.417   3.477   1.740  0.3363  0.2158 -0.3780
 8112SOL    HW135972   4.480   3.548   1.736 -3.2285  3.2300 -3.1770
 8112SOL    HW235973   4.334   3.509   1.702 -0.6341 -1.7758  0.0547
 8113SOL     OW35974   2.947   0.909  12.483 -0.2097 -0.3597 -0.3378
 8113SOL    HW135975   2.916   0.979  12.426  0.8263  0.1246 -0.3096
 8113SOL    HW235976   2.874   0.848  12.474 -0.5801  0.1272 -0.6508
 8114SOL     OW35977   0.612   3.022   6.582  0.0251 -0.3165 -0.0410
 8114SOL    HW135978   0.581   2.943   6.539 -2.2298  0.6019 -0.1358
 8114SOL    HW235979   0.665   3.059   6.512  0.9760  0.1786  0.9414
 8115SOL     OW35980   0.587   0.802  14.888  0.1506  0.2693  0.1249
 8115SOL    HW135981   0.610   0.770  14.975  0.6131 -0.0755 -0.1263
 8115SOL    HW235982   0.569   0.715  14.852  1.3499  0.5491 -1.1137
 8116SOL     OW35983   0.879   0.158   7.515 -0.6796  0.3827 -0.0347
 8116SOL    HW135984   0.869   0.085   7.576  1.2948 -0.1061 -0.2978
 8116SOL    HW235985   0.963   0.138   7.473 -1.0963  1.4949 -1.3894
 8117SOL     OW35986   3.316   0.935   8.126 -0.7164 -0.1857  0.1869
 8117SOL    HW135987   3.278   0.974   8.204 -0.9589  0.3193 -0.1863
 8117SOL    HW235988   3.407   0.958   8.148 -0.4778 -0.4285 -0.5215
 8118SOL     OW35989   2.355   0.374   9.507  0.2257  0.3631 -0.6496
 8118SOL    HW135990   2.275   0.376   9.454 -0.4992 -1.2177  0.3813
 8118SOL    HW235991   2.421   0.410   9.447  1.9586 -1.8982 -0.0883
 8119SOL     OW35992   4.022   1.958   1.174  0.9539  0.3739 -0.3005
 8119SOL    HW135993   4.036   1.900   1.249  0.6036 -0.8103 -1.1478
 8119SOL    HW235994   3.949   1.912   1.132 -1.1561  0.5623  3.1193
 8120SOL     OW35995   2.845   3.174  14.802  0.0647  0.0390  0.2211
 8120SOL    HW135996   2.875   3.114  14.733  0.8704  0.3775  0.2842
 8120SOL    HW235997   2.840   3.115  14.877  1.7514  0.3811  0.6039
 8121SOL     OW35998   3.786   2.921   8.583  0.0793 -0.5710  0.1510
 8121SOL    HW135999   3.770   2.838   8.628 -1.4640  0.0715  0.7729
 8121SOL    HW236000   3.734   2.907   8.504 -1.6112 -1.2227  1.3893
 8122SOL     OW36001   0.378   0.108   4.265  0.1249  0.7119 -0.1952
 8122SOL    HW136002   0.444   0.059   4.313  1.6824  0.7235 -2.3542
 8122SOL    HW236003   0.298   0.084   4.312 -0.6060  2.3356 -0.6155
 8123SOL     OW36004   2.921   0.145   2.603  0.3188  0.2437  0.0653
 8123SOL    HW136005   2.851   0.083   2.582 -2.4673  2.1148  3.8030
 8123SOL    HW236006   2.961   0.099   2.677  1.5755  1.0426 -0.1208
 8124SOL     OW36007   3.737   2.868   9.849  0.3836 -0.1278  0.0087
 8124SOL    HW136008   3.698   2.781   9.854 -0.3604  0.0823 -1.9753
 8124SOL    HW236009   3.687   2.900   9.924 -0.4490  2.6193 -1.7147
 8125SOL     OW36010   4.346   2.778   5.647 -0.0463  0.7968 -0.3387
 8125SOL    HW136011   4.279   2.842   5.672  0.2606  1.8129 -2.1283
 8125SOL    HW236012   4.396   2.832   5.586  0.9728 -0.6400 -0.7774
 8126SOL     OW36013   0.763   1.936   8.400 -0.1302 -0.3069  0.5082
 8126SOL    HW136014   0.743   1.874   8.470 -0.5733 -1.4381 -0.6318
 8126SOL    HW236015   0.814   2.005   8.443  0.5846  0.3307 -1.3464
 8127SOL     OW36016   4.498   4.402   7.116 -0.0157 -0.1638  0.1062
 8127SOL    HW136017   4.502   4.434   7.025 -1.3315 -4.9992 -1.6897
 8127SOL    HW236018   4.408   4.423   7.141  0.0086 -0.3717  0.3663
 8128SOL     OW36019   0.022   1.298   2.732 -0.2704 -0.0954 -0.5021
 8128SOL    HW136020   4.692   1.364   2.710 -0.5340  0.8189  2.9045
 8128SOL    HW236021   0.092   1.301   2.667  0.7432  1.3989  0.6477
 8129SOL     OW36022   4.680   3.863  10.662 -0.2052 -0.4705 -0.0629
 8129SOL    HW136023   4.677   3.855  10.567  1.3388 -2.8298  0.0808
 8129SOL    HW236024   4.629   3.782  10.674 -1.9766  0.5846 -0.4544
 8130SOL     OW36025   2.136   3.976   2.570 -0.3560  0.3475  0.2869
 8130SOL    HW136026   2.068   3.975   2.503 -0.3167 -2.2399  0.2639
 8130SOL    HW236027   2.213   4.005   2.520 -1.2684  0.4753 -1.0424
 8131SOL     OW36028   3.831   4.730   3.975 -0.0838  0.4373 -0.2143
 8131SOL    HW136029   3.919   0.004   3.940  0.1712 -0.9667  0.0255
 8131SOL    HW236030   3.781   4.720   3.894  0.6858 -0.1680 -0.6092
 8132SOL     OW36031   3.138   3.617   7.519 -0.0375 -0.5786 -0.2101
 8132SOL    HW136032   3.160   3.525   7.512 -0.2147 -0.5542 -1.1161
 8132SOL    HW236033   3.151   3.650   7.430  3.2136  0.4371  0.6156
 8133SOL     OW36034   4.101   1.674   6.043 -0.4550 -0.3637  0.1268
 8133SOL    HW136035   4.030   1.729   6.011 -0.7631 -0.8250  0.0183
 8133SOL    HW236036   4.134   1.639   5.960 -1.1394  1.9542 -1.1179
 8134SOL     OW36037   4.157   1.368   3.954  0.3646  0.1523 -0.4505
 8134SOL    HW136038   4.102   1.401   3.883 -0.2220  0.7624  0.2868
 8134SOL    HW236039   4.087   1.345   4.015  2.2460  0.6617  1.9219
 8135SOL     OW36040   3.818   0.523  12.981  0.1730 -0.0166  0.3074
 8135SOL    HW136041   3.826   0.513  13.076 -0.4716 -0.1333  0.3473
 8135SOL    HW236042   3.847   0.438  12.950 -1.8023 -0.1766 -1.1133
 8136SOL     OW36043   2.618   0.324  16.028  0.3011  0.0992  0.7632
 8136SOL    HW136044   2.677   0.374  16.084  0.5745  1.5422 -0.8147
 8136SOL    HW236045   2.528   0.345  16.056 -0.5351 -2.7891  0.2138
 8137SOL     OW36046   3.634   0.887   7.523  0.7163 -0.7823  0.3590
 8137SOL    HW136047   3.594   0.955   7.577  1.4452 -2.1376  2.6167
 8137SOL    HW236048   3.708   0.844   7.565  2.4067  1.6099 -0.1756
 8138SOL     OW36049   2.780   2.602  17.462  0.2317  0.1966 -0.0871
 8138SOL    HW136050   2.766   2.548  17.540 -0.8067 -2.9759 -2.4541
 8138SOL    HW236051   2.874   2.617  17.469 -0.0651  1.0819  1.9468
 8139SOL     OW36052   2.962   1.764   4.235 -0.5272  0.3285  0.0832
 8139SOL    HW136053   2.969   1.673   4.207  1.3511 -0.5789  3.5495
 8139SOL    HW236054   2.948   1.817   4.157 -3.1374 -0.1298  0.2245
 8140SOL     OW36055   4.422   1.329   0.941 -0.0122  0.5201 -0.0661
 8140SOL    HW136056   4.364   1.253   0.930  0.1871  0.4215 -0.4567
 8140SOL    HW236057   4.498   1.303   0.993 -1.0025  0.3947  1.3121
 8141SOL     OW36058   1.882   3.959   9.275  0.1758  0.2869  0.0326
 8141SOL    HW136059   1.889   3.888   9.211  1.8807 -0.2859  0.8696
 8141SOL    HW236060   1.964   3.941   9.321 -0.4720  1.1848  1.5464
 8142SOL     OW36061   1.122   2.680   8.005  0.0872 -0.1251 -0.1377
 8142SOL    HW136062   1.096   2.712   8.092 -3.5828 -0.7954 -1.0005
 8142SOL    HW236063   1.211   2.713   7.995 -0.3760  1.6705  1.5793
 8143SOL     OW36064   2.281   2.055  16.622 -0.1941 -0.1150  0.2793
 8143SOL    HW136065   2.205   2.113  16.619  0.6889  1.0249  0.2379
 8143SOL    HW236066   2.300   2.064  16.715  1.4685 -1.5028  0.0745
 8144SOL     OW36067   3.537   4.400   9.877 -0.8242 -0.3541  0.0632
 8144SOL    HW136068   3.499   4.341   9.812 -2.6858  0.5829  0.3054
 8144SOL    HW236069   3.514   4.368   9.965 -0.6453  1.5819  0.8004
 8145SOL     OW36070   1.766   3.549   8.638 -0.0981 -0.2597  0.4286
 8145SOL    HW136071   1.744   3.505   8.555 -1.6446  0.0954  0.6413
 8145SOL    HW236072   1.841   3.494   8.660 -1.0801 -0.9871  1.9114
 8146SOL     OW36073   1.683   1.431   2.024  0.2812  0.0227  0.8956
 8146SOL    HW136074   1.655   1.386   1.944  1.6690 -1.7767  1.4473
 8146SOL    HW236075   1.639   1.517   2.023 -0.3570 -0.2947  2.0649
 8147SOL     OW36076   0.390   3.113  16.707 -0.2853 -0.1660  0.1613
 8147SOL    HW136077   0.483   3.123  16.725 -0.4926  0.2887  0.9610
 8147SOL    HW236078   0.392   3.075  16.619  1.5457 -0.4100  0.3046
 8148SOL     OW36079   1.134   1.304  10.979  0.1058  0.3961  0.2976
 8148SOL    HW136080   1.114   1.219  11.018 -1.5582  0.9635  0.7042
 8148SOL    HW236081   1.043   1.335  10.971 -0.5132 -1.2706  1.0055
 8149SOL     OW36082   3.336   4.510  10.459  0.3724  0.0268  0.4107
 8149SOL    HW136083   3.274   4.580  10.476  1.3850  0.9550  0.3256
 8149SOL    HW236084   3.330   4.509  10.363 -0.5579 -0.2597  0.4773
 8150SOL     OW36085   4.449   0.756   3.522 -0.1537  0.2376  0.0141
 8150SOL    HW136086   4.481   0.717   3.603  0.6054  1.0502  0.1049
 8150SOL    HW236087   4.395   0.686   3.486 -0.4388  0.7777 -0.5979
 8151SOL     OW36088   2.147   0.827  11.324  0.0651 -0.4980 -0.6259
 8151SOL    HW136089   2.217   0.782  11.276  0.3519 -1.4693  0.7000
 8151SOL    HW236090   2.118   0.897  11.265  0.6686  0.9372  0.7986
 8152SOL     OW36091   4.006   1.381   3.714  0.3860  0.2791 -0.3357
 8152SOL    HW136092   4.023   1.288   3.703  3.2089  0.6412  0.9610
 8152SOL    HW236093   3.953   1.388   3.634  0.9197 -0.8429 -0.7770
 8153SOL     OW36094   1.672   4.570   6.298  0.4564 -0.3259  0.1005
 8153SOL    HW136095   1.701   4.481   6.320 -0.0565 -1.0043 -1.9442
 8153SOL    HW236096   1.696   4.576   6.205  1.2401 -1.5322  0.2177
 8154SOL     OW36097   4.214   0.599   1.139  0.9275  0.8940 -0.0282
 8154SOL    HW136098   4.130   0.640   1.159  0.9795 -0.2071  2.3554
 8154SOL    HW236099   4.269   0.622   1.214  1.8507  1.7778 -0.9691
 8155SOL     OW36100   4.305   3.185   2.689 -0.6378 -0.0318  0.3864
 8155SOL    HW136101   4.383   3.236   2.667 -1.1590  0.2862 -0.6987
 8155SOL    HW236102   4.265   3.171   2.603  0.9300  4.4389 -1.0355
 8156SOL     OW36103   3.871   3.994   1.343 -0.1699  0.0946 -0.5771
 8156SOL    HW136104   3.846   4.023   1.431  1.5114 -2.4357  0.7216
 8156SOL    HW236105   3.888   4.072   1.290 -2.5444  0.8478 -0.2311
 8157SOL     OW36106   1.040   1.619  16.937  0.3849  0.5022  0.2540
 8157SOL    HW136107   1.047   1.534  16.892 -0.3890  1.0342 -0.8659
 8157SOL    HW236108   1.119   1.663  16.905  0.4603  0.5144  0.4532
 8158SOL     OW36109   3.590   4.102   6.271 -0.3853 -0.1615  0.0640
 8158SOL    HW136110   3.633   4.048   6.337  1.5164  0.1492 -0.9163
 8158SOL    HW236111   3.561   4.176   6.326 -0.6548  0.8927 -1.5002
 8159SOL     OW36112   1.405   4.394   0.136 -0.1733 -0.0183 -0.5567
 8159SOL    HW136113   1.474   4.379   0.201 -2.0640  0.3080  1.5027
 8159SOL    HW236114   1.389   4.483   0.168  1.8809 -0.5537  2.0046
 8160SOL     OW36115   4.378   3.763   3.001 -0.2320 -0.0634  0.3767
 8160SOL    HW136116   4.319   3.824   3.045  0.4363  0.3245  0.7406
 8160SOL    HW236117   4.463   3.773   3.045 -0.2332 -1.0429  0.6127
 8161SOL     OW36118   2.379   1.716   6.754  0.3707  0.5236  0.6459
 8161SOL    HW136119   2.453   1.750   6.704 -0.2438  2.1674  0.8371
 8161SOL    HW236120   2.373   1.621   6.741 -0.9889  0.6528  0.3653
 8162SOL     OW36121   3.534   1.106   6.939  0.0656  0.4756  0.0360
 8162SOL    HW136122   3.621   1.091   6.975 -0.4055 -0.2784  0.8767
 8162SOL    HW236123   3.544   1.122   6.845  1.4458 -3.1156 -0.4102
 8163SOL     OW36124   0.688   1.103   3.517 -0.7581 -0.2895  0.2164
 8163SOL    HW136125   0.618   1.165   3.536  0.3158  1.4813 -1.6902
 8163SOL    HW236126   0.693   1.109   3.422 -0.4413  0.2172  0.2713
 8164SOL     OW36127   3.899   1.302   4.889  0.0595 -0.0070 -0.0178
 8164SOL    HW136128   3.811   1.287   4.924  0.2384  1.6010  1.1306
 8164SOL    HW236129   3.897   1.398   4.882  2.2934 -0.0204 -0.7235
 8165SOL     OW36130   3.829   3.157   0.817 -0.3850  0.2003 -0.5246
 8165SOL    HW136131   3.804   3.117   0.733  0.0762  0.3293 -0.7241
 8165SOL    HW236132   3.864   3.235   0.774  1.6587 -1.1313 -1.3321
 8166SOL     OW36133   0.990   4.209   5.145 -0.0185 -0.4917  0.3420
 8166SOL    HW136134   0.989   4.282   5.082 -0.1715 -1.6975 -1.0401
 8166SOL    HW236135   0.899   4.220   5.175  0.5240 -0.8356  2.1292
 8167SOL     OW36136   4.612   3.981  15.687  0.2536  0.3250 -0.0832
 8167SOL    HW136137   4.702   4.010  15.699  1.0589 -2.2897  0.2384
 8167SOL    HW236138   4.622   3.892  15.654  0.3279  0.1588  0.3881
 8168SOL     OW36139   2.258   2.898   3.413  0.1380  0.0699 -0.1030
 8168SOL    HW136140   2.262   2.977   3.467  0.9644 -0.0712  0.0350
 8168SOL    HW236141   2.178   2.861   3.451  0.6784 -0.8654  0.1241
 8169SOL     OW36142   0.403   2.163   4.931  0.4348 -0.5892  0.5425
 8169SOL    HW136143   0.344   2.228   4.892  1.8103 -0.0945 -0.7012
 8169SOL    HW236144   0.481   2.208   4.962 -1.0858  2.1892  0.3707
 8170SOL     OW36145   2.086   4.695   3.482  0.3097 -0.2544 -0.2924
 8170SOL    HW136146   2.083   4.645   3.564 -1.1356 -1.8533 -1.3278
 8170SOL    HW236147   1.997   4.729   3.479 -0.2679 -1.8987 -1.3071
 8171SOL     OW36148   2.386   1.380  16.182  0.1804  0.2217  0.2293
 8171SOL    HW136149   2.357   1.330  16.106  2.7879 -0.9829  0.0410
 8171SOL    HW236150   2.300   1.408  16.213 -0.3664 -2.6246  1.3116
 8172SOL     OW36151   2.050   2.459   5.451  0.6472 -0.0660  0.2658
 8172SOL    HW136152   2.038   2.371   5.417  2.7937  0.4291 -1.8026
 8172SOL    HW236153   1.959   2.487   5.440  1.5816  2.8297 -0.3322
 8173SOL     OW36154   3.398   1.883   2.144  0.5109  0.2410  0.2255
 8173SOL    HW136155   3.360   1.968   2.120 -1.4666 -1.0424 -1.2116
 8173SOL    HW236156   3.480   1.917   2.180  0.7090 -1.6259  1.5570
 8174SOL     OW36157   2.398   0.160   5.377 -0.6012  0.4011  0.3435
 8174SOL    HW136158   2.458   0.181   5.306 -0.2550 -0.5509  0.3566
 8174SOL    HW236159   2.467   0.155   5.444  0.7618 -0.4524 -1.1460
 8175SOL     OW36160   0.843   2.355   0.322  0.1713 -0.0591  0.4570
 8175SOL    HW136161   0.780   2.297   0.364 -0.1355 -0.8045 -1.0500
 8175SOL    HW236162   0.811   2.380   0.235  2.3095 -0.7091 -0.5202
 8176SOL     OW36163   2.248   1.661   1.419 -0.1879 -0.2941 -0.6609
 8176SOL    HW136164   2.210   1.607   1.349 -1.0591 -0.8314  0.2208
 8176SOL    HW236165   2.198   1.741   1.406 -1.6780 -1.0292  0.5163
 8177SOL     OW36166   3.544   0.394   1.694 -0.4530 -0.1615 -0.1574
 8177SOL    HW136167   3.505   0.329   1.635  1.1743 -0.1752 -1.2162
 8177SOL    HW236168   3.490   0.469   1.669 -1.3497 -1.4899 -2.1824
 8178SOL     OW36169   2.502   4.623   4.975  0.0280  0.2798 -0.1265
 8178SOL    HW136170   2.435   4.597   5.038  0.7355  1.2168  1.0197
 8178SOL    HW236171   2.472   4.582   4.894 -2.8582 -1.8147  1.9506
 8179SOL     OW36172   3.337   1.721   3.947 -0.0430  0.1839  0.1386
 8179SOL    HW136173   3.387   1.645   3.916 -0.8543 -0.2149 -0.1725
 8179SOL    HW236174   3.272   1.671   3.996  1.5406 -0.5990  1.4537
 8180SOL     OW36175   2.604   2.098   5.211  0.5619 -0.5884 -0.3867
 8180SOL    HW136176   2.664   2.035   5.173 -0.5209 -1.5708 -0.4698
 8180SOL    HW236177   2.554   2.039   5.267  1.5209 -1.2385 -0.2285
 8181SOL     OW36178   4.083   4.223  16.345 -0.1739  0.1686 -0.3979
 8181SOL    HW136179   4.019   4.289  16.319 -0.6621  0.1933  0.8522
 8181SOL    HW236180   4.119   4.206  16.258 -1.9117 -0.5105 -0.9739
 8182SOL     OW36181   0.139   3.007   6.627 -0.7878 -0.3367 -0.1105
 8182SOL    HW136182   0.206   3.068   6.660 -0.2877 -0.7308 -0.3950
 8182SOL    HW236183   0.093   2.963   6.699 -2.4793 -1.8554 -2.1446
 8183SOL     OW36184   2.449   4.264   2.585  0.3475 -0.4407 -0.8175
 8183SOL    HW136185   2.386   4.226   2.646 -1.7421  0.0650 -2.6858
 8183SOL    HW236186   2.473   4.191   2.527 -2.1961 -2.1852  0.3314
 8184SOL     OW36187   4.535   0.845   4.848  0.0192 -0.3752  0.2067
 8184SOL    HW136188   4.493   0.824   4.931 -1.1476 -0.7214 -0.4805
 8184SOL    HW236189   4.533   0.941   4.845  2.2202 -0.3075  0.7538
 8185SOL     OW36190   4.697   3.399   5.814  0.6875 -0.3179  0.0990
 8185SOL    HW136191   4.657   3.477   5.852  1.3280  0.2774 -0.4649
 8185SOL    HW236192   0.028   3.373   5.876  0.9698  1.3857  0.4750
 8186SOL     OW36193   2.884   1.420   7.670 -0.1040  0.1914 -0.2291
 8186SOL    HW136194   2.804   1.399   7.622 -0.0915  1.1804 -0.6602
 8186SOL    HW236195   2.917   1.334   7.698  0.2880 -0.2679 -2.0792
 8187SOL     OW36196   3.447   3.575   8.384  0.4752  0.0029  0.1888
 8187SOL    HW136197   3.462   3.547   8.474  2.8757  0.8246  0.0364
 8187SOL    HW236198   3.524   3.628   8.368 -0.1887  0.9073 -0.0072
 8188SOL     OW36199   0.857   0.298   9.840 -0.8020  0.1519  0.4485
 8188SOL    HW136200   0.909   0.270   9.765  0.1180 -0.3148  1.2659
 8188SOL    HW236201   0.788   0.232   9.843  0.9348 -1.5997  2.1870
 8189SOL     OW36202   2.056   3.013   9.479  0.3022  0.2247 -0.5624
 8189SOL    HW136203   2.106   3.094   9.473 -0.2283  0.7558  2.4278
 8189SOL    HW236204   2.124   2.946   9.486  0.8146  1.1901  3.3699
 8190SOL     OW36205   0.809   3.608  16.636  0.0038  0.1890 -0.6560
 8190SOL    HW136206   0.871   3.606  16.563  0.1614  3.8458 -0.6378
 8190SOL    HW236207   0.792   3.703  16.640  2.4164  0.5394  1.2577
 8191SOL     OW36208   4.072   3.150   9.856 -0.0510  0.4512 -0.0826
 8191SOL    HW136209   3.990   3.174   9.899  0.0971 -0.4383  0.6920
 8191SOL    HW236210   4.136   3.178   9.921 -0.3459  0.5887  0.1466
 8192SOL     OW36211   3.379   4.093  11.359  0.2078 -0.2401 -0.1996
 8192SOL    HW136212   3.467   4.054  11.355  0.7184  0.9792 -0.7088
 8192SOL    HW236213   3.335   4.038  11.425 -0.9281 -0.4575 -1.1408
 8193SOL     OW36214   1.004   0.710   5.219  0.2805  0.2048 -1.3876
 8193SOL    HW136215   1.099   0.702   5.221  0.1452 -1.7601 -2.6193
 8193SOL    HW236216   0.974   0.629   5.177 -3.0891  0.3094  0.7947
 8194SOL     OW36217   0.953   1.017   6.991 -0.2081 -0.1566 -0.5675
 8194SOL    HW136218   1.017   0.945   6.984  0.5964  0.4893  0.1136
 8194SOL    HW236219   0.882   0.983   6.936 -1.9047  2.8398 -0.2285
 8195SOL     OW36220   1.131   3.917   7.145  0.4564 -0.0117 -0.0814
 8195SOL    HW136221   1.094   3.940   7.230  0.8138 -0.1114  0.0955
 8195SOL    HW236222   1.185   3.996   7.139  1.3094 -0.5972  0.0516
 8196SOL     OW36223   4.333   2.560  15.595 -0.5258 -0.0027 -0.4103
 8196SOL    HW136224   4.267   2.624  15.568 -1.1598 -0.8324 -0.8301
 8196SOL    HW236225   4.358   2.518  15.513  1.3295 -0.8532  0.6041
 8197SOL     OW36226   1.701   2.156   5.280  0.2946 -0.1765 -0.5626
 8197SOL    HW136227   1.752   2.131   5.357 -1.0983 -0.5103  0.2568
 8197SOL    HW236228   1.628   2.210   5.310  0.7238  0.1930 -0.1966
 8198SOL     OW36229   1.466   2.455  17.686 -0.1762 -0.4254  0.0033
 8198SOL    HW136230   1.542   2.513  17.694 -1.0906  0.6570  1.0221
 8198SOL    HW236231   1.488   2.392  17.618 -0.2411 -1.3475  0.8372
 8199SOL     OW36232   0.694   0.259  15.258 -0.4179 -0.2812 -0.5902
 8199SOL    HW136233   0.680   0.279  15.351 -1.5175 -0.1429 -0.7895
 8199SOL    HW236234   0.782   0.297  15.252 -0.3103 -0.3739  0.3415
 8200SOL     OW36235   1.470   1.497   7.416  0.3020 -0.2805 -0.5404
 8200SOL    HW136236   1.527   1.427   7.448  1.2623  0.4525 -0.6577
 8200SOL    HW236237   1.477   1.559   7.488  0.1594 -1.7744  0.7569
 8201SOL     OW36238   1.858   0.023   6.879 -0.1165 -0.1443  0.2826
 8201SOL    HW136239   1.802   0.004   6.803  0.8143  1.3597 -0.7915
 8201SOL    HW236240   1.941   0.039   6.833  0.7151  0.1759  1.9152
 8202SOL     OW36241   2.503   3.436   5.360 -1.3028 -0.0757 -0.2896
 8202SOL    HW136242   2.432   3.439   5.424 -0.5146  2.5698  0.4712
 8202SOL    HW236243   2.581   3.443   5.415 -1.7978 -0.9190  0.5181
 8203SOL     OW36244   3.825   0.118   9.456  0.4489  0.2479  0.3367
 8203SOL    HW136245   3.748   0.100   9.403  1.1477 -1.1134 -0.2218
 8203SOL    HW236246   3.787   0.148   9.539  0.4591  2.8407 -0.6031
 8204SOL     OW36247   2.544   1.056  16.572  0.2244 -0.2025  0.3463
 8204SOL    HW136248   2.531   1.117  16.500  1.1583 -0.1520  0.2223
 8204SOL    HW236249   2.639   1.066  16.583  0.0004  3.1660 -1.0709
 8205SOL     OW36250   3.523   3.200   9.551  0.0377 -0.3409  0.0407
 8205SOL    HW136251   3.519   3.135   9.481 -1.6997 -0.7423  0.5012
 8205SOL    HW236252   3.533   3.279   9.498 -2.0072  0.8220  1.3638
 8206SOL     OW36253   1.039   0.514   9.886 -0.3033  0.1235  0.6720
 8206SOL    HW136254   0.958   0.525   9.837  0.1033 -0.2185 -0.0795
 8206SOL    HW236255   1.074   0.427   9.865  2.0071  1.0953  0.4161
 8207SOL     OW36256   1.422   0.942   7.409 -0.0622  0.0393 -0.6259
 8207SOL    HW136257   1.438   1.036   7.399  3.5790 -0.5248  0.0086
 8207SOL    HW236258   1.388   0.923   7.322  0.6524  0.1311 -0.9228
 8208SOL     OW36259   2.995   3.678  13.315  1.0388 -0.0381 -0.1111
 8208SOL    HW136260   2.935   3.752  13.317 -0.9707 -1.6476 -0.4981
 8208SOL    HW236261   2.999   3.656  13.408 -1.5422 -0.7722 -0.1781
 8209SOL     OW36262   4.281   1.495   8.520 -0.4953  0.3307  0.3508
 8209SOL    HW136263   4.342   1.449   8.463 -1.3474 -2.5482  1.7454
 8209SOL    HW236264   4.197   1.479   8.476  0.0449  1.3908 -1.0643
 8210SOL     OW36265   2.267   0.173   3.420  0.0518 -0.4493  0.1369
 8210SOL    HW136266   2.233   0.086   3.442  0.3362 -0.9356 -1.3872
 8210SOL    HW236267   2.244   0.213   3.504  0.0024  0.0230 -0.1041
 8211SOL     OW36268   3.993   1.585  17.523 -0.3705 -0.2158 -0.3397
 8211SOL    HW136269   3.954   1.501  17.501 -0.6197 -0.0673 -0.4701
 8211SOL    HW236270   3.915   1.637  17.544  1.1986  1.6153  0.9878
 8212SOL     OW36271   0.746   0.137   1.620 -0.3672  0.6384  0.5276
 8212SOL    HW136272   0.729   0.187   1.700 -1.1132  0.5065  0.4485
 8212SOL    HW236273   0.658   0.122   1.586 -0.7095  2.3460  0.6662
 8213SOL     OW36274   0.102   3.799  11.737  0.7539  0.4129  0.1716
 8213SOL    HW136275   0.093   3.723  11.795  0.0908  0.2304 -0.1652
 8213SOL    HW236276   0.013   3.793  11.701  0.5546 -1.3566  0.9455
 8214SOL     OW36277   2.750   0.465  16.581  0.1543 -0.1268  0.7074
 8214SOL    HW136278   2.821   0.421  16.535  1.2540 -0.3291  2.6374
 8214SOL    HW236279   2.717   0.390  16.630 -1.3283  1.2212  1.7684
 8215SOL     OW36280   4.672   2.041   3.667 -0.3953  0.1146 -0.0463
 8215SOL    HW136281   4.708   2.024   3.580 -1.4456 -0.3522 -0.3912
 8215SOL    HW236282   4.730   2.106   3.706  1.0620  0.2337 -2.4354
 8216SOL     OW36283   3.297   3.153   7.460  0.1796  0.0346  0.2920
 8216SOL    HW136284   3.354   3.222   7.427  1.2627 -1.0158  0.0018
 8216SOL    HW236285   3.314   3.161   7.554  0.5069 -0.0962  0.2412
 8217SOL     OW36286   2.389   1.716   5.100 -0.3239 -0.2397  0.2867
 8217SOL    HW136287   2.445   1.734   5.025 -1.4174 -1.5412 -0.8539
 8217SOL    HW236288   2.464   1.704   5.158 -0.0705 -2.1260 -0.4465
 8218SOL     OW36289   4.631   4.280  14.665  0.3837 -0.0637 -0.7799
 8218SOL    HW136290   4.608   4.264  14.574  1.5349 -1.3380 -0.8464
 8218SOL    HW236291   4.643   4.189  14.695  0.9480 -0.2623 -1.6154
 8219SOL     OW36292   2.366   3.724   0.500 -0.2654  0.0562  0.1221
 8219SOL    HW136293   2.427   3.696   0.568 -2.0050  1.3392  2.2551
 8219SOL    HW236294   2.427   3.770   0.443  0.0431 -1.4990 -0.7832
 8220SOL     OW36295   0.453   3.551  17.062  0.6217  0.4603 -0.6708
 8220SOL    HW136296   0.520   3.525  17.126  0.4302  2.2312  0.2441
 8220SOL    HW236297   0.445   3.466  17.018 -1.5972  0.4352 -0.2359
 8221SOL     OW36298   0.618   0.000  10.693 -0.4080  0.1703 -0.2841
 8221SOL    HW136299   0.533   4.731  10.649 -0.4593 -1.5808  0.0435
 8221SOL    HW236300   0.669   4.716  10.615 -1.0900  1.0991 -0.9811
 8222SOL     OW36301   1.904   1.266   2.546 -0.2448 -1.1243 -0.0636
 8222SOL    HW136302   1.820   1.274   2.593 -0.0154  1.0318 -0.0199
 8222SOL    HW236303   1.961   1.280   2.622 -1.3069 -1.1765  0.7525
 8223SOL     OW36304   0.634   1.276  17.142 -0.1158  0.2088  0.5949
 8223SOL    HW136305   0.588   1.333  17.080  0.0541  1.1233  1.3174
 8223SOL    HW236306   0.672   1.214  17.080  0.2893 -0.2825  1.3297
 8224SOL     OW36307   1.578   0.433  15.196 -0.0259  0.2000 -0.0938
 8224SOL    HW136308   1.630   0.420  15.117  0.8245 -4.6670  1.2413
 8224SOL    HW236309   1.607   0.355  15.245 -0.6661  1.0613  1.6675
 8225SOL     OW36310   3.851   0.370   9.667 -0.2829 -0.1643 -0.4839
 8225SOL    HW136311   3.780   0.382   9.730 -0.1739  1.8091 -0.7424
 8225SOL    HW236312   3.847   0.457   9.627  1.9756 -0.5960 -1.6185
 8226SOL     OW36313   0.209   4.560   7.668  0.2310  1.0463 -0.0701
 8226SOL    HW136314   0.216   4.655   7.676  1.1136  0.9512  0.3129
 8226SOL    HW236315   0.174   4.532   7.752 -1.0942 -3.4154 -2.1209
 8227SOL     OW36316   3.471   3.475  12.559  0.2920 -0.4613 -0.5056
 8227SOL    HW136317   3.562   3.453  12.581 -0.5448 -1.1258  2.3418
 8227SOL    HW236318   3.451   3.426  12.479  1.3847 -2.3118  0.3305
 8228SOL     OW36319   2.573   2.709   5.945  0.0071 -0.2356 -0.5223
 8228SOL    HW136320   2.537   2.747   5.864  0.6690  0.9521 -0.2702
 8228SOL    HW236321   2.570   2.792   5.993  1.1380  0.5409 -1.7763
 8229SOL     OW36322   1.700   2.376  10.190 -1.0311  0.6546  0.1521
 8229SOL    HW136323   1.717   2.383  10.284 -0.5676  0.1188  0.1026
 8229SOL    HW236324   1.612   2.339  10.193 -1.1702  0.9510 -0.2120
 8230SOL     OW36325   0.268   1.459   5.053 -0.2374 -0.2866 -0.2180
 8230SOL    HW136326   0.301   1.369   5.054  0.7700  0.0506 -3.1067
 8230SOL    HW236327   0.280   1.489   5.144  0.0871  0.1181 -0.3972
 8231SOL     OW36328   2.945   1.412   2.580  0.3471 -0.0487  0.7189
 8231SOL    HW136329   2.863   1.365   2.595  0.1133  0.9446  2.4418
 8231SOL    HW236330   2.905   1.491   2.543  0.4376 -0.5763 -0.5183
 8232SOL     OW36331   1.732   2.576   8.811 -0.1974 -0.1921 -0.3527
 8232SOL    HW136332   1.811   2.531   8.842  1.2539  3.3454  1.0576
 8232SOL    HW236333   1.692   2.610   8.890  0.4583 -0.6799  0.1858
 8233SOL     OW36334   0.405   0.957   8.352 -0.1565  0.1872 -0.3736
 8233SOL    HW136335   0.404   0.992   8.441 -1.0318  0.7326 -0.6028
 8233SOL    HW236336   0.315   0.926   8.344  0.4403 -1.6860  0.1384
 8234SOL     OW36337   1.554   3.076   0.893  0.3135  0.0019  0.4701
 8234SOL    HW136338   1.484   3.102   0.833  1.9066 -1.2671 -1.9447
 8234SOL    HW236339   1.508   3.025   0.960  1.0903 -0.5170  0.6114
 8235SOL     OW36340   0.357   1.245  17.507  0.0971 -0.0084 -0.4867
 8235SOL    HW136341   0.373   1.216  17.597 -1.7954 -1.0031 -0.4829
 8235SOL    HW236342   0.421   1.316  17.500 -1.6356  1.4815 -1.3935
 8236SOL     OW36343   0.086   0.657   6.119 -0.4734 -0.3507  0.3556
 8236SOL    HW136344   0.066   0.661   6.025  0.3732 -0.6301  0.1591
 8236SOL    HW236345   0.008   0.607   6.144 -1.3799  0.9421  0.0850
 8237SOL     OW36346   4.026   3.259   9.590  0.2730 -0.6931 -0.1865
 8237SOL    HW136347   3.974   3.219   9.519  0.5786 -1.0910 -0.1806
 8237SOL    HW236348   3.982   3.223   9.667  0.6621 -0.2077  0.2604
 8238SOL     OW36349   3.040   3.670   4.089  0.5318 -0.2680 -0.2152
 8238SOL    HW136350   3.133   3.663   4.067  0.5248 -2.8310  0.6065
 8238SOL    HW236351   3.003   3.693   4.004  1.1937 -0.5834 -0.5886
 8239SOL     OW36352   0.134   4.052   4.579  0.0627 -0.0021 -0.1412
 8239SOL    HW136353   0.186   3.973   4.597 -1.0500 -0.9295 -0.9544
 8239SOL    HW236354   0.195   4.102   4.526 -1.5476  0.7363 -1.2970
 8240SOL     OW36355   3.863   4.684   9.012  0.7433  0.0446 -0.4329
 8240SOL    HW136356   3.905   0.029   9.040  0.5074  0.1231 -0.3101
 8240SOL    HW236357   3.858   4.637   9.095  1.7101 -0.4148 -0.6371
 8241SOL     OW36358   4.639   0.166   4.882 -0.1013  0.0212  0.6776
 8241SOL    HW136359   4.627   0.169   4.787  3.7263 -0.5502  0.1633
 8241SOL    HW236360   4.630   0.075   4.911 -2.1936 -0.1119 -0.3964
 8242SOL     OW36361   3.486   0.658   2.959  0.1280  0.0379  0.0202
 8242SOL    HW136362   3.536   0.680   2.880  0.3159 -1.2202 -0.2125
 8242SOL    HW236363   3.501   0.730   3.020  1.6777 -1.3972  1.3318
 8243SOL     OW36364   3.730   4.469   5.508  0.0127 -0.3067 -0.4681
 8243SOL    HW136365   3.800   4.527   5.538 -0.3336 -0.8033  1.2804
 8243SOL    HW236366   3.660   4.501   5.564  0.2948  0.9586 -0.8257
 8244SOL     OW36367   2.471   2.850  11.822  0.0864  0.1091  0.0035
 8244SOL    HW136368   2.403   2.907  11.789  1.2415  1.6019  0.1881
 8244SOL    HW236369   2.425   2.812  11.897 -1.0296  0.3610 -0.5579
 8245SOL     OW36370   1.612   1.625  14.290  0.2475 -0.2771 -0.6249
 8245SOL    HW136371   1.544   1.562  14.314  0.6793 -0.7537 -0.6612
 8245SOL    HW236372   1.556   1.700  14.271  2.5932  1.5770 -0.2226
 8246SOL     OW36373   2.113   4.153   9.178  0.4536 -0.4931  0.0188
 8246SOL    HW136374   2.108   4.235   9.228  1.3891  0.9064 -2.1873
 8246SOL    HW236375   2.068   4.093   9.238  0.3179  0.7810  1.1872
 8247SOL     OW36376   1.996   3.368   4.935 -0.5599 -0.3425 -0.3472
 8247SOL    HW136377   1.928   3.435   4.943 -0.0156  0.2978 -1.0387
 8247SOL    HW236378   2.019   3.372   4.842  1.1520 -1.5420  0.0164
 8248SOL     OW36379   1.313   0.961  17.467 -0.6710 -1.0658 -0.2117
 8248SOL    HW136380   1.383   1.015  17.432  0.1290 -2.2340 -0.3996
 8248SOL    HW236381   1.349   0.940  17.553  1.5957  1.8869 -0.4471
 8249SOL     OW36382   4.024   1.995   7.737  0.3902 -0.2017  0.4464
 8249SOL    HW136383   3.997   1.906   7.759  0.8514  0.0767  2.0831
 8249SOL    HW236384   4.098   1.987   7.797  0.3870 -0.7357  0.3756
 8250SOL     OW36385   2.230   1.255   2.983 -0.1358 -0.2418  0.1913
 8250SOL    HW136386   2.214   1.340   2.943 -1.5504 -1.0099 -0.8561
 8250SOL    HW236387   2.298   1.235   2.918  1.4995  0.4738  1.6634
 8251SOL     OW36388   2.103   0.022   7.749  0.2045 -0.1191  0.5115
 8251SOL    HW136389   2.038   0.084   7.716  0.6570 -0.5813 -1.2126
 8251SOL    HW236390   2.106   0.043   7.843  1.3417 -0.3864  0.5397
 8252SOL     OW36391   3.555   0.261  15.589 -0.8115  0.2067  0.3742
 8252SOL    HW136392   3.574   0.261  15.682  1.7627  0.0553 -0.1685
 8252SOL    HW236393   3.611   0.333  15.561  1.3187 -0.9925  1.6070
 8253SOL     OW36394   4.096   4.723   7.469 -0.2334 -0.2391  0.0177
 8253SOL    HW136395   4.123   0.079   7.472 -0.5095 -0.1521 -0.2260
 8253SOL    HW236396   4.097   4.705   7.563 -1.4114 -1.9313 -0.3121
 8254SOL     OW36397   3.458   1.327   4.692 -0.2556  0.3507 -0.4512
 8254SOL    HW136398   3.537   1.307   4.643 -0.7154 -1.5524 -0.3927
 8254SOL    HW236399   3.465   1.423   4.690  0.4769  0.3454  1.3550
 8255SOL     OW36400   1.220   4.219   2.375  0.3046 -0.0415 -0.4202
 8255SOL    HW136401   1.181   4.225   2.288  1.0454  1.4589 -0.6428
 8255SOL    HW236402   1.304   4.172   2.369 -0.0220 -0.8852  1.8906
 8256SOL     OW36403   1.511   4.119   1.890  0.4884  0.0414 -0.9545
 8256SOL    HW136404   1.540   4.030   1.911 -0.3143 -0.5457 -2.3067
 8256SOL    HW236405   1.426   4.121   1.933  1.1009  1.1949  0.1903
 8257SOL     OW36406   3.040   2.696   9.026  0.5167  0.2805  0.0842
 8257SOL    HW136407   2.997   2.612   9.008 -0.1373  1.5022 -4.0260
 8257SOL    HW236408   2.963   2.751   9.014  0.4775  0.0892 -0.5152
 8258SOL     OW36409   1.341   0.169   0.310 -0.4641  0.2841  0.0732
 8258SOL    HW136410   1.405   0.226   0.266  1.0509  0.7159  2.8663
 8258SOL    HW236411   1.281   0.229   0.354 -3.9384 -1.9337 -1.5474
 8259SOL     OW36412   4.229   0.974  16.463  0.1850  0.0602 -0.6711
 8259SOL    HW136413   4.147   0.980  16.512  1.1977 -0.5792  1.0681
 8259SOL    HW236414   4.200   0.941  16.378 -0.6007 -0.8305 -0.0466
 8260SOL     OW36415   0.939   4.545   2.809  0.0846  0.3497  0.1571
 8260SOL    HW136416   0.872   4.604   2.775  0.7669  0.8842 -0.2677
 8260SOL    HW236417   1.007   4.553   2.742 -2.0432 -0.2444 -2.0763
 8261SOL     OW36418   3.597   1.954  15.288 -0.0502  0.7719  0.0915
 8261SOL    HW136419   3.648   1.882  15.251 -0.0320  1.7228 -1.7263
 8261SOL    HW236420   3.666   2.019  15.277  1.5461 -1.0539 -0.5338
 8262SOL     OW36421   2.771   2.656   5.352  0.1868 -0.1256 -0.3006
 8262SOL    HW136422   2.764   2.700   5.268 -2.8017  0.4746  0.2462
 8262SOL    HW236423   2.759   2.564   5.328 -2.8138  0.0041  0.6970
 8263SOL     OW36424   4.558   1.813   4.020 -0.0255 -0.2379  0.7322
 8263SOL    HW136425   4.588   1.817   4.111  0.7315  0.4479  0.4552
 8263SOL    HW236426   4.509   1.894   4.002  0.3169 -0.1681  0.1347
 8264SOL     OW36427   3.004   3.484  17.244  0.1362 -0.2494 -0.0333
 8264SOL    HW136428   3.096   3.482  17.218  0.2579  1.9904  0.2241
 8264SOL    HW236429   3.012   3.546  17.315  2.6139  0.0736 -0.6072
 8265SOL     OW36430   4.730   3.083   7.133  0.2421  0.6187  0.2530
 8265SOL    HW136431   4.712   3.080   7.227 -0.6240  0.9278  0.1018
 8265SOL    HW236432   0.036   2.999   7.118  0.0427  0.5092  0.2953
 8266SOL     OW36433   4.069   4.212   9.003 -0.3088 -0.4349 -0.5311
 8266SOL    HW136434   4.036   4.145   9.063  2.3938 -0.9007  0.4103
 8266SOL    HW236435   4.072   4.281   9.068 -1.7360  0.1250 -1.0608
 8267SOL     OW36436   0.693   1.242   5.607 -0.5342  0.5555 -0.7324
 8267SOL    HW136437   0.753   1.266   5.536  1.1034 -3.1188 -0.5611
 8267SOL    HW236438   0.613   1.284   5.575  0.1805  1.1222 -1.7812
 8268SOL     OW36439   1.178   3.038   6.426  0.1473  0.0053 -0.4832
 8268SOL    HW136440   1.082   3.031   6.421  0.3737 -2.0385 -1.9103
 8268SOL    HW236441   1.189   3.129   6.451 -0.4493 -0.1777  0.4708
 8269SOL     OW36442   0.591   0.544   4.707  1.1858 -0.2046 -0.5095
 8269SOL    HW136443   0.529   0.515   4.774  2.5747 -2.4616 -0.2183
 8269SOL    HW236444   0.664   0.585   4.754 -0.8203  0.1412  2.3113
 8270SOL     OW36445   1.496   3.701   4.367  0.1201  0.3936 -0.3894
 8270SOL    HW136446   1.587   3.722   4.343  0.2087 -0.7942 -1.0490
 8270SOL    HW236447   1.492   3.759   4.444  1.4508 -1.5596  1.1576
 8271SOL     OW36448   0.560   0.743   6.834  0.5664  0.0152 -0.1269
 8271SOL    HW136449   0.596   0.717   6.919 -0.7136 -0.4340  0.2841
 8271SOL    HW236450   0.565   0.838   6.827  0.7581  0.0311  0.2597
 8272SOL     OW36451   1.194   0.724  10.428 -0.4737 -0.0538 -0.8180
 8272SOL    HW136452   1.135   0.799  10.436 -0.7944 -0.3353 -0.5473
 8272SOL    HW236453   1.230   0.737  10.340  2.2786  0.7139  0.4198
 8273SOL     OW36454   0.785   3.387   3.550 -0.5478 -0.3245 -0.2788
 8273SOL    HW136455   0.839   3.312   3.528  2.3921  1.1939  1.7255
 8273SOL    HW236456   0.846   3.458   3.530  1.3718 -1.8689  0.1167
 8274SOL     OW36457   0.745   2.222   2.951  0.1579  0.1446 -0.7526
 8274SOL    HW136458   0.683   2.161   2.992  0.0089  1.1322  0.4783
 8274SOL    HW236459   0.709   2.308   2.972 -0.2342 -0.6542  1.7816
 8275SOL     OW36460   1.376   0.472   7.984  0.1767 -0.2541 -0.6788
 8275SOL    HW136461   1.314   0.403   7.959  1.4818 -2.2270  1.4543
 8275SOL    HW236462   1.338   0.521   8.057  2.0812 -1.0108  0.8380
 8276SOL     OW36463   2.729   2.378   6.424  0.5582  0.0351  0.3241
 8276SOL    HW136464   2.815   2.407   6.392  0.0641  0.1866 -0.8582
 8276SOL    HW236465   2.668   2.406   6.355  1.9414 -0.0966 -0.9573
 8277SOL     OW36466   3.179   2.813   3.171  0.5719  0.1052 -0.1927
 8277SOL    HW136467   3.274   2.803   3.181  0.2477 -1.7904  1.0438
 8277SOL    HW236468   3.154   2.746   3.108  0.1721  0.8702 -0.8502
 8278SOL     OW36469   3.652   3.833   4.236  0.4480 -0.1249  0.4639
 8278SOL    HW136470   3.692   3.806   4.153 -1.0937  0.6731 -0.5355
 8278SOL    HW236471   3.683   3.770   4.301 -0.4902 -0.5564  0.4937
 8279SOL     OW36472   2.925   4.664   7.750  0.3774 -0.0338 -0.1633
 8279SOL    HW136473   2.963   4.725   7.687 -0.0555  2.2438  1.7656
 8279SOL    HW236474   2.897   4.594   7.691  0.9464  0.0251 -0.4999
 8280SOL     OW36475   3.792   4.276   4.104 -0.2443 -0.6060  0.1428
 8280SOL    HW136476   3.725   4.248   4.167 -0.0151  1.3541  1.2483
 8280SOL    HW236477   3.814   4.363   4.136 -2.0381  0.4952 -1.6012
 8281SOL     OW36478   2.679   1.876   2.107 -0.1157  0.0498  0.6353
 8281SOL    HW136479   2.625   1.842   2.179 -0.3789  3.2466  1.9357
 8281SOL    HW236480   2.647   1.964   2.092  0.1112 -0.0761 -0.5446
 8282SOL     OW36481   3.420   1.683   3.028 -0.0113 -0.4902 -0.0814
 8282SOL    HW136482   3.410   1.613   3.092  3.0054  0.8637  1.9027
 8282SOL    HW236483   3.334   1.722   3.042  0.1981  0.3184 -1.0271
 8283SOL     OW36484   3.168   4.602   8.639 -0.0376 -0.4350  0.4382
 8283SOL    HW136485   3.218   4.527   8.606 -0.0067 -1.2524  2.3517
 8283SOL    HW236486   3.233   4.670   8.620  0.4992 -1.0060  0.2147
 8284SOL     OW36487   2.055   3.078   2.840 -0.2578 -0.3527  0.5323
 8284SOL    HW136488   2.046   3.140   2.768 -0.5547 -0.6902  0.2797
 8284SOL    HW236489   2.150   3.066   2.840 -0.3380 -0.9718  0.5261
 8285SOL     OW36490   1.241   0.703   0.066 -0.0212 -0.4178 -0.4029
 8285SOL    HW136491   1.192   0.627   0.098  1.3447 -2.0042 -2.1233
 8285SOL    HW236492   1.318   0.665   0.025 -0.4476 -0.3366 -1.2829
 8286SOL     OW36493   3.443   3.592   3.218  0.4123  0.0281 -0.6622
 8286SOL    HW136494   3.472   3.683   3.225 -0.4580  0.2174  0.4558
 8286SOL    HW236495   3.518   3.548   3.177 -1.9298 -2.1244 -2.6534
 8287SOL     OW36496   0.398   0.997   9.200 -0.3661  0.0194  0.1393
 8287SOL    HW136497   0.343   0.959   9.268  0.2378 -0.9731  0.0721
 8287SOL    HW236498   0.409   0.927   9.136  0.4413  0.4016 -0.1331
 8288SOL     OW36499   2.282   2.218   5.817  0.1514  0.3561 -0.1131
 8288SOL    HW136500   2.210   2.247   5.761  1.3791  0.0334 -1.8805
 8288SOL    HW236501   2.246   2.135   5.847  2.4185  0.2633  2.3594
 8289SOL     OW36502   2.004   0.415   7.607 -0.1545 -0.3638  0.2958
 8289SOL    HW136503   1.977   0.475   7.538 -0.2575 -1.9834 -1.0513
 8289SOL    HW236504   1.922   0.371   7.631  0.0285  0.6686  2.9191
 8290SOL     OW36505   0.457   4.622   2.385  0.1930 -0.2977 -0.3230
 8290SOL    HW136506   0.480   4.535   2.351  0.8793 -0.8072  1.4243
 8290SOL    HW236507   0.503   4.685   2.329 -0.3239 -0.2353 -0.6700
 8291SOL     OW36508   1.150   2.738   4.719  0.4350  0.2570  0.2760
 8291SOL    HW136509   1.131   2.649   4.750  0.2394  0.3160  0.3217
 8291SOL    HW236510   1.120   2.781   4.799 -3.2397 -3.1075  0.7051
 8292SOL     OW36511   2.235   1.568   0.517  0.1937  0.0863 -0.0886
 8292SOL    HW136512   2.153   1.529   0.488  0.5687 -0.3103 -0.5959
 8292SOL    HW236513   2.287   1.578   0.437 -0.8835 -0.3016 -0.8327
 8293SOL     OW36514   1.267   2.135   8.869  0.2030  0.2565  0.0609
 8293SOL    HW136515   1.242   2.042   8.874 -1.9947  0.8044 -0.6869
 8293SOL    HW236516   1.347   2.126   8.921 -0.7655 -0.9787  1.3438
 8294SOL     OW36517   4.414   2.390   3.558  0.2233  0.6488 -0.7561
 8294SOL    HW136518   4.476   2.373   3.630 -0.3022 -1.4821 -0.8298
 8294SOL    HW236519   4.346   2.326   3.577  0.2557  1.4858  2.1521
 8295SOL     OW36520   0.302   1.009   2.773  0.7137 -0.1210  0.4655
 8295SOL    HW136521   0.380   1.064   2.765  0.8010 -0.3656 -0.3587
 8295SOL    HW236522   0.307   0.968   2.687  0.5889 -1.9989  1.3566
 8296SOL     OW36523   1.903   1.069   9.804 -0.9264  0.1458  0.0830
 8296SOL    HW136524   1.959   1.140   9.775  0.2785 -1.0305 -0.5048
 8296SOL    HW236525   1.945   0.991   9.766 -2.3972 -1.0607  0.9340
 8297SOL     OW36526   1.634   4.704  12.542 -0.3178  0.0471  0.3259
 8297SOL    HW136527   1.583   4.627  12.519 -3.0793  2.0436 -0.1439
 8297SOL    HW236528   1.577   0.018  12.600 -2.0124 -1.2151 -0.2615
 8298SOL     OW36529   3.485   0.907   2.554 -0.3491  0.6068 -0.1230
 8298SOL    HW136530   3.403   0.945   2.587 -1.2560 -1.2247 -0.2901
 8298SOL    HW236531   3.528   0.987   2.522 -0.5013  0.1401 -1.4665
 8299SOL     OW36532   1.303   0.397   7.648  0.5776  0.6840  0.0178
 8299SOL    HW136533   1.329   0.461   7.714  0.6556  1.9804 -1.2691
 8299SOL    HW236534   1.233   0.448   7.608  1.7328  1.3494 -1.1686
 8300SOL     OW36535   4.729   4.007   6.002 -0.2215 -0.0551 -0.1481
 8300SOL    HW136536   0.083   4.037   5.995  0.0890 -0.2086  3.2582
 8300SOL    HW236537   4.724   3.997   6.097 -0.4888 -2.6722 -0.4394
 8301SOL     OW36538   4.620   3.388   0.937 -0.3277  0.4421  0.1879
 8301SOL    HW136539   4.619   3.295   0.915  2.7945  0.5178 -0.2260
 8301SOL    HW236540   4.568   3.422   0.863 -2.7602  1.3474  2.3214
 8302SOL     OW36541   0.589   4.004  16.479 -0.5798 -0.3997 -0.2023
 8302SOL    HW136542   0.512   3.952  16.503 -0.0893 -1.8258 -1.7525
 8302SOL    HW236543   0.574   4.025  16.388 -0.3540 -3.3054 -0.9336
 8303SOL     OW36544   1.947   2.996  15.326  0.4096 -0.6671 -0.4789
 8303SOL    HW136545   2.039   3.008  15.302  0.2847 -1.3166 -1.3114
 8303SOL    HW236546   1.906   2.937  15.262  0.9798 -1.0090 -0.5270
 8304SOL     OW36547   3.180   4.016   8.246  0.1421  0.5197  0.1992
 8304SOL    HW136548   3.248   3.963   8.287 -1.1173 -2.5780 -1.7561
 8304SOL    HW236549   3.223   4.101   8.255  1.7829 -0.3919  1.0000
 8305SOL     OW36550   4.610   4.312   6.200  0.2219  0.0080  0.5079
 8305SOL    HW136551   4.646   4.352   6.280 -0.7120  2.5407 -0.3374
 8305SOL    HW236552   4.694   4.293   6.159 -0.4615 -1.7696 -0.0349
 8306SOL     OW36553   3.527   2.544  10.066  0.0228 -0.0259 -0.3862
 8306SOL    HW136554   3.481   2.481  10.121 -0.5777  1.3919  0.7227
 8306SOL    HW236555   3.614   2.548  10.105 -0.2498  1.3412  0.0495
 8307SOL     OW36556   1.882   3.357  13.023  0.2961 -0.1606  0.1163
 8307SOL    HW136557   1.803   3.303  13.022 -0.2368  0.6374 -0.5943
 8307SOL    HW236558   1.940   3.317  13.088 -0.4034  0.1402  0.9198
 8308SOL     OW36559   2.553   3.705   0.695 -0.2742 -0.0007  0.1521
 8308SOL    HW136560   2.610   3.633   0.670  0.8062  0.0990  2.3159
 8308SOL    HW236561   2.520   3.661   0.773  1.5740 -1.8950 -0.1573
 8309SOL     OW36562   2.293   0.798   0.787 -0.1166  0.4713  0.3028
 8309SOL    HW136563   2.250   0.822   0.869 -1.6895 -2.0291  0.1942
 8309SOL    HW236564   2.373   0.850   0.796 -0.1280  0.6548 -0.7086
 8310SOL     OW36565   1.480   0.611  14.865 -0.2612 -0.6085 -0.3787
 8310SOL    HW136566   1.427   0.614  14.785 -2.0091  1.1667  0.8363
 8310SOL    HW236567   1.553   0.669  14.846 -0.8753  0.6450  1.0100
 8311SOL     OW36568   3.068   1.482   9.533 -0.1420  0.1086  0.3155
 8311SOL    HW136569   3.067   1.474   9.437 -1.1076  2.5353  0.1338
 8311SOL    HW236570   3.019   1.403   9.555 -0.1935 -0.5363 -2.0840
 8312SOL     OW36571   4.160   3.919   3.359 -0.4982 -0.8651  0.3202
 8312SOL    HW136572   4.086   3.862   3.338 -0.3009 -1.3460  0.9493
 8312SOL    HW236573   4.229   3.854   3.370  1.2217  1.1582  1.5333
 8313SOL     OW36574   4.382   1.413   5.772  0.4065  0.3240  0.1626
 8313SOL    HW136575   4.356   1.393   5.682 -1.5695 -0.5727  0.9470
 8313SOL    HW236576   4.421   1.500   5.770  0.1203  0.4810  1.7736
 8314SOL     OW36577   2.489   0.737   3.863 -0.2404  0.0210  0.4757
 8314SOL    HW136578   2.562   0.729   3.802  0.9857  0.0811  1.9337
 8314SOL    HW236579   2.512   0.818   3.909 -0.2944  0.7002 -0.6934
 8315SOL     OW36580   1.001   1.548  17.216  0.2601  0.2328 -0.5643
 8315SOL    HW136581   1.087   1.579  17.188  0.6396  0.8757  1.3149
 8315SOL    HW236582   1.017   1.456  17.196  0.3663  0.3239 -0.8932
 8316SOL     OW36583   2.342   2.148  14.227  0.0194 -0.2993 -0.4484
 8316SOL    HW136584   2.379   2.103  14.150 -0.1345 -1.9291  0.4169
 8316SOL    HW236585   2.265   2.180  14.180 -1.7694 -0.4394  2.4368
 8317SOL     OW36586   2.455   3.455   1.662  0.2150 -0.3089 -0.5897
 8317SOL    HW136587   2.449   3.459   1.566 -1.8448 -0.5913 -0.4795
 8317SOL    HW236588   2.550   3.441   1.665  0.2493 -0.2445 -1.3529
 8318SOL     OW36589   2.540   1.498  12.713  0.3833  0.1020 -0.6810
 8318SOL    HW136590   2.529   1.404  12.698  0.8710 -0.1379  0.4686
 8318SOL    HW236591   2.455   1.530  12.680  0.2531  0.6577  0.1954
 8319SOL     OW36592   1.322   0.873  13.635  0.0992 -0.1970 -0.2605
 8319SOL    HW136593   1.257   0.902  13.698  0.4666  1.4925 -0.6397
 8319SOL    HW236594   1.403   0.914  13.666  0.2911 -1.0884  0.4233
 8320SOL     OW36595   3.391   0.642  11.575  0.4984 -0.6068 -0.0242
 8320SOL    HW136596   3.404   0.548  11.586 -0.9078 -0.6420  1.3111
 8320SOL    HW236597   3.402   0.669  11.667  1.0459 -0.8881 -0.0055
 8321SOL     OW36598   3.087   4.555   0.538  0.6725 -0.6063 -0.3888
 8321SOL    HW136599   3.093   4.511   0.623  1.0969  0.6114  0.2122
 8321SOL    HW236600   3.073   4.474   0.488  1.4391 -0.7224 -0.4161
 8322SOL     OW36601   1.822   1.070   4.854  0.2265 -0.1422  0.5217
 8322SOL    HW136602   1.822   1.063   4.759  0.8179 -0.0705  0.5202
 8322SOL    HW236603   1.898   1.015   4.873  1.2283  1.1403  0.2370
 8323SOL     OW36604   0.616   3.878  14.930 -0.3237  0.0553  0.0944
 8323SOL    HW136605   0.540   3.821  14.928 -1.8302  1.9774  1.9338
 8323SOL    HW236606   0.669   3.829  14.868 -0.7855  0.5482 -0.6823
 8324SOL     OW36607   1.902   3.162  16.456  0.4048  0.9606  0.0104
 8324SOL    HW136608   1.965   3.227  16.424  3.3648 -1.7222  0.3655
 8324SOL    HW236609   1.831   3.169  16.392  1.1478 -1.2966 -1.0560
 8325SOL     OW36610   4.548   1.771   4.553  0.3891 -0.2769  0.1411
 8325SOL    HW136611   4.549   1.694   4.610  0.8191 -1.0019 -0.8418
 8325SOL    HW236612   4.578   1.839   4.613  0.4658  0.8748 -1.1877
 8326SOL     OW36613   0.230   1.722   3.151  0.1323 -0.3283  0.1239
 8326SOL    HW136614   0.165   1.655   3.173  1.3537 -1.2185  0.9433
 8326SOL    HW236615   0.286   1.662   3.102 -1.8436 -3.1229  1.2210
 8327SOL     OW36616   4.682   2.099   6.949  0.3460  0.4982 -0.2967
 8327SOL    HW136617   4.675   2.006   6.930 -0.5726  1.2310 -3.7577
 8327SOL    HW236618   4.735   2.091   7.027  0.1061 -0.7175 -0.2639
 8328SOL     OW36619   3.123   3.335   9.603 -0.2632  0.9968  0.5350
 8328SOL    HW136620   3.169   3.366   9.680  0.9506 -1.5909  0.8664
 8328SOL    HW236621   3.140   3.241   9.609 -1.5740  0.6736 -0.6443
 8329SOL     OW36622   1.704   3.652   0.385 -0.3191  0.4309  0.1252
 8329SOL    HW136623   1.746   3.736   0.369  0.9766 -0.2862 -0.3293
 8329SOL    HW236624   1.779   3.594   0.369 -0.4366  0.5056 -0.6901
 8330SOL     OW36625   2.184   0.656  15.176  0.5743  0.3234 -0.1122
 8330SOL    HW136626   2.130   0.633  15.251 -1.4657 -0.6822 -1.8769
 8330SOL    HW236627   2.250   0.587  15.180  0.2485 -0.1337 -2.6121
 8331SOL     OW36628   0.253   1.823   1.364 -0.2076 -0.7694 -0.0548
 8331SOL    HW136629   0.281   1.789   1.278  2.2633  2.6000 -0.6059
 8331SOL    HW236630   0.243   1.916   1.343  1.8775 -0.4578  0.2748
 8332SOL     OW36631   0.994   1.990  12.546 -0.1751  0.6008 -0.6227
 8332SOL    HW136632   1.059   1.974  12.478  1.7431  1.2164  1.0528
 8332SOL    HW236633   1.044   1.980  12.628  1.0806 -0.6939 -1.5381
 8333SOL     OW36634   3.652   1.556  15.081 -0.0557 -0.0956  0.5810
 8333SOL    HW136635   3.628   1.465  15.064 -2.3219  0.4468  0.8236
 8333SOL    HW236636   3.576   1.570  15.139  0.0705  0.3967  0.6262
 8334SOL     OW36637   0.222   0.393   3.266  0.0117 -0.0802  0.1201
 8334SOL    HW136638   0.309   0.433   3.276 -0.2228  0.2908  0.6906
 8334SOL    HW236639   0.244   0.319   3.322 -0.9874  0.1168  0.7703
 8335SOL     OW36640   2.411   2.339  17.565  0.4397  0.2343  0.2328
 8335SOL    HW136641   2.479   2.326  17.631  0.0796 -0.0036  0.5582
 8335SOL    HW236642   2.333   2.350  17.620  0.1862 -0.2077 -0.0315
 8336SOL     OW36643   2.144   0.339   5.827  0.4474 -0.0010  0.4674
 8336SOL    HW136644   2.050   0.353   5.817  0.2629 -1.0040  0.7407
 8336SOL    HW236645   2.171   0.298   5.745  3.4335  1.1999  0.8479
 8337SOL     OW36646   2.749   4.332   8.596  0.0103 -0.3995  0.1729
 8337SOL    HW136647   2.716   4.248   8.564 -0.0990 -0.4946  0.5407
 8337SOL    HW236648   2.823   4.349   8.537 -1.5572  0.9029 -1.4257
 8338SOL     OW36649   2.545   2.235   2.741  0.4118 -0.4721  0.3562
 8338SOL    HW136650   2.473   2.246   2.679  0.2366 -2.3846  0.2095
 8338SOL    HW236651   2.613   2.220   2.675 -0.8365 -0.5494 -0.8987
 8339SOL     OW36652   2.221   0.041  10.839 -0.2966  0.0977  0.8953
 8339SOL    HW136653   2.280   4.727  10.784  0.4913  2.1257 -0.0885
 8339SOL    HW236654   2.138   0.001  10.814 -0.0347 -1.3436  2.3344
 8340SOL     OW36655   4.545   3.505   8.298  0.1028 -0.6474 -0.0005
 8340SOL    HW136656   4.486   3.493   8.223 -0.5351  2.7293 -0.0450
 8340SOL    HW236657   4.557   3.600   8.305 -1.5266 -0.6347  2.6108
 8341SOL     OW36658   4.362   1.847   0.831 -0.3558  0.3105  0.0680
 8341SOL    HW136659   4.386   1.899   0.907 -1.9695 -1.5013  1.7926
 8341SOL    HW236660   4.363   1.904   0.754 -0.5264 -0.3236 -0.4051
 8342SOL     OW36661   1.743   2.548   9.823  0.4032  0.1370 -0.1701
 8342SOL    HW136662   1.666   2.496   9.845  1.6758 -1.4011  0.5863
 8342SOL    HW236663   1.789   2.562   9.906 -1.7082  0.3259  0.9725
 8343SOL     OW36664   3.608   3.195   8.412 -0.7238  0.4319 -0.6335
 8343SOL    HW136665   3.624   3.198   8.506 -0.7598  1.3139 -0.6498
 8343SOL    HW236666   3.605   3.100   8.407 -0.4734  0.3251  1.4283
 8344SOL     OW36667   0.688   1.276   0.049  0.4116  0.1952 -0.5546
 8344SOL    HW136668   0.774   1.240   0.025  0.0319 -2.1536  1.6454
 8344SOL    HW236669   0.692   1.372   0.056  0.7509  0.1012  0.5971
 8345SOL     OW36670   4.057   3.367   7.552 -0.7886 -0.2892 -0.2375
 8345SOL    HW136671   4.144   3.328   7.542 -0.4459  0.4640 -0.1689
 8345SOL    HW236672   4.007   3.305   7.605 -1.1017  0.2135  0.0603
 8346SOL     OW36673   4.626   3.270   8.063  0.3618  0.2670 -0.2437
 8346SOL    HW136674   4.684   3.286   8.138  1.2907  1.5228 -1.2194
 8346SOL    HW236675   4.544   3.260   8.111  0.4343  0.6091 -0.0407
 8347SOL     OW36676   4.478   3.771   0.445  0.7309 -0.3223  0.1096
 8347SOL    HW136677   4.521   3.686   0.447  0.7693 -0.3240 -0.8658
 8347SOL    HW236678   4.442   3.768   0.357 -1.2659  0.3890  0.8903
 8348SOL     OW36679   1.742   4.211  11.494 -0.5165  0.4897 -0.3744
 8348SOL    HW136680   1.807   4.167  11.439 -0.2857 -0.1540  0.4146
 8348SOL    HW236681   1.669   4.229  11.435 -0.0228  0.0410 -1.1249
 8349SOL     OW36682   0.055   1.595  13.008 -0.5449 -0.1768  0.0045
 8349SOL    HW136683   0.017   1.518  13.050  0.4457  1.7715  4.4963
 8349SOL    HW236684   0.123   1.563  12.950  0.0122 -1.5735  1.4291
 8350SOL     OW36685   3.100   3.357   7.450  0.0918  1.1601  1.0006
 8350SOL    HW136686   3.055   3.368   7.366  0.5533  0.4926  0.6660
 8350SOL    HW236687   3.147   3.274   7.449 -1.4746  0.3026 -1.6913
 8351SOL     OW36688   4.326   1.422   3.446  0.1449 -0.4966 -0.3196
 8351SOL    HW136689   4.317   1.433   3.541  1.6676 -0.1400 -0.2258
 8351SOL    HW236690   4.259   1.484   3.416  1.1412 -0.0948 -1.7228
 8352SOL     OW36691   0.843   3.133   9.202 -0.3856 -0.5625 -0.2362
 8352SOL    HW136692   0.928   3.102   9.233  0.4966  0.9202 -1.1704
 8352SOL    HW236693   0.851   3.122   9.107  0.0629  0.2362 -0.2901
 8353SOL     OW36694   2.097   4.322  10.192 -0.2532 -0.4374 -0.6399
 8353SOL    HW136695   2.115   4.237  10.151 -1.7413 -1.1594  0.1892
 8353SOL    HW236696   2.124   4.302  10.281  0.8081  3.4954 -0.0896
 8354SOL     OW36697   2.530   1.811   7.786  0.2700  0.2746 -0.5187
 8354SOL    HW136698   2.470   1.737   7.787  0.1551  0.3992  0.9795
 8354SOL    HW236699   2.528   1.837   7.878 -0.9142 -0.8359 -0.2380
 8355SOL     OW36700   2.421   3.107   5.811 -1.0125  0.7077  0.2668
 8355SOL    HW136701   2.350   3.051   5.842 -2.2699  1.2984 -1.5394
 8355SOL    HW236702   2.440   3.156   5.891 -0.0495  1.9492 -0.7330
 8356SOL     OW36703   0.967   1.134   3.401  0.3347  0.1241 -0.2059
 8356SOL    HW136704   1.051   1.101   3.369  0.9869  0.7624  0.8380
 8356SOL    HW236705   0.914   1.059   3.374  1.6318 -0.2033 -1.8747
 8357SOL     OW36706   2.984   0.382   8.274  0.3695 -0.1705  0.2874
 8357SOL    HW136707   3.074   0.349   8.265 -1.1177 -4.0914 -0.4954
 8357SOL    HW236708   2.960   0.362   8.364 -1.8427  2.1531  0.2150
 8358SOL     OW36709   2.354   1.900   7.308  0.0570 -0.1737 -0.1018
 8358SOL    HW136710   2.325   1.810   7.322 -1.4638  0.8796  3.3848
 8358SOL    HW236711   2.435   1.910   7.357  0.8897 -1.1280 -1.2701
 8359SOL     OW36712   4.274   3.558   4.584 -0.1502 -0.1445  0.7744
 8359SOL    HW136713   4.339   3.565   4.654 -0.3422 -0.0485  0.9458
 8359SOL    HW236714   4.311   3.609   4.512  0.7285 -2.5968 -0.4752
 8360SOL     OW36715   4.042   4.695  13.654 -0.4787  0.8916  0.4174
 8360SOL    HW136716   3.960   4.685  13.703  0.3219  2.5811  2.1240
 8360SOL    HW236717   4.083   4.612  13.676  3.4892  2.0271 -2.6485
 8361SOL     OW36718   0.074   4.328  16.397  0.4073  0.3209  0.5445
 8361SOL    HW136719   4.725   4.365  16.420 -0.1297 -1.4635  1.4610
 8361SOL    HW236720   0.105   4.392  16.333  0.0855 -0.0833 -0.0240
 8362SOL     OW36721   1.953   4.597   9.339  0.0825 -0.0464  0.0709
 8362SOL    HW136722   1.862   4.624   9.333 -0.5458 -1.8328  1.4169
 8362SOL    HW236723   1.997   4.682   9.347 -2.5213  1.3164 -0.4007
 8363SOL     OW36724   2.876   0.707   6.581 -1.1885 -0.2303  0.1066
 8363SOL    HW136725   2.840   0.631   6.535 -1.4599  0.6167 -1.0860
 8363SOL    HW236726   2.919   0.746   6.505 -1.0065 -0.8221 -0.0879
 8364SOL     OW36727   3.887   3.971   4.410  0.5152 -0.3640 -0.3577
 8364SOL    HW136728   3.976   3.943   4.387  0.2316 -1.9541  0.4493
 8364SOL    HW236729   3.848   3.884   4.418 -2.4984  1.1024  0.8298
 8365SOL     OW36730   2.519   4.077   8.880 -0.4745 -0.1416  0.6123
 8365SOL    HW136731   2.522   4.098   8.786 -2.8288  0.3007  0.6238
 8365SOL    HW236732   2.554   3.989   8.894 -1.1683 -0.2337  1.7437
 8366SOL     OW36733   4.274   1.197   2.992  0.4367 -0.1733 -0.5482
 8366SOL    HW136734   4.320   1.210   2.909  2.1543 -0.7172  0.3195
 8366SOL    HW236735   4.269   1.290   3.016  2.3931 -0.1011 -0.4274
 8367SOL     OW36736   2.824   3.274   8.977 -0.3933  0.0003  0.2055
 8367SOL    HW136737   2.745   3.265   9.030  0.4970 -0.5210  1.4765
 8367SOL    HW236738   2.871   3.337   9.033 -0.7079  2.5177 -2.3541
 8368SOL     OW36739   2.753   2.385  12.930 -0.4334  0.2858 -0.1425
 8368SOL    HW136740   2.840   2.423  12.946 -0.1419 -0.7641  0.7850
 8368SOL    HW236741   2.689   2.440  12.974  0.9622 -0.4919  2.8617
 8369SOL     OW36742   4.635   4.300  15.697  0.0840  0.5286  0.0678
 8369SOL    HW136743   4.646   4.295  15.602  2.0386  1.2685  0.2601
 8369SOL    HW236744   4.606   4.211  15.716  1.2782  0.0614 -0.2826
 8370SOL     OW36745   4.377   0.638   5.988  0.2947  0.1406 -0.1280
 8370SOL    HW136746   4.418   0.718   5.954 -0.5886  0.6833  0.0904
 8370SOL    HW236747   4.290   0.663   6.018 -0.0871 -0.7260 -0.5334
 8371SOL     OW36748   1.320   2.768   6.004 -0.2470 -0.4136 -0.2335
 8371SOL    HW136749   1.311   2.727   6.091 -1.5611 -1.4181 -0.8342
 8371SOL    HW236750   1.322   2.690   5.948  1.0364 -2.1491  2.2000
 8372SOL     OW36751   1.350   0.168   6.097 -0.4937  0.6972 -0.2269
 8372SOL    HW136752   1.421   0.228   6.076 -1.1986  0.9538 -1.8623
 8372SOL    HW236753   1.391   0.082   6.082 -1.3118  0.1187  0.8365
 8373SOL     OW36754   2.774   3.082   8.046 -0.1795  0.4898  0.3561
 8373SOL    HW136755   2.692   3.040   8.019  0.3430  0.1006 -0.6179
 8373SOL    HW236756   2.826   3.090   7.966 -0.3657 -1.6071  0.0372
 8374SOL     OW36757   4.295   3.875   1.582 -0.1066  0.3864 -0.1976
 8374SOL    HW136758   4.388   3.897   1.575 -0.5951  2.2488 -0.9599
 8374SOL    HW236759   4.279   3.864   1.488 -2.6503 -0.1731  0.2981
 8375SOL     OW36760   3.041   1.605   2.011 -0.2634  0.6878  0.2624
 8375SOL    HW136761   3.036   1.699   2.032  0.1501  0.1617  2.6719
 8375SOL    HW236762   2.988   1.600   1.931 -0.9486 -0.4394  0.7866
 8376SOL     OW36763   1.218   1.270   4.535  1.2852  0.0905  0.8998
 8376SOL    HW136764   1.303   1.251   4.494  0.2771  2.0059 -2.0066
 8376SOL    HW236765   1.177   1.184   4.531 -0.7624  1.0336  1.8160
 8377SOL     OW36766   1.414   3.306   6.922 -0.8681 -0.0788  0.6362
 8377SOL    HW136767   1.344   3.368   6.945  0.4727  2.2630 -1.4906
 8377SOL    HW236768   1.407   3.257   7.003  0.7330 -0.7317  0.3833
 8378SOL     OW36769   3.911   2.476   4.458 -0.2764 -0.2013 -0.3886
 8378SOL    HW136770   3.965   2.491   4.380  2.6560 -2.3596  1.2506
 8378SOL    HW236771   3.831   2.524   4.433  1.0018  1.7767 -0.6503
 8379SOL     OW36772   3.642   1.585   6.715  0.2709 -0.5573  0.5717
 8379SOL    HW136773   3.639   1.543   6.629  2.5962 -1.1297  0.7813
 8379SOL    HW236774   3.694   1.663   6.696 -0.6939 -0.0973 -0.1772
 8380SOL     OW36775   2.402   0.963   6.316 -0.2839  0.1832 -0.0550
 8380SOL    HW136776   2.307   0.977   6.320 -0.5029 -1.3586  0.0164
 8380SOL    HW236777   2.427   1.038   6.262 -1.6034  1.0650  0.5445
 8381SOL     OW36778   4.424   3.188   6.601 -0.2286 -0.1384 -0.0155
 8381SOL    HW136779   4.359   3.166   6.535  1.8059  0.1061 -2.0867
 8381SOL    HW236780   4.506   3.185   6.552  0.7020  0.6055  1.4800
 8382SOL     OW36781   0.874   2.224   6.395  0.4072  0.0497 -0.6292
 8382SOL    HW136782   0.914   2.152   6.347  1.3038  1.3845 -1.8936
 8382SOL    HW236783   0.903   2.207   6.485  0.2361  3.0274 -0.0112
 8383SOL     OW36784   2.438   1.633  17.091  0.1083 -0.5647  0.1741
 8383SOL    HW136785   2.374   1.696  17.126 -0.5839 -0.9981 -0.2959
 8383SOL    HW236786   2.385   1.554  17.083 -1.8181  0.6147  0.9375
 8384SOL     OW36787   3.677   2.667   2.974  0.1763  0.9407 -0.6814
 8384SOL    HW136788   3.747   2.731   2.988 -0.1458  1.2786 -0.5940
 8384SOL    HW236789   3.729   2.595   3.009  2.1477  0.8265 -3.8560
 8385SOL     OW36790   2.809   3.152   6.208  0.0425  0.3379 -0.3215
 8385SOL    HW136791   2.799   3.241   6.174 -1.9820  0.8611  1.6227
 8385SOL    HW236792   2.839   3.171   6.297 -2.4294 -0.1386  0.6320
 8386SOL     OW36793   0.568   4.409   9.071 -1.1373  0.4601  0.5568
 8386SOL    HW136794   0.493   4.462   9.099 -0.0907  1.5320  1.3378
 8386SOL    HW236795   0.542   4.401   8.979  0.4310 -1.3525  0.2915
 8387SOL     OW36796   2.313   0.386   6.408 -0.3234 -0.0180  0.3055
 8387SOL    HW136797   2.331   0.427   6.492  0.7559 -0.5192  0.3191
 8387SOL    HW236798   2.227   0.420   6.381  0.3069  0.2749 -1.3173
 8388SOL     OW36799   4.344   2.272  12.758  0.3129  0.3806  0.0994
 8388SOL    HW136800   4.366   2.305  12.671  0.4494 -0.8531 -0.3456
 8388SOL    HW236801   4.395   2.192  12.772 -1.0983 -0.7837 -1.4795
 8389SOL     OW36802   2.504   2.771  13.390 -0.0159 -0.0451 -0.0048
 8389SOL    HW136803   2.563   2.846  13.398  1.5065 -1.2202 -0.1716
 8389SOL    HW236804   2.450   2.800  13.316  0.1540 -1.4888 -0.6811
 8390SOL     OW36805   0.773   3.717  10.084  0.0377 -0.1598  0.3423
 8390SOL    HW136806   0.864   3.747  10.085 -0.2504  0.7542 -1.1364
 8390SOL    HW236807   0.770   3.683   9.995  1.0892  0.5684  0.0261
 8391SOL     OW36808   3.826   2.660  11.443  0.3082 -0.1082 -0.1821
 8391SOL    HW136809   3.791   2.593  11.384  0.5105  1.2782 -1.8770
 8391SOL    HW236810   3.891   2.701  11.386  1.0355  0.2901  0.9415
 8392SOL     OW36811   3.028   3.119   6.931  0.5336  0.2335  0.4615
 8392SOL    HW136812   3.108   3.130   6.880  0.4718  0.0960  0.3327
 8392SOL    HW236813   3.048   3.162   7.014 -0.3323  0.1984  0.6859
 8393SOL     OW36814   3.633   2.314   0.896 -0.0303  0.0760 -0.2659
 8393SOL    HW136815   3.661   2.232   0.936  1.8530  0.7160 -0.2826
 8393SOL    HW236816   3.665   2.303   0.806 -1.0651  2.9497 -0.9919
 8394SOL     OW36817   1.034   2.986   6.830 -0.6153 -0.2542 -0.3950
 8394SOL    HW136818   1.118   2.957   6.794 -0.6358 -1.3701  0.4679
 8394SOL    HW236819   0.962   2.938   6.790 -1.7303  0.4828  0.6969
 8395SOL     OW36820   0.932   0.337   7.720  0.1482  0.4491 -0.2317
 8395SOL    HW136821   0.916   0.286   7.641  3.0234  1.3225 -1.3822
 8395SOL    HW236822   0.864   0.399   7.696 -1.9240 -0.8701  2.2099
 8396SOL     OW36823   1.166   1.352   3.345 -0.5728  0.6409  0.3284
 8396SOL    HW136824   1.076   1.328   3.322 -0.4325 -2.2160  2.7902
 8396SOL    HW236825   1.158   1.360   3.440  0.0143 -1.0606  0.5300
 8397SOL     OW36826   2.665   1.191   2.150 -0.6725  0.3620  0.1956
 8397SOL    HW136827   2.692   1.149   2.068  1.5878 -0.5665  1.4088
 8397SOL    HW236828   2.586   1.143   2.174 -1.7933  1.1679 -1.8798
 8398SOL     OW36829   1.899   1.487   8.555  0.2577 -0.3334  1.2985
 8398SOL    HW136830   1.817   1.505   8.509  1.4312 -0.0141 -0.6443
 8398SOL    HW236831   1.894   1.534   8.638 -2.1367  0.1066  0.9135
 8399SOL     OW36832   0.695   3.888   1.645 -0.1782 -0.3342  0.0157
 8399SOL    HW136833   0.684   3.802   1.687 -0.0129  0.2855  1.3325
 8399SOL    HW236834   0.637   3.878   1.570 -0.8523  1.6538  0.2696
 8400SOL     OW36835   2.191   3.784   4.687  0.3901  0.1293  0.7838
 8400SOL    HW136836   2.123   3.804   4.751  0.1817 -0.5649  0.7841
 8400SOL    HW236837   2.203   3.690   4.703  1.6821  0.0549 -0.6734
 8401SOL     OW36838   2.735   0.592  11.238 -0.4472  0.3833 -0.8330
 8401SOL    HW136839   2.700   0.558  11.321 -1.4227 -0.5221 -1.6066
 8401SOL    HW236840   2.776   0.672  11.271  2.1970 -2.2781  2.3116
 8402SOL     OW36841   1.967   2.599  12.355  0.0984  0.0977  0.2686
 8402SOL    HW136842   2.037   2.600  12.290  0.0660 -1.7583  0.1972
 8402SOL    HW236843   1.952   2.693  12.348 -1.6612 -0.2904 -1.1057
 8403SOL     OW36844   1.658   3.356   5.089  0.2947  0.3743 -0.0890
 8403SOL    HW136845   1.722   3.371   5.158 -0.1182  0.9919  0.1558
 8403SOL    HW236846   1.694   3.413   5.020 -1.0180  0.3728 -0.7843
 8404SOL     OW36847   4.279   2.463   7.767  0.0708  0.9028 -0.6709
 8404SOL    HW136848   4.220   2.519   7.716  1.9124  3.1290 -0.3489
 8404SOL    HW236849   4.278   2.511   7.850  0.7290 -2.1858  1.1310
 8405SOL     OW36850   2.719   4.494   1.516  0.0471  0.1115  0.0939
 8405SOL    HW136851   2.786   4.523   1.578 -0.9393  4.2418 -0.7373
 8405SOL    HW236852   2.657   4.451   1.574 -0.1597 -0.2429 -0.3961
 8406SOL     OW36853   3.439   3.295  12.312 -0.6871 -0.3854 -0.1859
 8406SOL    HW136854   3.379   3.225  12.338 -3.4158  0.9567 -2.9108
 8406SOL    HW236855   3.426   3.309  12.218 -3.1652  0.8064  0.3432
 8407SOL     OW36856   3.332   4.309  11.633 -0.6538 -0.2932  0.2370
 8407SOL    HW136857   3.242   4.335  11.611 -0.0341 -0.0118 -1.9623
 8407SOL    HW236858   3.325   4.216  11.651  1.2972 -0.4131  0.3722
 8408SOL     OW36859   1.910   0.223  10.436 -0.5488 -0.1977  0.2861
 8408SOL    HW136860   1.908   0.137  10.394  1.3591 -1.3103  2.4551
 8408SOL    HW236861   1.916   0.272  10.354 -0.1112  0.6012  0.7839
 8409SOL     OW36862   4.539   1.054   8.034  0.6592  0.3352 -0.0857
 8409SOL    HW136863   4.479   1.032   8.106  2.1105 -0.4300  0.8705
 8409SOL    HW236864   4.552   1.149   8.036  0.1820  0.4447 -2.7493
 8410SOL     OW36865   1.634   2.329   3.275 -0.7057  0.0963 -0.5713
 8410SOL    HW136866   1.602   2.266   3.210  0.7052 -1.3579  0.1335
 8410SOL    HW236867   1.558   2.332   3.334  0.5923 -0.7803  1.1471
 8411SOL     OW36868   3.051   2.098  13.122  0.3518 -0.3036  0.3757
 8411SOL    HW136869   3.102   2.069  13.198 -2.7305 -1.6291  1.9154
 8411SOL    HW236870   2.962   2.099  13.158  1.0674  0.3211  2.1546
 8412SOL     OW36871   3.450   0.668   3.808 -0.8638 -0.2977 -0.5059
 8412SOL    HW136872   3.387   0.686   3.878 -1.2968  3.2772 -1.7982
 8412SOL    HW236873   3.460   0.574   3.800 -1.2983 -0.4169  0.2728
 8413SOL     OW36874   0.466   4.557   5.843 -0.2522 -0.4378  0.4440
 8413SOL    HW136875   0.556   4.529   5.823 -0.1243  0.5119 -0.2795
 8413SOL    HW236876   0.413   4.498   5.791  0.9445  0.5308 -1.8702
 8414SOL     OW36877   4.251   4.286   6.843  0.0646 -0.3303  0.2753
 8414SOL    HW136878   4.310   4.229   6.892  0.1257 -0.2769  0.2639
 8414SOL    HW236879   4.169   4.238   6.855  0.3606 -1.0249 -0.4644
 8415SOL     OW36880   3.635   1.733   9.072 -0.0336  0.3055 -0.2604
 8415SOL    HW136881   3.711   1.755   9.020  1.9792  0.3336  2.6845
 8415SOL    HW236882   3.593   1.673   9.011  2.8983 -1.7177 -0.2349
 8416SOL     OW36883   0.251   4.402   3.805 -0.2103  0.0756 -0.4296
 8416SOL    HW136884   0.170   4.381   3.850 -0.2353  0.3405 -0.3527
 8416SOL    HW236885   0.315   4.393   3.876  1.7752  0.1717 -2.2011
 8417SOL     OW36886   3.521   3.447   6.299 -0.3006  0.0974  0.2433
 8417SOL    HW136887   3.606   3.450   6.255 -0.1699  0.2350  0.5021
 8417SOL    HW236888   3.494   3.539   6.304  1.4038  0.6737 -0.9873
 8418SOL     OW36889   2.615   2.194  12.203 -0.4308 -0.4932 -0.2501
 8418SOL    HW136890   2.583   2.105  12.215 -1.4964 -0.0568  0.2119
 8418SOL    HW236891   2.706   2.184  12.231 -0.4540  0.2400  0.1131
 8419SOL     OW36892   1.228   0.134   5.788 -0.2453  0.7489  0.1668
 8419SOL    HW136893   1.160   0.136   5.856 -0.7084  0.5799 -0.2925
 8419SOL    HW236894   1.244   0.039   5.788  1.9745  1.1268 -0.2749
 8420SOL     OW36895   1.708   1.421  11.326 -0.1285 -0.4001 -0.0160
 8420SOL    HW136896   1.641   1.470  11.280  0.3001 -0.6720 -0.9422
 8420SOL    HW236897   1.752   1.490  11.375  0.1332  0.6549 -1.7518
 8421SOL     OW36898   1.894   0.343  10.169 -0.4887 -0.0202 -0.0113
 8421SOL    HW136899   1.921   0.293  10.092 -1.3646 -0.7698  0.1701
 8421SOL    HW236900   1.961   0.412  10.167  1.5372 -2.0373 -1.8529
 8422SOL     OW36901   4.164   1.381   1.616 -0.5206 -0.6440 -0.7106
 8422SOL    HW136902   4.098   1.312   1.609  0.4191 -1.6105 -0.0318
 8422SOL    HW236903   4.187   1.373   1.708  2.0684 -0.6860 -1.3575
 8423SOL     OW36904   4.434   0.569   8.237 -0.0615  0.1655 -0.0746
 8423SOL    HW136905   4.478   0.626   8.174 -1.0087  1.1510  0.1537
 8423SOL    HW236906   4.466   0.613   8.316  0.9519 -0.5256 -0.1056
 8424SOL     OW36907   2.902   1.514   9.032 -0.0160  0.1538 -0.2434
 8424SOL    HW136908   2.880   1.421   9.038  0.2716  0.1718  1.2075
 8424SOL    HW236909   2.858   1.548   9.110  0.2038  0.2677 -0.1700
 8425SOL     OW36910   3.166   4.699   4.159 -0.4285 -0.4724  0.3040
 8425SOL    HW136911   3.122   0.009   4.088  0.1157  0.9665  0.9156
 8425SOL    HW236912   3.197   4.622   4.110  0.3577  0.2324 -0.3042
 8426SOL     OW36913   3.350   0.993  12.494 -0.9360 -0.9910 -0.5099
 8426SOL    HW136914   3.361   1.044  12.574  0.8620 -0.9367 -0.7814
 8426SOL    HW236915   3.382   0.915  12.538  0.1079 -0.1197  0.2902
 8427SOL     OW36916   4.011   2.791   7.058  0.2834 -0.3388 -0.3929
 8427SOL    HW136917   3.941   2.728   7.077 -0.3728  1.0868  1.8571
 8427SOL    HW236918   3.964   2.872   7.077  0.7915 -0.1422  0.0185
 8428SOL     OW36919   2.472   4.210   9.114  0.0866 -0.0133  0.3589
 8428SOL    HW136920   2.491   4.159   9.035 -0.7519 -1.2342  0.9393
 8428SOL    HW236921   2.385   4.241   9.087 -0.4991 -0.2733  1.9653
 8429SOL     OW36922   2.623   3.363   3.477 -0.3797 -0.5602  0.0730
 8429SOL    HW136923   2.670   3.303   3.420  2.4576  0.8249  0.9732
 8429SOL    HW236924   2.688   3.431   3.493 -0.0421 -0.4874 -1.6633
 8430SOL     OW36925   2.478   2.612   1.042  0.0102  0.1770  0.0530
 8430SOL    HW136926   2.538   2.687   1.046  1.4742 -1.0647  1.3449
 8430SOL    HW236927   2.442   2.611   0.953  0.1896  0.2945 -0.0221
 8431SOL     OW36928   1.101   0.559   3.648 -0.0871  0.1578 -0.3642
 8431SOL    HW136929   1.109   0.465   3.663 -1.9634  0.3097  1.7815
 8431SOL    HW236930   1.175   0.573   3.589 -0.9538  2.0772 -1.0193
 8432SOL     OW36931   3.003   1.157   2.345 -0.0697 -0.4876  0.0288
 8432SOL    HW136932   3.026   1.213   2.420 -0.8550 -0.9185  0.5973
 8432SOL    HW236933   2.921   1.111   2.363 -0.7243  0.6981  0.0761
 8433SOL     OW36934   0.816   2.295   4.164  0.1578 -0.4848 -0.0417
 8433SOL    HW136935   0.907   2.302   4.137  0.2189  0.2784  0.3679
 8433SOL    HW236936   0.777   2.214   4.132 -1.2312 -0.2357  1.0161
 8434SOL     OW36937   2.959   1.528   4.976 -0.3720  0.3277  0.0046
 8434SOL    HW136938   3.030   1.465   4.963  0.3088  1.2066 -0.5473
 8434SOL    HW236939   2.994   1.607   4.933 -0.2406  0.3853  0.2161
 8435SOL     OW36940   0.926   1.144   0.642 -0.5497  0.1367  0.2737
 8435SOL    HW136941   0.957   1.054   0.645 -2.3022 -0.4901 -0.4659
 8435SOL    HW236942   0.838   1.126   0.609  0.2586  0.1638 -1.8846
 8436SOL     OW36943   1.397   4.718  13.509 -0.2482  0.2521  0.6521
 8436SOL    HW136944   1.327   0.014  13.567 -0.7350 -0.5640  0.5251
 8436SOL    HW236945   1.482   4.729  13.551  0.1419 -1.6966  0.3884
 8437SOL     OW36946   4.152   3.209   0.399 -0.1529  0.9661 -0.5778
 8437SOL    HW136947   4.144   3.114   0.395  2.9458  0.7080 -0.5953
 8437SOL    HW236948   4.113   3.235   0.316 -1.1102  0.9726 -0.1361
 8438SOL     OW36949   3.598   3.691   5.977  0.5073 -0.7901  0.2435
 8438SOL    HW136950   3.559   3.775   5.999 -0.2760 -0.7320 -1.3976
 8438SOL    HW236951   3.662   3.724   5.914 -1.0103  2.9361  0.6635
 8439SOL     OW36952   0.847   2.315  15.014  0.5052 -0.1288  0.3581
 8439SOL    HW136953   0.761   2.343  15.045 -0.6205 -1.0045 -2.0051
 8439SOL    HW236954   0.850   2.223  15.041 -0.7880 -0.0301  0.8014
 8440SOL     OW36955   3.391   4.153   5.482  0.4522  0.3647  0.2679
 8440SOL    HW136956   3.433   4.069   5.462  0.8439  0.2240  1.6238
 8440SOL    HW236957   3.348   4.171   5.399 -0.0358 -1.6410  0.0791
 8441SOL     OW36958   2.597   4.473   5.810  0.2317  0.0543 -0.6122
 8441SOL    HW136959   2.520   4.429   5.844  2.6568 -1.8597  2.3106
 8441SOL    HW236960   2.659   4.483   5.883 -0.4057 -0.3925 -0.0161
 8442SOL     OW36961   1.191   4.422  12.128 -0.3204 -0.0878 -0.0714
 8442SOL    HW136962   1.096   4.411  12.124 -0.4695  1.3017 -0.3760
 8442SOL    HW236963   1.216   4.352  12.067  2.0950 -0.4682  1.3487
 8443SOL     OW36964   3.651   2.670  11.672  0.1620 -0.5601 -0.1195
 8443SOL    HW136965   3.601   2.744  11.639  0.5523 -0.6579 -0.9371
 8443SOL    HW236966   3.727   2.668  11.613  1.1141  0.6754  1.0517
 8444SOL     OW36967   3.568   4.243   9.274  0.6557  0.1861  0.2606
 8444SOL    HW136968   3.588   4.152   9.256  1.6161  0.1911  1.3115
 8444SOL    HW236969   3.481   4.246   9.234 -0.1932 -0.2633  2.0551
 8445SOL     OW36970   1.512   4.307   6.340  0.2246 -0.0542 -0.1664
 8445SOL    HW136971   1.599   4.267   6.343  0.3295  0.2970  1.4082
 8445SOL    HW236972   1.455   4.246   6.388 -0.8151 -0.0656 -1.4213
 8446SOL     OW36973   0.802   0.489   4.226 -0.2061  0.0693  0.0253
 8446SOL    HW136974   0.711   0.487   4.197 -0.6359 -2.6057  1.5553
 8446SOL    HW236975   0.847   0.435   4.161  2.4533  1.0431  1.0390
 8447SOL     OW36976   0.636   3.064   7.226 -0.1032 -0.2901 -0.4954
 8447SOL    HW136977   0.595   2.994   7.175 -2.7671  0.6159  0.4063
 8447SOL    HW236978   0.553   3.097   7.260  0.0850  1.1390 -1.4246
 8448SOL     OW36979   4.542   0.907   3.262 -0.0820 -0.0622  0.0143
 8448SOL    HW136980   4.488   0.835   3.229  1.6079 -1.8402  1.0698
 8448SOL    HW236981   4.577   0.852   3.332  1.0581  0.7782  0.1049
 8449SOL     OW36982   3.733   3.344   6.764 -0.0525 -0.4154  0.6896
 8449SOL    HW136983   3.770   3.365   6.678 -1.4870 -2.7501 -0.4857
 8449SOL    HW236984   3.816   3.309   6.798 -0.1266  0.2018  1.5060
 8450SOL     OW36985   3.961   4.674   2.817  0.4981  0.0605 -0.6517
 8450SOL    HW136986   3.989   4.656   2.907 -2.9298  3.5041  1.0992
 8450SOL    HW236987   3.873   4.636   2.820  1.0529 -1.1936 -0.3912
 8451SOL     OW36988   2.269   1.330   2.179  0.2148  0.6468 -0.7764
 8451SOL    HW136989   2.245   1.408   2.228  1.3767 -1.2194  2.7456
 8451SOL    HW236990   2.231   1.353   2.094  0.4127  1.7660 -0.5535
 8452SOL     OW36991   4.162   1.620  10.802  0.1100 -0.0986  0.2704
 8452SOL    HW136992   4.254   1.597  10.787  0.0392 -0.6238  0.5985
 8452SOL    HW236993   4.169   1.641  10.896 -0.5449 -1.4450  0.6188
 8453SOL     OW36994   2.321   0.260  10.218 -0.5463 -0.0120 -0.0394
 8453SOL    HW136995   2.251   0.310  10.260  0.8644  0.4698  1.7413
 8453SOL    HW236996   2.381   0.325  10.182  1.2661 -1.5406  0.2389
 8454SOL     OW36997   3.497   1.944   4.391 -0.6662 -0.0738 -0.3568
 8454SOL    HW136998   3.447   1.864   4.410  0.1426 -0.2335  1.1008
 8454SOL    HW236999   3.439   2.018   4.406  2.5273  2.5445 -0.7719
 8455SOL     OW37000   3.361   0.721   6.790  0.5323 -0.1147 -0.2453
 8455SOL    HW137001   3.412   0.649   6.753  0.9733  0.4697 -0.7506
 8455SOL    HW237002   3.316   0.743   6.709 -1.9404  0.6011  1.3036
 8456SOL     OW37003   2.450   1.608   1.576 -0.3176 -0.2640  0.4187
 8456SOL    HW137004   2.364   1.630   1.538  0.4449  0.5244 -0.8419
 8456SOL    HW237005   2.435   1.572   1.663 -0.7439 -0.5233  0.2390
 8457SOL     OW37006   1.394   3.745   8.483 -0.9322  0.5826 -0.7426
 8457SOL    HW137007   1.450   3.805   8.434  0.1932 -0.4611 -0.7435
 8457SOL    HW237008   1.370   3.807   8.551  0.0091  0.4423 -0.2714
 8458SOL     OW37009   4.441   1.341   2.599  0.4718 -0.4126 -0.7503
 8458SOL    HW137010   4.456   1.294   2.517 -0.2762  1.6217 -2.0550
 8458SOL    HW237011   4.428   1.272   2.663  0.6523  0.4872  0.2524
 8459SOL     OW37012   2.092   3.646   7.444 -0.1016 -0.1620  0.3575
 8459SOL    HW137013   2.113   3.555   7.422  1.3718  0.2782 -0.0413
 8459SOL    HW237014   2.031   3.671   7.376 -0.5627 -0.1679  0.7703
 8460SOL     OW37015   3.991   1.037   3.280  0.7201 -0.2697  0.6477
 8460SOL    HW137016   3.928   1.004   3.344  0.9896 -1.3510  0.3617
 8460SOL    HW237017   3.996   1.129   3.304 -0.8966 -0.1186  0.4027
 8461SOL     OW37018   1.623   1.322  12.054  0.1955 -0.0654  0.3988
 8461SOL    HW137019   1.656   1.244  12.098  0.3708 -0.1399  0.1344
 8461SOL    HW237020   1.700   1.339  12.000 -2.7720 -2.6165 -4.6426
 8462SOL     OW37021   1.350   2.109   2.577  0.5588  0.5408 -0.3396
 8462SOL    HW137022   1.392   2.164   2.644  2.2078  0.1511 -1.0473
 8462SOL    HW237023   1.258   2.115   2.601  0.6047  1.5425 -0.4157
 8463SOL     OW37024   0.245   0.220   3.824  0.1351  0.3729 -0.2390
 8463SOL    HW137025   0.248   0.126   3.843 -1.2508  0.4039  0.1933
 8463SOL    HW237026   0.149   0.228   3.822 -0.0260 -1.4728 -0.4153
 8464SOL     OW37027   2.817   4.445   5.630  0.1096 -0.0504  0.2893
 8464SOL    HW137028   2.727   4.418   5.651 -0.4329  1.4104 -0.1771
 8464SOL    HW237029   2.816   4.434   5.534 -0.4547 -1.6235  0.4598
 8465SOL     OW37030   3.883   4.341   5.046 -0.0271 -0.1239  0.0051
 8465SOL    HW137031   3.818   4.380   5.104  0.5633 -1.1899  1.3773
 8465SOL    HW237032   3.833   4.298   4.976 -0.2787  0.2136 -0.0225
 8466SOL     OW37033   2.919   2.311   5.683 -0.0136 -0.2367  0.7570
 8466SOL    HW137034   2.984   2.301   5.753  2.0867 -2.0791 -1.4510
 8466SOL    HW237035   2.844   2.361   5.716  0.0596 -0.0814  0.6886
 8467SOL     OW37036   3.056   1.731   4.849  0.3012  0.1465  0.2147
 8467SOL    HW137037   3.116   1.800   4.879  2.6969 -3.1851  3.0341
 8467SOL    HW237038   2.995   1.782   4.796 -1.2244 -1.4821  0.3895
 8468SOL     OW37039   2.663   3.504   9.047  0.4686 -0.4550 -0.2681
 8468SOL    HW137040   2.694   3.590   9.075  0.6172 -0.0108 -1.7537
 8468SOL    HW237041   2.666   3.504   8.951 -0.3138  0.3356 -0.2919
 8469SOL     OW37042   3.225   2.247  14.717 -0.0862  0.1839 -0.5997
 8469SOL    HW137043   3.206   2.321  14.776  0.8749 -1.1662  1.4214
 8469SOL    HW237044   3.286   2.285  14.654 -1.7427 -0.9051 -2.8272
 8470SOL     OW37045   1.840   4.605   0.578  0.6450 -0.3927  1.3313
 8470SOL    HW137046   1.770   4.637   0.521  1.7397  2.2286  1.4471
 8470SOL    HW237047   1.847   4.682   0.635  0.9400  1.0912 -0.7051
 8471SOL     OW37048   2.063   1.619   9.021 -0.0544  0.5390 -0.3681
 8471SOL    HW137049   2.043   1.576   9.104 -0.3047  0.7951 -0.2967
 8471SOL    HW237050   2.009   1.698   9.018  1.6310  1.6175 -2.3951
 8472SOL     OW37051   1.031   0.133  15.468 -0.5732 -0.3028 -0.5438
 8472SOL    HW137052   1.000   0.118  15.379 -1.5956 -0.4682 -0.1654
 8472SOL    HW237053   1.075   0.051  15.492 -1.5729 -0.5445  0.4457
 8473SOL     OW37054   1.643   4.156   6.614 -0.0469  0.0362  0.3543
 8473SOL    HW137055   1.724   4.174   6.663 -1.0624  2.5333  1.1145
 8473SOL    HW237056   1.681   4.132   6.530 -0.1078 -0.6340  0.5150
 8474SOL     OW37057   0.949   0.472   4.471 -0.4641  0.0168  0.3639
 8474SOL    HW137058   0.886   0.436   4.534  0.5998  0.8318  1.9075
 8474SOL    HW237059   0.894   0.474   4.393  0.1114  1.3802 -0.0185
 8475SOL     OW37060   4.608   0.153  14.734 -0.1003 -0.3187 -0.3638
 8475SOL    HW137061   4.655   0.070  14.738  0.4164  0.0024  0.1076
 8475SOL    HW237062   4.523   0.129  14.696  0.4261 -0.2577 -1.5955
 8476SOL     OW37063   2.111   4.493   6.164  0.3284 -0.2575 -0.2677
 8476SOL    HW137064   2.105   4.491   6.259  0.5431  1.3075 -0.2218
 8476SOL    HW237065   2.069   4.577   6.147 -0.3009 -0.0211  2.5677
 8477SOL     OW37066   4.401   2.047   3.695 -0.4172  0.3038  0.4196
 8477SOL    HW137067   4.492   2.031   3.674 -0.9402  0.2068 -1.7632
 8477SOL    HW237068   4.409   2.069   3.788  2.0185  4.9456 -0.9252
 8478SOL     OW37069   0.380   4.099   5.552 -0.4120 -0.5627  0.8469
 8478SOL    HW137070   0.361   4.029   5.615  4.5566 -3.0409 -0.3912
 8478SOL    HW237071   0.292   4.122   5.523  0.1737  0.1302 -0.3800
 8479SOL     OW37072   0.587   1.178   5.027  0.0947  0.0022 -0.2719
 8479SOL    HW137073   0.671   1.139   5.002  0.5700  1.4437 -0.9169
 8479SOL    HW237074   0.598   1.213   5.115 -0.8073  1.1676 -0.6108
 8480SOL     OW37075   4.173   1.326   9.467 -0.5725 -0.7683 -0.3347
 8480SOL    HW137076   4.242   1.259   9.464 -1.6851 -1.8948 -1.3272
 8480SOL    HW237077   4.209   1.399   9.417  0.2188 -0.1781  1.0992
 8481SOL     OW37078   2.465   0.781   9.008 -0.2654 -0.0681  0.6246
 8481SOL    HW137079   2.419   0.857   9.045 -0.9729  1.0444 -2.5584
 8481SOL    HW237080   2.484   0.811   8.919  1.0321 -4.1082 -0.4609
 8482SOL     OW37081   0.811   4.548   9.061 -0.1014 -0.2208  0.1234
 8482SOL    HW137082   0.739   4.490   9.086 -0.7744  1.4486  2.0427
 8482SOL    HW237083   0.779   4.638   9.068  0.0542 -0.0524 -1.3736
 8483SOL     OW37084   3.092   4.632   5.978  0.0112  0.2901  0.2325
 8483SOL    HW137085   3.002   4.608   5.956 -0.3493  0.4431  1.5157
 8483SOL    HW237086   3.123   4.632   5.888 -1.4995 -2.5892 -0.2898
 8484SOL     OW37087   2.629   0.598   7.899  0.3740 -0.2951 -0.6192
 8484SOL    HW137088   2.595   0.513   7.927  1.3420 -1.5647 -3.2834
 8484SOL    HW237089   2.702   0.590   7.961 -1.4079 -0.4634  1.4159
 8485SOL     OW37090   2.931   3.445   6.307  0.2862 -0.2985  0.1840
 8485SOL    HW137091   3.024   3.467   6.313  0.2438 -0.4166  1.1574
 8485SOL    HW237092   2.907   3.397   6.386  2.0169  3.0107  2.6965
 8486SOL     OW37093   1.069   3.875  10.111 -0.5559 -0.1594  0.1317
 8486SOL    HW137094   1.066   3.885  10.206 -0.8633 -0.1878  0.1226
 8486SOL    HW237095   1.080   3.968  10.091 -0.4545  0.0474  1.1728
 8487SOL     OW37096   3.392   3.618   1.654  0.2587  0.1109  0.1776
 8487SOL    HW137097   3.437   3.554   1.598 -1.1307 -0.4295 -0.3156
 8487SOL    HW237098   3.422   3.706   1.630  2.3286 -0.6885 -0.1297
 8488SOL     OW37099   3.416   0.648   2.018 -0.4816  0.3330 -0.0084
 8488SOL    HW137100   3.420   0.717   1.952  0.6924  0.7343  0.4761
 8488SOL    HW237101   3.446   0.690   2.098  0.5951 -0.4416 -0.0071
 8489SOL     OW37102   1.919   1.236   9.461 -0.0699  0.0414  0.7485
 8489SOL    HW137103   1.894   1.266   9.549 -0.4663  0.1462  0.5992
 8489SOL    HW237104   1.970   1.159   9.486 -1.3085 -1.1261 -0.4057
 8490SOL     OW37105   0.882   1.525   5.415  0.7137  0.2989  0.8120
 8490SOL    HW137106   0.935   1.497   5.340  1.1039  1.0309  0.8189
 8490SOL    HW237107   0.945   1.522   5.487  3.1565  0.1065 -1.3265
 8491SOL     OW37108   2.117   0.720   9.348  0.0024  0.4269 -0.6051
 8491SOL    HW137109   2.077   0.686   9.428 -0.6100 -0.0903 -1.1268
 8491SOL    HW237110   2.205   0.739   9.383 -0.3811 -0.7819  1.0278
 8492SOL     OW37111   0.592   0.673  16.349  0.0591 -0.6877  0.1142
 8492SOL    HW137112   0.594   0.698  16.257  0.2556 -0.1187  0.2702
 8492SOL    HW237113   0.504   0.634  16.345 -0.9704  1.5620  0.6953
 8493SOL     OW37114   1.094   2.239  17.645  0.1989  0.3181 -0.0601
 8493SOL    HW137115   1.092   2.161  17.701  1.6168  0.1521 -0.2340
 8493SOL    HW237116   1.171   2.279  17.687 -0.2527  0.3832  0.7143
 8494SOL     OW37117   3.635   4.631   8.198  0.0110  0.2573  0.3841
 8494SOL    HW137118   3.712   4.589   8.160 -1.0967 -1.3386 -0.1104
 8494SOL    HW237119   3.669   4.668   8.280  2.0119  0.5183 -0.5587
 8495SOL     OW37120   4.736   2.999   8.293 -0.6278  0.4439 -0.0270
 8495SOL    HW137121   4.721   2.981   8.386 -2.5731 -1.5461 -0.7291
 8495SOL    HW237122   4.710   3.091   8.294  0.4541  0.7372  1.8364
 8496SOL     OW37123   2.324   4.518  15.314 -0.1377  0.1662 -0.6366
 8496SOL    HW137124   2.246   4.474  15.281 -0.0414 -0.7856  0.3885
 8496SOL    HW237125   2.309   4.515  15.409  0.6179  1.3846 -0.4832
 8497SOL     OW37126   0.015   0.023   0.299  0.5230  0.5906  0.8098
 8497SOL    HW137127   4.672   4.707   0.281 -0.2666  2.3170 -0.7326
 8497SOL    HW237128   0.076   4.697   0.261 -0.2343 -0.1258  0.7659
 8498SOL     OW37129   0.630   4.065   7.791 -0.7067 -0.1907 -0.0727
 8498SOL    HW137130   0.644   4.157   7.816 -0.7044 -1.0223  2.8602
 8498SOL    HW237131   0.535   4.060   7.783 -0.9831  0.5687  3.0682
 8499SOL     OW37132   2.107   0.600   4.100  0.1458 -0.6735  0.1553
 8499SOL    HW137133   2.101   0.559   4.186 -0.2549 -1.6802 -0.3572
 8499SOL    HW237134   2.129   0.519   4.055 -0.2547 -0.0689 -1.1366
 8500SOL     OW37135   4.448   0.849   2.199 -0.2701  0.6776 -0.1033
 8500SOL    HW137136   4.359   0.883   2.211 -0.2133  0.7718  0.0495
 8500SOL    HW237137   4.494   0.888   2.273  0.3754 -1.5643  0.6839
 8501SOL     OW37138   4.522   0.127   9.388  0.8116 -0.1655  0.0686
 8501SOL    HW137139   4.527   0.157   9.479  1.5474 -0.9835  0.2975
 8501SOL    HW237140   4.610   0.145   9.355  1.0282 -1.0716  0.1525
 8502SOL     OW37141   3.482   3.789   9.072  0.0433  0.3949  0.2663
 8502SOL    HW137142   3.447   3.875   9.096  0.2183 -0.0522  2.1561
 8502SOL    HW237143   3.524   3.827   8.995  1.6084  0.7717  1.3004
 8503SOL     OW37144   1.248   2.328   6.075 -0.0143  0.3701  0.1453
 8503SOL    HW137145   1.180   2.266   6.049  0.5534 -0.1851 -0.0037
 8503SOL    HW237146   1.321   2.277   6.107  0.3530  0.4152 -0.6178
 8504SOL     OW37147   2.202   4.144   7.851 -0.1449 -0.8402  0.0564
 8504SOL    HW137148   2.152   4.064   7.837 -0.0752 -0.6069 -1.4945
 8504SOL    HW237149   2.224   4.161   7.760 -1.0867 -2.0326 -0.3927
 8505SOL     OW37150   2.810   0.986   9.417  0.0701  0.4797  0.8027
 8505SOL    HW137151   2.747   1.039   9.369  0.1849  1.4543  1.7256
 8505SOL    HW237152   2.782   0.896   9.401  0.7221  0.5777 -0.9743
 8506SOL     OW37153   3.973   3.757  12.162  0.8636  0.1263 -0.3523
 8506SOL    HW137154   3.967   3.681  12.105 -1.2195 -0.1299  0.2482
 8506SOL    HW237155   3.999   3.700  12.235  1.4516 -1.1953 -1.5923
 8507SOL     OW37156   1.593   3.806  11.333 -0.1807 -0.0598  0.2831
 8507SOL    HW137157   1.684   3.777  11.347 -1.1408 -2.3694  1.7073
 8507SOL    HW237158   1.551   3.731  11.375 -2.1182  0.6858 -0.3728
 8508SOL     OW37159   2.030   3.966   5.173  0.5437  0.1381  0.0537
 8508SOL    HW137160   2.073   4.033   5.226  1.3990 -0.0205 -0.4340
 8508SOL    HW237161   2.025   4.002   5.085  1.1765 -1.0230 -0.4575
 8509SOL     OW37162   2.016   0.971  10.815 -0.4050 -0.1403  0.1758
 8509SOL    HW137163   1.931   0.995  10.776 -0.3952 -0.4958 -0.0596
 8509SOL    HW237164   2.079   1.014  10.757  0.1169  0.8399  1.4825
 8510SOL     OW37165   0.991   1.464   4.451 -0.1821 -0.1963  0.0123
 8510SOL    HW137166   1.073   1.450   4.498 -0.2129 -1.8924 -0.4542
 8510SOL    HW237167   0.991   1.560   4.452  0.0934 -0.1936 -0.3721
 8511SOL     OW37168   3.010   0.257   7.518 -0.1235 -0.0423  0.0976
 8511SOL    HW137169   3.071   0.196   7.561 -0.3481 -0.4133 -0.1049
 8511SOL    HW237170   3.027   0.224   7.430  2.4760  1.7291 -0.0493
 8512SOL     OW37171   0.047   3.143  11.105  0.7131 -0.4417  0.0383
 8512SOL    HW137172   4.736   3.226  11.115  1.3581 -0.2953  1.8563
 8512SOL    HW237173   0.137   3.172  11.088  0.5362  1.0854  1.6283
 8513SOL     OW37174   3.573   4.451   9.455  0.6727  0.2010  0.0644
 8513SOL    HW137175   3.577   4.381   9.390 -0.3328 -0.4270  0.6730
 8513SOL    HW237176   3.663   4.485   9.452  0.5189  0.5560 -0.5583
 8514SOL     OW37177   2.809   2.204   9.129 -0.3922  0.0947  0.2347
 8514SOL    HW137178   2.739   2.149   9.163  1.2293 -1.5063  0.9758
 8514SOL    HW237179   2.894   2.164   9.148  0.1041 -0.0087 -2.2511
 8515SOL     OW37180   0.094   0.723  15.596 -0.2504  0.6884 -0.0900
 8515SOL    HW137181   0.014   0.673  15.612  0.4075 -0.5019 -0.5511
 8515SOL    HW237182   0.067   0.812  15.622 -0.5107  0.9550 -1.2928
 8516SOL     OW37183   1.672   2.703   7.867 -0.5866 -0.6003 -0.6586
 8516SOL    HW137184   1.589   2.656   7.863 -0.3825 -1.1131  0.9532
 8516SOL    HW237185   1.641   2.790   7.839 -2.3701 -0.4855  1.6551
 8517SOL     OW37186   3.690   4.516  14.138  0.9130  0.1331 -0.6162
 8517SOL    HW137187   3.711   4.431  14.176  1.2940  0.7875  0.6725
 8517SOL    HW237188   3.766   4.567  14.168  0.7622 -0.5163  0.8834
 8518SOL     OW37189   3.310   2.701   2.703 -0.3144 -0.7471  0.0297
 8518SOL    HW137190   3.397   2.739   2.688 -0.3791 -0.6931 -0.2083
 8518SOL    HW237191   3.256   2.764   2.654  0.4715 -0.7547 -0.8403
 8519SOL     OW37192   3.370   1.798  11.527 -0.1187 -0.9694 -0.1806
 8519SOL    HW137193   3.326   1.787  11.611  4.1833  1.0332  2.3073
 8519SOL    HW237194   3.312   1.868  11.495 -0.4898 -1.4010 -0.4511
 8520SOL     OW37195   3.398   0.595   6.291  0.3627  0.0531  0.3240
 8520SOL    HW137196   3.471   0.651   6.320 -1.7785  2.2820  1.4309
 8520SOL    HW237197   3.452   0.535   6.240 -0.4001  0.5211 -1.0240
 8521SOL     OW37198   2.409   4.723  11.467  0.8712 -0.1135  0.5491
 8521SOL    HW137199   2.392   0.023  11.553  0.8005 -0.3120  0.6190
 8521SOL    HW237200   2.348   4.649  11.462  0.4966  0.2883 -0.8555
 8522SOL     OW37201   1.669   0.819   7.368  0.3992 -0.1058  0.7022
 8522SOL    HW137202   1.647   0.726   7.367 -5.6620  1.3186  3.6695
 8522SOL    HW237203   1.582   0.843   7.400  0.1317 -0.9009  0.5679
 8523SOL     OW37204   3.676   1.391   8.627  0.0267 -0.2364 -0.2157
 8523SOL    HW137205   3.670   1.296   8.612  0.4013 -0.2662 -0.1870
 8523SOL    HW237206   3.767   1.401   8.600  0.2244  0.6851  0.8268
 8524SOL     OW37207   1.788   1.361   0.493 -0.0353 -0.5012 -0.0985
 8524SOL    HW137208   1.838   1.437   0.521  1.0300 -0.9393 -0.7977
 8524SOL    HW237209   1.839   1.292   0.534  1.4859 -0.1705 -1.4437
 8525SOL     OW37210   1.269   0.324  13.600  0.0169 -0.1875  0.6874
 8525SOL    HW137211   1.283   0.419  13.597 -3.8205  0.3020 -1.0538
 8525SOL    HW237212   1.325   0.309  13.676  1.0529  2.0655  0.3780
 8526SOL     OW37213   1.619   0.833   0.548  0.1645 -0.0962  0.7173
 8526SOL    HW137214   1.594   0.918   0.586 -0.9526  0.2152 -0.7023
 8526SOL    HW237215   1.559   0.775   0.595  0.5398 -0.3812  0.8403
 8527SOL     OW37216   2.247   3.117   4.617  1.0930 -0.7000  0.3379
 8527SOL    HW137217   2.242   3.022   4.633 -0.1924 -0.2291  2.8036
 8527SOL    HW237218   2.296   3.126   4.536 -0.0410  0.4871 -0.2096
 8528SOL     OW37219   3.363   3.832   0.124  0.0431  0.0858 -0.3874
 8528SOL    HW137220   3.430   3.807   0.188 -0.7525 -2.6952 -0.6822
 8528SOL    HW237221   3.279   3.809   0.163  0.6271 -1.1397  0.1427
 8529SOL     OW37222   3.374   2.518   7.351  0.1476 -0.1947 -0.3920
 8529SOL    HW137223   3.344   2.453   7.287 -1.0401  0.3331 -0.3736
 8529SOL    HW237224   3.366   2.475   7.436  1.7073 -3.0696 -1.6780
 8530SOL     OW37225   1.079   1.101   5.705  0.1782 -0.0734  0.4103
 8530SOL    HW137226   0.994   1.136   5.729 -1.8224 -3.3826 -1.8373
 8530SOL    HW237227   1.089   1.040   5.778  0.2240 -1.5420 -0.8162
 8531SOL     OW37228   1.439   1.405  11.846  0.1536 -0.3532 -0.0503
 8531SOL    HW137229   1.469   1.396  11.937  1.9173 -0.1213 -0.6047
 8531SOL    HW237230   1.507   1.361  11.795  0.1618  0.3816 -0.6731
 8532SOL     OW37231   1.092   2.832   7.092  0.5187 -0.1673 -0.6765
 8532SOL    HW137232   1.049   2.877   7.165  0.2220  0.7945 -1.4455
 8532SOL    HW237233   1.073   2.895   7.022  0.8625 -1.3035 -1.7889
 8533SOL     OW37234   3.402   2.370  12.304 -0.4020  0.5536 -0.0957
 8533SOL    HW137235   3.310   2.398  12.311 -0.2652  1.2598 -1.2087
 8533SOL    HW237236   3.443   2.455  12.290 -0.1935  0.4299 -0.2363
 8534SOL     OW37237   2.730   0.952   8.916  0.2251 -0.2417 -0.1297
 8534SOL    HW137238   2.820   0.934   8.943  1.3444  2.0993 -2.3039
 8534SOL    HW237239   2.725   0.911   8.830  1.4754 -1.4159  0.3612
 8535SOL     OW37240   1.226   4.159   7.020 -0.6094 -0.2300  0.2605
 8535SOL    HW137241   1.216   4.153   6.925 -2.3972 -1.7516  0.5456
 8535SOL    HW237242   1.167   4.234   7.028  0.2394  0.6206 -1.4903
 8536SOL     OW37243   3.102   4.074   2.314 -0.2827  0.0161 -0.8449
 8536SOL    HW137244   3.160   4.013   2.267 -0.9589  0.2787 -2.0228
 8536SOL    HW237245   3.055   4.013   2.370 -0.8172  0.8455 -0.4000
 8537SOL     OW37246   3.254   3.486   9.785  0.1558 -0.1936  0.0051
 8537SOL    HW137247   3.318   3.426   9.824  0.4931  1.0640  1.4014
 8537SOL    HW237248   3.236   3.544   9.859  1.1816 -1.9393  1.6143
 8538SOL     OW37249   4.601   2.655   7.031  0.0257  0.3712 -0.2692
 8538SOL    HW137250   4.677   2.646   7.089 -0.7837 -0.7885  0.5882
 8538SOL    HW237251   4.570   2.745   7.043 -1.1675 -0.4043  2.4356
 8539SOL     OW37252   3.170   2.306  10.150  0.0466  0.5038 -0.0103
 8539SOL    HW137253   3.097   2.243  10.152  0.6144 -0.1275  0.7991
 8539SOL    HW237254   3.229   2.250  10.100 -0.9605 -1.1780  0.6645
 8540SOL     OW37255   3.260   4.682  15.354 -0.4509  0.3461 -0.1308
 8540SOL    HW137256   3.234   4.599  15.393 -1.0180  0.0185 -1.2346
 8540SOL    HW237257   3.354   4.667  15.363 -0.4296  0.0988 -0.7722
 8541SOL     OW37258   2.794   4.518   7.223  0.0148  0.3733  0.3324
 8541SOL    HW137259   2.770   4.444   7.279 -1.4329 -0.0140 -0.7938
 8541SOL    HW237260   2.714   4.571   7.226 -0.7741 -0.8146  0.4358
 8542SOL     OW37261   4.021   1.984  12.594 -0.4097  0.4793 -0.0796
 8542SOL    HW137262   3.973   1.927  12.533  0.5439  1.5909 -1.8699
 8542SOL    HW237263   4.043   2.056  12.535 -2.0365  1.5397  0.5899
 8543SOL     OW37264   1.697   0.968   9.262 -0.3964  0.0881 -0.1590
 8543SOL    HW137265   1.710   0.933   9.350 -0.7644  1.7096  0.5501
 8543SOL    HW237266   1.753   0.905   9.218 -1.3249 -0.0718 -1.0967
 8544SOL     OW37267   0.979   3.439   6.669 -0.2936  0.7203  0.4755
 8544SOL    HW137268   0.967   3.384   6.746 -1.0986 -1.9731 -1.5527
 8544SOL    HW237269   0.890   3.438   6.633  0.8867 -1.1566 -2.3888
 8545SOL     OW37270   4.027   2.268   7.273  0.0909  0.1788 -0.4182
 8545SOL    HW137271   4.109   2.314   7.292  0.4800 -0.4646 -0.5475
 8545SOL    HW237272   4.048   2.203   7.340  0.8700  0.7142 -0.1285
 8546SOL     OW37273   1.050   1.479   8.134  0.0165 -0.2089  0.1512
 8546SOL    HW137274   1.026   1.479   8.227 -0.1557  1.9908  0.1101
 8546SOL    HW237275   0.975   1.527   8.099  1.1291  1.9012  0.6715
 8547SOL     OW37276   4.386   0.132   5.696 -0.6463  0.1381 -0.3074
 8547SOL    HW137277   4.467   0.168   5.732 -0.1785 -2.1731  0.9513
 8547SOL    HW237278   4.404   0.038   5.705  0.2851  0.1224 -2.3849
 8548SOL     OW37279   2.319   1.685  17.552  0.1463  0.0844  0.7003
 8548SOL    HW137280   2.351   1.615  17.608  1.1688 -0.2992 -0.3631
 8548SOL    HW237281   2.398   1.703  17.500 -0.7417  0.6999 -0.4408
 8549SOL     OW37282   2.239   0.389   3.207  0.7283 -0.2365  0.4822
 8549SOL    HW137283   2.307   0.453   3.228  0.7201 -0.6240  1.7149
 8549SOL    HW237284   2.253   0.330   3.281 -1.4856 -1.9612 -0.4713
 8550SOL     OW37285   1.144   1.790   4.707 -0.0373  0.2760 -0.7404
 8550SOL    HW137286   1.100   1.794   4.792 -0.2546  1.5805 -0.9162
 8550SOL    HW237287   1.063   1.773   4.658 -0.3742  0.1177 -0.1240
 8551SOL     OW37288   0.999   3.096  13.500 -0.5119  0.3965  0.2531
 8551SOL    HW137289   0.977   3.132  13.414  0.5905 -2.7788 -1.3792
 8551SOL    HW237290   1.092   3.095  13.476 -0.2226  1.7073  1.3417
 8552SOL     OW37291   1.989   4.614  15.473  0.1050 -0.2357 -0.0219
 8552SOL    HW137292   2.063   4.563  15.503  1.4262  1.5187 -0.2915
 8552SOL    HW237293   1.945   4.645  15.552 -0.5017  1.2965 -0.9572
 8553SOL     OW37294   2.470   1.812   0.429 -0.2869 -0.4386 -0.0661
 8553SOL    HW137295   2.405   1.816   0.500  1.8222  0.3130  1.8360
 8553SOL    HW237296   2.530   1.872   0.474 -0.1895  0.0743 -0.8763
 8554SOL     OW37297   4.507   3.444   3.606  0.6150 -0.1944  0.4024
 8554SOL    HW137298   4.412   3.460   3.608  0.8893  1.4964 -0.6866
 8554SOL    HW237299   4.538   3.490   3.528  1.4719  2.1025  2.1186
 8555SOL     OW37300   1.704   1.379   6.068  0.8005  0.1006 -0.1109
 8555SOL    HW137301   1.656   1.305   6.031  1.3411 -0.5869  0.5395
 8555SOL    HW237302   1.685   1.448   6.005  2.6981  0.1997 -0.5866
 8556SOL     OW37303   1.921   0.900  15.419  0.4968 -0.6619 -0.4736
 8556SOL    HW137304   1.848   0.922  15.477  0.6351 -2.4760  0.3784
 8556SOL    HW237305   2.003   0.895  15.468  0.4983 -2.9983 -0.7026
 8557SOL     OW37306   1.085   0.678   5.888 -0.0668  0.5901 -0.1619
 8557SOL    HW137307   1.047   0.650   5.971  0.2790 -0.2199 -0.2684
 8557SOL    HW237308   1.069   0.594   5.845 -2.0400  1.7430 -1.6779
 8558SOL     OW37309   4.572   0.703   1.462  0.3686 -0.4151 -0.4517
 8558SOL    HW137310   4.642   0.661   1.412 -1.6345 -4.8113  0.4229
 8558SOL    HW237311   4.606   0.679   1.548 -0.6573  2.1548  0.6749
 8559SOL     OW37312   2.752   3.684   4.886 -0.1821  0.3258  0.2536
 8559SOL    HW137313   2.751   3.655   4.977 -0.7259  0.4427  0.2859
 8559SOL    HW237314   2.830   3.634   4.862 -0.9097  0.1693 -1.8295
 8560SOL     OW37315   3.539   0.422   0.904 -0.2536  0.0473 -0.0357
 8560SOL    HW137316   3.457   0.374   0.905 -0.5441  0.5614  0.8201
 8560SOL    HW237317   3.521   0.516   0.914 -2.3639 -0.4861  1.1293
 8561SOL     OW37318   1.055   4.387   8.864  0.0201  0.0715 -0.2027
 8561SOL    HW137319   1.028   4.470   8.903  1.1946 -0.2120  1.1742
 8561SOL    HW237320   1.122   4.420   8.804 -0.1256 -1.0484 -0.9932
 8562SOL     OW37321   0.300   2.352   4.419  0.3451 -0.2328  0.0378
 8562SOL    HW137322   0.352   2.427   4.449 -2.8888  2.3991 -0.9447
 8562SOL    HW237323   0.354   2.294   4.366 -1.2390 -3.0812  1.5434
 8563SOL     OW37324   0.033   3.076   6.222 -0.8660 -0.1268  0.2130
 8563SOL    HW137325   0.104   3.014   6.239 -1.8576 -1.3769 -0.2362
 8563SOL    HW237326   0.069   3.121   6.145 -2.2915  0.1917 -0.2715
 8564SOL     OW37327   1.585   0.347   3.755  0.2449  0.1311  0.0225
 8564SOL    HW137328   1.496   0.383   3.754  0.6022  1.0223  0.4110
 8564SOL    HW237329   1.571   0.255   3.731 -0.0377  0.9118 -2.8040
 8565SOL     OW37330   4.175   3.358  10.289  0.2698  0.3598 -0.3483
 8565SOL    HW137331   4.080   3.368  10.291  0.2574 -0.1612  1.2686
 8565SOL    HW237332   4.207   3.446  10.308 -1.7101  0.9893  0.0523
 8566SOL     OW37333   1.446   0.562  11.922  0.6120  0.9002 -0.8814
 8566SOL    HW137334   1.499   0.510  11.982  0.7018 -0.9468 -2.5742
 8566SOL    HW237335   1.467   0.648  11.959  1.0489  0.5720 -0.3773
 8567SOL     OW37336   1.048   3.297   2.110 -0.1986 -0.7661 -0.1784
 8567SOL    HW137337   1.038   3.202   2.120 -1.5835 -0.5885  0.0844
 8567SOL    HW237338   1.087   3.302   2.197 -1.1164  0.1421  0.1679
 8568SOL     OW37339   0.819   3.342   0.491  0.7561 -0.1757  0.2361
 8568SOL    HW137340   0.825   3.295   0.574  0.5303 -1.9469 -0.7292
 8568SOL    HW237341   0.789   3.428   0.519 -2.0619 -0.2875 -2.4428
 8569SOL     OW37342   1.688   3.065   4.733  0.3523 -0.2702 -0.0803
 8569SOL    HW137343   1.714   3.065   4.825 -2.0889  0.7340  0.5925
 8569SOL    HW237344   1.668   3.159   4.730 -0.0371 -0.2918  2.2062
 8570SOL     OW37345   3.328   4.604   7.530 -0.0201 -0.2529  0.0491
 8570SOL    HW137346   3.288   4.594   7.444  0.0879  1.1217 -0.1586
 8570SOL    HW237347   3.421   4.607   7.506 -0.2979  0.2151 -0.9737
 8571SOL     OW37348   4.553   1.707  12.958 -0.5478  0.0135 -0.4588
 8571SOL    HW137349   4.638   1.679  12.993 -0.9131  0.0467  0.4511
 8571SOL    HW237350   4.569   1.690  12.865 -1.9623  2.6426 -1.1919
 8572SOL     OW37351   3.152   1.206   6.893 -0.2342 -0.1612  0.2947
 8572SOL    HW137352   3.186   1.285   6.934  0.2281 -1.3634  2.2358
 8572SOL    HW237353   3.236   1.166   6.870 -0.2500  1.0036 -1.8171
 8573SOL     OW37354   2.414   1.763   8.451 -0.4517  0.1898  0.2114
 8573SOL    HW137355   2.344   1.704   8.424  1.2875 -1.7323 -0.1077
 8573SOL    HW237356   2.361   1.824   8.503 -0.7061 -0.6927  0.9846
 8574SOL     OW37357   2.471   2.492   6.743 -0.3365  0.3552 -0.6450
 8574SOL    HW137358   2.491   2.514   6.834 -0.8692  0.2054 -0.4931
 8574SOL    HW237359   2.477   2.576   6.699  0.4790 -0.2265 -1.6588
 8575SOL     OW37360   0.509   1.962   7.193 -0.2696 -0.2618  0.1079
 8575SOL    HW137361   0.527   1.887   7.135  1.9163  1.6629 -1.7453
 8575SOL    HW237362   0.580   1.967   7.257 -1.4476  1.9850  1.2412
 8576SOL     OW37363   4.398   3.240   9.755 -0.7284  0.0190 -0.0459
 8576SOL    HW137364   4.342   3.274   9.825 -0.5392  1.2495 -0.5096
 8576SOL    HW237365   4.363   3.151   9.744 -0.6305  0.1140 -1.0833
 8577SOL     OW37366   4.013   2.402   0.023 -0.0025  0.4711  0.0801
 8577SOL    HW137367   3.975   2.423  17.682  0.0225 -4.7653 -1.2336
 8577SOL    HW237368   4.078   2.335  17.742 -2.7319 -2.1281 -0.0133
 8578SOL     OW37369   2.083   0.346   0.588  0.6261  0.0128 -0.0250
 8578SOL    HW137370   2.010   0.368   0.646  1.7620  0.1665  1.3240
 8578SOL    HW237371   2.036   0.289   0.527  1.4747  0.1314 -0.8004
 8579SOL     OW37372   4.037   2.478  11.097 -0.5663 -0.0234 -0.1566
 8579SOL    HW137373   4.100   2.544  11.067  0.8468 -1.3622 -0.1152
 8579SOL    HW237374   3.961   2.536  11.099  0.0438  0.7795 -0.3636
 8580SOL     OW37375   2.520   2.551   3.649  0.2283  0.6892 -0.1897
 8580SOL    HW137376   2.450   2.606   3.684  0.0913  0.9175 -0.8212
 8580SOL    HW237377   2.467   2.479   3.613  1.8023 -2.1769  3.1420
 8581SOL     OW37378   1.711   1.133   3.763 -0.1924  0.1747  0.1578
 8581SOL    HW137379   1.783   1.095   3.812  0.1701  0.4644 -0.1579
 8581SOL    HW237380   1.744   1.130   3.673  0.8355  0.2348  0.5391
 8582SOL     OW37381   1.006   4.243   9.117  0.0739 -0.3722 -0.2482
 8582SOL    HW137382   1.030   4.312   9.055  1.5467  0.6875  1.5304
 8582SOL    HW237383   0.914   4.233   9.092 -0.1429 -0.4886  0.5983
 8583SOL     OW37384   4.717   2.837   2.138  0.2003 -0.4417  0.0092
 8583SOL    HW137385   0.074   2.836   2.118  0.5084  0.2532  1.4244
 8583SOL    HW237386   4.687   2.922   2.104 -2.9050 -0.7907  1.9686
 8584SOL     OW37387   2.574   3.687   6.773  0.8587  0.4994  0.1648
 8584SOL    HW137388   2.582   3.627   6.699  0.8071 -1.2737  1.5879
 8584SOL    HW237389   2.500   3.741   6.745 -0.9201 -1.8273  0.4344
 8585SOL     OW37390   2.759   1.458  17.282  0.1253  0.2346 -0.2933
 8585SOL    HW137391   2.772   1.484  17.191 -1.1317  1.1769 -0.1914
 8585SOL    HW237392   2.768   1.363  17.288  0.4481  0.3257  0.7612
 8586SOL     OW37393   3.113   0.110   6.744  0.6891  0.6692 -0.2734
 8586SOL    HW137394   3.111   0.121   6.839  1.4817  3.3772 -0.5640
 8586SOL    HW237395   3.063   0.189   6.723 -1.9829 -0.5703  1.3283
 8587SOL     OW37396   1.501   2.968   7.845  0.4049  0.3749  0.1213
 8587SOL    HW137397   1.520   3.031   7.915 -0.3141 -0.4269  1.0234
 8587SOL    HW237398   1.506   3.018   7.763  0.3333  0.6998  0.3172
 8588SOL     OW37399   0.156   0.687   9.959  0.1701  0.2598  0.4629
 8588SOL    HW137400   0.199   0.651   9.882  0.1612  1.2810 -0.0250
 8588SOL    HW237401   0.212   0.762   9.980  1.0022 -0.0165 -0.7853
 8589SOL     OW37402   4.126   1.605   7.179  0.9996 -0.2015  0.2426
 8589SOL    HW137403   4.080   1.686   7.202  1.6495  0.6161 -1.3633
 8589SOL    HW237404   4.055   1.553   7.143 -1.4159  2.3065  1.3705
 8590SOL     OW37405   0.286   0.861   2.497  0.5789 -0.0422  0.5051
 8590SOL    HW137406   0.378   0.854   2.473  0.2437 -2.8024  0.0423
 8590SOL    HW237407   0.245   0.910   2.425  3.8552  0.4592 -0.9867
 8591SOL     OW37408   1.210   1.964  16.350 -0.4216  0.2796  0.3494
 8591SOL    HW137409   1.269   1.948  16.276 -2.0154 -0.2921 -0.8161
 8591SOL    HW237410   1.181   1.879  16.383 -0.5287 -0.1184 -0.7426
 8592SOL     OW37411   4.113   2.879   4.049  0.2240  0.7625  0.2144
 8592SOL    HW137412   4.202   2.911   4.033 -0.0792  0.2702 -2.5521
 8592SOL    HW237413   4.080   2.854   3.962  1.1235  1.3241 -0.2854
 8593SOL     OW37414   3.661   1.897  15.936  0.0837  0.1034  0.3008
 8593SOL    HW137415   3.727   1.957  15.901 -0.3396 -0.5963 -1.6542
 8593SOL    HW237416   3.685   1.809  15.905 -3.7577 -0.4373 -1.0834
 8594SOL     OW37417   0.931   3.208   8.669 -0.2973  0.0859 -0.0096
 8594SOL    HW137418   0.926   3.302   8.654 -0.0494  0.5966  2.9728
 8594SOL    HW237419   0.844   3.181   8.637 -0.5186  0.0473  0.6219
 8595SOL     OW37420   2.580   3.138   6.747  0.6113  0.1204 -0.4476
 8595SOL    HW137421   2.624   3.165   6.828 -0.4022  0.4156  0.0052
 8595SOL    HW237422   2.588   3.043   6.756 -0.6685  0.1940  1.4917
 8596SOL     OW37423   2.769   0.742   4.750  0.4740 -0.0560 -0.2787
 8596SOL    HW137424   2.721   0.822   4.770 -0.4183 -0.8721  0.8645
 8596SOL    HW237425   2.776   0.703   4.838  0.7409 -0.0252 -0.2851
 8597SOL     OW37426   3.104   2.918   8.722  0.0922  0.1532  0.1274
 8597SOL    HW137427   3.018   2.877   8.707  1.0721 -2.5496  1.9846
 8597SOL    HW237428   3.067   2.993   8.767  0.6924  0.0005  0.8695
 8598SOL     OW37429   2.124   1.018   5.017  0.3160 -0.0728 -0.1138
 8598SOL    HW137430   2.067   1.056   5.085 -4.0598 -2.5245 -2.4307
 8598SOL    HW237431   2.191   1.085   5.003  1.5155 -1.0006  1.1958
 8599SOL     OW37432   3.667   0.717   4.229 -0.0475  0.5228  0.5458
 8599SOL    HW137433   3.735   0.749   4.289  0.4607  2.5578 -1.0755
 8599SOL    HW237434   3.642   0.636   4.272 -3.3203  0.6404 -1.1153
 8600SOL     OW37435   2.281   0.834   8.360 -0.0498  0.1680  0.0028
 8600SOL    HW137436   2.298   0.920   8.320 -2.2619  1.0111  0.8551
 8600SOL    HW237437   2.330   0.772   8.307 -1.7424 -0.7155 -0.5230
 8601SOL     OW37438   0.378   1.734  10.587  0.1101  0.3824  0.2676
 8601SOL    HW137439   0.463   1.703  10.618  0.3833 -0.0830 -0.9283
 8601SOL    HW237440   0.339   1.761  10.670 -2.8096  0.2795 -1.0686
 8602SOL     OW37441   0.879   1.745   2.945 -0.3729  0.0477  0.4123
 8602SOL    HW137442   0.893   1.675   2.882  2.3975 -0.0854  1.1863
 8602SOL    HW237443   0.959   1.735   2.997  1.0641  3.8234 -1.0951
 8603SOL     OW37444   2.836   2.084   7.114  0.1812 -0.3232  0.4733
 8603SOL    HW137445   2.895   2.041   7.052  1.0667  0.6386  0.6368
 8603SOL    HW237446   2.803   2.149   7.052 -1.4183 -3.3574 -1.8269
 8604SOL     OW37447   3.028   2.045  16.243  0.1682  0.5252 -0.0427
 8604SOL    HW137448   3.107   2.094  16.268 -0.2974  1.0029  0.4987
 8604SOL    HW237449   3.013   1.999  16.326  2.5811 -1.0185 -0.4721
 8605SOL     OW37450   3.022   0.088  15.360 -0.0267 -0.3303  0.0186
 8605SOL    HW137451   3.112   0.061  15.344 -0.0712  0.7670 -2.2113
 8605SOL    HW237452   2.970   0.019  15.317  2.0006 -1.5945 -0.3863
 8606SOL     OW37453   2.470   3.106   2.344 -0.3532 -0.1612 -0.2586
 8606SOL    HW137454   2.538   3.102   2.412  0.3464 -0.4272 -0.9729
 8606SOL    HW237455   2.524   3.049   2.288  0.9764  0.9030 -0.0589
 8607SOL     OW37456   0.268   2.651   3.055 -0.1257 -0.4593  0.7097
 8607SOL    HW137457   0.310   2.729   3.090  2.7405 -1.3707 -0.6989
 8607SOL    HW237458   0.256   2.591   3.129 -1.1221 -2.0459 -0.7209
 8608SOL     OW37459   4.093   1.577   8.800  0.5575  0.0470 -0.0454
 8608SOL    HW137460   4.125   1.666   8.808 -2.8502  1.3555 -0.9331
 8608SOL    HW237461   4.008   1.589   8.843  0.1705 -0.0483 -0.7763
 8609SOL     OW37462   3.090   3.383   8.793  0.6002  0.4249 -0.3988
 8609SOL    HW137463   3.093   3.420   8.704  1.6190  0.3120 -0.4124
 8609SOL    HW237464   3.056   3.455   8.846  0.5842 -0.5345  0.8780
 8610SOL     OW37465   3.773   1.581  15.464  0.3379  0.3764 -0.3957
 8610SOL    HW137466   3.754   1.495  15.428  2.1295 -0.3679  0.4412
 8610SOL    HW237467   3.848   1.560  15.520 -0.8539 -0.0651  1.0422
 8611SOL     OW37468   1.964   0.454   3.113 -0.6297 -0.2506  0.2730
 8611SOL    HW137469   2.048   0.478   3.073 -0.0877 -0.6102  1.1858
 8611SOL    HW237470   1.988   0.426   3.201 -1.2074  0.6333  0.7167
 8612SOL     OW37471   3.767   2.297   0.664  0.1024 -0.4982  0.3039
 8612SOL    HW137472   3.843   2.350   0.689 -1.5447  2.0453 -0.0642
 8612SOL    HW237473   3.811   2.214   0.647 -0.0014 -1.1196  3.0936
 8613SOL     OW37474   2.230   3.484   4.388 -0.3198 -0.4654 -0.3427
 8613SOL    HW137475   2.155   3.541   4.402 -0.2898 -0.4658 -0.1853
 8613SOL    HW237476   2.273   3.474   4.473 -0.6810 -0.2858 -0.1400
 8614SOL     OW37477   3.974   3.563   6.849  0.3414 -0.4266 -0.3568
 8614SOL    HW137478   4.068   3.581   6.846 -0.0340  1.3892 -1.3153
 8614SOL    HW237479   3.974   3.494   6.783 -1.3169  0.6347 -1.4653
 8615SOL     OW37480   0.130   4.004   7.842  0.0133 -0.1414  0.4694
 8615SOL    HW137481   0.123   4.060   7.919  1.3490  0.0885  0.4219
 8615SOL    HW237482   0.196   3.941   7.872 -0.1705 -0.5464  0.0156
 8616SOL     OW37483   0.440   0.094  10.053 -0.2411 -0.4350 -0.1819
 8616SOL    HW137484   0.417   0.159  10.119  1.5577 -0.7485  0.7615
 8616SOL    HW237485   0.374   0.026  10.060 -0.9996 -0.1562 -4.1776
 8617SOL     OW37486   3.879   2.507   1.806 -0.3370 -0.8101 -0.7498
 8617SOL    HW137487   3.950   2.571   1.792 -0.2008 -0.8192 -0.1153
 8617SOL    HW237488   3.918   2.465   1.883 -0.8507  1.1068  0.5419
 8618SOL     OW37489   3.382   1.780   8.567 -0.4655  0.3694 -0.0655
 8618SOL    HW137490   3.406   1.818   8.483  1.9045  0.7323  0.7835
 8618SOL    HW237491   3.403   1.688   8.554  1.4639  0.7332  0.4642
 8619SOL     OW37492   1.538   3.968   2.303 -0.6757  0.1333 -0.2637
 8619SOL    HW137493   1.616   4.023   2.291 -1.8120  2.5206  3.5089
 8619SOL    HW237494   1.514   3.981   2.395  2.2420 -1.3891  0.7231
 8620SOL     OW37495   3.221   1.394   5.726 -0.0217  0.1767  0.4506
 8620SOL    HW137496   3.264   1.308   5.719 -1.1841 -0.4925  1.4589
 8620SOL    HW237497   3.146   1.380   5.668  1.1920  1.3704 -1.4037
 8621SOL     OW37498   2.157   3.377  17.452 -0.2888  0.0461 -0.0506
 8621SOL    HW137499   2.231   3.378  17.391 -0.1976  4.1325  0.1364
 8621SOL    HW237500   2.088   3.392  17.388 -0.5779 -0.0165  0.2451
 8622SOL     OW37501   2.718   4.634   8.234 -0.1568 -0.0958 -0.2837
 8622SOL    HW137502   2.693   4.605   8.322  0.5137 -3.8249 -1.3069
 8622SOL    HW237503   2.771   4.711   8.253 -2.8634  1.8161 -0.4658
 8623SOL     OW37504   2.371   1.947   3.800 -0.1207  0.1303 -0.5811
 8623SOL    HW137505   2.331   1.870   3.842  0.1282  1.0783  1.3885
 8623SOL    HW237506   2.431   1.971   3.870 -0.7888 -2.4327  0.8758
 8624SOL     OW37507   3.565   0.842   4.014 -0.0987  0.2294 -1.0419
 8624SOL    HW137508   3.578   0.791   4.094 -0.8656  1.8898  0.1475
 8624SOL    HW237509   3.633   0.805   3.956  0.3116  0.8699 -0.9729
 8625SOL     OW37510   4.215   4.508  16.450  0.4169 -0.9252  0.2362
 8625SOL    HW137511   4.247   4.421  16.474  0.0868 -0.8944  0.7915
 8625SOL    HW237512   4.253   4.563  16.518  2.0814 -1.1520 -0.5120
 8626SOL     OW37513   1.123   1.526   6.610  0.3203 -0.2741  0.3046
 8626SOL    HW137514   1.089   1.594   6.552 -0.2663 -0.7903  0.0562
 8626SOL    HW237515   1.101   1.455   6.551 -2.5044 -1.6459  3.0448
 8627SOL     OW37516   3.186   1.402   2.368 -0.0130  0.3197  0.5954
 8627SOL    HW137517   3.134   1.428   2.444 -0.2632  0.3207  0.4235
 8627SOL    HW237518   3.257   1.347   2.402 -0.9050 -1.2623 -0.1225
 8628SOL     OW37519   2.457   0.070   2.619  0.1362  0.4913  0.0835
 8628SOL    HW137520   2.460   0.165   2.626 -0.1808  0.3494  2.1778
 8628SOL    HW237521   2.388   0.046   2.557 -1.4309 -0.0957  2.0134
 8629SOL     OW37522   1.365   1.593   0.165 -0.5084 -0.3438 -0.6659
 8629SOL    HW137523   1.391   1.685   0.167 -0.5962 -0.3097 -0.9846
 8629SOL    HW237524   1.270   1.604   0.153 -0.6813 -0.3866  0.7240
 8630SOL     OW37525   0.443   2.716   7.609 -0.1725 -0.4128  0.0514
 8630SOL    HW137526   0.441   2.727   7.704 -0.7147  0.6237 -0.0840
 8630SOL    HW237527   0.350   2.716   7.585 -0.1145 -3.4912 -0.2562
 8631SOL     OW37528   0.797   0.933   2.724 -0.6861 -0.2824 -0.4653
 8631SOL    HW137529   0.784   0.842   2.750 -1.5454 -0.4393 -1.4600
 8631SOL    HW237530   0.711   0.955   2.688 -0.9015 -1.2837 -0.5568
 8632SOL     OW37531   3.194   3.009  11.039  0.3301  0.1189  0.0324
 8632SOL    HW137532   3.252   2.943  11.001  0.7433 -0.2524  1.3240
 8632SOL    HW237533   3.166   2.953  11.111  1.1032  0.1569  0.3623
 8633SOL     OW37534   0.161   2.154  14.302  0.3484 -0.4459  0.2139
 8633SOL    HW137535   0.179   2.199  14.219  0.2216 -0.2880  0.2716
 8633SOL    HW237536   0.114   2.220  14.352  0.5937  0.4392 -0.7102
 8634SOL     OW37537   4.139   2.641   1.735  0.9119 -0.8817  0.1344
 8634SOL    HW137538   4.108   2.696   1.663  2.9597  1.3020  0.9166
 8634SOL    HW237539   4.159   2.555   1.698  3.9181  0.9203 -2.4467
 8635SOL     OW37540   2.836   4.565   1.777  0.4428  0.3993 -0.1647
 8635SOL    HW137541   2.874   4.483   1.808  0.0498 -0.0484 -0.8945
 8635SOL    HW237542   2.772   4.586   1.846 -0.7246  0.0418 -1.1379
 8636SOL     OW37543   0.310   4.692   1.682 -0.6235 -0.4825  0.3505
 8636SOL    HW137544   0.314   4.619   1.744 -0.8489 -2.1247 -1.5749
 8636SOL    HW237545   0.244   4.651   1.627  2.0158 -4.5611  0.1846
 8637SOL     OW37546   3.455   0.838   5.927  0.5688 -0.3172  0.1844
 8637SOL    HW137547   3.525   0.903   5.932 -0.1735  0.5101 -0.3100
 8637SOL    HW237548   3.503   0.772   5.876 -0.9057 -1.5923  0.4299
 8638SOL     OW37549   2.373   0.077   8.427  0.4222  0.4090  0.2470
 8638SOL    HW137550   2.459   0.094   8.464  0.2092  2.1278 -0.0628
 8638SOL    HW237551   2.359   0.158   8.378  0.0197 -0.0111 -0.3391
 8639SOL     OW37552   0.448   2.673   8.568 -0.0319 -0.5201  0.0706
 8639SOL    HW137553   0.422   2.583   8.547 -0.6511 -0.7290  1.7387
 8639SOL    HW237554   0.531   2.658   8.613 -1.3962  1.4499  3.2448
 8640SOL     OW37555   0.891   1.874   8.672 -0.2680 -0.6011  0.6087
 8640SOL    HW137556   0.939   1.796   8.702 -0.2261 -1.5825 -1.9707
 8640SOL    HW237557   0.810   1.834   8.642 -0.4183 -1.3516  1.9997
 8641SOL     OW37558   3.167   1.612  17.355  0.2815 -0.2337 -0.5763
 8641SOL    HW137559   3.128   1.664  17.426 -0.7862  0.3662 -1.6060
 8641SOL    HW237560   3.227   1.676  17.318  0.2362  0.2361  0.1517
 8642SOL     OW37561   2.166   2.622   5.626  0.0185  0.5095 -0.5649
 8642SOL    HW137562   2.087   2.634   5.679 -1.0856 -1.0372 -1.8778
 8642SOL    HW237563   2.136   2.557   5.563  0.0022 -0.6274  0.6303
 8643SOL     OW37564   4.308   1.445   1.351  0.5459  0.5532  0.3834
 8643SOL    HW137565   4.343   1.534   1.351  2.4961 -0.2203  0.8890
 8643SOL    HW237566   4.258   1.455   1.433 -1.2344  0.1975 -0.6517
 8644SOL     OW37567   4.552   3.957  12.425 -0.2611 -0.2676  0.1611
 8644SOL    HW137568   4.535   4.008  12.346 -1.4086 -0.9164 -0.0152
 8644SOL    HW237569   4.620   3.901  12.386  0.0442  0.3701 -0.2266
 8645SOL     OW37570   2.452   2.776   4.208  0.2679  0.4593 -0.1501
 8645SOL    HW137571   2.496   2.725   4.140  0.0409 -2.2053  1.7389
 8645SOL    HW237572   2.399   2.829   4.148 -1.0174 -0.0666  0.5389
 8646SOL     OW37573   1.323   0.288  13.962 -0.5738 -0.4737 -0.4294
 8646SOL    HW137574   1.309   0.371  13.917 -1.0972 -0.8585 -0.9758
 8646SOL    HW237575   1.399   0.266  13.908  0.8823  0.1768  1.3412
 8647SOL     OW37576   3.033   0.006   4.431 -0.6780 -0.0773 -0.0536
 8647SOL    HW137577   3.084   4.704   4.360 -0.4312  1.2471 -0.5920
 8647SOL    HW237578   3.002   0.091   4.401  0.8532 -0.0580 -1.5047
 8648SOL     OW37579   4.184   1.308   7.122  0.0574 -0.0524  0.2059
 8648SOL    HW137580   4.090   1.323   7.130  0.0783  0.2220 -0.0765
 8648SOL    HW237581   4.218   1.361   7.194 -1.2699  0.1184  0.7129
 8649SOL     OW37582   1.015   2.073   0.108 -1.0501 -0.7474  0.1332
 8649SOL    HW137583   0.927   2.065   0.145 -0.8696  1.2197  0.9761
 8649SOL    HW237584   1.065   2.076   0.189 -1.1224 -1.0030  0.1868
 8650SOL     OW37585   1.490   2.932   4.578 -0.4493 -0.0821  0.4204
 8650SOL    HW137586   1.545   2.928   4.499 -0.5384 -0.7495  0.3916
 8650SOL    HW237587   1.550   2.982   4.634 -0.8937 -1.0712  1.7537
 8651SOL     OW37588   2.235   3.366   9.066  0.7569 -0.1751  0.2834
 8651SOL    HW137589   2.258   3.283   9.108  1.7940 -0.2126 -0.3646
 8651SOL    HW237590   2.322   3.405   9.061  0.6856 -0.0471  0.0611
 8652SOL     OW37591   0.284   2.269   4.114 -0.1851 -0.2631  0.2322
 8652SOL    HW137592   0.241   2.185   4.131  1.2098 -0.9507  0.3953
 8652SOL    HW237593   0.208   2.326   4.120  0.6386  0.9012 -0.2300
 8653SOL     OW37594   4.208   2.052   2.030  0.1004 -0.2346 -0.2976
 8653SOL    HW137595   4.175   2.014   2.111 -1.7571 -2.7649 -2.2470
 8653SOL    HW237596   4.302   2.068   2.042  0.3510 -1.3147 -0.8366
 8654SOL     OW37597   4.144   4.266   3.012  0.5223 -0.3731  0.3843
 8654SOL    HW137598   4.173   4.332   2.949  1.2300  0.2097  1.3216
 8654SOL    HW237599   4.157   4.313   3.094  2.7836  0.0155 -0.2003
 8655SOL     OW37600   1.723   2.608   1.623  0.3294  0.3957  0.0869
 8655SOL    HW137601   1.674   2.537   1.662  2.6682 -1.8659 -1.1134
 8655SOL    HW237602   1.772   2.570   1.550  0.9345  0.9601  0.1985
 8656SOL     OW37603   2.361   4.051   2.407 -0.3164 -0.0158  0.9034
 8656SOL    HW137604   2.373   4.075   2.316 -2.7079  0.6067  0.7408
 8656SOL    HW237605   2.426   3.982   2.421 -0.4957 -0.3884 -0.1472
 8657SOL     OW37606   2.279   0.623   2.194 -0.2058  0.2636 -0.0932
 8657SOL    HW137607   2.257   0.714   2.215 -3.4306 -0.1769 -1.5173
 8657SOL    HW237608   2.374   0.632   2.196 -0.1548 -0.2144 -0.5416
 8658SOL     OW37609   1.732   3.667   3.856  0.4913  0.0777  0.4672
 8658SOL    HW137610   1.663   3.732   3.867  1.2401  0.8068  0.9643
 8658SOL    HW237611   1.733   3.645   3.763 -2.1037  0.3519  0.3823
 8659SOL     OW37612   2.624   3.537   6.551  0.0073 -0.7987  0.1017
 8659SOL    HW137613   2.610   3.443   6.543 -1.6363 -0.5240 -0.3522
 8659SOL    HW237614   2.585   3.571   6.471  0.7091 -2.0390 -0.7534
 8660SOL     OW37615   2.181   0.394   7.256 -0.5019  0.3592 -0.2156
 8660SOL    HW137616   2.123   0.318   7.248  2.1131 -1.6122 -0.2363
 8660SOL    HW237617   2.261   0.358   7.293 -0.8723 -1.7784 -1.4880
 8661SOL     OW37618   1.429   1.114  12.549  0.2403  0.4508 -0.2983
 8661SOL    HW137619   1.359   1.174  12.576  0.3710  2.1287 -3.7751
 8661SOL    HW237620   1.489   1.176  12.508  0.7979 -1.3716 -2.1952
 8662SOL     OW37621   2.799   1.216   8.157  0.2764  0.1714 -0.8248
 8662SOL    HW137622   2.893   1.217   8.144  0.2298  0.7984 -1.1221
 8662SOL    HW237623   2.787   1.152   8.228 -2.5095  0.9561 -0.5578
 8663SOL     OW37624   2.037   0.999   7.238  0.7373  0.5347  0.3546
 8663SOL    HW137625   1.966   0.935   7.244 -2.2283  3.6216 -2.0308
 8663SOL    HW237626   2.066   0.980   7.149  0.7643 -0.8247  0.6463
 8664SOL     OW37627   2.662   2.430  13.621  0.0393 -0.5458 -0.3129
 8664SOL    HW137628   2.699   2.424  13.533 -1.2036  0.0835 -0.8635
 8664SOL    HW237629   2.603   2.504  13.626 -1.8349 -2.1000  0.5268
 8665SOL     OW37630   4.157   4.371   7.792 -0.2728  0.0242 -0.5386
 8665SOL    HW137631   4.115   4.360   7.878 -2.3305  1.7335 -1.3540
 8665SOL    HW237632   4.251   4.355   7.807 -0.9708 -1.9590  1.7837
 8666SOL     OW37633   1.635   0.958  16.977  0.1751 -0.4179 -0.0197
 8666SOL    HW137634   1.594   0.961  16.890  0.3177  0.0454 -0.0710
 8666SOL    HW237635   1.602   0.871  16.998 -0.3758  0.4916  2.8694
 8667SOL     OW37636   2.246   3.486   8.231  0.4021 -0.0399 -0.2088
 8667SOL    HW137637   2.294   3.566   8.209 -3.7049  2.4772 -0.1801
 8667SOL    HW237638   2.249   3.443   8.145  1.4027 -0.6594  0.1494
 8668SOL     OW37639   1.849   4.410   9.560 -0.1584  0.1107 -0.8569
 8668SOL    HW137640   1.755   4.415   9.544 -0.4358  1.0372  1.0316
 8668SOL    HW237641   1.882   4.408   9.471 -0.1512 -0.5747 -0.8374
 8669SOL     OW37642   3.266   2.495   4.125 -0.7512  0.1211  0.2337
 8669SOL    HW137643   3.241   2.414   4.081 -2.5166  0.2968  0.9460
 8669SOL    HW237644   3.237   2.486   4.216 -1.8833 -0.5357 -0.2067
 8670SOL     OW37645   0.219   1.002  17.536  0.6168  0.1770  0.5150
 8670SOL    HW137646   0.253   0.995  17.624  2.9775  2.6511 -0.2034
 8670SOL    HW237647   0.266   1.080  17.507 -0.6360  0.4725 -0.7175
 8671SOL     OW37648   2.076   2.642  15.199  0.0160  0.3858  0.2822
 8671SOL    HW137649   1.991   2.652  15.155 -0.3799 -2.0254  0.4583
 8671SOL    HW237650   2.067   2.568  15.259 -0.7199  0.3142  0.0870
 8672SOL     OW37651   3.002   2.064   5.290 -0.3806  0.1497  0.0172
 8672SOL    HW137652   3.034   2.002   5.356  1.1217  0.6134 -0.2656
 8672SOL    HW237653   2.980   2.129   5.357 -0.9669  2.1199 -2.0900
 8673SOL     OW37654   3.728   0.204   8.666  0.1836 -0.3085 -0.2692
 8673SOL    HW137655   3.771   0.194   8.750 -1.2781 -1.8686  0.2989
 8673SOL    HW237656   3.668   0.278   8.675  0.4288 -0.0763 -0.5461
 8674SOL     OW37657   2.405   4.607   5.354  0.1590  0.1433 -0.0478
 8674SOL    HW137658   2.409   4.700   5.374  0.9771  0.4317 -1.5426
 8674SOL    HW237659   2.388   4.570   5.440  1.3200  0.4171  0.2936
 8675SOL     OW37660   0.972   1.484   5.852  0.2768 -0.2699  0.3539
 8675SOL    HW137661   0.934   1.397   5.865  0.8357 -0.7146 -0.9740
 8675SOL    HW237662   0.959   1.520   5.940 -1.2101  0.7292 -0.2607
 8676SOL     OW37663   1.338   4.601   4.659 -0.0717 -0.3495 -0.8033
 8676SOL    HW137664   1.403   4.530   4.658  1.1534  0.7696 -1.1973
 8676SOL    HW237665   1.268   4.570   4.602 -1.6052  1.2733  0.1978
 8677SOL     OW37666   0.653   1.437  11.579 -0.0577  0.2075 -0.3675
 8677SOL    HW137667   0.661   1.396  11.493  4.3772 -1.0492  0.6406
 8677SOL    HW237668   0.559   1.429  11.597  0.2621 -3.0666 -0.0675
 8678SOL     OW37669   3.946   1.575   1.001  0.3969  0.0107  0.4885
 8678SOL    HW137670   3.906   1.556   0.916 -1.5895  2.1851  0.9100
 8678SOL    HW237671   3.932   1.499   1.058 -0.6648 -0.8752 -0.9530
 8679SOL     OW37672   3.637   4.185   7.343 -0.6544 -0.1802 -0.7209
 8679SOL    HW137673   3.556   4.177   7.291 -1.5368  0.1815  0.6050
 8679SOL    HW237674   3.600   4.165   7.429 -1.2743 -0.1295 -0.9722
 8680SOL     OW37675   0.870   3.862  10.379 -0.2111  0.4655 -0.7903
 8680SOL    HW137676   0.824   3.895  10.303 -1.9498 -2.9378 -1.2260
 8680SOL    HW237677   0.823   3.779  10.380  1.1805 -0.3533 -1.8193
 8681SOL     OW37678   3.426   0.067   5.133  0.0626 -0.6205  0.4003
 8681SOL    HW137679   3.400   0.051   5.042 -2.7092 -1.5246  1.3654
 8681SOL    HW237680   3.355   0.029   5.184  1.1667 -2.3190  0.6678
 8682SOL     OW37681   1.025   3.402   4.391 -0.7170  0.1352 -0.4655
 8682SOL    HW137682   0.986   3.324   4.353  0.1348  0.2632 -1.5906
 8682SOL    HW237683   1.115   3.388   4.361 -0.3521  0.8638  0.2874
 8683SOL     OW37684   1.068   0.935   9.837  0.0315 -0.2672 -0.1833
 8683SOL    HW137685   1.141   0.956   9.778  1.3920  2.0518  2.3013
 8683SOL    HW237686   1.004   0.973   9.777  1.9488 -2.0619 -3.3416
 8684SOL     OW37687   1.056   4.421   9.982 -0.1959 -0.0712  0.0923
 8684SOL    HW137688   1.085   4.439  10.071  2.0145 -0.6409 -0.5051
 8684SOL    HW237689   0.979   4.366   9.997 -0.5301  1.2467  3.1480
 8685SOL     OW37690   0.953   3.846  13.464 -0.3192 -0.2086 -0.4096
 8685SOL    HW137691   1.030   3.884  13.421 -0.3132 -1.0545 -1.1686
 8685SOL    HW237692   0.970   3.879  13.552 -2.5521 -0.5927  0.1529
 8686SOL     OW37693   1.454   1.698   2.468  0.3467  0.5364  0.3800
 8686SOL    HW137694   1.400   1.738   2.537 -0.6623 -0.8803  0.4164
 8686SOL    HW237695   1.434   1.736   2.382 -1.9644  2.4188  1.7396
 8687SOL     OW37696   3.154   0.350   3.151  0.7640  0.1946 -0.0363
 8687SOL    HW137697   3.124   0.372   3.239 -1.5367 -0.3183 -0.6818
 8687SOL    HW237698   3.246   0.377   3.152  1.8341 -3.4529 -1.1946
 8688SOL     OW37699   3.944   3.313   4.255  0.3353  0.0765 -0.3584
 8688SOL    HW137700   3.892   3.371   4.311  1.4852  0.9190 -0.1713
 8688SOL    HW237701   3.982   3.256   4.322  0.6273  0.7137  0.0120
 8689SOL     OW37702   1.314   3.129   2.312  0.2180 -0.2161  0.1521
 8689SOL    HW137703   1.255   3.091   2.246  0.1023 -0.2232  0.2594
 8689SOL    HW237704   1.386   3.164   2.260 -0.9848 -1.7919 -2.5577
 8690SOL     OW37705   4.078   1.807   6.643  0.0662 -0.2370  0.2870
 8690SOL    HW137706   4.138   1.846   6.706 -1.2479  2.1326  0.0733
 8690SOL    HW237707   4.033   1.884   6.607 -1.2618 -1.6354 -1.0403
 8691SOL     OW37708   0.990   1.318   2.650  0.4636  0.3796  0.2114
 8691SOL    HW137709   0.998   1.222   2.644  2.0819  0.4495  1.0869
 8691SOL    HW237710   0.929   1.342   2.581 -0.3086 -1.4134  0.2623
 8692SOL     OW37711   1.652   0.689  16.339 -0.0437 -0.7030 -0.4611
 8692SOL    HW137712   1.582   0.740  16.380  1.5897  0.2360  1.1254
 8692SOL    HW237713   1.645   0.609  16.390  1.4786  0.1067  1.0136
 8693SOL     OW37714   4.601   2.231   4.599  0.1091  0.3443 -0.2254
 8693SOL    HW137715   4.649   2.250   4.680 -0.7702  1.8047 -0.0449
 8693SOL    HW237716   4.516   2.263   4.630 -0.8506 -1.7471 -0.6997
 8694SOL     OW37717   0.026   4.272  14.170 -0.0913 -0.5853  0.2767
 8694SOL    HW137718   0.019   4.288  14.264  1.4742 -2.0504  0.6371
 8694SOL    HW237719   4.685   4.316  14.134  1.4313  2.5524  0.8308
 8695SOL     OW37720   2.238   0.966  15.387  0.1525 -0.1074  0.2427
 8695SOL    HW137721   2.192   0.983  15.469  0.2070 -1.0806  0.4779
 8695SOL    HW237722   2.275   0.880  15.406 -0.1612 -0.0818  0.9662
 8696SOL     OW37723   1.548   4.368   9.647 -0.1050  0.1624  0.1105
 8696SOL    HW137724   1.488   4.306   9.605 -0.2626  0.4537 -0.0912
 8696SOL    HW237725   1.478   4.421   9.685 -0.1929  0.2976 -0.2427
 8697SOL     OW37726   1.303   1.369   2.558  0.9613 -0.4044  0.0660
 8697SOL    HW137727   1.316   1.415   2.641 -1.1838  0.4590 -0.0690
 8697SOL    HW237728   1.393   1.371   2.524  0.0323 -0.7663 -2.4211
 8698SOL     OW37729   0.162   0.633   7.043  0.1560  0.5129 -0.6476
 8698SOL    HW137730   0.142   0.604   7.132 -0.0393 -2.3322 -1.6117
 8698SOL    HW237731   0.193   0.722   7.061 -0.9928  0.2749  2.6311
 8699SOL     OW37732   3.021   2.038   5.974  0.3838  0.1605  0.2776
 8699SOL    HW137733   3.060   1.966   6.023 -1.5082 -0.0412  1.4576
 8699SOL    HW237734   2.929   2.013   5.978  1.1573 -2.8940 -1.3307
 8700SOL     OW37735   1.693   0.555   6.951 -0.0954 -0.3603  0.5867
 8700SOL    HW137736   1.611   0.570   6.905  0.7082 -0.7257 -0.9719
 8700SOL    HW237737   1.751   0.599   6.888 -1.1724  0.2658  0.0318
 8701SOL     OW37738   0.926   0.632   5.486 -0.6753 -0.1604 -0.4065
 8701SOL    HW137739   0.909   0.656   5.395  0.8106 -1.7942 -1.1074
 8701SOL    HW237740   0.982   0.700   5.524  0.7463 -1.4557 -0.1709
 8702SOL     OW37741   4.349   2.302   2.761  0.0720 -0.5264  0.4911
 8702SOL    HW137742   4.332   2.319   2.668 -0.1166 -1.2629  0.3853
 8702SOL    HW237743   4.443   2.286   2.769  0.2480 -0.4709 -1.4187
 8703SOL     OW37744   4.452   4.391   9.122 -0.0527 -0.2088 -0.1860
 8703SOL    HW137745   4.399   4.376   9.200 -1.0016  0.0265 -0.7756
 8703SOL    HW237746   4.422   4.482   9.113  1.1288 -0.1245 -3.0275
 8704SOL     OW37747   4.187   0.231  14.241  0.3310  0.4415 -0.0411
 8704SOL    HW137748   4.099   0.206  14.269  0.3901 -0.2817 -0.5094
 8704SOL    HW237749   4.220   0.278  14.318 -3.5252 -0.3573  2.0951
 8705SOL     OW37750   3.174   1.624   9.125 -0.7862  0.1959  0.2596
 8705SOL    HW137751   3.173   1.642   9.219  1.8618 -0.1340  0.3577
 8705SOL    HW237752   3.100   1.567   9.108 -1.1060  1.2065 -1.7267
 8706SOL     OW37753   3.487   4.020   1.953  0.2444 -1.2673  0.5266
 8706SOL    HW137754   3.424   4.051   1.888  1.4069  0.8158  0.3865
 8706SOL    HW237755   3.499   4.112   1.977  0.1427 -0.9819 -0.5124
 8707SOL     OW37756   2.005   1.671   6.583 -0.5666  0.2920 -0.2711
 8707SOL    HW137757   1.983   1.670   6.676  0.0790  0.5179 -0.1162
 8707SOL    HW237758   2.050   1.755   6.578 -1.5772  0.9535  1.7377
 8708SOL     OW37759   4.705   1.734   7.786 -0.5444  0.1118 -0.0941
 8708SOL    HW137760   4.734   1.801   7.847  0.5667 -1.2150  0.8151
 8708SOL    HW237761   0.030   1.738   7.713  2.7372 -1.5133  2.6042
 8709SOL     OW37762   2.191   2.983   6.317  0.2484  0.0724  0.3896
 8709SOL    HW137763   2.177   2.910   6.377 -0.4749 -0.6357 -0.6198
 8709SOL    HW237764   2.112   2.983   6.263  0.6293  0.3134 -0.1677
 8710SOL     OW37765   3.566   1.634   7.343 -0.2550 -0.3654  0.2504
 8710SOL    HW137766   3.499   1.593   7.287  0.2198 -0.2559 -0.3904
 8710SOL    HW237767   3.528   1.639   7.431 -0.2008 -0.3122  0.2704
 8711SOL     OW37768   1.867   0.806  11.417 -0.3386 -0.1007 -0.2246
 8711SOL    HW137769   1.804   0.867  11.456  0.9220  1.3510 -0.4796
 8711SOL    HW237770   1.903   0.770  11.498 -1.0944  1.5832  0.8736
 8712SOL     OW37771   3.171   4.732   8.130 -0.0666  0.3089 -0.3915
 8712SOL    HW137772   3.255   0.039   8.115 -1.1248  2.5934  0.1890
 8712SOL    HW237773   3.187   4.656   8.186  1.5526  0.7085 -0.3111
 8713SOL     OW37774   1.688   0.956   0.905 -0.6478 -0.1626 -0.2880
 8713SOL    HW137775   1.676   1.009   0.826 -2.8709  0.8448  0.7240
 8713SOL    HW237776   1.629   0.996   0.969  2.4496  1.2451  1.7093
 8714SOL     OW37777   3.765   2.783   0.942 -0.1381  0.2974  0.0013
 8714SOL    HW137778   3.806   2.712   0.991 -0.6207 -0.5843 -0.8658
 8714SOL    HW237779   3.795   2.776   0.851  2.6209  1.9364  0.8071
 8715SOL     OW37780   2.501   4.617   9.684 -0.2610  0.2963 -0.1999
 8715SOL    HW137781   2.480   4.710   9.680 -0.4799  0.3462  2.0268
 8715SOL    HW237782   2.464   4.595   9.598 -1.0527 -1.2304  0.5202
 8716SOL     OW37783   3.748   1.903   4.130 -0.1110  0.2688 -0.4169
 8716SOL    HW137784   3.754   1.981   4.075 -0.4372 -0.1337 -1.0231
 8716SOL    HW237785   3.832   1.857   4.134  0.1856  0.9978  1.4366
 8717SOL     OW37786   0.290   4.560  17.416 -0.3268 -0.7869  0.3299
 8717SOL    HW137787   0.331   4.644  17.437 -1.1595 -0.7651  1.8684
 8717SOL    HW237788   0.340   4.528  17.341 -1.7263 -1.1620 -0.4587
 8718SOL     OW37789   0.745   0.564   5.675  0.1836  0.3801  1.1899
 8718SOL    HW137790   0.783   0.596   5.593  1.5447 -2.1362  0.8636
 8718SOL    HW237791   0.817   0.537   5.731  2.5420 -0.4810 -2.2882
 8719SOL     OW37792   4.065   3.803   3.103 -0.1121 -0.1199  0.1572
 8719SOL    HW137793   3.986   3.767   3.064 -0.1966 -0.6718  0.8290
 8719SOL    HW237794   4.073   3.889   3.063 -1.3829  0.5361  1.3176
 8720SOL     OW37795   3.860   3.328  13.288  0.0129  0.2654 -0.3328
 8720SOL    HW137796   3.767   3.351  13.287 -0.2139 -0.7111 -1.6643
 8720SOL    HW237797   3.877   3.312  13.196  1.8272 -0.9470  0.2170
 8721SOL     OW37798   0.840   3.941   3.073 -0.3202  0.2617 -0.2743
 8721SOL    HW137799   0.779   4.008   3.044 -0.8932  0.0063  0.3342
 8721SOL    HW237800   0.801   3.872   3.019 -0.2031 -0.3190  0.3833
 8722SOL     OW37801   3.894   2.192  16.892  0.1528  0.2616 -0.5330
 8722SOL    HW137802   3.872   2.213  16.802  1.3208  2.1877 -0.3729
 8722SOL    HW237803   3.990   2.190  16.893  0.0949 -1.2839  2.5159
 8723SOL     OW37804   0.383   2.714   4.242 -0.4443  0.2144  0.3076
 8723SOL    HW137805   0.478   2.717   4.232 -0.3008 -1.1529  1.3060
 8723SOL    HW237806   0.371   2.681   4.331  0.9741  2.4117  1.3128
 8724SOL     OW37807   0.178   1.753   5.225  0.1650 -0.3457  0.2780
 8724SOL    HW137808   0.231   1.673   5.223 -1.6141 -1.4772 -1.2704
 8724SOL    HW237809   0.250   1.815   5.235 -0.7487  0.7072  0.2977
 8725SOL     OW37810   1.197   0.144   5.285  0.2002  0.2993  0.6538
 8725SOL    HW137811   1.164   0.095   5.360 -0.4090 -0.6736 -0.2508
 8725SOL    HW237812   1.201   0.233   5.319  0.2368  0.2428  0.7976
 8726SOL     OW37813   3.495   3.949   1.555  0.0504 -0.9406 -0.1154
 8726SOL    HW137814   3.450   3.998   1.624 -1.5731 -2.5290 -0.0474
 8726SOL    HW237815   3.453   3.979   1.474  0.2408  0.3486  0.2623
 8727SOL     OW37816   2.918   1.777  10.179 -0.3270  0.5145 -0.0802
 8727SOL    HW137817   2.827   1.782  10.150 -1.4228 -0.2348  3.3138
 8727SOL    HW237818   2.935   1.871  10.184  1.6127  0.2380 -1.0093
 8728SOL     OW37819   3.164   0.822  11.719 -0.2081  0.3341  0.2828
 8728SOL    HW137820   3.131   0.872  11.794 -0.1780  0.4247  0.2346
 8728SOL    HW237821   3.086   0.792  11.674 -1.5544  2.1125  1.4191
 8729SOL     OW37822   2.354   2.563   8.134  0.4438 -0.0564 -0.1156
 8729SOL    HW137823   2.391   2.619   8.065 -1.0450  0.4827 -0.4688
 8729SOL    HW237824   2.387   2.485   8.089  1.2582 -1.0350  2.1856
 8730SOL     OW37825   4.282   3.762   8.508 -0.8268  0.6693 -0.6444
 8730SOL    HW137826   4.302   3.825   8.439  0.6493 -0.2135 -1.0207
 8730SOL    HW237827   4.195   3.728   8.486 -0.4045 -1.2799  0.6156
 8731SOL     OW37828   0.673   0.480   3.868 -0.1193  0.4969  0.9711
 8731SOL    HW137829   0.706   0.503   3.781 -2.2014  1.1257  0.3491
 8731SOL    HW237830   0.681   0.563   3.916  1.4165  1.3235 -0.6993
 8732SOL     OW37831   1.139   0.392   2.517 -0.3382  0.6215  0.5671
 8732SOL    HW137832   1.147   0.311   2.568 -2.1427  0.0561 -0.0554
 8732SOL    HW237833   1.227   0.429   2.514 -0.2894  0.3348 -1.2255
 8733SOL     OW37834   3.279   2.624  17.308  0.0955  0.4310 -0.9395
 8733SOL    HW137835   3.365   2.625  17.351 -0.6268  1.7864  0.4848
 8733SOL    HW237836   3.263   2.718  17.316 -1.2869 -0.0947  2.4161
 8734SOL     OW37837   4.282   4.689  16.619 -0.2593 -0.0253 -0.6271
 8734SOL    HW137838   4.355   4.701  16.680 -0.0672  0.7269 -1.0029
 8734SOL    HW237839   4.301   0.023  16.558 -1.5666  0.5912 -0.3254
 8735SOL     OW37840   0.053   3.061   7.931  0.5789  1.1690 -0.6771
 8735SOL    HW137841   0.108   3.102   7.865 -0.7825  1.3286 -1.7154
 8735SOL    HW237842   0.002   3.133   7.968 -2.3844 -0.1533 -2.2056
 8736SOL     OW37843   2.887   2.796  15.864  0.9045 -0.6036 -0.7279
 8736SOL    HW137844   2.847   2.799  15.951 -1.3491 -1.9056 -1.7314
 8736SOL    HW237845   2.855   2.873  15.818  0.9717  1.2223  2.2745
 8737SOL     OW37846   3.784   1.784   3.119  0.1950 -0.4347  0.2451
 8737SOL    HW137847   3.787   1.723   3.045 -0.3367 -0.0355 -0.0992
 8737SOL    HW237848   3.876   1.783   3.147 -0.0594  1.1232  1.0934
 8738SOL     OW37849   1.011   4.637   6.903  0.1697  0.1630 -0.6756
 8738SOL    HW137850   0.941   4.693   6.937 -0.2087 -0.8660  0.2277
 8738SOL    HW237851   1.087   4.695   6.901 -1.2857  2.0419 -1.3334
 8739SOL     OW37852   1.422   1.169  17.356  0.2856  0.2101 -0.1602
 8739SOL    HW137853   1.502   1.165  17.305  1.0238 -2.3479  1.1721
 8739SOL    HW237854   1.378   1.249  17.327 -4.7234 -2.7820 -0.8847
 8740SOL     OW37855   4.579   3.981   1.521 -0.1638 -0.1095  0.0310
 8740SOL    HW137856   4.645   4.044   1.492 -1.3792  0.1846 -2.1030
 8740SOL    HW237857   4.571   3.921   1.447 -1.4548  1.1908 -0.8884
 8741SOL     OW37858   0.597   3.322   6.907 -0.1834  0.6886  0.3699
 8741SOL    HW137859   0.645   3.250   6.866 -1.5102  0.9329 -1.5742
 8741SOL    HW237860   0.503   3.309   6.895  0.2206  0.0948 -2.0060
 8742SOL     OW37861   0.251   1.988   7.374 -0.2112  0.2304 -0.0361
 8742SOL    HW137862   0.271   2.036   7.454 -0.5632  0.5097 -0.1193
 8742SOL    HW237863   0.344   1.967   7.360 -0.9553 -3.1865  0.1098
 8743SOL     OW37864   0.779   0.349  12.181  0.3027 -0.0412 -0.1751
 8743SOL    HW137865   0.747   0.382  12.265  0.9582  3.1416 -1.1756
 8743SOL    HW237866   0.835   0.425  12.163  0.9329 -0.5863 -0.5408
 8744SOL     OW37867   3.194   1.029   7.577  0.3800  0.6501 -0.4268
 8744SOL    HW137868   3.169   0.955   7.521  0.4017  1.4001 -1.4330
 8744SOL    HW237869   3.139   1.008   7.652 -0.4483  1.6790 -0.7368
 8745SOL     OW37870   1.720   1.883   6.457  0.0574  0.3220  0.2863
 8745SOL    HW137871   1.725   1.788   6.451 -1.8754  0.1647  1.3459
 8745SOL    HW237872   1.799   1.905   6.407  1.2160  0.6822  2.2455
 8746SOL     OW37873   3.747   3.955   2.331 -0.4403 -0.1025  0.3452
 8746SOL    HW137874   3.841   3.941   2.347 -0.5732 -2.0170 -0.5621
 8746SOL    HW237875   3.731   3.889   2.263  0.7861  0.4921 -0.5174
 8747SOL     OW37876   0.517   0.383   2.266  0.1303 -0.5439  0.1224
 8747SOL    HW137877   0.481   0.451   2.323 -3.3416 -1.1487 -1.3604
 8747SOL    HW237878   0.441   0.368   2.211  0.4619 -0.3542 -0.3939
 8748SOL     OW37879   3.646   2.066  11.526  0.0063  0.0157  0.2257
 8748SOL    HW137880   3.660   2.062  11.431  2.6602  2.0949  0.5203
 8748SOL    HW237881   3.735   2.092  11.550 -0.1147  0.8465 -0.2200
 8749SOL     OW37882   2.093   2.350   8.466  0.4187 -0.4974 -0.3955
 8749SOL    HW137883   2.183   2.329   8.492  0.7387 -1.1557 -2.0381
 8749SOL    HW237884   2.040   2.271   8.462 -0.1534 -0.1176 -0.2806
 8750SOL     OW37885   2.440   3.059  12.064  0.1326 -0.0309  0.5827
 8750SOL    HW137886   2.511   3.117  12.090 -0.7463  1.9498 -1.4583
 8750SOL    HW237887   2.438   3.085  11.972  0.5290 -0.1709  0.5353
 8751SOL     OW37888   3.683   0.653   7.877 -0.3464  0.0454  0.2984
 8751SOL    HW137889   3.721   0.714   7.815  0.4086  1.1628  1.8694
 8751SOL    HW237890   3.724   0.570   7.851 -1.0680 -0.9850  2.4404
 8752SOL     OW37891   3.547   2.252   3.567  0.2246  0.1470 -0.2941
 8752SOL    HW137892   3.535   2.326   3.626 -0.8876 -0.4128  0.1844
 8752SOL    HW237893   3.516   2.184   3.627  2.6808 -2.0191 -1.4662
 8753SOL     OW37894   2.201   1.484   2.836  0.1168 -0.1481  0.1303
 8753SOL    HW137895   2.179   1.573   2.863  1.9777  0.2004  0.4954
 8753SOL    HW237896   2.269   1.504   2.771 -0.8995 -0.4929 -1.0380
 8754SOL     OW37897   4.311   3.812  16.468  0.4824 -0.2038  0.2263
 8754SOL    HW137898   4.400   3.783  16.449  0.6158  2.0704 -2.7132
 8754SOL    HW237899   4.328   3.897  16.509 -3.2309  1.7947 -2.3577
 8755SOL     OW37900   0.287   0.749   6.756  0.1789  1.2199 -0.1327
 8755SOL    HW137901   0.368   0.772   6.802  1.4577 -0.0018 -1.7708
 8755SOL    HW237902   0.222   0.789   6.813  1.2979  0.0024  2.0238
 8756SOL     OW37903   3.808   3.267   0.412 -0.0499  0.3645 -0.6505
 8756SOL    HW137904   3.859   3.313   0.345  1.0889  0.5253  0.3287
 8756SOL    HW237905   3.851   3.304   0.489 -0.4865  1.2087 -0.8135
 8757SOL     OW37906   1.338   4.522   9.119 -0.4205  0.1143 -0.2369
 8757SOL    HW137907   1.276   4.594   9.128 -0.2469 -0.1888  3.1402
 8757SOL    HW237908   1.336   4.483   9.206  3.9599 -2.1267 -1.1037
 8758SOL     OW37909   3.600   4.087   3.140  0.4412 -0.2281 -0.2212
 8758SOL    HW137910   3.685   4.116   3.171  1.3698 -1.2997 -1.7601
 8758SOL    HW237911   3.620   4.081   3.046  1.8686 -0.5494  0.1080
 8759SOL     OW37912   1.942   1.843   2.472  0.3050 -0.1460  0.2270
 8759SOL    HW137913   1.869   1.782   2.484 -0.2742  0.2808 -1.2179
 8759SOL    HW237914   1.913   1.899   2.400  0.1623 -1.3128 -0.6107
 8760SOL     OW37915   1.400   4.640   0.222 -0.0234  0.3738  0.0362
 8760SOL    HW137916   1.385   4.727   0.258  0.6231  0.0597  1.0882
 8760SOL    HW237917   1.430   4.675   0.138  0.2311  1.7289  0.6961
 8761SOL     OW37918   0.473   4.712   6.350 -0.1008  0.0139 -0.0250
 8761SOL    HW137919   0.460   4.628   6.307  1.0707  0.4425 -1.2163
 8761SOL    HW237920   0.555   4.736   6.308  0.0960 -0.9568 -0.1858
 8762SOL     OW37921   0.752   3.951  17.503 -0.3101  0.0987 -0.6095
 8762SOL    HW137922   0.688   3.936  17.434 -1.4796  1.3732  0.1883
 8762SOL    HW237923   0.709   3.926  17.585 -0.9165  0.4396 -0.8200
 8763SOL     OW37924   4.066   0.311   7.007  0.1725  0.4814 -0.4776
 8763SOL    HW137925   4.156   0.343   6.995  0.2573 -0.5210 -2.5837
 8763SOL    HW237926   4.076   0.221   7.040 -0.4747  0.4311 -0.4190
 8764SOL     OW37927   2.336   0.529   9.080  0.5968  0.5382  0.7365
 8764SOL    HW137928   2.368   0.612   9.045 -0.9911 -0.2575 -2.5322
 8764SOL    HW237929   2.418   0.480   9.081  0.3841  0.1716 -0.2470
 8765SOL     OW37930   2.193   2.062   7.095  0.2279  0.3516 -0.0162
 8765SOL    HW137931   2.186   1.974   7.057 -0.0608 -0.5237  2.0909
 8765SOL    HW237932   2.169   2.036   7.184 -3.9717  0.9847 -0.9496
 8766SOL     OW37933   4.618   2.195  13.922  0.2483  0.0591 -0.5573
 8766SOL    HW137934   4.611   2.160  13.833  0.5426 -0.1491 -0.4962
 8766SOL    HW237935   4.588   2.118  13.972  2.3633 -1.3198 -1.4395
 8767SOL     OW37936   4.163   1.234   1.169 -0.3439  0.1866  0.1944
 8767SOL    HW137937   4.249   1.276   1.170 -0.5887  0.6882  0.3925
 8767SOL    HW237938   4.179   1.151   1.213  0.5664  0.1215 -0.2532
 8768SOL     OW37939   0.200   3.649  11.466  0.2134 -0.1546 -0.6588
 8768SOL    HW137940   0.269   3.690  11.518 -0.5943 -0.6498  0.8011
 8768SOL    HW237941   0.217   3.555  11.471 -0.0740 -0.1524  0.5518
 8769SOL     OW37942   3.285   0.981   9.206  0.7852 -0.0873  0.2165
 8769SOL    HW137943   3.203   1.003   9.162  1.2218 -0.7880 -0.9184
 8769SOL    HW237944   3.301   1.058   9.262  0.4735 -0.5223  0.9075
 8770SOL     OW37945   0.542   1.227   9.391 -0.2036 -0.6340  0.4330
 8770SOL    HW137946   0.454   1.191   9.401 -0.5311 -0.2005 -0.8583
 8770SOL    HW237947   0.587   1.166   9.449  0.6128 -0.0344  0.4343
 8771SOL     OW37948   2.750   1.381   1.790  0.0959 -0.0400 -0.3246
 8771SOL    HW137949   2.685   1.412   1.854  1.0995  3.3868 -0.9455
 8771SOL    HW237950   2.780   1.304   1.838  0.5738  1.3308  1.6223
 8772SOL     OW37951   0.061   4.677   2.101  0.5292 -0.1452 -0.3207
 8772SOL    HW137952   0.065   0.018   2.157 -2.7110 -1.8715  2.3401
 8772SOL    HW237953   0.153   4.665   2.076  0.1120  1.9128 -2.7759
 8773SOL     OW37954   3.890   1.647   3.560  0.3941  0.1385  0.1393
 8773SOL    HW137955   3.833   1.723   3.550  1.0137  0.3116 -2.1257
 8773SOL    HW237956   3.832   1.572   3.544  0.7977  0.0681 -1.0200
 8774SOL     OW37957   4.130   0.590   4.170  0.2389 -0.1912  0.3492
 8774SOL    HW137958   4.180   0.508   4.166  0.8123  0.1771 -0.1269
 8774SOL    HW237959   4.048   0.560   4.209  0.7447  1.2089  2.4974
 8775SOL     OW37960   1.386   1.901   0.392  0.5089 -0.2020  0.1746
 8775SOL    HW137961   1.359   1.962   0.324 -1.8800  1.7777  2.8855
 8775SOL    HW237962   1.480   1.920   0.392  0.6988 -1.1591  0.5060
 8776SOL     OW37963   2.108   1.969  12.075  0.1531  0.2255 -0.3625
 8776SOL    HW137964   2.168   2.036  12.108  0.7953 -0.4122 -0.2377
 8776SOL    HW237965   2.045   1.975  12.147  0.7599 -0.3109  0.2171
 8777SOL     OW37966   1.983   0.111   4.248  0.0289  0.4227  0.8614
 8777SOL    HW137967   2.063   0.161   4.233 -0.0384  0.1307 -0.5030
 8777SOL    HW237968   2.017   0.047   4.310 -0.1112  0.0593  0.5667
 8778SOL     OW37969   3.015   2.948   5.946 -0.4207 -0.4355 -0.2952
 8778SOL    HW137970   2.982   2.995   5.869  1.3475  0.1013 -0.7204
 8778SOL    HW237971   3.030   2.862   5.906  0.9881 -1.2033  1.8469
 8779SOL     OW37972   1.924   0.649  14.576 -0.1178 -0.0710 -0.4945
 8779SOL    HW137973   1.971   0.725  14.544  0.8865  0.2854  1.8352
 8779SOL    HW237974   1.847   0.685  14.621  0.1469  0.9996 -0.9102
 8780SOL     OW37975   3.400   2.863   3.626  0.5703  0.0703  0.2124
 8780SOL    HW137976   3.404   2.847   3.721  0.0196 -0.5551  0.1323
 8780SOL    HW237977   3.393   2.772   3.598 -0.5246  0.5901 -1.1871
 8781SOL     OW37978   2.122   3.680   9.162  0.1533 -0.0723  0.1926
 8781SOL    HW137979   2.169   3.763   9.154  1.1608 -0.7913 -1.5091
 8781SOL    HW237980   2.174   3.632   9.097  0.6666  1.0416 -0.2123
 8782SOL     OW37981   3.681   1.113   2.121 -0.3243  0.6029 -0.1361
 8782SOL    HW137982   3.688   1.090   2.214 -0.1562 -2.0643 -0.7968
 8782SOL    HW237983   3.733   1.193   2.113  0.9632  0.0855  2.8359
 8783SOL     OW37984   1.306   4.179   4.141 -0.0779 -0.2169  0.3728
 8783SOL    HW137985   1.214   4.174   4.116  0.3056  0.7887 -1.2714
 8783SOL    HW237986   1.290   4.197   4.234 -0.8092  1.6580 -0.1151
 8784SOL     OW37987   1.225   3.549   8.544  0.2608  0.3245 -0.4637
 8784SOL    HW137988   1.225   3.586   8.632 -1.3690 -2.7885  0.8201
 8784SOL    HW237989   1.293   3.606   8.508  0.5091  0.6423  0.5118
 8785SOL     OW37990   3.064   0.832   7.015  0.3715 -0.2516  0.3636
 8785SOL    HW137991   3.144   0.885   7.014  1.9903 -2.6636  0.9837
 8785SOL    HW237992   3.105   0.746   7.029  1.8944  0.5832  1.0163
 8786SOL     OW37993   4.656   0.815   8.656 -0.0763 -0.0824  0.1570
 8786SOL    HW137994   4.634   0.799   8.564 -1.0915 -0.2964  0.4353
 8786SOL    HW237995   4.608   0.895   8.678  1.6812  0.7753  0.8486
 8787SOL     OW37996   0.412   3.763   4.958 -0.2203 -0.3317  0.6271
 8787SOL    HW137997   0.345   3.695   4.948 -1.7415  1.4604 -1.2886
 8787SOL    HW237998   0.487   3.706   4.975  0.5430  0.5613  0.2554
 8788SOL     OW37999   3.903   4.429   6.587  0.1608 -0.2255  0.3109
 8788SOL    HW138000   3.928   4.431   6.494 -1.7666 -0.2392 -0.2031
 8788SOL    HW238001   3.928   4.518   6.612  1.3086 -0.5360  0.2726
 8789SOL     OW38002   3.438   0.939  11.153  0.2071  0.6845 -0.0410
 8789SOL    HW138003   3.454   1.027  11.187 -1.5610  0.7035  0.7543
 8789SOL    HW238004   3.426   0.890  11.234  3.5263  0.3264  0.2324
 8790SOL     OW38005   1.048   4.037   7.438 -0.1690 -0.3399 -0.0592
 8790SOL    HW138006   1.144   4.035   7.445 -0.2115 -0.2502  0.5228
 8790SOL    HW238007   1.022   3.977   7.507 -0.5138  0.5099  0.5414
 8791SOL     OW38008   0.107   2.693  11.076 -0.8536 -0.3600 -0.7410
 8791SOL    HW138009   0.176   2.752  11.106 -0.4474 -0.6747 -1.0508
 8791SOL    HW238010   0.049   2.750  11.025 -1.9219  0.2472  1.1682
 8792SOL     OW38011   1.432   3.141   9.522  0.2110 -0.0420 -0.4760
 8792SOL    HW138012   1.402   3.147   9.431 -1.5106  0.6446  0.1413
 8792SOL    HW238013   1.406   3.052   9.547 -1.0249  0.5628  0.3573
 8793SOL     OW38014   3.239   3.206  12.594  0.0698  0.0218 -0.0127
 8793SOL    HW138015   3.204   3.289  12.625 -0.3105  0.1525 -0.7952
 8793SOL    HW238016   3.230   3.158  12.677 -0.1601 -0.8372 -0.5374
 8794SOL     OW38017   0.513   3.193   3.979  0.3235  0.6367 -0.0922
 8794SOL    HW138018   0.485   3.153   3.897 -0.5061 -2.7574  1.8248
 8794SOL    HW238019   0.444   3.157   4.035  2.0759 -2.1950  0.2793
 8795SOL     OW38020   1.135   3.365   5.839 -0.1681  0.3256 -0.5218
 8795SOL    HW138021   1.188   3.439   5.809 -0.7023  0.9474  0.0717
 8795SOL    HW238022   1.195   3.291   5.847  0.9366  1.3212  0.4094
 8796SOL     OW38023   4.632   2.858  13.595  0.5594  0.4813  0.1876
 8796SOL    HW138024   4.616   2.927  13.659 -1.3621 -1.2649  1.6005
 8796SOL    HW238025   4.663   2.794  13.658  0.9653 -0.9363 -1.4455
 8797SOL     OW38026   3.267   1.025  10.699  0.3003  0.3008  0.2254
 8797SOL    HW138027   3.235   1.003  10.787 -0.4374 -3.0748 -0.8893
 8797SOL    HW238028   3.192   0.997  10.647 -0.4800  0.6506  1.1547
 8798SOL     OW38029   3.099   3.196   4.429 -0.0566 -0.2498  1.1342
 8798SOL    HW138030   3.174   3.251   4.406 -0.8971  0.0262 -0.9505
 8798SOL    HW238031   3.026   3.252   4.405  2.1064  1.8942 -0.5208
 8799SOL     OW38032   1.160   3.289   6.504 -0.2664 -0.4939 -0.0703
 8799SOL    HW138033   1.202   3.351   6.445 -1.0462  0.2853  0.1921
 8799SOL    HW238034   1.106   3.348   6.557  2.9459  0.8659  1.6909
 8800SOL     OW38035   1.120   4.216   3.646 -0.4966 -0.1707 -0.2133
 8800SOL    HW138036   1.089   4.167   3.722 -0.9580 -1.3738 -1.1801
 8800SOL    HW238037   1.058   4.183   3.581 -1.8034  2.6855 -0.4530
 8801SOL     OW38038   4.554   0.013   6.484 -0.2005  0.0900 -0.6186
 8801SOL    HW138039   4.504   4.728   6.405 -1.4607 -0.9562  0.4511
 8801SOL    HW238040   4.556   0.108   6.475  0.9444  0.3523  2.2221
 8802SOL     OW38041   1.250   1.806  17.567  0.0455 -0.1760 -0.0724
 8802SOL    HW138042   1.269   1.717  17.535  1.7742  0.0818  0.2807
 8802SOL    HW238043   1.180   1.786  17.630  2.1638  0.8329  2.5800
 8803SOL     OW38044   4.644   2.706   6.130  0.3286  0.0956  0.7929
 8803SOL    HW138045   4.709   2.641   6.103  1.2064  1.6463 -0.8381
 8803SOL    HW238046   4.706   2.769   6.166  2.0609 -0.9662 -0.3594
 8804SOL     OW38047   0.619   1.823   2.854  0.0244  0.3252 -0.2101
 8804SOL    HW138048   0.583   1.829   2.943 -1.3981  1.9502 -0.8929
 8804SOL    HW238049   0.707   1.808   2.891  0.7410  1.0059 -1.6382
 8805SOL     OW38050   3.792   0.880   4.773 -0.3962 -0.1249  0.0860
 8805SOL    HW138051   3.824   0.957   4.725 -1.6707  1.4796  1.8124
 8805SOL    HW238052   3.765   0.913   4.858  0.0573  1.9653 -0.5878
 8806SOL     OW38053   2.104   0.495   2.478  0.2136  0.3078 -0.0291
 8806SOL    HW138054   2.055   0.551   2.539  1.9963  1.4855  0.3221
 8806SOL    HW238055   2.177   0.470   2.535 -0.9213  0.7048  1.6188
 8807SOL     OW38056   3.289   3.689  14.217 -0.1520 -0.0676 -0.0735
 8807SOL    HW138057   3.227   3.668  14.147 -0.7585 -0.7286  0.6570
 8807SOL    HW238058   3.373   3.681  14.171 -0.2198  1.2371 -0.4082
 8808SOL     OW38059   0.977   0.393  10.127  0.3085  0.1175 -0.4071
 8808SOL    HW138060   0.939   0.437  10.203 -1.4376 -1.1112 -0.5828
 8808SOL    HW238061   0.990   0.466  10.066  1.4036 -0.1798 -0.5375
 8809SOL     OW38062   4.179   3.557   7.346  0.0508 -0.4181  0.3035
 8809SOL    HW138063   4.114   3.528   7.409 -0.4220  0.5624  0.2562
 8809SOL    HW238064   4.246   3.602   7.397 -0.1244  1.8504 -1.4717
 8810SOL     OW38065   1.096   2.814   3.775  0.0316 -0.2274 -0.3789
 8810SOL    HW138066   1.122   2.872   3.846  1.7760  1.0421 -2.0513
 8810SOL    HW238067   1.108   2.727   3.813  1.3691  0.0422 -0.2081
 8811SOL     OW38068   2.055   4.351   2.782 -0.2922  0.3200 -0.1482
 8811SOL    HW138069   2.081   4.412   2.713 -1.4508 -0.8140 -1.6021
 8811SOL    HW238070   1.961   4.349   2.763  0.0675 -0.8128 -1.8528
 8812SOL     OW38071   1.072   1.912  13.740  0.4839  0.6187  0.3857
 8812SOL    HW138072   0.990   1.950  13.771  0.6988 -0.1554  1.9197
 8812SOL    HW238073   1.073   1.836  13.798 -0.3462  1.6111  1.7120
 8813SOL     OW38074   0.070   3.732  17.106 -0.6475  0.8073 -0.2895
 8813SOL    HW138075   0.027   3.655  17.069  1.4045 -0.1866 -0.6015
 8813SOL    HW238076   0.147   3.732  17.050  0.3783 -0.3228  1.1210
 8814SOL     OW38077   0.728   1.970   4.399  0.5384 -0.5326 -0.2670
 8814SOL    HW138078   0.716   1.951   4.492  0.3361 -3.4710 -0.9044
 8814SOL    HW238079   0.821   1.993   4.401  0.4865 -0.2973 -0.7211
 8815SOL     OW38080   4.067   4.668   4.353  0.3538  0.7389  0.0114
 8815SOL    HW138081   4.059   4.575   4.370 -0.2070  0.9403  0.8758
 8815SOL    HW238082   4.162   4.683   4.355  0.3483  0.8252 -0.5113
 8816SOL     OW38083   0.597   0.955   8.880 -0.3710  0.0315 -0.2818
 8816SOL    HW138084   0.519   0.899   8.880  1.0078 -1.8838 -1.7931
 8816SOL    HW238085   0.586   1.005   8.961  2.9568  0.9276 -0.4154
 8817SOL     OW38086   3.457   0.983  16.248 -0.0820 -0.6128  0.0227
 8817SOL    HW138087   3.481   1.058  16.303  0.0480  0.8387 -2.0275
 8817SOL    HW238088   3.496   1.015  16.167  0.5404  1.2326  1.0279
 8818SOL     OW38089   0.287   4.449  12.097  0.5443  0.3744  0.3556
 8818SOL    HW138090   0.359   4.486  12.045  0.7028 -0.6004 -0.1246
 8818SOL    HW238091   0.258   4.375  12.044 -1.0858  1.1990  0.1115
 8819SOL     OW38092   2.825   2.901   8.234  0.4518  0.0407 -0.2591
 8819SOL    HW138093   2.788   2.930   8.318  1.6772 -0.0408  0.3103
 8819SOL    HW238094   2.807   2.978   8.179  2.5576 -0.1001 -1.1184
 8820SOL     OW38095   4.220   1.623   4.794  0.4689  0.1362  0.0023
 8820SOL    HW138096   4.219   1.610   4.889 -1.7193 -0.1656 -0.0590
 8820SOL    HW238097   4.309   1.655   4.781 -0.0129  1.3921 -0.2760
 8821SOL     OW38098   3.655   2.358   1.330 -0.5591 -0.0051  0.1285
 8821SOL    HW138099   3.679   2.379   1.421 -1.1473  0.3762  0.1971
 8821SOL    HW238100   3.647   2.449   1.300  0.0103  0.2278  0.6790
 8822SOL     OW38101   1.942   3.376  12.027 -0.0092 -0.0929 -0.2030
 8822SOL    HW138102   1.903   3.355  12.112  0.5640  1.7997  0.5326
 8822SOL    HW238103   1.954   3.288  11.991 -0.6428  0.1202 -0.9372
 8823SOL     OW38104   4.704   2.728  16.028  0.0713  0.0710 -0.6086
 8823SOL    HW138105   4.650   2.724  16.106 -1.0691 -0.3258 -1.4222
 8823SOL    HW238106   0.049   2.679  16.041  0.6993  0.9523 -1.1419
 8824SOL     OW38107   3.671   2.573  10.353 -0.7157  0.1149 -0.1949
 8824SOL    HW138108   3.712   2.545  10.435 -1.5067  1.4267  0.6516
 8824SOL    HW238109   3.726   2.648  10.335 -1.1486  0.1731 -1.2776
 8825SOL     OW38110   3.108   4.147   8.686  0.3845  0.1332  0.2329
 8825SOL    HW138111   3.130   4.061   8.651 -1.3099 -0.9994  1.9738
 8825SOL    HW238112   3.092   4.207   8.613 -3.4916 -3.2782 -1.7315
 8826SOL     OW38113   2.607   4.650   2.812  0.3177 -0.3169  0.4688
 8826SOL    HW138114   2.536   4.686   2.760  0.6474  1.0016  0.9256
 8826SOL    HW238115   2.665   4.727   2.811  1.0633 -0.8668  1.0176
 8827SOL     OW38116   0.707   4.719   4.589  0.0657 -0.1528  0.2939
 8827SOL    HW138117   0.677   0.037   4.661 -1.3047  0.2038 -0.5502
 8827SOL    HW238118   0.799   4.723   4.614  0.4397 -1.7348 -0.7863
 8828SOL     OW38119   1.056   1.500   3.065 -0.3805  0.0133  0.1396
 8828SOL    HW138120   1.132   1.462   3.109 -0.6624  0.5998  1.1149
 8828SOL    HW238121   0.989   1.449   3.111 -0.1568 -1.5891 -1.2897
 8829SOL     OW38122   2.106   1.630   6.003 -0.3452  0.3291 -0.5418
 8829SOL    HW138123   2.024   1.582   6.018  1.1713 -2.4304 -1.0229
 8829SOL    HW238124   2.092   1.720   6.031  1.4146  0.4059  0.1019
 8830SOL     OW38125   3.714   1.584   5.318 -0.6762 -0.3982 -1.1067
 8830SOL    HW138126   3.664   1.665   5.307  0.0121  0.0303 -1.0693
 8830SOL    HW238127   3.655   1.530   5.370 -1.5080  0.8609 -0.7478
 8831SOL     OW38128   4.535   0.963   4.339 -0.3194  0.2496  0.1585
 8831SOL    HW138129   4.473   0.922   4.399 -1.1602  3.5944  1.5397
 8831SOL    HW238130   4.622   0.950   4.377 -0.9166 -1.5693  0.8927
 8832SOL     OW38131   2.183   1.781  16.641 -0.1462 -0.3683  0.1906
 8832SOL    HW138132   2.240   1.856  16.628  1.8454 -1.4097  2.9335
 8832SOL    HW238133   2.115   1.829  16.688 -0.1328 -0.6528  0.4996
 8833SOL     OW38134   0.382   4.312  13.916 -0.1635  0.2272 -0.7032
 8833SOL    HW138135   0.455   4.315  13.854  0.7564 -1.3135  0.2995
 8833SOL    HW238136   0.312   4.279  13.860 -0.8444 -0.7688  0.7489
 8834SOL     OW38137   1.704   1.600   6.480  0.1155 -0.3035 -0.2959
 8834SOL    HW138138   1.628   1.594   6.539  1.2108 -1.0318  1.0509
 8834SOL    HW238139   1.716   1.507   6.462  1.0281 -0.2887  0.2361
 8835SOL     OW38140   4.013   0.557   4.806 -0.2539 -0.0629  0.1603
 8835SOL    HW138141   4.000   0.621   4.876 -0.0445 -1.2903  1.3436
 8835SOL    HW238142   4.060   0.489   4.854  0.0519  1.7645  2.4478
 8836SOL     OW38143   0.955   2.441   2.717 -1.0440 -0.4259  0.0548
 8836SOL    HW138144   0.865   2.459   2.689 -0.4471  1.0254 -0.9559
 8836SOL    HW238145   0.953   2.516   2.777 -0.9115  0.2596 -0.7991
 8837SOL     OW38146   3.783   3.117   9.701  0.2921 -0.1940  0.3513
 8837SOL    HW138147   3.749   3.029   9.717 -3.6473  1.4627  1.1985
 8837SOL    HW238148   3.700   3.162   9.684 -0.4580 -2.3974 -1.7856
 8838SOL     OW38149   2.226   0.899   2.211 -0.1048 -0.5414  0.1635
 8838SOL    HW138150   2.154   0.917   2.272  0.1074 -1.2731  0.6365
 8838SOL    HW238151   2.172   0.906   2.132 -1.1576  1.0894  1.0338
 8839SOL     OW38152   3.150   1.927   5.754 -0.2724 -1.0191  0.3490
 8839SOL    HW138153   3.124   1.848   5.801  2.2322 -2.4315 -0.6331
 8839SOL    HW238154   3.118   1.986   5.821 -2.7845 -0.2352 -1.5563
 8840SOL     OW38155   3.175   1.492   4.694  0.0222  0.0242 -0.6699
 8840SOL    HW138156   3.110   1.542   4.744  3.6484  3.3217  0.7385
 8840SOL    HW238157   3.226   1.445   4.761  0.6651  0.6746 -0.7029
 8841SOL     OW38158   1.206   2.318  13.322 -0.1056 -0.4308  0.3459
 8841SOL    HW138159   1.151   2.245  13.350 -0.7700  0.0497  0.2885
 8841SOL    HW238160   1.144   2.390  13.311  0.3238 -0.0219  0.6255
 8842SOL     OW38161   0.975   4.108   1.902  0.2384  0.2035 -0.4008
 8842SOL    HW138162   1.012   4.043   1.962  1.2446  1.2809  0.1340
 8842SOL    HW238163   0.964   4.173   1.972  0.8243  1.5475 -1.5754
 8843SOL     OW38164   1.755   0.326  16.887 -0.2167 -0.1916  0.1078
 8843SOL    HW138165   1.776   0.412  16.922  2.2167 -0.4797 -0.6353
 8843SOL    HW238166   1.730   0.273  16.963 -0.0217  2.0788  1.7402
 8844SOL     OW38167   2.643   4.611   9.909  0.1660  0.3063  0.3263
 8844SOL    HW138168   2.724   4.603   9.859 -0.2925 -1.2345 -0.1478
 8844SOL    HW238169   2.578   4.609   9.839 -1.0518 -2.2149  1.5456
 8845SOL     OW38170   3.690   3.854   7.534  0.8300  0.0078 -0.1357
 8845SOL    HW138171   3.752   3.910   7.581 -1.0673  0.8896  1.3363
 8845SOL    HW238172   3.620   3.848   7.599  0.2981  1.2696 -0.5966
 8846SOL     OW38173   2.556   2.240  11.485 -0.3837 -0.7018 -0.4354
 8846SOL    HW138174   2.510   2.161  11.457 -1.5371 -0.7139  1.4922
 8846SOL    HW238175   2.611   2.201  11.552 -3.0972 -0.0878  2.1567
 8847SOL     OW38176   2.431   0.675   1.897  0.3033 -0.3128 -0.1502
 8847SOL    HW138177   2.455   0.656   1.988 -0.5246 -0.7885 -0.0358
 8847SOL    HW238178   2.375   0.600   1.878  1.0389 -0.4879 -1.6748
 8848SOL     OW38179   0.292   0.878   5.130  0.3321 -0.2089  0.5765
 8848SOL    HW138180   0.270   0.807   5.190  3.7370 -2.1044 -0.4524
 8848SOL    HW238181   0.387   0.868   5.120  0.3355  1.3550 -0.9508
 8849SOL     OW38182   3.473   4.320   8.203 -0.0699 -0.1693 -0.1188
 8849SOL    HW138183   3.457   4.233   8.165  1.4965 -0.0569 -1.0237
 8849SOL    HW238184   3.397   4.368   8.172  0.3478  0.1422 -0.6646
 8850SOL     OW38185   1.428   1.642   4.564 -0.0291 -0.3288  0.4301
 8850SOL    HW138186   1.504   1.613   4.513 -0.7357  0.7395 -1.2109
 8850SOL    HW238187   1.476   1.670   4.643 -1.4187  1.1666  0.7308
 8851SOL     OW38188   0.102   3.962   5.551  0.5107 -0.0675  0.4585
 8851SOL    HW138189   0.100   4.046   5.505  2.3911  0.1124  0.7387
 8851SOL    HW238190   0.053   3.981   5.631  2.7945  1.9491  1.3683
 8852SOL     OW38191   1.125   3.017   8.685 -0.3618  0.5399  0.2760
 8852SOL    HW138192   1.060   3.086   8.698 -1.1082 -0.3063  1.0186
 8852SOL    HW238193   1.102   2.970   8.604  1.5360 -1.4345  0.8742
 8853SOL     OW38194   2.024   2.714   5.879 -0.3157 -0.0462  0.2159
 8853SOL    HW138195   1.930   2.719   5.897 -0.4557 -0.3245 -0.4352
 8853SOL    HW238196   2.055   2.669   5.958 -3.3741  0.7929  1.9116
 8854SOL     OW38197   4.556   2.807   2.398  0.2922  0.2050  0.5345
 8854SOL    HW138198   4.534   2.798   2.491  3.1866  4.2534  1.6433
 8854SOL    HW238199   4.651   2.807   2.410  0.3103  1.3852  0.4315
 8855SOL     OW38200   2.679   4.707  11.391  0.0717 -0.1974  0.1863
 8855SOL    HW138201   2.603   0.002  11.341  0.2797 -0.3776 -0.2417
 8855SOL    HW238202   2.658   4.720  11.484 -0.0944  1.9607 -0.1574
 8856SOL     OW38203   3.327   3.470   5.159  0.5812  0.7984 -0.5269
 8856SOL    HW138204   3.349   3.451   5.068  0.8732 -1.5390  0.0215
 8856SOL    HW238205   3.349   3.392   5.211  0.2024  0.8857 -0.2378
 8857SOL     OW38206   1.187   0.193  15.906 -0.8065  0.1477  1.2235
 8857SOL    HW138207   1.189   0.168  15.998  1.0970  0.0014  1.1424
 8857SOL    HW238208   1.216   0.114  15.860  0.0567  1.7553 -0.9984
 8858SOL     OW38209   0.649   2.204  12.192 -0.6307 -0.1192  0.1350
 8858SOL    HW138210   0.559   2.232  12.210 -0.5144  0.1557  0.2967
 8858SOL    HW238211   0.678   2.162  12.272  1.0862 -1.8386 -1.3889
 8859SOL     OW38212   1.439   0.891  17.698 -0.4757  0.0005 -0.0160
 8859SOL    HW138213   1.402   0.826   0.014  0.1137  1.1879  1.6122
 8859SOL    HW238214   1.511   0.936  17.742  0.3478 -0.1511 -1.1998
 8860SOL     OW38215   4.497   1.931   6.584  0.2869  0.1962 -0.2688
 8860SOL    HW138216   4.491   1.913   6.490 -2.8038 -0.0108 -0.0550
 8860SOL    HW238217   4.506   1.839   6.605  0.8977  0.4549  0.5787
 8861SOL     OW38218   1.324   1.497   8.135 -0.2386  0.0875 -0.2861
 8861SOL    HW138219   1.230   1.511   8.140 -0.4536 -1.6120  0.4814
 8861SOL    HW238220   1.336   1.485   8.041  2.0157 -1.1483  0.1592
 8862SOL     OW38221   4.692   4.521  13.045  0.6773 -0.1057 -0.1822
 8862SOL    HW138222   4.732   4.607  13.057 -1.6510  1.1651 -1.6895
 8862SOL    HW238223   0.017   4.470  13.099  0.3716 -0.8913 -0.5866
 8863SOL     OW38224   1.339   0.104   1.858 -0.2153  0.3118 -0.0160
 8863SOL    HW138225   1.422   0.077   1.896 -0.2934  0.0521 -0.0337
 8863SOL    HW238226   1.305   0.023   1.822 -0.5190  0.2288  0.4504
 8864SOL     OW38227   1.476   1.567   8.952 -0.0059  0.1789 -0.0571
 8864SOL    HW138228   1.550   1.526   8.998  0.0040 -1.6314 -1.6901
 8864SOL    HW238229   1.513   1.624   8.886  0.9093  0.2029  0.4737
 8865SOL     OW38230   1.887   2.729   8.203 -0.5521 -0.0403 -0.2066
 8865SOL    HW138231   1.943   2.652   8.206 -1.1086 -0.4889 -1.6040
 8865SOL    HW238232   1.830   2.704   8.276  1.0445 -0.6012  0.8628
 8866SOL     OW38233   1.726   4.554   7.537  0.0270  0.4378 -0.2767
 8866SOL    HW138234   1.718   4.470   7.493  0.6955 -0.2182  0.8468
 8866SOL    HW238235   1.781   4.519   7.607  0.2066 -0.0340 -0.6513
 8867SOL     OW38236   1.457   4.640   8.903 -0.5818 -0.5018 -0.0590
 8867SOL    HW138237   1.414   4.617   8.986 -0.8950 -0.7194 -0.2803
 8867SOL    HW238238   1.513   4.564   8.884 -0.6142 -0.2862 -1.0239
 8868SOL     OW38239   1.291   4.185  12.012 -0.0008 -0.1372 -0.0337
 8868SOL    HW138240   1.241   4.105  12.028 -1.5595  1.1309  1.4591
 8868SOL    HW238241   1.298   4.184  11.917 -4.3291 -1.2611 -0.3353
 8869SOL     OW38242   1.965   2.303   5.764 -0.5635  0.3985 -0.2837
 8869SOL    HW138243   1.931   2.238   5.825  0.9809 -0.1293  0.0100
 8869SOL    HW238244   2.015   2.257   5.697 -1.6330 -0.4362 -0.5055
 8870SOL     OW38245   1.636   0.502   8.237 -0.5317 -0.0224 -0.1269
 8870SOL    HW138246   1.643   0.596   8.250 -1.4739 -0.0101  0.2511
 8870SOL    HW238247   1.569   0.477   8.301 -0.5108 -0.3155 -0.2194
 8871SOL     OW38248   3.439   4.666   6.864  0.5770 -0.2331 -0.8833
 8871SOL    HW138249   3.388   4.653   6.944  1.7217  0.7090 -0.0053
 8871SOL    HW238250   3.505   4.729   6.892  2.5039 -2.5019 -0.3490
 8872SOL     OW38251   2.557   3.702   4.022 -0.1902  0.3301 -0.0986
 8872SOL    HW138252   2.552   3.682   3.929  2.6115  1.2003 -0.4325
 8872SOL    HW238253   2.542   3.617   4.065  2.2788 -0.2577 -0.4226
 8873SOL     OW38254   2.576   0.576   2.129 -0.3689 -0.3848  0.2133
 8873SOL    HW138255   2.661   0.611   2.104 -0.5989  0.0822  0.0974
 8873SOL    HW238256   2.587   0.581   2.224 -0.4655 -1.5559  0.2851
 8874SOL     OW38257   0.057   0.301  15.201 -0.1788  0.0491  0.6980
 8874SOL    HW138258   0.088   0.266  15.117 -2.7131 -1.2958  0.3239
 8874SOL    HW238259   0.118   0.374  15.211 -2.0838  1.5865  1.0723
 8875SOL     OW38260   4.332   2.895   8.631  0.1794  0.2467  0.6704
 8875SOL    HW138261   4.250   2.940   8.651 -1.0501 -0.4718 -2.6089
 8875SOL    HW238262   4.350   2.922   8.540  1.5981  1.7668  1.4040
 8876SOL     OW38263   4.168   0.170   1.918  0.5466  0.7274  0.2344
 8876SOL    HW138264   4.155   0.084   1.877  0.3325  1.4067 -1.0920
 8876SOL    HW238265   4.242   0.159   1.977  1.4368 -0.2351 -1.0771
 8877SOL     OW38266   4.294   2.009   5.454 -0.2357  0.2986  0.0942
 8877SOL    HW138267   4.350   1.935   5.432 -0.4014  1.0979 -3.0326
 8877SOL    HW238268   4.330   2.051   5.532 -2.9021  1.5723  0.6526
 8878SOL     OW38269   4.256   3.856   6.417  0.1865  0.1435 -0.2538
 8878SOL    HW138270   4.267   3.949   6.397 -0.7593  0.3890  0.3429
 8878SOL    HW238271   4.187   3.861   6.483  0.7375  0.4404  0.2920
 8879SOL     OW38272   2.338   4.218   6.497 -0.5873 -0.0252 -0.8889
 8879SOL    HW138273   2.280   4.248   6.567 -2.3859 -0.9714 -1.9719
 8879SOL    HW238274   2.372   4.299   6.459 -1.4054  0.0383 -1.4699
 8880SOL     OW38275   3.244   2.212   4.065  0.7023  0.0673  0.1933
 8880SOL    HW138276   3.340   2.217   4.069  0.7247 -1.1093  1.2410
 8880SOL    HW238277   3.228   2.126   4.104  0.9988 -0.5401 -0.9983
 8881SOL     OW38278   0.061   1.031  17.188 -0.2993  0.4422  0.0519
 8881SOL    HW138279   4.729   0.989  17.136 -1.6381  1.1203  1.2609
 8881SOL    HW238280   0.076   1.114  17.144 -1.9448  1.0742  0.6963
 8882SOL     OW38281   0.929   1.585   3.837 -0.2762  0.0945 -0.1712
 8882SOL    HW138282   0.893   1.520   3.777 -1.7186  1.9792 -1.3359
 8882SOL    HW238283   0.893   1.551   3.919  1.2503  1.1665  0.9528
 8883SOL     OW38284   3.600   1.294   7.391 -0.0182 -0.1199  0.2275
 8883SOL    HW138285   3.542   1.221   7.366  0.7315 -0.0170 -1.7666
 8883SOL    HW238286   3.554   1.336   7.463  2.6159 -0.8035  2.3094
 8884SOL     OW38287   2.638   2.965   1.252  0.4202  0.1388 -0.1591
 8884SOL    HW138288   2.602   2.947   1.165 -1.1877 -0.2350  0.5897
 8884SOL    HW238289   2.560   2.990   1.301  0.3731 -0.5604  0.1223
 8885SOL     OW38290   1.146   1.254   7.475  0.5509 -0.5939  0.4963
 8885SOL    HW138291   1.167   1.225   7.564  0.4147  0.1657  0.7751
 8885SOL    HW238292   1.119   1.346   7.478 -1.1372 -1.1369  1.9074
 8886SOL     OW38293   4.315   1.863   2.248 -0.0133 -0.3092  0.0918
 8886SOL    HW138294   4.365   1.801   2.195  0.1020 -0.7137  0.6850
 8886SOL    HW238295   4.376   1.903   2.310  0.4562 -1.2422  0.2358
 8887SOL     OW38296   4.017   4.257   5.898 -0.4476  0.1286 -0.2190
 8887SOL    HW138297   4.008   4.239   5.805  2.4377 -0.2027 -0.4433
 8887SOL    HW238298   3.963   4.334   5.914  0.8858  1.5207 -2.3637
 8888SOL     OW38299   4.670   4.005  14.110  0.0566  0.1761  0.1065
 8888SOL    HW138300   0.011   4.061  14.104  0.4878 -0.3014  1.1442
 8888SOL    HW238301   4.611   4.053  14.052  0.5080  1.8022  0.9803
 8889SOL     OW38302   1.415   1.841   7.126  0.3196 -0.2726 -0.1463
 8889SOL    HW138303   1.458   1.822   7.043 -0.5846  0.3982 -0.7677
 8889SOL    HW238304   1.374   1.925   7.104  1.7780  1.0086  2.0588
 8890SOL     OW38305   2.629   0.925   3.987  0.4742 -0.4313 -0.0087
 8890SOL    HW138306   2.718   0.896   3.967 -0.0592 -1.9603 -0.1488
 8890SOL    HW238307   2.649   1.004   4.037  3.5088 -1.0852 -0.1651
 8891SOL     OW38308   2.317   4.137   8.103  0.2652  0.4383  0.2951
 8891SOL    HW138309   2.396   4.188   8.083  0.2681  0.2212 -0.2449
 8891SOL    HW238310   2.273   4.147   8.019 -0.3812 -1.3503  0.4162
 8892SOL     OW38311   4.359   0.979   8.209 -0.6675  0.6890  0.0076
 8892SOL    HW138312   4.281   1.033   8.204 -1.4484 -0.4401 -0.1263
 8892SOL    HW238313   4.335   0.900   8.160 -2.1121  2.6718 -2.5023
 8893SOL     OW38314   1.716   4.476   5.125 -0.0519 -0.1963  0.5298
 8893SOL    HW138315   1.690   4.394   5.167  0.8127 -0.9727 -0.4543
 8893SOL    HW238316   1.642   4.535   5.141 -0.4733 -1.2723  2.5768
 8894SOL     OW38317   2.291   3.620  13.663 -0.1443  0.6854 -0.1391
 8894SOL    HW138318   2.248   3.609  13.748  0.4314 -0.2660  0.0383
 8894SOL    HW238319   2.358   3.685  13.682  0.1097  0.6392 -0.8750
 8895SOL     OW38320   2.983   1.044   7.770 -0.1044 -0.1887 -0.7378
 8895SOL    HW138321   2.928   0.965   7.776  1.9744 -1.5837 -0.2140
 8895SOL    HW238322   2.931   1.101   7.714 -0.9442 -0.5451 -0.3312
 8896SOL     OW38323   4.671   1.759   8.979  0.2822  0.6226  0.2534
 8896SOL    HW138324   0.017   1.757   8.930 -2.0883  0.9066 -3.6675
 8896SOL    HW238325   4.658   1.667   9.000 -1.8684  0.5264 -1.6363
 8897SOL     OW38326   2.436   0.178  15.330 -0.1355 -0.1399  0.2044
 8897SOL    HW138327   2.377   0.209  15.400 -0.7702 -0.2724 -0.2667
 8897SOL    HW238328   2.512   0.161  15.386 -1.4845 -1.0925  1.7723
 8898SOL     OW38329   2.224   1.093  16.554  0.1647 -0.0920 -0.1205
 8898SOL    HW138330   2.295   1.063  16.611 -1.0896 -1.7796  0.5511
 8898SOL    HW238331   2.203   1.179  16.588  0.0306  0.4880 -1.6860
 8899SOL     OW38332   3.997   1.970   3.528 -0.2654  0.0696 -0.5470
 8899SOL    HW138333   3.953   1.980   3.444  1.1651 -1.5362 -1.4922
 8899SOL    HW238334   4.089   1.957   3.505 -0.1505  0.4460 -0.2956
 8900SOL     OW38335   3.840   3.170  10.005  0.0657 -0.1424  0.3454
 8900SOL    HW138336   3.796   3.187   9.922  0.7243 -1.2041 -0.2120
 8900SOL    HW238337   3.827   3.077  10.025  1.9166 -0.6052 -0.6662
 8901SOL     OW38338   4.079   0.817   4.530 -0.5966  0.2891  0.0426
 8901SOL    HW138339   4.174   0.823   4.532 -0.4939  0.2593 -4.4698
 8901SOL    HW238340   4.076   0.724   4.509  0.2778  0.1012  0.7480
 8902SOL     OW38341   4.610   2.213   2.722 -0.5070  0.0133  0.1459
 8902SOL    HW138342   4.607   2.140   2.784 -3.0645 -0.3684 -0.4244
 8902SOL    HW238343   4.669   2.170   2.660  0.6253  3.8474 -1.4021
 8903SOL     OW38344   1.191   3.185  11.470  0.2604  0.0389  0.1223
 8903SOL    HW138345   1.260   3.179  11.536  1.0575 -0.2218 -0.7166
 8903SOL    HW238346   1.214   3.110  11.414  1.0153  0.4543 -0.1380
 8904SOL     OW38347   3.969   3.693  15.627  0.5975 -0.1755 -0.0003
 8904SOL    HW138348   3.901   3.659  15.569 -0.2220 -1.3565  1.6384
 8904SOL    HW238349   4.045   3.649  15.589  2.5842  2.3989  0.9792
 8905SOL     OW38350   3.625   2.684   0.492  0.6370 -0.1834 -0.4397
 8905SOL    HW138351   3.531   2.704   0.493  0.5990 -0.4203  1.0886
 8905SOL    HW238352   3.643   2.730   0.410  0.7810  0.2790 -0.1484
 8906SOL     OW38353   2.794   4.348  10.658 -0.7867  0.9379 -0.1093
 8906SOL    HW138354   2.726   4.295  10.616  1.1198 -1.2285 -0.4901
 8906SOL    HW238355   2.761   4.364  10.746  0.3578  2.1996  0.0854
 8907SOL     OW38356   2.836   2.232  14.393  0.0504  0.1493  0.0418
 8907SOL    HW138357   2.760   2.262  14.443  0.4932 -0.3779  1.0337
 8907SOL    HW238358   2.825   2.305  14.332  1.3322 -0.4682 -0.9308
 8908SOL     OW38359   0.205   4.135  16.508 -0.0029 -0.6439 -0.2924
 8908SOL    HW138360   0.226   4.196  16.578 -1.8182 -2.5627  1.9091
 8908SOL    HW238361   0.127   4.177  16.470  1.6740  1.8222 -0.9847
 8909SOL     OW38362   0.825   0.323   5.392  0.7528 -0.6109  0.3953
 8909SOL    HW138363   0.878   0.374   5.332 -0.1201 -0.1505  0.0171
 8909SOL    HW238364   0.879   0.330   5.471  0.5622 -0.1450  0.4843
 8910SOL     OW38365   1.780   1.974   7.090 -0.5191  0.5085 -0.3207
 8910SOL    HW138366   1.718   2.041   7.060 -1.6681 -0.6603 -0.5550
 8910SOL    HW238367   1.780   1.907   7.021 -1.6206  2.2250 -1.9762
 8911SOL     OW38368   0.021   3.462   7.104  0.4980  0.1615 -0.5532
 8911SOL    HW138369   4.723   3.380   7.067 -0.1356  0.1467  0.0539
 8911SOL    HW238370   0.059   3.429   7.186  1.9921  0.4623 -1.1275
 8912SOL     OW38371   3.071   1.070   8.618 -0.1509 -0.3726  0.3453
 8912SOL    HW138372   3.005   1.087   8.552 -1.8364 -1.3268  1.7861
 8912SOL    HW238373   3.078   0.975   8.631  0.8043 -0.4569 -0.7634
 8913SOL     OW38374   2.407   3.061   9.990  0.4708  0.1746 -0.0030
 8913SOL    HW138375   2.394   3.094   9.901 -1.5664 -3.2591 -0.9571
 8913SOL    HW238376   2.327   3.012  10.008  0.2329  0.2273 -0.9248
 8914SOL     OW38377   0.254   4.248  16.762 -0.5585 -0.2563  1.0029
 8914SOL    HW138378   0.287   4.323  16.813  0.8347 -0.0494 -0.2021
 8914SOL    HW238379   0.286   4.174  16.815 -0.3470 -0.3935  0.6845
 8915SOL     OW38380   2.482   0.024   4.078 -0.0643  0.6612 -0.4699
 8915SOL    HW138381   2.566   0.020   4.124 -0.3136  0.4501 -0.0382
 8915SOL    HW238382   2.501   0.060   3.991  0.0964  1.9779  0.1093
 8916SOL     OW38383   2.710   2.994   4.347 -0.1439  0.4504  0.5238
 8916SOL    HW138384   2.706   3.077   4.394  2.5853  1.0452 -0.2390
 8916SOL    HW238385   2.686   3.022   4.258 -2.6604 -2.0373  0.4573
 8917SOL     OW38386   3.690   0.891   8.398  0.2710  0.2127 -0.6421
 8917SOL    HW138387   3.784   0.881   8.412  0.3526  0.3568 -1.1027
 8917SOL    HW238388   3.660   0.853   8.481 -0.1257  1.7403 -0.0807
 8918SOL     OW38389   0.215   3.431  12.657 -0.2585  0.1258 -0.5773
 8918SOL    HW138390   0.291   3.485  12.676  0.8606 -1.2516 -1.1755
 8918SOL    HW238391   0.189   3.472  12.575  0.2608  2.8833  0.6503
 8919SOL     OW38392   3.653   3.066  15.389 -0.7385  0.5034 -0.0927
 8919SOL    HW138393   3.668   3.014  15.311 -2.3996  1.2204 -0.8743
 8919SOL    HW238394   3.612   2.999  15.444 -0.2578 -0.7434 -1.2617
 8920SOL     OW38395   0.408   3.174  10.452  0.1712 -0.0535  0.0027
 8920SOL    HW138396   0.422   3.094  10.402  2.8201 -0.8651  2.0624
 8920SOL    HW238397   0.438   3.242  10.391  0.7310  1.1092  1.5718
 8921SOL     OW38398   1.300   2.701   7.192 -0.9105 -0.7337 -0.0660
 8921SOL    HW138399   1.275   2.699   7.284 -1.0273  4.4464 -0.0073
 8921SOL    HW238400   1.225   2.751   7.159 -1.0316 -0.6284  0.3725
 8922SOL     OW38401   4.614   2.473  16.994 -0.0719  0.3196  0.4172
 8922SOL    HW138402   4.670   2.445  16.922  0.1576  0.6163  0.4819
 8922SOL    HW238403   4.538   2.416  16.982 -0.4923  0.6709  1.4146
 8923SOL     OW38404   1.539   0.104  12.749  0.2302 -0.3847  0.0497
 8923SOL    HW138405   1.538   0.198  12.766 -0.4378 -0.2227 -0.8976
 8923SOL    HW238406   1.449   0.108  12.716  0.1430  1.0774  0.4805
 8924SOL     OW38407   4.602   0.968   8.351 -0.4284 -0.2120 -0.3005
 8924SOL    HW138408   4.545   0.959   8.275 -1.7303  0.4401  0.6069
 8924SOL    HW238409   4.546   1.008   8.418  0.5944  0.1100  0.3641
 8925SOL     OW38410   2.764   3.733   6.949 -0.2596  0.0399  0.5508
 8925SOL    HW138411   2.808   3.647   6.945 -0.0072  0.1566  0.7899
 8925SOL    HW238412   2.696   3.712   6.886 -0.0653  2.8326 -0.5512
 8926SOL     OW38413   1.694   0.614  16.651  0.5691  0.2710  0.6583
 8926SOL    HW138414   1.727   0.701  16.627 -0.5234 -0.0451 -1.9310
 8926SOL    HW238415   1.668   0.638  16.740  0.5382 -3.0047  1.5260
 8927SOL     OW38416   1.210   3.279  13.962 -0.8644 -0.1421 -0.2444
 8927SOL    HW138417   1.139   3.274  13.897 -0.8388  1.0409 -0.3501
 8927SOL    HW238418   1.165   3.250  14.041  2.3342 -1.3432  1.1364
 8928SOL     OW38419   0.413   1.674   4.884  0.1960 -0.3893  0.1961
 8928SOL    HW138420   0.386   1.587   4.912 -1.1840  0.3362  1.0830
 8928SOL    HW238421   0.488   1.687   4.943  0.5813 -1.6724 -0.0127
 8929SOL     OW38422   4.642   2.451   8.358 -0.5419  0.4168 -0.0317
 8929SOL    HW138423   4.637   2.502   8.277 -1.9968  1.3694  0.6714
 8929SOL    HW238424   4.602   2.507   8.424  0.6771  1.2325  0.0215
 8930SOL     OW38425   1.589   2.869   3.446 -0.1901  0.6165  0.0937
 8930SOL    HW138426   1.501   2.831   3.453  0.0171 -0.5485 -3.3683
 8930SOL    HW238427   1.611   2.839   3.358 -1.6853 -3.1527  0.9775
 8931SOL     OW38428   0.844   1.176   5.329  0.6269 -0.4464 -0.1219
 8931SOL    HW138429   0.883   1.113   5.268  0.3536 -0.0235 -0.7273
 8931SOL    HW238430   0.895   1.251   5.300 -1.0245  0.8860  0.4632
 8932SOL     OW38431   3.518   3.277  11.634 -0.1729 -0.2177  0.3443
 8932SOL    HW138432   3.508   3.346  11.569  2.2470  0.0868  0.2789
 8932SOL    HW238433   3.434   3.232  11.624  0.5512 -2.0388  2.2776
 8933SOL     OW38434   4.138   1.911   9.096  0.2162 -0.4991 -0.2059
 8933SOL    HW138435   4.089   1.972   9.152 -0.1633  0.1684 -1.2647
 8933SOL    HW238436   4.221   1.897   9.142  1.9337  1.2754 -2.7322
 8934SOL     OW38437   4.463   0.719  10.709 -0.2167  0.6745 -0.3524
 8934SOL    HW138438   4.398   0.674  10.654  1.5852 -0.4308 -1.5485
 8934SOL    HW238439   4.496   0.650  10.767 -0.5256  0.8539  0.0356
 8935SOL     OW38440   3.378   3.201  13.226  0.5642  0.6567 -0.2671
 8935SOL    HW138441   3.442   3.135  13.199  0.9486  0.8451  0.1700
 8935SOL    HW238442   3.436   3.277  13.217 -0.2328  1.2438 -0.5100
 8936SOL     OW38443   4.426   0.590   2.234  0.4499  0.0218 -0.1358
 8936SOL    HW138444   4.395   0.534   2.163 -2.6407 -1.3700  2.2929
 8936SOL    HW238445   4.432   0.677   2.195  0.5848  0.2151  0.3182
 8937SOL     OW38446   3.084   0.397  11.582 -0.0227 -0.3623  0.1297
 8937SOL    HW138447   3.062   0.379  11.674  1.0217  0.7744  0.6003
 8937SOL    HW238448   3.169   0.352  11.575 -0.1862 -0.5524 -0.5562
 8938SOL     OW38449   4.112   3.147   8.417 -0.2886  0.0115 -0.0391
 8938SOL    HW138450   4.049   3.217   8.402  1.0539  1.0795 -0.6570
 8938SOL    HW238451   4.187   3.195   8.453 -0.6374  0.7791 -0.3389
 8939SOL     OW38452   2.925   1.784   7.958  0.5168  0.2305  0.3211
 8939SOL    HW138453   2.878   1.820   8.033 -0.1184  0.1804 -0.0485
 8939SOL    HW238454   2.950   1.694   7.976  0.3415 -0.0249 -0.6852
 8940SOL     OW38455   1.404   1.078   8.082 -0.2612 -0.1726  0.5156
 8940SOL    HW138456   1.474   1.144   8.077 -0.0881 -0.4284 -0.3881
 8940SOL    HW238457   1.335   1.130   8.124  1.2368 -0.3029  3.1690
 8941SOL     OW38458   3.794   2.032   6.873  0.5333  0.1391 -0.2421
 8941SOL    HW138459   3.755   2.110   6.835 -0.1468 -0.0288  0.0993
 8941SOL    HW238460   3.877   2.065   6.907  0.5756 -0.0357 -0.1734
 8942SOL     OW38461   2.600   4.658  12.866 -0.2177 -0.5253 -0.6977
 8942SOL    HW138462   2.683   4.615  12.844  0.1269 -0.8065  1.2041
 8942SOL    HW238463   2.547   4.623  12.794  0.6717 -3.3024  0.0175
 8943SOL     OW38464   2.695   3.063   2.015 -0.3143 -0.6389  0.8099
 8943SOL    HW138465   2.697   2.999   1.944  1.9101  1.6581 -1.2156
 8943SOL    HW238466   2.673   3.006   2.088 -2.1253  0.6336  1.2412
 8944SOL     OW38467   0.322   4.311   7.982  0.0306  0.5957  0.0535
 8944SOL    HW138468   0.306   4.396   8.022 -0.1776  0.1332  0.9464
 8944SOL    HW238469   0.252   4.260   8.022 -0.4826 -0.3701 -2.0770
 8945SOL     OW38470   1.650   1.165  17.172  0.0255 -0.0728  0.2912
 8945SOL    HW138471   1.745   1.167  17.171  0.0079  0.2038 -2.3269
 8945SOL    HW238472   1.634   1.088  17.118  1.8818  0.5862 -1.1876
 8946SOL     OW38473   2.898   3.658   6.664  0.0724 -0.2113 -0.0392
 8946SOL    HW138474   2.923   3.748   6.643  1.2922 -0.2096  1.4300
 8946SOL    HW238475   2.806   3.672   6.640  0.1134 -0.8652 -0.5777
 8947SOL     OW38476   1.950   2.004   4.413  0.2148 -0.5132 -0.0736
 8947SOL    HW138477   1.962   2.092   4.447  0.8769 -0.0721 -1.4367
 8947SOL    HW238478   1.997   1.956   4.481  2.6967  0.2670 -1.2625
 8948SOL     OW38479   3.019   4.042   0.494 -0.2236 -0.0976  0.4768
 8948SOL    HW138480   3.014   4.137   0.479  1.0164 -0.5017 -2.4236
 8948SOL    HW238481   3.097   4.019   0.445 -0.1492  2.8224 -0.7818
 8949SOL     OW38482   3.313   2.021  12.420 -0.4578 -0.0460  0.1969
 8949SOL    HW138483   3.265   2.004  12.501 -1.2832 -0.7820 -0.4359
 8949SOL    HW238484   3.334   1.932  12.391  1.2374 -0.6048  3.1623
 8950SOL     OW38485   2.904   1.266   9.506  0.0687 -0.0438 -0.1325
 8950SOL    HW138486   2.925   1.174   9.487  0.6159 -0.3911  2.1736
 8950SOL    HW238487   2.922   1.308   9.422 -2.1167 -0.6274 -0.9028
 8951SOL     OW38488   0.726   4.049   7.522  0.2925 -0.2332  0.6037
 8951SOL    HW138489   0.700   4.048   7.614  0.6733  0.6676  0.7166
 8951SOL    HW238490   0.642   4.071   7.484  0.4072 -1.5081 -0.3908
 8952SOL     OW38491   0.154   0.309  10.100 -0.1770 -0.1635 -0.4469
 8952SOL    HW138492   0.231   0.367  10.099 -0.1709 -0.1145  2.6536
 8952SOL    HW238493   0.189   0.220  10.091  1.9650  0.5552  0.7600
 8953SOL     OW38494   1.996   1.854   4.045  0.2207  0.3573  0.2760
 8953SOL    HW138495   1.938   1.920   4.008 -0.3925  0.4055  1.3240
 8953SOL    HW238496   1.955   1.772   4.021 -0.7915  0.7746  0.5914
 8954SOL     OW38497   3.641   2.884   1.526  0.6893 -0.1227 -0.3115
 8954SOL    HW138498   3.553   2.920   1.537  1.2761  1.4515 -0.6960
 8954SOL    HW238499   3.679   2.924   1.448  0.9190 -1.4806 -0.9032
 8955SOL     OW38500   4.188   3.113   4.865 -0.1423  0.4518  0.3821
 8955SOL    HW138501   4.271   3.121   4.819 -1.2486 -0.8624 -1.8412
 8955SOL    HW238502   4.152   3.032   4.829 -1.7255  0.4711  1.9059
 8956SOL     OW38503   1.952   4.295   5.077 -0.0812  0.7893 -0.7538
 8956SOL    HW138504   1.980   4.316   4.988  2.4380  0.7100  0.0354
 8956SOL    HW238505   1.857   4.302   5.072 -0.0224  0.8450 -1.8194
 8957SOL     OW38506   4.365   2.745  17.056 -0.2994  0.3225  0.4124
 8957SOL    HW138507   4.362   2.824  17.111  0.2276  1.6500 -1.4514
 8957SOL    HW238508   4.351   2.799  16.978  1.6261 -2.2116 -1.6799
 8958SOL     OW38509   1.581   0.488   0.552 -0.3746  0.5523  0.7686
 8958SOL    HW138510   1.654   0.481   0.491 -0.3554  1.4456  0.6823
 8958SOL    HW238511   1.507   0.521   0.501 -0.0689 -0.6969 -0.4899
 8959SOL     OW38512   2.888   3.184   6.466  0.3898  0.5571  0.4597
 8959SOL    HW138513   2.914   3.247   6.533  0.9160 -1.1756  1.8956
 8959SOL    HW238514   2.928   3.101   6.492  1.5407  0.2309 -2.3215
 8960SOL     OW38515   0.268   0.255   9.201  0.0738 -0.1064 -0.2653
 8960SOL    HW138516   0.348   0.218   9.237 -0.0424 -0.3836 -0.2909
 8960SOL    HW238517   0.284   0.237   9.108  2.0249  2.1360 -0.3710
 8961SOL     OW38518   0.425   2.132   8.692  0.5310  0.5025  0.3103
 8961SOL    HW138519   0.357   2.065   8.681  0.0641  0.8779  0.8906
 8961SOL    HW238520   0.482   2.090   8.756  1.5678  0.4406 -0.6608
 8962SOL     OW38521   4.538   4.064  12.662 -0.0634 -0.2639 -0.0169
 8962SOL    HW138522   4.625   4.076  12.700 -0.5267  1.4352  0.5008
 8962SOL    HW238523   4.552   4.017  12.580  1.5580  0.0740  0.0594
 8963SOL     OW38524   4.698   4.676   4.010  0.4457  0.1815 -0.2370
 8963SOL    HW138525   0.051   4.662   3.978 -0.0566 -0.5036 -1.3400
 8963SOL    HW238526   4.642   4.634   3.944 -0.6279  1.0666  0.1152
 8964SOL     OW38527   3.894   2.141   5.182  0.1456 -0.6129 -0.0765
 8964SOL    HW138528   3.943   2.160   5.262 -1.2084 -1.8979  1.0530
 8964SOL    HW238529   3.922   2.212   5.124  0.1266 -0.9394 -0.4920
 8965SOL     OW38530   0.879   0.104   9.633 -0.1242 -0.1674  0.0809
 8965SOL    HW138531   0.856   0.013   9.653  1.8477 -0.3115  1.6837
 8965SOL    HW238532   0.925   0.095   9.550 -2.6043 -0.4581 -1.2635
 8966SOL     OW38533   4.386   2.839   1.578 -0.1485  0.5808  0.2431
 8966SOL    HW138534   4.395   2.841   1.673 -1.0557  1.9332  0.2975
 8966SOL    HW238535   4.467   2.877   1.544  0.9358 -3.2863 -1.4398
 8967SOL     OW38536   1.833   2.411   0.926  0.5702 -0.4882 -0.4494
 8967SOL    HW138537   1.791   2.471   0.864 -0.8887 -1.0516 -0.0041
 8967SOL    HW238538   1.880   2.354   0.864  0.5181 -0.2367 -0.7172
 8968SOL     OW38539   0.558   3.369  10.780  0.1318 -0.0979 -0.1721
 8968SOL    HW138540   0.486   3.306  10.788  0.4598 -0.5957 -1.1155
 8968SOL    HW238541   0.608   3.350  10.860 -0.9388  0.4351  0.6106
 8969SOL     OW38542   4.694   2.804   3.795  0.2711 -0.0056 -0.1547
 8969SOL    HW138543   4.666   2.718   3.764  1.0135 -0.4917  0.4966
 8969SOL    HW238544   4.735   2.789   3.880 -1.0897  2.5006  0.9478
 8970SOL     OW38545   0.198   2.158   6.307 -0.4267 -0.3271  0.2700
 8970SOL    HW138546   0.170   2.238   6.351 -0.7064 -1.0377  1.3965
 8970SOL    HW238547   0.117   2.125   6.266 -0.8500 -0.6074  1.3380
 8971SOL     OW38548   2.876   3.824  11.618  0.5573  0.1725  0.4681
 8971SOL    HW138549   2.818   3.748  11.619 -0.9620  1.3154 -1.8985
 8971SOL    HW238550   2.826   3.875  11.555  0.1756 -1.7116 -0.7809
 8972SOL     OW38551   2.449   1.998   7.612 -0.4095 -0.1741  0.0506
 8972SOL    HW138552   2.368   1.968   7.569 -0.3512 -1.6428  0.9534
 8972SOL    HW238553   2.486   1.921   7.655 -1.4796 -0.8705 -0.2559
 8973SOL     OW38554   1.803   0.017   7.733 -0.2443 -0.2854 -0.1179
 8973SOL    HW138555   1.847   0.010   7.818 -0.1572 -0.9818 -0.2174
 8973SOL    HW238556   1.821   4.668   7.694 -0.0370  0.1477 -0.9477
 8974SOL     OW38557   1.045   2.131  17.380 -0.2514 -0.8968 -0.2234
 8974SOL    HW138558   1.020   2.214  17.421 -1.1736  0.4509 -3.5443
 8974SOL    HW238559   1.095   2.091  17.452 -0.6337 -2.5562 -0.8804
 8975SOL     OW38560   3.273   1.583   3.552 -0.1718 -0.1078 -0.7535
 8975SOL    HW138561   3.287   1.677   3.542  0.1393  0.0814  1.6278
 8975SOL    HW238562   3.363   1.554   3.533 -0.4218 -0.6294 -1.1598
 8976SOL     OW38563   0.774   4.045  13.104 -0.1669 -0.5268  0.0456
 8976SOL    HW138564   0.826   3.968  13.125  0.8094  0.8742  2.7059
 8976SOL    HW238565   0.708   4.037  13.173 -0.6685 -1.8851 -0.5920
 8977SOL     OW38566   1.402   2.380  13.156 -0.0837  0.5440 -0.2680
 8977SOL    HW138567   1.449   2.296  13.154  0.1445  0.6279  1.6358
 8977SOL    HW238568   1.330   2.365  13.217  1.4650  1.9912  1.9047
 8978SOL     OW38569   3.859   3.714   5.487  0.2974 -0.4015 -0.5771
 8978SOL    HW138570   3.901   3.672   5.562  1.0413 -1.3929 -1.5514
 8978SOL    HW238571   3.913   3.793   5.483 -0.3286 -0.1198 -3.4855
 8979SOL     OW38572   3.944   1.014   8.936  0.4394  0.0031 -0.2492
 8979SOL    HW138573   3.906   0.982   9.018 -0.2359 -0.6087 -0.7929
 8979SOL    HW238574   3.917   0.946   8.874  0.0516  1.6306 -1.8577
 8980SOL     OW38575   0.862   0.162  11.144  0.4434 -0.4933  0.1512
 8980SOL    HW138576   0.948   0.155  11.101  0.9093  2.0590  0.6528
 8980SOL    HW238577   0.828   0.074  11.158 -0.5985 -0.5208 -2.6928
 8981SOL     OW38578   1.525   1.737   6.855 -0.3510 -0.4876  0.2950
 8981SOL    HW138579   1.461   1.685   6.806  0.9078  0.6383 -2.5621
 8981SOL    HW238580   1.572   1.781   6.784  0.9884 -2.0465  0.2195
 8982SOL     OW38581   0.290   1.013  12.337  0.5714  0.6049 -0.1558
 8982SOL    HW138582   0.295   0.993  12.243  0.6034  2.1287 -0.4846
 8982SOL    HW238583   0.243   1.096  12.332 -0.7248 -0.0192  1.5889
 8983SOL     OW38584   0.030   3.815   6.613 -0.4997 -0.6016 -1.2188
 8983SOL    HW138585   4.732   3.901   6.591  0.3757  0.3601  1.1568
 8983SOL    HW238586   4.716   3.813   6.694 -1.4636 -0.7535 -1.8216
 8984SOL     OW38587   2.225   2.136  12.332  0.6120  0.2849 -0.1742
 8984SOL    HW138588   2.143   2.185  12.340 -0.3787 -1.1527 -1.7527
 8984SOL    HW238589   2.266   2.189  12.263  0.0731  2.1659  0.9473
 8985SOL     OW38590   4.331   2.407  10.240 -0.0331 -0.3260 -0.4822
 8985SOL    HW138591   4.409   2.390  10.186 -0.0021 -0.5025 -0.3798
 8985SOL    HW238592   4.330   2.324  10.287 -0.5130  0.8951  1.6186
 8986SOL     OW38593   1.606   1.688   5.417  0.8786 -0.2775 -0.3724
 8986SOL    HW138594   1.604   1.783   5.430 -3.7036 -0.3621 -0.4296
 8986SOL    HW238595   1.588   1.649   5.503  0.9440 -0.8568 -0.6285
 8987SOL     OW38596   3.160   0.191   1.606 -0.0888 -0.1024 -0.0878
 8987SOL    HW138597   3.092   0.141   1.651 -0.5093 -0.6187 -1.3066
 8987SOL    HW238598   3.167   0.280   1.641 -0.2994 -1.0635  2.4283
 8988SOL     OW38599   1.020   3.626   3.196 -0.5099  0.3583 -0.1327
 8988SOL    HW138600   0.964   3.660   3.126  0.1368 -0.3095 -0.9817
 8988SOL    HW238601   1.098   3.603   3.145  0.8598 -0.2617  2.2112
 8989SOL     OW38602   4.353   3.009   0.895  0.1098  0.1169 -0.0443
 8989SOL    HW138603   4.338   2.967   0.980 -0.2441 -0.1853 -0.2604
 8989SOL    HW238604   4.298   3.087   0.892  0.5762  0.4686  0.3316
 8990SOL     OW38605   3.931   0.368   2.108  0.2761  0.0457 -0.0697
 8990SOL    HW138606   3.902   0.279   2.087  0.3542 -0.1129  0.4853
 8990SOL    HW238607   4.013   0.364   2.060  0.8145  0.2557  0.8409
 8991SOL     OW38608   1.233   1.529   3.925  0.1752 -0.4447  0.3711
 8991SOL    HW138609   1.285   1.455   3.957  1.8412  0.0236 -1.2478
 8991SOL    HW238610   1.158   1.530   3.985 -2.7498  1.6578 -3.3051
 8992SOL     OW38611   3.730   3.539  12.707 -0.4189  0.6065  0.0116
 8992SOL    HW138612   3.798   3.486  12.667 -0.0488  0.2921  1.0575
 8992SOL    HW238613   3.786   3.586  12.770 -0.2413  1.6104 -0.8961
 8993SOL     OW38614   1.678   4.102  15.371  0.1197  0.1366 -0.8847
 8993SOL    HW138615   1.676   4.135  15.461  1.8797 -0.3456 -0.6789
 8993SOL    HW238616   1.681   4.187  15.328 -1.2386  0.3310 -0.6004
 8994SOL     OW38617   3.882   3.106   6.215 -0.1295  0.0543  0.6277
 8994SOL    HW138618   3.974   3.082   6.207 -0.6414 -0.9095 -2.5127
 8994SOL    HW238619   3.859   3.170   6.147 -0.4061  0.3092  0.9566
 8995SOL     OW38620   1.826   2.782   5.576 -0.0672 -0.1623 -0.2385
 8995SOL    HW138621   1.843   2.700   5.623  0.1264  0.2200  0.3567
 8995SOL    HW238622   1.866   2.848   5.633 -1.2404 -0.8422  1.3727
 8996SOL     OW38623   2.264   4.336  17.657 -0.3449  0.0401  0.2225
 8996SOL    HW138624   2.178   4.357  17.622  0.7615  1.9507 -1.3434
 8996SOL    HW238625   2.320   4.413  17.648 -1.8116  0.7190 -2.9658
 8997SOL     OW38626   3.365   3.361  12.050  0.3936  0.4440  0.3348
 8997SOL    HW138627   3.394   3.444  12.089 -0.9765  1.9263 -1.8028
 8997SOL    HW238628   3.273   3.373  12.074 -0.0007 -0.4640 -0.7330
 8998SOL     OW38629   4.281   0.452   5.612  0.2946  0.2975  0.3728
 8998SOL    HW138630   4.336   0.512   5.562 -1.0335  0.5335 -0.8190
 8998SOL    HW238631   4.338   0.433   5.687  1.4784  1.2612 -0.2876
 8999SOL     OW38632   3.524   1.660   9.309  0.3452 -0.4324 -0.5538
 8999SOL    HW138633   3.529   1.738   9.365 -0.1847  0.0679 -1.2040
 8999SOL    HW238634   3.566   1.690   9.228 -0.4541 -0.0049 -0.8104
 9000SOL     OW38635   2.568   0.780   7.233  0.3762 -0.0440 -0.3342
 9000SOL    HW138636   2.610   0.763   7.148 -1.3020  0.0474 -1.1864
 9000SOL    HW238637   2.491   0.834   7.214  2.4313  3.3912  1.0418
 9001SOL     OW38638   2.669   4.139  14.842  0.2510 -0.3982 -0.1610
 9001SOL    HW138639   2.635   4.051  14.825 -0.4686 -0.6085  2.4464
 9001SOL    HW238640   2.592   4.193  14.824  0.5294 -0.3066 -1.1205
 9002SOL     OW38641   3.511   4.551   8.638 -0.2501  0.0852  0.5519
 9002SOL    HW138642   3.511   4.634   8.685  1.1321  1.4176 -1.7927
 9002SOL    HW238643   3.569   4.567   8.563 -1.4684  0.4994 -0.3044
 9003SOL     OW38644   0.884   0.453   9.517 -0.1706  0.3505 -0.0372
 9003SOL    HW138645   0.952   0.507   9.475  0.1535 -0.5421 -0.6628
 9003SOL    HW238646   0.939   0.403   9.576  1.4049  1.1170 -0.8570
 9004SOL     OW38647   3.477   3.436   4.926 -0.5943  0.6796 -0.0594
 9004SOL    HW138648   3.558   3.428   4.875  1.6462 -1.4036  3.7872
 9004SOL    HW238649   3.422   3.375   4.877 -2.5394  2.6280 -0.3028
 9005SOL     OW38650   1.323   0.316  15.297 -0.1734 -0.1337 -0.4288
 9005SOL    HW138651   1.407   0.360  15.286  1.7222 -3.6913 -0.0888
 9005SOL    HW238652   1.307   0.319  15.392 -0.5032 -1.6433 -0.4456
 9006SOL     OW38653   1.607   3.798   0.606 -0.1869 -0.2921 -0.5317
 9006SOL    HW138654   1.546   3.730   0.634 -0.7269 -0.1482 -1.3506
 9006SOL    HW238655   1.658   3.744   0.546  1.6667 -1.5400  2.1907
 9007SOL     OW38656   4.213   0.561   2.423 -0.3628 -0.1182 -0.0094
 9007SOL    HW138657   4.265   0.591   2.496  0.2256  0.5434 -0.7028
 9007SOL    HW238658   4.276   0.566   2.351 -0.6949  0.8009 -0.2347
 9008SOL     OW38659   2.429   3.159   9.707 -0.4716  0.3155  0.1268
 9008SOL    HW138660   2.450   3.250   9.686 -1.9252  0.6893  0.2721
 9008SOL    HW238661   2.509   3.114   9.682  0.4539  1.2957  1.3300
 9009SOL     OW38662   0.515   3.838   4.255 -0.6102 -0.1500  0.0812
 9009SOL    HW138663   0.440   3.779   4.266 -0.0479 -0.9763 -0.5029
 9009SOL    HW238664   0.585   3.812   4.316  0.0367 -1.2344 -1.1104
 9010SOL     OW38665   0.134   4.566  10.312  0.6600 -0.1038 -0.2064
 9010SOL    HW138666   0.143   4.485  10.362 -0.5134 -0.9866 -1.4150
 9010SOL    HW238667   0.105   4.631  10.376 -4.7442  0.1077 -2.8577
 9011SOL     OW38668   3.018   3.421  10.081 -0.4845 -0.7850 -0.2450
 9011SOL    HW138669   3.088   3.357  10.068 -0.8949 -1.3868  0.5240
 9011SOL    HW238670   3.066   3.504  10.085 -3.6013  0.9216  2.2172
 9012SOL     OW38671   2.431   2.077   8.412 -0.4025 -0.5742  0.8470
 9012SOL    HW138672   2.463   2.014   8.347 -2.2151  0.5435 -1.1084
 9012SOL    HW238673   2.392   2.019   8.478 -1.3022 -1.2192 -0.2543
 9013SOL     OW38674   1.141   4.664   3.832 -0.4053 -0.1051 -0.2139
 9013SOL    HW138675   1.182   4.590   3.789  1.4106  1.5104 -1.2687
 9013SOL    HW238676   1.196   0.003   3.809  0.0931  0.1475  1.7546
 9014SOL     OW38677   2.086   1.329  14.730 -0.1376 -0.3043 -0.2946
 9014SOL    HW138678   2.051   1.334  14.641 -1.9970 -1.5719  0.3690
 9014SOL    HW238679   2.065   1.237  14.745 -0.0146 -0.5453 -1.6098
 9015SOL     OW38680   3.419   0.715   4.426  0.0839 -0.2859  0.4750
 9015SOL    HW138681   3.387   0.797   4.466 -0.2087 -0.5054  0.6892
 9015SOL    HW238682   3.400   0.740   4.336  1.0214 -0.5881  0.1894
 9016SOL     OW38683   1.548   2.524  15.081 -0.1212  0.4094 -0.0877
 9016SOL    HW138684   1.545   2.545  14.987 -0.6081  0.0520 -0.1499
 9016SOL    HW238685   1.639   2.538  15.106 -0.5950 -0.3080  2.0209
 9017SOL     OW38686   3.124   2.997   8.059 -1.1220 -0.2415  0.1296
 9017SOL    HW138687   3.081   2.918   8.091 -2.0803  0.0770 -0.3600
 9017SOL    HW238688   3.183   3.017   8.132 -1.9041  0.3925  0.5838
 9018SOL     OW38689   3.181   0.697  11.402 -0.5376 -0.3942 -0.1708
 9018SOL    HW138690   3.089   0.673  11.410 -0.8499  0.0840 -2.1945
 9018SOL    HW238691   3.236   0.655  11.468 -1.7967  0.1283  1.1880
 9019SOL     OW38692   3.760   0.296   4.637 -0.7578  0.1065  0.2193
 9019SOL    HW138693   3.775   0.254   4.552 -0.8893 -0.9263  0.7016
 9019SOL    HW238694   3.854   0.294   4.652 -0.7950 -1.8508  0.2040
 9020SOL     OW38695   3.909   2.904   5.543  0.1199  0.0207 -1.1626
 9020SOL    HW138696   3.950   2.819   5.527  0.9310 -0.0763  1.3479
 9020SOL    HW238697   3.922   2.897   5.638 -1.0753  2.1528 -0.8430
 9021SOL     OW38698   1.712   0.979  13.858 -0.0847 -0.6737 -0.2397
 9021SOL    HW138699   1.782   1.044  13.848 -0.6603 -0.2921 -1.7393
 9021SOL    HW238700   1.650   1.033  13.809  0.6223  2.6429  2.5576
 9022SOL     OW38701   2.782   1.405  11.848  0.4911  0.3300 -0.0453
 9022SOL    HW138702   2.789   1.374  11.938  0.7908  1.7458  0.4137
 9022SOL    HW238703   2.781   1.499  11.868 -2.8990 -0.6365  4.2916
 9023SOL     OW38704   3.831   4.694   7.299 -0.2546  0.3137 -0.4794
 9023SOL    HW138705   3.870   4.651   7.223  0.5935  0.1357  0.0642
 9023SOL    HW238706   3.908   4.722   7.348 -0.3187  0.9365 -0.7315
 9024SOL     OW38707   1.755   1.980   8.908 -0.8480 -0.8821  0.0640
 9024SOL    HW138708   1.785   2.071   8.916  0.0680 -1.0643 -1.2878
 9024SOL    HW238709   1.740   1.987   8.814 -0.0197 -2.5465 -0.1830
 9025SOL     OW38710   0.715   3.164  13.078 -0.0832 -0.2002 -0.1292
 9025SOL    HW138711   0.677   3.079  13.055 -2.0076  0.0177  2.2585
 9025SOL    HW238712   0.635   3.215  13.087 -1.0524 -1.6710 -0.3806
 9026SOL     OW38713   3.914   2.226  11.277 -0.6537 -0.1403  0.0864
 9026SOL    HW138714   3.866   2.154  11.237 -0.1198  0.5063 -1.7109
 9026SOL    HW238715   3.970   2.259  11.207  1.1340  0.6788  1.8834
 9027SOL     OW38716   3.967   4.073   3.002 -0.4230 -0.1906 -0.4869
 9027SOL    HW138717   4.036   4.138   2.986 -0.0647 -0.4373  0.0501
 9027SOL    HW238718   3.934   4.062   2.913 -0.3731  2.0960 -0.7875
 9028SOL     OW38719   2.348   0.680   2.793  0.1009  0.4739 -0.3209
 9028SOL    HW138720   2.386   0.593   2.784 -0.4665  0.4362 -2.4919
 9028SOL    HW238721   2.304   0.679   2.877 -0.6140  0.1402 -0.7016
 9029SOL     OW38722   1.805   0.281   2.733  0.5560  0.4232  0.2024
 9029SOL    HW138723   1.792   0.375   2.746 -2.1032  0.0564  0.0908
 9029SOL    HW238724   1.842   0.242   2.812  0.0525 -0.6955 -0.1078
 9030SOL     OW38725   4.316   2.328   8.101 -0.3584 -0.1344  0.6032
 9030SOL    HW138726   4.346   2.290   8.183  0.6194 -0.5719  0.0409
 9030SOL    HW238727   4.357   2.414   8.094  1.1759 -0.8985  0.2815
 9031SOL     OW38728   1.277   1.106   3.623 -0.1375  0.2996  0.0459
 9031SOL    HW138729   1.231   1.167   3.681  1.9671  3.9955 -2.1875
 9031SOL    HW238730   1.330   1.177   3.587 -1.9582  2.3040  1.3042
 9032SOL     OW38731   1.727   4.561   7.129 -0.1613  0.2026 -0.5282
 9032SOL    HW138732   1.709   4.473   7.096  1.1447  0.2372 -1.3415
 9032SOL    HW238733   1.815   4.571   7.093  0.0236  0.3952 -0.0238
 9033SOL     OW38734   1.167   3.809   1.230 -0.4406  0.1275  0.4023
 9033SOL    HW138735   1.230   3.740   1.251 -0.8542 -0.4694 -0.2897
 9033SOL    HW238736   1.101   3.789   1.296 -0.7474  1.5852  0.5366
 9034SOL     OW38737   4.246   2.172  14.819 -0.0803  1.0098  0.4407
 9034SOL    HW138738   4.287   2.116  14.753 -2.7247 -0.0072 -0.3374
 9034SOL    HW238739   4.276   2.143  14.905 -1.5631  2.3132  1.3959
 9035SOL     OW38740   0.652   2.704   4.151 -0.0932 -0.3688  0.0013
 9035SOL    HW138741   0.678   2.779   4.098  3.7474 -1.1802  0.7622
 9035SOL    HW238742   0.657   2.638   4.081  3.7460  0.0825 -0.1579
 9036SOL     OW38743   1.362   4.229   7.250 -0.3622  0.5037 -0.1825
 9036SOL    HW138744   1.334   4.239   7.159  0.3692  3.3597 -0.0941
 9036SOL    HW238745   1.372   4.133   7.246 -0.2319  0.4917  0.4039
 9037SOL     OW38746   2.791   3.869   6.404  0.1384  0.4684  0.6119
 9037SOL    HW138747   2.732   3.942   6.388 -0.4329 -0.1315  0.0029
 9037SOL    HW238748   2.745   3.799   6.358 -1.5330  0.2345  2.6877
 9038SOL     OW38749   4.036   3.361   6.669  0.1103  0.0593 -0.3336
 9038SOL    HW138750   4.117   3.385   6.622 -0.6247  0.3601 -1.4575
 9038SOL    HW238751   3.981   3.358   6.590 -2.4528  2.1659  1.3984
 9039SOL     OW38752   4.296   2.971  13.285 -0.4707  0.5279 -0.3622
 9039SOL    HW138753   4.211   2.997  13.248 -1.4224 -0.6519  1.0094
 9039SOL    HW238754   4.336   2.941  13.204 -0.0541 -0.2003  0.1163
 9040SOL     OW38755   1.235   3.314   3.762  0.4418 -0.6681  0.0479
 9040SOL    HW138756   1.222   3.403   3.729  1.4549 -0.8669 -0.8845
 9040SOL    HW238757   1.198   3.251   3.700 -0.0489  0.5869 -0.9394
 9041SOL     OW38758   1.473   4.329   6.068  0.0677 -0.6371  0.1879
 9041SOL    HW138759   1.544   4.276   6.032  0.2597 -1.0527  1.1820
 9041SOL    HW238760   1.480   4.306   6.160  0.3877  2.5305  0.9350
 9042SOL     OW38761   4.404   3.111   1.281 -0.3881  0.3378 -0.5772
 9042SOL    HW138762   4.405   3.188   1.224  1.5480  0.3220 -0.5537
 9042SOL    HW238763   4.370   3.037   1.230 -1.6564  0.0543  0.6576
 9043SOL     OW38764   3.868   2.670  12.937 -0.1343  0.2100  0.2071
 9043SOL    HW138765   3.929   2.668  12.863 -1.3786  0.3443 -0.8205
 9043SOL    HW238766   3.924   2.649  13.012 -2.0542  0.5570  1.7458
 9044SOL     OW38767   1.089   2.635   7.377 -0.0436  0.5338  0.5320
 9044SOL    HW138768   1.113   2.659   7.466  1.0235  1.8277 -0.0830
 9044SOL    HW238769   1.078   2.540   7.384  0.0049  0.3150 -2.2774
 9045SOL     OW38770   0.339   2.406   6.238  0.2580 -0.3822  0.2664
 9045SOL    HW138771   0.372   2.418   6.327  3.2803 -0.6562 -0.8038
 9045SOL    HW238772   0.338   2.311   6.235  0.0461 -0.3304 -1.7602
 9046SOL     OW38773   3.465   3.569  13.683  0.4361  0.3604  0.2992
 9046SOL    HW138774   3.428   3.482  13.672 -0.6484  0.9618 -0.9346
 9046SOL    HW238775   3.502   3.561  13.771 -0.1101 -1.4923  0.3613
 9047SOL     OW38776   0.926   3.656   1.414 -0.1549  0.0375 -0.1856
 9047SOL    HW138777   0.926   3.664   1.510  0.4372 -0.1846 -0.1630
 9047SOL    HW238778   0.841   3.612   1.410 -0.3519  0.4581 -0.5455
 9048SOL     OW38779   0.925   3.702   2.734 -0.0172  0.1785 -0.2448
 9048SOL    HW138780   0.920   3.731   2.643  0.4328 -0.5726 -0.4994
 9048SOL    HW238781   1.007   3.743   2.760  0.5369 -0.7519 -0.5616
 9049SOL     OW38782   0.555   2.537   4.804  0.3484  0.8811 -0.2257
 9049SOL    HW138783   0.589   2.567   4.720 -1.5466 -0.6757 -1.5620
 9049SOL    HW238784   0.600   2.594   4.866  1.2768 -1.6418  1.4131
 9050SOL     OW38785   3.756   2.148   9.667  0.1229 -0.3024  0.1325
 9050SOL    HW138786   3.846   2.143   9.699  0.1353  2.4518  0.5013
 9050SOL    HW238787   3.755   2.066   9.617 -0.6741 -1.0419  1.3791
 9051SOL     OW38788   3.813   0.276   1.504  0.4803 -0.0423 -0.3185
 9051SOL    HW138789   3.840   0.310   1.589  2.1783  1.8751 -1.6187
 9051SOL    HW238790   3.730   0.232   1.526  0.8758  0.2011  1.6720
 9052SOL     OW38791   3.720   0.894   6.154  0.0551  0.4534 -0.1156
 9052SOL    HW138792   3.659   0.922   6.085 -0.5248 -2.6626 -0.9063
 9052SOL    HW238793   3.797   0.931   6.111  0.3685 -0.0860 -0.0243
 9053SOL     OW38794   0.159   1.660   7.217 -0.0514 -0.1394  0.0969
 9053SOL    HW138795   0.113   1.640   7.136  0.1198 -0.7927  0.1649
 9053SOL    HW238796   0.096   1.726   7.246 -0.5459 -0.4731 -0.2371
 9054SOL     OW38797   3.956   1.386   6.512  0.3844  0.3245  0.9066
 9054SOL    HW138798   3.911   1.397   6.596 -0.1609  1.3584  0.4762
 9054SOL    HW238799   4.041   1.425   6.534  0.2370  0.7672  0.7065
 9055SOL     OW38800   1.720   1.659  10.791 -0.0408 -0.1331 -0.3050
 9055SOL    HW138801   1.693   1.709  10.714  2.7229 -1.3720 -2.0615
 9055SOL    HW238802   1.638   1.653  10.840  0.5275  1.0482  0.8106
 9056SOL     OW38803   1.177   1.802   8.082  0.6173 -0.5550  0.1010
 9056SOL    HW138804   1.136   1.872   8.032  0.6873 -0.6035 -0.0242
 9056SOL    HW238805   1.222   1.744   8.021 -1.2554 -2.2645  0.3018
 9057SOL     OW38806   4.332   1.127   0.770  0.8153 -0.1440 -0.0519
 9057SOL    HW138807   4.295   1.206   0.730  2.0776 -1.5669 -3.9651
 9057SOL    HW238808   4.256   1.088   0.814  2.1848 -1.9654  0.6688
 9058SOL     OW38809   3.901   3.145   2.189 -0.4603  0.1150 -0.2033
 9058SOL    HW138810   3.975   3.166   2.132  1.4540 -2.2428  1.4008
 9058SOL    HW238811   3.844   3.214   2.158 -0.0827  0.9052  0.8717
 9059SOL     OW38812   0.872   0.875   6.488  0.2123 -0.6509 -0.3151
 9059SOL    HW138813   0.929   0.946   6.459  0.6311 -1.1920 -0.8043
 9059SOL    HW238814   0.824   0.873   6.406 -0.5665 -0.0137  0.1233
 9060SOL     OW38815   2.725   1.274   2.531  0.0569 -0.3184  0.6676
 9060SOL    HW138816   2.646   1.225   2.556 -0.8258  1.5305  1.4823
 9060SOL    HW238817   2.690   1.305   2.447 -1.4117  0.0656  1.4162
 9061SOL     OW38818   3.423   3.951   6.822 -0.7178  0.6079 -0.0165
 9061SOL    HW138819   3.380   4.036   6.811 -2.0200  0.1573  1.6022
 9061SOL    HW238820   3.486   3.986   6.884 -0.9297  1.4681 -0.2754
 9062SOL     OW38821   0.155   0.445   5.701  0.2984  0.1501 -0.6907
 9062SOL    HW138822   0.152   0.374   5.764 -1.3391  1.5667  0.8173
 9062SOL    HW238823   0.197   0.507   5.761  0.3255  1.1820 -1.7665
 9063SOL     OW38824   2.229   1.959   2.819 -0.6222 -0.0569  0.1475
 9063SOL    HW138825   2.150   1.949   2.871  0.7246  1.6847  2.5804
 9063SOL    HW238826   2.221   2.049   2.786 -0.3782  0.0773  0.4458
 9064SOL     OW38827   2.776   4.074   3.431  0.1662 -0.4253 -0.4291
 9064SOL    HW138828   2.799   4.156   3.386 -1.0712  0.0217 -0.2361
 9064SOL    HW238829   2.683   4.092   3.422  0.8053  3.9402  1.5721
 9065SOL     OW38830   0.858   3.220  10.211 -0.2976  0.2532 -0.1579
 9065SOL    HW138831   0.823   3.235  10.124 -0.7114  0.6334  0.0737
 9065SOL    HW238832   0.907   3.302  10.223 -0.0338 -0.0775  1.0605
 9066SOL     OW38833   0.233   0.569   2.789 -0.3664  0.0545  0.8541
 9066SOL    HW138834   0.260   0.595   2.876  0.7350 -4.5347  1.8687
 9066SOL    HW238835   0.139   0.585   2.798 -0.4640  0.1165 -0.2193
 9067SOL     OW38836   0.039   0.756   9.612  0.0227 -0.1974 -0.5063
 9067SOL    HW138837   0.103   0.796   9.672 -0.7511 -0.3304  0.4012
 9067SOL    HW238838   4.702   0.788   9.664  1.2938 -2.3252  2.6468
 9068SOL     OW38839   1.647   1.296   2.661  0.3480  0.3989  0.1311
 9068SOL    HW138840   1.595   1.366   2.621 -1.9937 -0.6012  1.4188
 9068SOL    HW238841   1.617   1.313   2.750  2.1108  1.1194  0.5955
 9069SOL     OW38842   0.869   1.646   0.500  0.0129 -0.8796  0.0481
 9069SOL    HW138843   0.810   1.719   0.482 -0.6122 -1.3067  0.3628
 9069SOL    HW238844   0.822   1.570   0.466 -0.5419 -0.5312  0.0455
 9070SOL     OW38845   2.287   4.447   5.960  0.4943 -0.2030 -0.0233
 9070SOL    HW138846   2.242   4.368   5.931  0.4294 -1.0645  2.4208
 9070SOL    HW238847   2.231   4.483   6.029 -0.3072 -0.3956 -0.5698
 9071SOL     OW38848   1.994   4.446   7.015  0.0079 -0.2736 -0.4348
 9071SOL    HW138849   2.052   4.506   6.968  1.0521 -0.2007  0.9492
 9071SOL    HW238850   1.917   4.433   6.960  0.4981  0.3853 -1.2813
 9072SOL     OW38851   4.011   1.845   7.266 -0.3679  0.3132 -0.6986
 9072SOL    HW138852   3.940   1.881   7.213  0.3566  2.3294 -0.2918
 9072SOL    HW238853   4.029   1.925   7.315 -1.0388 -0.6114  1.0450
 9073SOL     OW38854   0.938   0.870   1.898 -0.5452 -0.1373  0.1636
 9073SOL    HW138855   0.939   0.774   1.889 -1.9643 -0.0740 -0.6157
 9073SOL    HW238856   1.013   0.892   1.842 -0.2515 -3.1936 -0.6807
 9074SOL     OW38857   1.574   0.469   9.577 -0.2053 -0.5990  0.1075
 9074SOL    HW138858   1.588   0.553   9.620 -1.1846 -1.5726  2.2913
 9074SOL    HW238859   1.568   0.411   9.652  0.3202  1.2124  1.5597
 9075SOL     OW38860   0.562   1.652   7.620  0.4504  0.2656 -0.4043
 9075SOL    HW138861   0.489   1.661   7.559 -1.0073 -3.0068  0.8289
 9075SOL    HW238862   0.566   1.556   7.623  0.6564  0.3065  0.6954
 9076SOL     OW38863   3.830   0.773   7.688  0.4976 -0.6925 -0.3417
 9076SOL    HW138864   3.914   0.799   7.727  0.6492 -2.4096  0.5003
 9076SOL    HW238865   3.860   0.698   7.637 -0.6469  0.3837 -2.5969
 9077SOL     OW38866   3.525   3.322  16.408 -0.7200 -0.4550 -0.2150
 9077SOL    HW138867   3.591   3.375  16.362 -1.2263  1.6870  1.5357
 9077SOL    HW238868   3.573   3.277  16.477  1.7724 -3.4137 -3.8326
 9078SOL     OW38869   4.597   3.067   3.445 -0.0991  0.0006  0.0019
 9078SOL    HW138870   4.518   3.026   3.481 -1.5834  1.6023 -1.4186
 9078SOL    HW238871   4.665   3.027   3.499 -2.2845 -1.3687  1.7724
 9079SOL     OW38872   3.963   3.766   7.079  0.3664  0.2348  0.5963
 9079SOL    HW138873   4.058   3.759   7.086  0.1699 -2.2328  0.7574
 9079SOL    HW238874   3.933   3.732   7.163  0.8909 -2.4537 -0.2845
 9080SOL     OW38875   1.240   0.602  13.510 -0.6293  0.1510  0.0407
 9080SOL    HW138876   1.171   0.644  13.459 -0.9457  0.7139  0.9404
 9080SOL    HW238877   1.271   0.681  13.554  2.0811 -0.6227 -0.4911
 9081SOL     OW38878   4.048   3.466   1.557  0.6751 -0.3483 -0.1385
 9081SOL    HW138879   4.103   3.523   1.610  0.5314 -1.2749  1.0160
 9081SOL    HW238880   4.122   3.428   1.511  0.8537  0.1138 -0.2308
 9082SOL     OW38881   0.735   4.319   7.242  0.3479 -0.5680 -0.1224
 9082SOL    HW138882   0.811   4.329   7.300 -0.7136 -0.6196  1.2554
 9082SOL    HW238883   0.778   4.252   7.190  1.1577 -0.3015  0.1982
 9083SOL     OW38884   2.223   4.215   1.560 -0.2311 -0.2869 -0.1534
 9083SOL    HW138885   2.272   4.266   1.624  0.8485 -1.0980 -0.3349
 9083SOL    HW238886   2.239   4.274   1.486 -0.3103  1.2888  1.0832
 9084SOL     OW38887   3.650   2.006  12.901 -0.2717 -0.6583 -0.6676
 9084SOL    HW138888   3.657   1.948  12.977 -2.3560  1.9378  1.4770
 9084SOL    HW238889   3.700   2.077  12.941 -1.3811  0.9443 -2.1541
 9085SOL     OW38890   3.372   0.372   4.906 -0.9415 -0.4582  0.2885
 9085SOL    HW138891   3.465   0.355   4.900 -1.3116 -2.1183 -0.6976
 9085SOL    HW238892   3.341   0.288   4.874  1.4235 -2.1918  2.6022
 9086SOL     OW38893   2.513   2.617   4.000 -0.1541  0.0245 -0.1810
 9086SOL    HW138894   2.436   2.562   3.982 -2.0043  1.6378  2.8353
 9086SOL    HW238895   2.574   2.552   4.034  0.0515 -0.5529 -1.6521
 9087SOL     OW38896   3.465   1.100   4.839 -0.9905  0.1314  0.2404
 9087SOL    HW138897   3.428   1.167   4.780 -0.2088 -0.8879 -1.4077
 9087SOL    HW238898   3.525   1.059   4.777  0.1886  2.3067 -0.0526
 9088SOL     OW38899   1.032   0.776   8.262  0.2932 -0.6106  0.2127
 9088SOL    HW138900   0.944   0.744   8.282  0.6488 -1.2518  0.7510
 9088SOL    HW238901   1.038   0.857   8.314 -0.1141 -0.6066  0.2613
 9089SOL     OW38902   4.259   1.410   2.100 -0.7902 -0.1603 -0.1673
 9089SOL    HW138903   4.309   1.492   2.098 -1.2195  0.0893 -0.6313
 9089SOL    HW238904   4.180   1.436   2.147 -0.1767 -0.4307  0.9937
 9090SOL     OW38905   2.790   3.858  16.460 -0.0789 -0.8331  0.0441
 9090SOL    HW138906   2.792   3.763  16.451 -0.8841 -1.0443  2.0886
 9090SOL    HW238907   2.787   3.882  16.367 -0.5051  0.6707  0.4346
 9091SOL     OW38908   1.938   3.208   6.678 -0.4375 -0.4256 -0.0061
 9091SOL    HW138909   1.919   3.125   6.633  0.4403 -1.6689  1.9030
 9091SOL    HW238910   1.981   3.169   6.755 -2.3970  0.6725  1.6514
 9092SOL     OW38911   4.719   3.980   2.991 -0.1550 -0.2213  0.2181
 9092SOL    HW138912   4.686   3.969   2.902  0.8755  1.6100 -0.3774
 9092SOL    HW238913   4.679   4.064   3.014  1.5832  1.2138 -2.0741
 9093SOL     OW38914   1.651   4.137   8.770  0.0602  0.5683 -0.0247
 9093SOL    HW138915   1.577   4.108   8.824  0.7793 -0.6580  0.2895
 9093SOL    HW238916   1.726   4.091   8.808 -0.3562 -1.3156 -1.4985
 9094SOL     OW38917   4.305   1.149  12.232 -0.1989 -0.4432 -0.2606
 9094SOL    HW138918   4.369   1.168  12.301 -0.9512  2.2857 -0.2947
 9094SOL    HW238919   4.322   1.217  12.167  2.9889 -1.7128 -0.7651
 9095SOL     OW38920   4.321   0.519   3.443  0.5749 -0.0555  0.0560
 9095SOL    HW138921   4.334   0.444   3.500  1.8352 -0.3711 -0.6377
 9095SOL    HW238922   4.227   0.535   3.456  0.9383 -0.7352  3.5739
 9096SOL     OW38923   0.801   3.366  12.943  0.3586 -0.2565 -0.2483
 9096SOL    HW138924   0.799   3.289  13.000  1.1647 -0.1588 -0.0951
 9096SOL    HW238925   0.881   3.352  12.892 -1.0352 -0.2637 -2.4159
 9097SOL     OW38926   0.227   2.793   8.811  0.3136 -0.0624 -0.2231
 9097SOL    HW138927   0.133   2.796   8.795  0.2294  2.0822  0.6899
 9097SOL    HW238928   0.253   2.723   8.750 -0.1867  1.1040 -1.7832
 9098SOL     OW38929   0.316   1.127   9.554 -0.3788  0.3934 -0.3965
 9098SOL    HW138930   0.278   1.062   9.495 -0.3931  0.4113 -0.4068
 9098SOL    HW238931   0.291   1.088   9.638 -1.8741  0.6510 -0.7248
 9099SOL     OW38932   2.345   2.269   8.612 -0.3325  0.6825 -0.4537
 9099SOL    HW138933   2.382   2.332   8.673 -0.5081  0.8532 -0.5248
 9099SOL    HW238934   2.414   2.205   8.594 -1.9403 -1.1989  0.0315
 9100SOL     OW38935   4.016   3.709   3.686  0.6274 -0.0394  0.1433
 9100SOL    HW138936   3.950   3.765   3.645  0.3825 -0.2311  0.2750
 9100SOL    HW238937   3.968   3.626   3.688  2.4566 -1.0330  2.0363
 9101SOL     OW38938   4.008   2.075   0.770 -0.0819  0.7754 -0.8503
 9101SOL    HW138939   4.035   2.106   0.856  0.3635  2.7016 -1.6937
 9101SOL    HW238940   4.087   2.074   0.717  0.1493  1.2232 -0.5098
 9102SOL     OW38941   2.213   2.909   5.553  0.3296  0.0093  0.2048
 9102SOL    HW138942   2.235   2.846   5.484  1.5293  0.6749 -0.0328
 9102SOL    HW238943   2.288   2.967   5.565 -0.1859  0.8058 -0.3972
 9103SOL     OW38944   1.702   4.147   9.172  0.3184  1.0157  0.6373
 9103SOL    HW138945   1.642   4.125   9.243 -1.4243  0.3134 -1.0665
 9103SOL    HW238946   1.774   4.085   9.182 -0.8971 -0.7491 -1.3340
 9104SOL     OW38947   3.888   2.159  11.561  0.5329  0.4335 -0.2883
 9104SOL    HW138948   3.904   2.209  11.481  1.2801  0.3868 -0.1693
 9104SOL    HW238949   3.975   2.121  11.577 -0.5642 -0.6078  3.1306
 9105SOL     OW38950   0.988   2.798   5.118  0.3695  0.6634  0.2428
 9105SOL    HW138951   1.058   2.760   5.066 -0.0999 -2.4296  1.9092
 9105SOL    HW238952   0.994   2.777   5.212 -0.9400  0.5064  0.2892
 9106SOL     OW38953   1.914   4.435   3.015  0.3155  0.6007  0.8482
 9106SOL    HW138954   1.965   4.397   2.944  1.0358  0.7981  1.2574
 9106SOL    HW238955   1.920   4.525   2.981  0.1015  0.3019  0.0048
 9107SOL     OW38956   2.267   1.511   4.772 -0.1223  0.8857 -0.5265
 9107SOL    HW138957   2.254   1.543   4.683 -2.2103  3.2479  0.6337
 9107SOL    HW238958   2.204   1.566   4.819  0.8716 -0.7567  2.7312
 9108SOL     OW38959   1.545   0.595  10.100  0.1562  0.8680 -0.0714
 9108SOL    HW138960   1.575   0.504  10.099  0.7119  1.0452  0.8993
 9108SOL    HW238961   1.624   0.647  10.087  0.5782  0.2964  0.2413
 9109SOL     OW38962   0.247   0.335   5.258  0.0314  0.6655 -0.0754
 9109SOL    HW138963   0.337   0.366   5.266  0.2765  0.0669 -0.5256
 9109SOL    HW238964   0.202   0.414   5.288 -0.5804  0.0421  0.6470
 9110SOL     OW38965   4.410   2.776  13.117 -0.0633 -0.7197  0.6538
 9110SOL    HW138966   4.452   2.745  13.037 -0.1580  0.8470  0.0035
 9110SOL    HW238967   4.472   2.750  13.186  2.2565  1.1013 -0.7457
 9111SOL     OW38968   1.315   0.590   3.465  0.2077 -0.4775 -0.1986
 9111SOL    HW138969   1.376   0.554   3.400  1.8533  3.1914 -0.6911
 9111SOL    HW238970   1.257   0.627   3.398 -0.2812 -0.3236  0.3094
 9112SOL     OW38971   1.216   0.716   6.288 -0.1856  0.5449  0.1071
 9112SOL    HW138972   1.273   0.663   6.232  0.3412 -0.9242  2.0185
 9112SOL    HW238973   1.133   0.697   6.244 -0.4672  1.2820  0.3124
 9113SOL     OW38974   1.479   2.169   3.058 -0.1685  0.3062 -0.2781
 9113SOL    HW138975   1.431   2.092   3.091  1.8076 -0.0075  1.8597
 9113SOL    HW238976   1.415   2.239   3.053  0.2294  0.7361  0.5704
 9114SOL     OW38977   1.853   1.375   7.775  0.0740 -0.4095  0.3266
 9114SOL    HW138978   1.772   1.391   7.823  1.4582  1.4020  2.0194
 9114SOL    HW238979   1.857   1.280   7.764  0.9398 -0.1755 -1.4676
 9115SOL     OW38980   0.642   3.839   8.577  0.6187 -0.2866 -0.1293
 9115SOL    HW138981   0.550   3.829   8.604  0.8389 -1.1225  0.2862
 9115SOL    HW238982   0.665   3.927   8.609  0.8079 -0.6874  0.8293
 9116SOL     OW38983   0.941   0.382  15.247 -0.0868  0.7224  0.3494
 9116SOL    HW138984   0.971   0.381  15.338  1.0544  2.5400  0.0027
 9116SOL    HW238985   1.019   0.398  15.194 -0.0553  0.3757  0.2911
 9117SOL     OW38986   2.318   1.939   1.481 -0.1597  0.0426  0.5771
 9117SOL    HW138987   2.403   1.903   1.456 -0.3898 -2.1503  3.0186
 9117SOL    HW238988   2.315   1.909   1.572 -3.4839 -1.5097 -0.0493
 9118SOL     OW38989   1.068   4.185   8.040 -0.0396 -0.9480 -0.0010
 9118SOL    HW138990   0.996   4.154   8.095  0.2452 -1.3941  0.1139
 9118SOL    HW238991   1.023   4.178   7.956 -0.0240  0.9994 -0.1855
 9119SOL     OW38992   1.312   3.475   4.075 -0.2761  0.0060  0.0728
 9119SOL    HW138993   1.260   3.395   4.087 -1.4851  0.7459 -0.2963
 9119SOL    HW238994   1.321   3.491   4.169  0.3384 -2.1252  0.3696
 9120SOL     OW38995   1.781   3.032   8.173  0.7957  0.3088  0.6422
 9120SOL    HW138996   1.770   2.937   8.175 -1.3179  0.5284  0.0816
 9120SOL    HW238997   1.854   3.038   8.111 -0.9854 -1.0349 -1.6278
 9121SOL     OW38998   1.753   0.331   4.009  0.2523  0.2566  0.0984
 9121SOL    HW138999   1.730   0.288   3.926  1.5725 -2.0201  0.9139
 9121SOL    HW239000   1.774   0.421   3.983 -1.4233  1.2035  2.0425
 9122SOL     OW39001   4.294   1.197  14.902 -0.3031  0.3228 -0.3506
 9122SOL    HW139002   4.260   1.140  14.971  0.6520  0.0018 -0.1422
 9122SOL    HW239003   4.360   1.250  14.947 -2.1634  2.4204 -0.0648
 9123SOL     OW39004   0.365   3.560  11.679 -0.2318 -0.0061  0.0170
 9123SOL    HW139005   0.397   3.630  11.736  0.3378 -1.1006  1.0397
 9123SOL    HW239006   0.276   3.553  11.712  0.5251 -1.3956  1.7789
 9124SOL     OW39007   2.213   0.364   2.702  0.4253 -0.2034  0.2406
 9124SOL    HW139008   2.127   0.323   2.711 -0.0841  0.4300 -1.7930
 9124SOL    HW239009   2.247   0.355   2.791  1.4569  0.6085 -0.0721
 9125SOL     OW39010   3.002   2.537  13.271 -0.1077 -0.0366  0.3364
 9125SOL    HW139011   2.960   2.458  13.305 -0.7987  0.3858  0.4736
 9125SOL    HW239012   3.074   2.555  13.332  0.8165 -0.2241 -0.6914
 9126SOL     OW39013   1.600   4.254   5.263  0.0060  0.0526  0.7565
 9126SOL    HW139014   1.553   4.213   5.336 -0.2008 -1.4689 -0.2445
 9126SOL    HW239015   1.626   4.186   5.201 -0.7260  0.8633 -0.4251
 9127SOL     OW39016   3.488   0.303   2.616  0.3576  0.4859 -0.2004
 9127SOL    HW139017   3.519   0.360   2.546  3.4763 -1.4400 -0.4181
 9127SOL    HW239018   3.508   0.218   2.577 -1.5124 -0.0303 -0.0387
 9128SOL     OW39019   2.944   4.261   7.016  0.5887 -0.2328  0.0670
 9128SOL    HW139020   2.894   4.226   6.942  0.2533  0.6589 -0.1365
 9128SOL    HW239021   2.873   4.239   7.076 -0.9309 -0.1310 -1.6931
 9129SOL     OW39022   3.140   2.323  16.935  0.2453  0.4765  0.1022
 9129SOL    HW139023   3.120   2.230  16.949 -0.4468  0.2291 -2.6635
 9129SOL    HW239024   3.144   2.316  16.840  3.3836 -0.2257  0.2876
 9130SOL     OW39025   1.627   3.561   7.648 -0.3761  0.2622 -0.2872
 9130SOL    HW139026   1.626   3.656   7.653 -2.0814  0.1548  1.8315
 9130SOL    HW239027   1.718   3.534   7.640  0.5278  3.5474 -0.9103
 9131SOL     OW39028   2.940   2.965   7.171  0.5438 -0.0576  0.3230
 9131SOL    HW139029   2.860   2.933   7.130  1.5134 -1.7818 -0.2566
 9131SOL    HW239030   2.989   2.997   7.095  0.1759  0.0276  0.1225
 9132SOL     OW39031   3.443   3.900   8.386 -0.4735  0.4330  0.7056
 9132SOL    HW139032   3.481   3.944   8.310  0.1686  2.0248  1.9388
 9132SOL    HW239033   3.515   3.850   8.426  0.9554  1.3458 -0.7065
 9133SOL     OW39034   2.979   4.486   3.957 -0.0757  0.0190 -0.3561
 9133SOL    HW139035   3.051   4.470   3.895 -1.1278 -2.3112 -1.0092
 9133SOL    HW239036   2.984   4.401   4.001 -0.1746  0.4012  0.3906
 9134SOL     OW39037   2.199   1.968  10.082  0.0949  0.6130 -0.1529
 9134SOL    HW139038   2.135   1.984  10.152  0.9407  0.7984  0.5770
 9134SOL    HW239039   2.145   1.935  10.010  0.8864 -2.3013  0.5742
 9135SOL     OW39040   1.359   1.093   0.463  0.3672 -0.2286 -0.1754
 9135SOL    HW139041   1.268   1.120   0.463 -0.4881 -3.0719  1.3455
 9135SOL    HW239042   1.364   1.077   0.369  1.2614 -0.2633 -0.1219
 9136SOL     OW39043   0.043   1.435   8.149 -0.5829  0.1084  0.0340
 9136SOL    HW139044   4.697   1.424   8.101 -0.1400  1.6029 -1.0987
 9136SOL    HW239045   0.026   1.526   8.174  2.0789  0.3324  1.0052
 9137SOL     OW39046   4.176   3.391   6.255 -0.0752  0.0999  0.0534
 9137SOL    HW139047   4.148   3.480   6.275 -1.5972  0.0175 -1.6644
 9137SOL    HW239048   4.162   3.390   6.160  0.5525  1.7817 -0.0400
 9138SOL     OW39049   1.177   0.352   8.535  0.0228  0.0662  0.1837
 9138SOL    HW139050   1.138   0.265   8.532  0.4485 -0.1044 -0.4730
 9138SOL    HW239051   1.100   0.406   8.524 -0.4678 -0.6841 -0.0642
 9139SOL     OW39052   4.494   3.901   4.590 -0.0056  0.0362 -0.0413
 9139SOL    HW139053   4.569   3.899   4.650  0.7972 -0.2774 -1.0656
 9139SOL    HW239054   4.436   3.943   4.654  0.4167 -2.0352  1.6995
 9140SOL     OW39055   2.752   1.459   4.176  0.4554  0.4797  0.7343
 9140SOL    HW139056   2.697   1.525   4.219  0.3823  1.4714 -0.8826
 9140SOL    HW239057   2.805   1.509   4.114 -0.3157 -2.1458 -2.0513
 9141SOL     OW39058   4.347   0.728   3.190  0.1240 -0.2556  0.7004
 9141SOL    HW139059   4.256   0.755   3.178 -0.2829 -1.3928  1.2458
 9141SOL    HW239060   4.350   0.640   3.228 -0.1343 -0.2783  0.6692
 9142SOL     OW39061   2.190   2.963  12.086 -0.2688  0.2856  0.0019
 9142SOL    HW139062   2.271   3.008  12.062 -0.5405  2.1183  2.4380
 9142SOL    HW239063   2.116   3.018  12.061 -0.3939  0.7565  1.4305
 9143SOL     OW39064   2.429   3.893   4.157 -0.1174 -0.2354  0.3591
 9143SOL    HW139065   2.352   3.842   4.178  0.4682 -0.9168  0.8545
 9143SOL    HW239066   2.489   3.824   4.126  0.3204  0.4905 -0.4353
 9144SOL     OW39067   0.152   1.176   0.875 -0.5138  0.3340 -0.2054
 9144SOL    HW139068   0.232   1.153   0.826 -1.3189 -0.2969 -1.2130
 9144SOL    HW239069   0.107   1.092   0.877  0.6111 -0.2565  0.4616
 9145SOL     OW39070   1.236   0.173   3.299 -0.3321 -0.3820 -0.4428
 9145SOL    HW139071   1.253   0.095   3.351 -0.4411 -1.4689 -2.0511
 9145SOL    HW239072   1.274   0.236   3.361  0.4203  1.0430 -2.3382
 9146SOL     OW39073   3.020   2.452   6.528 -0.1260 -0.2220  0.2115
 9146SOL    HW139074   3.050   2.406   6.449 -0.5263 -1.9278  1.0426
 9146SOL    HW239075   3.099   2.448   6.582 -0.1119  0.1916  0.2166
 9147SOL     OW39076   1.762   1.226   4.565  0.2040  0.3391 -0.0439
 9147SOL    HW139077   1.846   1.262   4.595  1.2317 -2.4493  0.4808
 9147SOL    HW239078   1.798   1.163   4.502 -1.2029 -0.2868 -0.2214
 9148SOL     OW39079   0.759   1.649   5.793  0.0582  0.5851 -0.1377
 9148SOL    HW139080   0.723   1.640   5.705 -0.9133  2.9403  0.0006
 9148SOL    HW239081   0.828   1.582   5.794 -0.3284  0.1811 -0.8124
 9149SOL     OW39082   0.350   1.927   1.662 -0.0864  0.1317 -0.2906
 9149SOL    HW139083   0.300   1.972   1.731 -1.1616 -0.9147 -0.3862
 9149SOL    HW239084   0.300   1.848   1.641 -1.5060  0.5196  1.5489
 9150SOL     OW39085   0.833   0.352  10.491 -0.2282  0.0623 -0.4981
 9150SOL    HW139086   0.904   0.416  10.497 -0.9516  0.5853  2.4690
 9150SOL    HW239087   0.786   0.363  10.573  0.4432  1.0522 -0.2452
 9151SOL     OW39088   2.877   2.985  15.544  0.4046  0.5667 -0.3283
 9151SOL    HW139089   2.824   2.982  15.624 -0.1716 -1.5437 -0.7795
 9151SOL    HW239090   2.954   2.936  15.573  0.9693  0.6698 -1.6511
 9152SOL     OW39091   3.726   4.571   9.796  0.2667  0.5056  0.0232
 9152SOL    HW139092   3.727   4.598   9.888  0.7765  0.4816  0.0233
 9152SOL    HW239093   3.649   4.515   9.805 -0.5104  1.4544 -0.6811
 9153SOL     OW39094   0.517   0.007   4.060  0.6779  0.6547 -0.3371
 9153SOL    HW139095   0.456   0.033   4.129 -0.7664 -0.5462 -1.1901
 9153SOL    HW239096   0.509   0.068   3.987 -2.0078 -1.6144 -1.9007
 9154SOL     OW39097   4.523   2.540  13.356  1.0719  0.2236  0.6825
 9154SOL    HW139098   4.473   2.543  13.275  1.9627 -0.0202  0.1176
 9154SOL    HW239099   4.562   2.627  13.362  0.3720  0.5400  0.5510
 9155SOL     OW39100   2.008   0.753  15.879  0.2620  0.2982 -0.2279
 9155SOL    HW139101   2.039   0.770  15.968  3.4921  0.5023 -1.3890
 9155SOL    HW239102   1.930   0.808  15.887  0.0729 -0.1797  1.2285
 9156SOL     OW39103   0.283   3.609   3.682 -0.0938 -0.1100  0.1467
 9156SOL    HW139104   0.378   3.596   3.679 -0.2407 -1.3195  0.5319
 9156SOL    HW239105   0.251   3.534   3.732  1.3190  0.6855  2.2849
 9157SOL     OW39106   2.750   4.188   2.552 -0.1930  0.4706 -0.2732
 9157SOL    HW139107   2.700   4.183   2.634  0.9966 -1.8813  0.3401
 9157SOL    HW239108   2.834   4.161   2.591 -0.0708 -1.4339 -1.8433
 9158SOL     OW39109   2.676   1.610   8.222 -0.1696  0.0364 -0.8358
 9158SOL    HW139110   2.722   1.677   8.272 -0.1991  0.5136 -1.4472
 9158SOL    HW239111   2.719   1.607   8.137 -0.5400  0.6509 -1.0479
 9159SOL     OW39112   3.828   1.539   7.345  0.1971 -0.4009 -0.1278
 9159SOL    HW139113   3.738   1.554   7.317  0.3439  0.4441 -0.1364
 9159SOL    HW239114   3.836   1.616   7.400  2.5229 -1.3255  0.8772
 9160SOL     OW39115   1.859   0.166   8.147 -0.4119 -0.1501 -0.0062
 9160SOL    HW139116   1.779   0.183   8.097 -0.6370  1.8550  1.0493
 9160SOL    HW239117   1.893   0.103   8.083 -0.2801 -1.5116  1.4247
 9161SOL     OW39118   2.563   0.786  16.548 -0.3019 -0.4208  0.7488
 9161SOL    HW139119   2.479   0.741  16.550 -0.2594 -0.4586  2.3476
 9161SOL    HW239120   2.535   0.877  16.564  0.2931  0.2596 -2.2025
 9162SOL     OW39121   1.660   4.219   4.960 -0.4903 -0.1245 -0.1540
 9162SOL    HW139122   1.684   4.157   4.891  2.7250  0.2028  0.6476
 9162SOL    HW239123   1.683   4.301   4.917 -1.2651  0.4691  0.5822
 9163SOL     OW39124   3.566   4.578   3.182  0.1634  0.0232  0.0048
 9163SOL    HW139125   3.560   4.624   3.266 -1.4455  0.4291 -0.3330
 9163SOL    HW239126   3.572   4.654   3.125 -0.4203 -1.3252 -1.8725
 9164SOL     OW39127   2.807   3.757   2.569 -0.0339  0.7892  0.4845
 9164SOL    HW139128   2.812   3.779   2.662  0.5650  2.2127  0.1161
 9164SOL    HW239129   2.797   3.662   2.575 -0.4571  0.8871  1.2607
 9165SOL     OW39130   2.054   2.672   6.941 -0.1000 -0.6627  0.1262
 9165SOL    HW139131   2.127   2.692   7.000 -1.6240  1.2299  1.3778
 9165SOL    HW239132   1.994   2.638   7.007  1.2329 -0.9079  1.2213
 9166SOL     OW39133   2.813   2.028   8.876 -0.3441 -0.4199 -0.0887
 9166SOL    HW139134   2.795   1.962   8.943  0.7305 -0.7745 -0.1384
 9166SOL    HW239135   2.824   1.973   8.799 -2.0199  1.8070 -1.8855
 9167SOL     OW39136   3.093   4.574   3.207  0.0328  0.9751  0.7718
 9167SOL    HW139137   3.170   4.560   3.154 -0.5548  0.1546  0.1322
 9167SOL    HW239138   3.133   4.569   3.294  1.3378  0.3132  0.1214
 9168SOL     OW39139   3.213   0.716   3.976  0.3467  0.0086  0.2473
 9168SOL    HW139140   3.224   0.769   4.055 -2.6671 -0.3715  0.9044
 9168SOL    HW239141   3.148   0.774   3.937  0.9745 -0.4350 -1.4588
 9169SOL     OW39142   1.435   3.811  14.919 -0.1917  0.3813  0.0047
 9169SOL    HW139143   1.449   3.716  14.926  0.0115  0.5554  1.9705
 9169SOL    HW239144   1.500   3.846  14.980  0.1699 -1.8026  0.8679
 9170SOL     OW39145   2.713   2.314   9.486 -0.0273  0.4859 -0.2077
 9170SOL    HW139146   2.784   2.342   9.428  1.6182 -2.8089  0.2211
 9170SOL    HW239147   2.706   2.220   9.467 -1.5211  0.3062  1.1699
 9171SOL     OW39148   2.166   2.137   8.856  0.2603 -0.0170 -0.0063
 9171SOL    HW139149   2.249   2.127   8.903 -0.9120  1.7255  2.4297
 9171SOL    HW239150   2.166   2.231   8.836  3.4595 -0.0058  0.0330
 9172SOL     OW39151   1.966   1.338   2.038 -0.1414 -0.5640  0.0247
 9172SOL    HW139152   1.884   1.375   2.069 -0.9070 -1.4647 -0.9220
 9172SOL    HW239153   2.019   1.403   1.991 -0.6445 -0.1961 -0.0389
 9173SOL     OW39154   2.618   2.855   2.144 -0.0143 -0.4576  0.6600
 9173SOL    HW139155   2.526   2.855   2.116 -0.0339 -0.8347  0.7264
 9173SOL    HW239156   2.653   2.780   2.096  0.9732  0.5445 -0.1795
 9174SOL     OW39157   3.228   0.027   1.883 -0.5715 -0.1875  0.7772
 9174SOL    HW139158   3.242   0.098   1.946 -0.5549  1.6127 -1.2574
 9174SOL    HW239159   3.136   0.036   1.860 -0.2891  0.9147  0.0847
 9175SOL     OW39160   1.016   3.565   2.376 -0.9350  0.3249  0.3919
 9175SOL    HW139161   1.044   3.475   2.359  0.4674  0.6989  0.7974
 9175SOL    HW239162   0.947   3.546   2.440 -1.9471 -1.3811 -1.2078
 9176SOL     OW39163   1.236   3.965   8.171 -0.0122  0.4481 -0.6359
 9176SOL    HW139164   1.259   4.019   8.246  1.1521 -1.9613  0.7317
 9176SOL    HW239165   1.141   3.968   8.177 -0.1251 -2.1420 -1.2398
 9177SOL     OW39166   3.173   3.304   4.964  0.3518  0.8389  0.1345
 9177SOL    HW139167   3.146   3.390   4.998 -3.6446 -1.0356  1.7872
 9177SOL    HW239168   3.100   3.292   4.903 -0.3063  2.5480  0.5653
 9178SOL     OW39169   2.829   1.516  13.789 -0.3549  0.6517 -0.3718
 9178SOL    HW139170   2.916   1.503  13.751 -0.6498 -0.3101 -0.7166
 9178SOL    HW239171   2.836   1.483  13.879 -0.8825 -0.4746 -0.7469
 9179SOL     OW39172   0.607   2.233   6.319 -0.1296 -0.5770 -0.5717
 9179SOL    HW139173   0.687   2.227   6.371 -0.1818 -3.2165 -0.7842
 9179SOL    HW239174   0.654   2.255   6.238  1.0604 -1.1860 -0.0516
 9180SOL     OW39175   0.662   0.396   2.031  0.4408  0.9368 -0.5202
 9180SOL    HW139176   0.751   0.363   2.035 -1.0761 -3.1762 -0.5249
 9180SOL    HW239177   0.630   0.377   2.120 -0.1632 -0.2591 -0.9859
 9181SOL     OW39178   0.115   2.189  16.076  0.2889 -0.2871 -0.3893
 9181SOL    HW139179   0.204   2.185  16.109  0.2834  0.5927 -0.2681
 9181SOL    HW239180   0.125   2.145  15.991 -2.1381 -2.8837  0.6501
 9182SOL     OW39181   0.714   3.088  10.393 -0.1671 -0.2593  0.1156
 9182SOL    HW139182   0.651   3.042  10.337  0.0285 -0.9350  0.4423
 9182SOL    HW239183   0.765   3.136  10.328 -1.0843 -0.0470 -0.4510
 9183SOL     OW39184   1.158   1.556   9.193 -0.2283 -0.1889  0.2869
 9183SOL    HW139185   1.133   1.627   9.251 -0.2476 -0.2854  0.3972
 9183SOL    HW239186   1.150   1.484   9.256 -2.9425  1.3395  1.6906
 9184SOL     OW39187   3.311   4.692  14.661 -0.7930  0.4414  1.1564
 9184SOL    HW139188   3.230   4.723  14.622 -1.3984 -2.5327 -0.0107
 9184SOL    HW239189   3.374   4.693  14.588  0.7813 -0.8129  2.4917
 9185SOL     OW39190   4.613   4.418   7.366  0.5407 -0.8630 -0.2390
 9185SOL    HW139191   4.565   4.408   7.284 -0.1879  0.6096  0.0103
 9185SOL    HW239192   4.626   4.513   7.362  1.8640 -1.1484 -2.5064
 9186SOL     OW39193   1.897   2.451   2.369  0.4842 -0.3641 -0.0908
 9186SOL    HW139194   1.944   2.526   2.333  1.7385  0.0296  2.3867
 9186SOL    HW239195   1.851   2.487   2.444 -1.8360 -1.3997 -1.0262
 9187SOL     OW39196   1.166   2.444   8.159 -0.1927  0.4339  0.0843
 9187SOL    HW139197   1.123   2.481   8.082 -0.6142  0.9091  0.5395
 9187SOL    HW239198   1.150   2.517   8.220  2.3178  1.3152 -0.3442
 9188SOL     OW39199   4.508   3.040   6.826  0.4316  0.3107  0.1141
 9188SOL    HW139200   4.496   3.105   6.757  1.1626 -0.9350 -1.1847
 9188SOL    HW239201   4.420   3.025   6.859  0.2275  1.9529  0.3162
 9189SOL     OW39202   2.676   0.640   9.599 -0.0421 -1.2822 -0.0021
 9189SOL    HW139203   2.612   0.579   9.635 -1.2251  0.7379  1.3104
 9189SOL    HW239204   2.744   0.579   9.571 -0.8951 -1.8418 -0.8677
 9190SOL     OW39205   1.249   0.382   0.782 -0.2514  0.7684  0.1464
 9190SOL    HW139206   1.164   0.424   0.794 -1.2772 -0.8146 -1.6630
 9190SOL    HW239207   1.247   0.327   0.860  1.3174  0.2669 -0.1618
 9191SOL     OW39208   4.235   2.063   0.308  0.3138 -0.3831 -0.3479
 9191SOL    HW139209   4.219   2.037   0.217  0.5214  0.9397 -0.7774
 9191SOL    HW239210   4.329   2.079   0.299 -0.0173  1.8221  0.0778
 9192SOL     OW39211   1.471   0.953  14.912 -0.3289 -0.3020  0.1765
 9192SOL    HW139212   1.503   0.910  14.991  0.3536  0.4686  0.3209
 9192SOL    HW239213   1.487   1.046  14.932  0.7176 -0.2659 -0.8750
 9193SOL     OW39214   2.202   2.782   9.256  0.4555 -0.3973 -0.1870
 9193SOL    HW139215   2.289   2.812   9.229  0.7141  0.5051  1.6479
 9193SOL    HW239216   2.205   2.788   9.351 -1.5141 -3.0382  0.0401
 9194SOL     OW39217   3.018   0.079   0.579 -0.1397 -0.1829 -0.0723
 9194SOL    HW139218   3.008   0.081   0.483 -0.4111 -2.8970 -0.1137
 9194SOL    HW239219   3.021   4.720   0.586 -1.1925 -0.1205  1.2275
 9195SOL     OW39220   0.084   2.483   4.119  0.0140  0.0843 -0.1053
 9195SOL    HW139221   0.067   2.483   4.213 -1.7465 -0.1847 -0.4284
 9195SOL    HW239222   0.009   2.441   4.076  1.2201 -2.2896  0.1421
 9196SOL     OW39223   1.163   2.620   9.018 -0.0940 -0.2948  0.1535
 9196SOL    HW139224   1.098   2.567   9.063  1.2397 -1.4084  0.7699
 9196SOL    HW239225   1.242   2.583   9.058  0.1039  1.3306  1.2616
 9197SOL     OW39226   0.500   0.663   7.912  0.2993 -0.3581 -0.3494
 9197SOL    HW139227   0.529   0.732   7.971  0.5741 -0.3147 -0.5356
 9197SOL    HW239228   0.559   0.676   7.838 -0.2539 -2.3130 -1.1599
 9198SOL     OW39229   4.294   2.753  10.648  0.0963  0.0280 -0.3706
 9198SOL    HW139230   4.279   2.713  10.563 -0.3222  0.5058 -0.5204
 9198SOL    HW239231   4.381   2.722  10.671 -0.4160 -2.1021 -1.3423
 9199SOL     OW39232   0.519   4.605   5.500  0.0095  0.2557 -0.0852
 9199SOL    HW139233   0.493   4.528   5.551  2.5102 -0.1630  0.5290
 9199SOL    HW239234   0.613   4.593   5.489  0.1599  1.2857  0.0930
 9200SOL     OW39235   4.539   2.039   1.749  0.0941 -0.0217  0.0347
 9200SOL    HW139236   4.454   2.062   1.712  0.5504  0.2009 -0.8771
 9200SOL    HW239237   4.561   2.128   1.774 -0.8531  0.3565 -0.4999
 9201SOL     OW39238   0.878   2.196  13.973 -0.4775  0.0863  0.4247
 9201SOL    HW139239   0.783   2.189  13.962 -0.0556 -2.1386 -1.7240
 9201SOL    HW239240   0.884   2.250  13.894  1.6908  0.3867  0.8183
 9202SOL     OW39241   0.400   2.556   3.310 -0.5324 -0.0840 -0.0603
 9202SOL    HW139242   0.471   2.606   3.271  1.3669 -0.8508  2.4451
 9202SOL    HW239243   0.430   2.523   3.395  0.4286 -0.4040 -0.5300
 9203SOL     OW39244   1.601   3.626   6.377 -0.3096  0.2631  0.0464
 9203SOL    HW139245   1.524   3.590   6.332  0.5254 -1.3165 -0.1297
 9203SOL    HW239246   1.653   3.546   6.370  1.1342  0.9313  3.2193
 9204SOL     OW39247   1.779   3.203   3.548 -0.4010  0.1259 -0.2727
 9204SOL    HW139248   1.773   3.289   3.588  0.3580 -0.4016  0.9643
 9204SOL    HW239249   1.776   3.220   3.454 -4.8342 -1.7476 -0.4616
 9205SOL     OW39250   0.532   0.913   3.900 -0.2505 -0.2014 -0.2964
 9205SOL    HW139251   0.604   0.850   3.894  0.8805  1.0767 -0.2361
 9205SOL    HW239252   0.473   0.864   3.957  2.1229 -2.1311  0.5185
 9206SOL     OW39253   1.222   2.565   3.963  0.1322  0.4106 -0.1443
 9206SOL    HW139254   1.288   2.561   3.893 -0.8138  1.0078 -1.0730
 9206SOL    HW239255   1.262   2.626   4.025 -4.5124  1.7985  1.4437
 9207SOL     OW39256   0.609   0.148   4.775  0.4206 -0.5634  0.7147
 9207SOL    HW139257   0.541   0.095   4.815  0.8967 -0.4872  1.6313
 9207SOL    HW239258   0.641   0.175   4.861 -2.2058 -0.2799  1.5873
 9208SOL     OW39259   1.159   3.572  12.759 -0.3783 -0.2990 -0.3926
 9208SOL    HW139260   1.083   3.524  12.726  0.1974 -2.4131  1.3617
 9208SOL    HW239261   1.221   3.565  12.686 -1.2401  0.4580 -1.2056
 9209SOL     OW39262   0.679   3.359  16.682 -0.0558 -0.3497 -0.3565
 9209SOL    HW139263   0.712   3.448  16.691 -1.8583  0.4078 -1.3153
 9209SOL    HW239264   0.731   3.340  16.603  2.1612 -1.6365  1.3985
 9210SOL     OW39265   3.081   1.644   5.855 -0.1117 -0.0849 -0.2423
 9210SOL    HW139266   3.062   1.624   5.946  0.6024  1.3466  0.2207
 9210SOL    HW239267   3.134   1.568   5.830  1.8508  1.0462  0.4952
 9211SOL     OW39268   2.366   1.113   6.066 -0.8596  0.0119 -0.5946
 9211SOL    HW139269   2.407   1.076   5.988 -0.1415  0.6194 -0.5116
 9211SOL    HW239270   2.296   1.049   6.079 -1.1976  0.5173  0.0924
 9212SOL     OW39271   2.467   2.844   6.581 -0.0910 -0.0248 -0.1052
 9212SOL    HW139272   2.391   2.799   6.619 -0.2455  0.3674  0.0473
 9212SOL    HW239273   2.526   2.859   6.654  2.0833 -1.9400 -1.4676
 9213SOL     OW39274   2.556   2.053   1.787  0.1761 -1.1719  0.4656
 9213SOL    HW139275   2.577   2.081   1.876 -3.2710  1.5807  0.4439
 9213SOL    HW239276   2.508   1.971   1.804  1.9462 -2.2699  0.1540
 9214SOL     OW39277   2.557   2.922   3.045  0.1854 -0.2485 -0.0770
 9214SOL    HW139278   2.501   2.932   2.968  0.6050  0.9514 -0.2274
 9214SOL    HW239279   2.500   2.878   3.107  1.1160  1.2302  1.8220
 9215SOL     OW39280   0.502   1.915  14.538 -0.9126  0.3259  0.3143
 9215SOL    HW139281   0.576   1.856  14.558 -0.9460  0.2851  0.3174
 9215SOL    HW239282   0.432   1.898  14.600  0.8868 -0.0448  2.2625
 9216SOL     OW39283   0.785   4.321   5.549 -0.4544  0.2534 -0.3715
 9216SOL    HW139284   0.807   4.407   5.513 -0.8202  1.0826  1.3929
 9216SOL    HW239285   0.874   4.284   5.551 -1.2420 -1.6315 -0.2215
 9217SOL     OW39286   1.351   2.475   3.336  0.3991  0.0978  0.2533
 9217SOL    HW139287   1.376   2.413   3.404  0.1457 -0.6647 -0.3448
 9217SOL    HW239288   1.303   2.424   3.271 -0.1410  0.5226  0.3168
 9218SOL     OW39289   3.522   1.157   3.065  0.1143 -0.1984  0.5722
 9218SOL    HW139290   3.438   1.142   3.108  0.5433  3.2549  2.5855
 9218SOL    HW239291   3.509   1.103   2.987  0.1218 -0.5702  0.8328
 9219SOL     OW39292   0.353   3.598   8.119  0.1468  0.3141 -0.0851
 9219SOL    HW139293   0.268   3.636   8.097 -0.2188 -0.0022  0.7672
 9219SOL    HW239294   0.367   3.522   8.063 -1.7800 -0.4637  0.4788
 9220SOL     OW39295   3.249   3.176  11.599  0.5081 -0.8183  0.6361
 9220SOL    HW139296   3.184   3.108  11.617  1.5591 -2.0893 -0.3478
 9220SOL    HW239297   3.234   3.219  11.683 -2.0441 -1.7214  0.6529
 9221SOL     OW39298   0.546   0.906   4.865  0.2209  0.1927  0.2829
 9221SOL    HW139299   0.603   0.931   4.793 -0.5060 -0.2074 -0.4216
 9221SOL    HW239300   0.458   0.927   4.834  0.3882  0.4514 -0.0087
 9222SOL     OW39301   1.909   0.219   4.819  0.7323  0.2160 -0.1595
 9222SOL    HW139302   1.934   0.210   4.727  1.4234 -2.0903  0.2523
 9222SOL    HW239303   1.931   0.310   4.840 -2.7407  1.4507 -1.8164
 9223SOL     OW39304   3.428   3.381   4.569 -0.5530  0.3561 -0.2762
 9223SOL    HW139305   3.379   3.461   4.588 -0.2900  1.3032 -3.5804
 9223SOL    HW239306   3.516   3.406   4.597 -0.4479 -0.7875  0.3931
 9224SOL     OW39307   4.362   4.407   6.101 -0.2861 -0.2864  0.5024
 9224SOL    HW139308   4.434   4.381   6.159  1.1644 -1.6752 -1.9108
 9224SOL    HW239309   4.366   4.500   6.122 -0.6338 -1.0743  4.0634
 9225SOL     OW39310   0.198   3.226   4.314  0.2519 -0.1641 -0.5582
 9225SOL    HW139311   0.226   3.228   4.406 -2.4380 -0.0586  0.2894
 9225SOL    HW239312   0.134   3.298   4.316 -0.5033 -0.8801  1.7672
 9226SOL     OW39313   1.927   3.657   2.633  0.2593 -0.6863  0.1260
 9226SOL    HW139314   1.946   3.700   2.716 -0.3787 -5.1741  2.6107
 9226SOL    HW239315   1.912   3.729   2.572  2.6518 -0.0462  0.2846
 9227SOL     OW39316   3.398   0.971   8.508 -0.9145 -0.1131  0.3674
 9227SOL    HW139317   3.422   1.046   8.562 -0.7240  1.1587 -1.4644
 9227SOL    HW239318   3.450   0.909   8.559  0.1387  0.5032  0.0358
 9228SOL     OW39319   2.446   0.225   7.060  0.0536 -0.0542  0.0241
 9228SOL    HW139320   2.402   0.169   7.125  0.5313 -2.4303 -1.6915
 9228SOL    HW239321   2.520   0.254   7.112  0.1178  0.6599 -0.4730
 9229SOL     OW39322   2.846   3.211   8.675  0.1565  0.2781 -0.3667
 9229SOL    HW139323   2.779   3.233   8.739  0.2014 -0.4387 -0.0797
 9229SOL    HW239324   2.930   3.245   8.708 -0.0521 -0.2943  0.7822
 9230SOL     OW39325   2.386   0.556  14.896 -0.0218  0.1982 -0.2418
 9230SOL    HW139326   2.378   0.465  14.865  1.8616  0.8619 -2.6714
 9230SOL    HW239327   2.406   0.543  14.989 -0.2951 -3.2218 -0.6584
 9231SOL     OW39328   0.617   3.897   8.290  0.5256 -0.2349  0.6394
 9231SOL    HW139329   0.587   3.909   8.381  2.4922 -0.1134  1.2592
 9231SOL    HW239330   0.600   3.805   8.274 -0.1775  0.0467 -0.2159
 9232SOL     OW39331   4.538   1.400   1.709  0.2069  0.0802 -0.5316
 9232SOL    HW139332   4.526   1.359   1.623  1.0518 -0.2139 -0.5138
 9232SOL    HW239333   4.446   1.388   1.733 -0.3717  0.3366 -2.6141
 9233SOL     OW39334   3.768   2.582   3.763  0.5082 -0.0516  0.6145
 9233SOL    HW139335   3.810   2.644   3.704 -1.7129  2.2035  1.3832
 9233SOL    HW239336   3.792   2.627   3.844  0.0740  1.6222 -0.1822
 9234SOL     OW39337   2.341   4.061  14.781 -0.2594 -0.1945 -0.4035
 9234SOL    HW139338   2.391   4.127  14.733  0.3895 -0.0385  0.4971
 9234SOL    HW239339   2.278   4.036  14.713 -2.4512  0.7880  1.2677
 9235SOL     OW39340   2.908   4.529  15.580 -0.0851 -0.0352  0.4496
 9235SOL    HW139341   2.870   4.525  15.492  2.1017  1.3990 -0.5496
 9235SOL    HW239342   3.002   4.525  15.564 -0.2260  3.0096 -1.1018
 9236SOL     OW39343   2.320   0.856   7.272 -0.7364  0.4653 -0.3912
 9236SOL    HW139344   2.303   0.836   7.364  0.3403 -1.3540 -0.5931
 9236SOL    HW239345   2.253   0.800   7.233  0.9897 -1.6768 -0.2662
 9237SOL     OW39346   2.018   3.330   6.250  0.7510 -0.1330 -0.1418
 9237SOL    HW139347   2.019   3.294   6.162  2.5002  0.9925 -0.5942
 9237SOL    HW239348   2.085   3.280   6.297  0.4497 -0.3587  0.0478
 9238SOL     OW39349   0.846   2.210   7.322  0.1080  0.0761  0.3492
 9238SOL    HW139350   0.781   2.243   7.259  0.7451  0.1332 -0.2658
 9238SOL    HW239351   0.809   2.238   7.406 -0.8026 -0.8472  0.2631
 9239SOL     OW39352   2.243   0.370   4.018  0.6611  0.1451  0.3640
 9239SOL    HW139353   2.276   0.281   4.030 -0.1450 -0.4703 -1.9384
 9239SOL    HW239354   2.240   0.379   3.923  1.8819  0.5794  0.3668
 9240SOL     OW39355   1.224   1.594   7.773  0.1175 -0.0286  0.0235
 9240SOL    HW139356   1.146   1.649   7.771 -0.9827 -1.6011 -0.1627
 9240SOL    HW239357   1.292   1.659   7.758 -0.6412  0.5641 -0.8431
 9241SOL     OW39358   4.635   1.512   4.333  0.6664  0.2561  0.2828
 9241SOL    HW139359   4.555   1.516   4.281 -0.4011  0.2410  1.9230
 9241SOL    HW239360   4.660   1.604   4.334  0.3257  0.3449  0.6950
 9242SOL     OW39361   4.477   4.384  10.134  0.0445 -0.2916  0.3386
 9242SOL    HW139362   4.422   4.460  10.112  0.7474 -0.1186 -0.8649
 9242SOL    HW239363   4.472   4.385  10.229  1.0677 -2.6002  0.4243
 9243SOL     OW39364   1.735   2.910   2.310 -0.3310  0.2467  0.2378
 9243SOL    HW139365   1.704   2.972   2.376 -0.9905 -0.0597  0.2113
 9243SOL    HW239366   1.802   2.958   2.261 -1.3371  1.0608 -0.3461
 9244SOL     OW39367   3.174   3.859   6.594  0.4825 -1.2320  0.1960
 9244SOL    HW139368   3.215   3.790   6.542  0.5274  0.1371 -1.5625
 9244SOL    HW239369   3.231   3.934   6.580 -0.8316 -0.7500 -2.5861
 9245SOL     OW39370   1.866   4.407   3.935 -0.1150  0.5634 -0.3501
 9245SOL    HW139371   1.886   4.363   4.017  0.6137  2.7573  0.6576
 9245SOL    HW239372   1.923   4.348   3.886 -0.2669  0.6791 -0.6716
 9246SOL     OW39373   1.680   0.772   8.757 -0.1046  0.2496  0.2485
 9246SOL    HW139374   1.700   0.799   8.846 -1.7613  2.1065  0.0367
 9246SOL    HW239375   1.737   0.833   8.709 -1.4226  1.3219  0.0742
 9247SOL     OW39376   0.094   0.816  10.536 -0.7654 -0.0793 -0.0492
 9247SOL    HW139377   0.138   0.746  10.488  0.1880  1.0678 -0.8298
 9247SOL    HW239378   0.114   0.797  10.628 -0.3298  0.8613  0.0435
 9248SOL     OW39379   0.556   1.383  16.213  0.0278 -0.0459  0.0228
 9248SOL    HW139380   0.491   1.388  16.284 -0.4421 -2.3256 -0.2695
 9248SOL    HW239381   0.497   1.355  16.144  0.6099 -1.0984 -0.0536
 9249SOL     OW39382   0.031   3.967  15.070 -0.4616  0.1014  0.3258
 9249SOL    HW139383   0.062   3.900  15.130 -2.3911  0.2712  1.5227
 9249SOL    HW239384   4.704   3.912  15.023  1.3933 -1.3360 -0.4579
 9250SOL     OW39385   3.088   0.729   9.769  0.8313  0.1385  0.1860
 9250SOL    HW139386   3.146   0.690   9.835  2.0495 -0.7333 -1.4017
 9250SOL    HW239387   3.048   0.799   9.821 -1.6762 -0.3466 -1.0806
 9251SOL     OW39388   3.589   4.182   5.956 -0.3544  0.0339  0.7578
 9251SOL    HW139389   3.661   4.229   5.996 -0.6749  1.5615 -0.4468
 9251SOL    HW239390   3.569   4.244   5.885 -2.1895 -0.5694  0.7497
 9252SOL     OW39391   1.727   4.299   7.038  0.2997 -0.3170  0.0373
 9252SOL    HW139392   1.772   4.331   6.960 -1.4403  1.5513 -0.1887
 9252SOL    HW239393   1.642   4.272   7.004 -0.3532  0.0061  1.4109
 9253SOL     OW39394   1.707   2.228   6.366 -0.0518  0.0472  0.3936
 9253SOL    HW139395   1.780   2.167   6.372 -2.3166 -2.6764  0.0921
 9253SOL    HW239396   1.734   2.292   6.432 -0.1204  1.6770 -1.1621
 9254SOL     OW39397   1.985   0.185   9.967 -0.1162  0.6797 -0.0152
 9254SOL    HW139398   1.926   0.110   9.965 -1.9964  2.1593 -0.3987
 9254SOL    HW239399   2.052   0.158  10.029  0.7867  0.6630 -0.9901
 9255SOL     OW39400   0.873   2.697   2.297 -0.7900  0.1832  0.2957
 9255SOL    HW139401   0.807   2.750   2.342 -0.3359 -0.7413  2.0531
 9255SOL    HW239402   0.856   2.610   2.334  0.3932  0.7971  2.2534
 9256SOL     OW39403   2.588   2.140   2.412  0.3593  0.3458 -0.4326
 9256SOL    HW139404   2.533   2.068   2.384  0.7025  0.7146 -2.0382
 9256SOL    HW239405   2.524   2.197   2.455 -1.8727 -2.1960 -0.4591
 9257SOL     OW39406   0.615   1.284   7.083 -0.7237 -0.0734  0.9114
 9257SOL    HW139407   0.684   1.297   7.148  1.3114  2.4858 -1.7598
 9257SOL    HW239408   0.588   1.195   7.107  4.3583 -1.9187 -0.2022
 9258SOL     OW39409   1.052   1.950   6.728  0.3756  0.3218 -0.3542
 9258SOL    HW139410   0.973   1.978   6.775  0.7562  1.9028 -0.6415
 9258SOL    HW239411   1.016   1.864   6.707  0.4230 -0.0999  1.3271
 9259SOL     OW39412   0.641   4.456   7.018  0.5269  0.4505  0.7880
 9259SOL    HW139413   0.681   4.432   7.102 -0.5027 -0.7584  0.9237
 9259SOL    HW239414   0.693   4.535   6.999  1.0637 -0.6056 -2.1531
 9260SOL     OW39415   4.480   1.751   8.718  0.0757 -0.1185  0.3086
 9260SOL    HW139416   4.436   1.758   8.803  0.1172 -2.7095  0.5331
 9260SOL    HW239417   4.560   1.802   8.732 -0.3841  0.8001 -0.4184
 9261SOL     OW39418   3.042   2.685   5.329  0.4117 -0.3311 -0.3424
 9261SOL    HW139419   3.023   2.762   5.382  2.2042  1.3965 -2.2407
 9261SOL    HW239420   2.960   2.637   5.338  0.2235  0.8550  4.2975
 9262SOL     OW39421   4.268   2.076   6.289  0.4965  0.0108  0.4234
 9262SOL    HW139422   4.280   2.136   6.363  0.3167  0.1309  0.3539
 9262SOL    HW239423   4.190   2.029   6.318  0.9723 -0.3796  1.0758
 9263SOL     OW39424   1.062   2.525   5.800  0.2282 -0.1813  0.0513
 9263SOL    HW139425   1.066   2.456   5.733  0.0554 -1.7324  1.6527
 9263SOL    HW239426   1.151   2.527   5.834  0.3705 -0.6024 -0.2900
 9264SOL     OW39427   3.939   4.570   7.088  0.2341 -0.2353  0.2704
 9264SOL    HW139428   3.942   4.476   7.070  2.7848  0.2282 -1.8294
 9264SOL    HW239429   3.862   4.586   7.034 -0.4706  0.5660  1.5248
 9265SOL     OW39430   3.121   2.047   9.050  0.0571 -0.3768 -0.6237
 9265SOL    HW139431   3.134   1.970   8.995 -0.7978 -1.1809  0.3011
 9265SOL    HW239432   3.063   2.006   9.113 -2.1022  1.2978 -1.5278
 9266SOL     OW39433   2.963   1.567  12.191  0.3310 -0.1085  0.2224
 9266SOL    HW139434   2.899   1.504  12.156 -3.4897  1.7103  3.8428
 9266SOL    HW239435   2.925   1.577  12.278 -2.2347  4.1338 -1.3774
 9267SOL     OW39436   0.261   4.527   8.188  0.1353  0.1033  0.0158
 9267SOL    HW139437   0.210   4.607   8.201 -1.1142 -0.6508 -0.2336
 9267SOL    HW239438   0.237   4.482   8.269 -2.4284  0.4622 -0.5571
 9268SOL     OW39439   0.535   3.402   0.783  0.5120  0.0222  0.0593
 9268SOL    HW139440   0.531   3.322   0.835  1.4532 -0.3063 -0.3786
 9268SOL    HW239441   0.550   3.374   0.693  0.2151  0.2173 -0.0558
 9269SOL     OW39442   1.350   0.662  14.638 -0.8137 -0.1302 -0.0517
 9269SOL    HW139443   1.261   0.685  14.612 -1.0805 -2.2580 -0.9555
 9269SOL    HW239444   1.392   0.644  14.554  0.1919  2.5175 -0.1130
 9270SOL     OW39445   2.286   4.678   2.414  0.0215 -0.5571 -0.1256
 9270SOL    HW139446   2.303   4.712   2.326  2.2391  0.0775  0.5481
 9270SOL    HW239447   2.338   4.598   2.425 -0.2547 -0.6112  0.8428
 9271SOL     OW39448   1.450   3.409  11.982 -0.2357  0.0769 -0.1447
 9271SOL    HW139449   1.424   3.498  12.005  0.4095  0.4830 -1.0266
 9271SOL    HW239450   1.368   3.368  12.010 -0.4701 -0.0762 -1.0628
 9272SOL     OW39451   3.506   2.142  12.678 -0.0758  0.7795  0.2472
 9272SOL    HW139452   3.454   2.080  12.730  0.2899 -1.2980 -1.8603
 9272SOL    HW239453   3.592   2.116  12.711 -0.3153 -1.0169 -0.5065
 9273SOL     OW39454   0.056   0.241   0.453 -0.3559  0.1676 -0.4882
 9273SOL    HW139455   0.050   0.298   0.377 -0.2232 -2.6797 -2.6415
 9273SOL    HW239456   0.025   0.159   0.414  3.6422 -1.7079  0.2882
 9274SOL     OW39457   1.078   3.901   2.031 -0.0288 -0.4435 -0.2792
 9274SOL    HW139458   1.041   3.879   2.116 -0.2072  2.1250  0.3254
 9274SOL    HW239459   1.139   3.828   2.023  0.8062 -0.0635  2.6515
 9275SOL     OW39460   3.364   1.847  16.209  0.2538  0.0110  0.4816
 9275SOL    HW139461   3.412   1.776  16.167 -1.9120  0.0645 -2.0472
 9275SOL    HW239462   3.276   1.811  16.209  0.4043 -0.3554  0.5635
 9276SOL     OW39463   3.225   4.598   7.286  0.0568  0.4426 -0.5464
 9276SOL    HW139464   3.241   4.641   7.202 -2.0158  0.8194 -0.7452
 9276SOL    HW239465   3.152   4.541   7.262 -1.3315  2.3006 -0.7605
 9277SOL     OW39466   1.516   1.193   5.938  0.2062 -0.0748 -0.2024
 9277SOL    HW139467   1.424   1.217   5.947  0.7620  2.0712 -0.1380
 9277SOL    HW239468   1.514   1.115   5.884 -0.0236 -0.4106  0.2939
 9278SOL     OW39469   1.235   2.762   4.989 -0.0517 -0.0126  0.7470
 9278SOL    HW139470   1.265   2.675   4.966 -0.0878 -0.2135  1.4648
 9278SOL    HW239471   1.314   2.804   4.955  2.0428 -1.9531  3.2552
 9279SOL     OW39472   3.859   3.099   9.042  0.2403  0.2556 -0.0557
 9279SOL    HW139473   3.820   3.129   9.125 -3.1156 -0.7066 -1.2909
 9279SOL    HW239474   3.787   3.045   9.010 -0.4225  0.5611  0.9030
 9280SOL     OW39475   0.390   0.349   5.008 -0.3348  0.4720 -0.0376
 9280SOL    HW139476   0.314   0.361   5.066 -1.0858  1.8200 -1.3153
 9280SOL    HW239477   0.375   0.418   4.944  2.4420 -0.5452 -1.7980
 9281SOL     OW39478   0.195   1.130   4.429 -0.3454  0.2060  0.6785
 9281SOL    HW139479   0.255   1.199   4.400 -0.2207 -1.2900 -2.6132
 9281SOL    HW239480   0.114   1.176   4.449 -0.1824  0.7937  0.0093
 9282SOL     OW39481   3.724   4.229   4.863 -0.0820 -0.2106 -0.4752
 9282SOL    HW139482   3.664   4.275   4.805 -1.3627 -1.4173 -0.1128
 9282SOL    HW239483   3.750   4.156   4.806  2.4153 -1.2851  2.0107
 9283SOL     OW39484   2.996   2.573  15.717  0.3054 -0.5122 -0.1545
 9283SOL    HW139485   3.001   2.520  15.797  2.6645  2.6908  1.8305
 9283SOL    HW239486   2.970   2.659  15.750  1.1538 -0.1907 -0.3374
 9284SOL     OW39487   0.213   4.716  14.158  0.0180 -0.4567  0.3040
 9284SOL    HW139488   0.272   4.661  14.106 -1.7096  0.3604 -2.5810
 9284SOL    HW239489   0.147   0.005  14.093 -0.9488  1.0249  1.8592
 9285SOL     OW39490   0.757   0.523  10.942  0.2701 -0.1378  0.1007
 9285SOL    HW139491   0.849   0.502  10.958  0.1917  0.3891  1.2690
 9285SOL    HW239492   0.763   0.619  10.940 -0.2612 -0.1164 -0.5183
 9286SOL     OW39493   3.661   2.068   2.827  0.2904 -0.3114  0.0329
 9286SOL    HW139494   3.653   2.103   2.739 -0.7381 -3.5226 -1.1300
 9286SOL    HW239495   3.738   2.012   2.825 -0.2245 -1.0060 -0.6662
 9287SOL     OW39496   3.704   1.593  11.791  0.0607  0.1374 -0.1054
 9287SOL    HW139497   3.623   1.568  11.746  0.4250 -2.8301  0.8547
 9287SOL    HW239498   3.698   1.688  11.803 -2.0530  0.2780 -2.3611
 9288SOL     OW39499   1.503   3.558  14.973 -0.5491 -0.1417  0.2073
 9288SOL    HW139500   1.591   3.596  14.984 -0.1204 -1.1343  0.1870
 9288SOL    HW239501   1.526   3.479  14.925  0.6079  1.4262 -1.8400
 9289SOL     OW39502   0.110   0.785   8.927  1.1864  0.2250  0.0898
 9289SOL    HW139503   0.029   0.818   8.888 -0.3979 -2.8957  0.7704
 9289SOL    HW239504   0.124   0.704   8.879  1.3687  0.7874 -0.8077
 9290SOL     OW39505   3.778   0.317   8.045 -0.1699  0.3142  0.6805
 9290SOL    HW139506   3.835   0.294   8.120  1.9005  1.1540 -0.6334
 9290SOL    HW239507   3.840   0.362   7.988 -0.1324 -0.0997  0.3969
 9291SOL     OW39508   3.319   0.142   4.592 -0.0504  0.1317  0.2721
 9291SOL    HW139509   3.303   0.051   4.616  0.0143  0.1663  0.4475
 9291SOL    HW239510   3.261   0.186   4.655 -1.3481 -1.0890 -0.0585
 9292SOL     OW39511   2.313   1.253   8.350  0.4158  0.2835 -0.2888
 9292SOL    HW139512   2.369   1.322   8.314  2.3040 -0.4936  1.1521
 9292SOL    HW239513   2.230   1.300   8.364  0.2546 -0.5131  1.4360
 9293SOL     OW39514   4.603   2.942  15.885  0.3457 -0.0981 -0.5497
 9293SOL    HW139515   4.640   2.859  15.915  0.3426  0.8992  2.1925
 9293SOL    HW239516   4.526   2.915  15.834 -1.3487 -1.7765  2.8651
 9294SOL     OW39517   3.053   4.446   7.181  0.0100  0.1668 -0.1346
 9294SOL    HW139518   2.974   4.490   7.212  0.8472  1.8672 -0.4166
 9294SOL    HW239519   3.027   4.388   7.109  0.2599  0.5657 -0.5459
 9295SOL     OW39520   3.510   3.112   3.779 -0.2061 -0.2943 -0.7102
 9295SOL    HW139521   3.463   3.032   3.757 -2.2793  0.6442  0.3377
 9295SOL    HW239522   3.573   3.089   3.848  1.5860 -0.4874 -2.4135
 9296SOL     OW39523   1.668   1.873   8.056  0.1772 -0.0978 -0.5573
 9296SOL    HW139524   1.618   1.947   8.021  0.1573  1.1844  2.2320
 9296SOL    HW239525   1.600   1.828   8.106  0.5134 -2.3449 -2.1413
 9297SOL     OW39526   3.490   1.590  17.282  0.3360  0.2569 -0.0076
 9297SOL    HW139527   3.581   1.617  17.293  0.6480 -0.1328 -1.6467
 9297SOL    HW239528   3.503   1.495  17.276 -0.1497  0.3264 -2.3626
 9298SOL     OW39529   3.338   4.566   4.925  0.1472 -0.0024  0.0364
 9298SOL    HW139530   3.423   4.602   4.902 -1.0355  0.6772 -3.2716
 9298SOL    HW239531   3.365   4.503   4.991 -2.4456 -2.2820 -1.0503
 9299SOL     OW39532   0.449   0.185   7.218 -0.1943 -0.1016 -0.1169
 9299SOL    HW139533   0.386   0.113   7.215  0.0090 -0.1914 -2.2734
 9299SOL    HW239534   0.510   0.158   7.150  0.1082  0.4055 -0.0449
 9300SOL     OW39535   1.195   1.924   0.593  0.1691 -0.3936 -0.3753
 9300SOL    HW139536   1.264   1.890   0.537 -1.4992 -1.8827 -1.5419
 9300SOL    HW239537   1.215   2.017   0.587 -2.8956  0.2885 -0.3151
 9301SOL     OW39538   3.442   3.626   2.126 -0.3575  0.6967 -0.1878
 9301SOL    HW139539   3.358   3.589   2.098  0.0682 -0.1997 -0.2883
 9301SOL    HW239540   3.492   3.596   2.050 -0.9798  1.0911 -0.7525
 9302SOL     OW39541   4.121   3.899   4.249  0.2589  0.0295  0.4187
 9302SOL    HW139542   4.216   3.893   4.255  0.4669 -0.5786 -3.6079
 9302SOL    HW239543   4.114   3.978   4.195  1.2381  0.6217  1.1544
 9303SOL     OW39544   2.105   3.626   8.803 -0.1371  0.2843 -0.3064
 9303SOL    HW139545   2.112   3.644   8.709 -1.5006  0.9142 -0.2932
 9303SOL    HW239546   2.120   3.719   8.817 -0.8848  0.3569  0.0188
 9304SOL     OW39547   2.306   2.704   3.720 -0.4750 -0.8201 -0.0765
 9304SOL    HW139548   2.249   2.767   3.678 -1.0676 -1.8907 -0.8798
 9304SOL    HW239549   2.249   2.676   3.792 -0.1419 -4.4475 -1.2145
 9305SOL     OW39550   4.129   3.517   0.748  0.1057  0.3624  0.2624
 9305SOL    HW139551   4.141   3.523   0.843  1.2583  1.9222  0.0184
 9305SOL    HW239552   4.204   3.569   0.720  0.0302  0.2666 -0.1080
 9306SOL     OW39553   3.042   3.600   7.055  0.1946 -0.4578 -0.1730
 9306SOL    HW139554   3.037   3.684   7.008 -2.4480  1.1897  3.0428
 9306SOL    HW239555   3.136   3.587   7.065 -0.6659 -4.0686  2.7946
 9307SOL     OW39556   4.142   2.167   2.470  0.1931 -0.0861  0.5607
 9307SOL    HW139557   4.101   2.190   2.387  2.3106 -0.4925 -0.6045
 9307SOL    HW239558   4.198   2.244   2.483 -0.3752  0.3728  0.3191
 9308SOL     OW39559   1.978   1.989   7.721 -0.0503 -0.0683  0.3313
 9308SOL    HW139560   1.897   2.035   7.696 -0.2639 -0.8834 -0.4681
 9308SOL    HW239561   1.948   1.955   7.806 -0.2859  1.5396  0.8969
 9309SOL     OW39562   0.846   2.126   6.862 -0.1232  0.2972 -0.0335
 9309SOL    HW139563   0.863   2.217   6.836  2.7022 -0.0141  0.6983
 9309SOL    HW239564   0.759   2.123   6.823  0.1821 -2.5433 -0.5164
 9310SOL     OW39565   4.021   3.519  15.832 -0.1235 -0.0369  0.3868
 9310SOL    HW139566   3.983   3.548  15.749 -0.5850  0.3838  0.7460
 9310SOL    HW239567   4.089   3.582  15.854 -1.6086  1.7391 -0.0753
 9311SOL     OW39568   3.518   2.764   6.345 -0.4033 -0.2730 -0.0293
 9311SOL    HW139569   3.466   2.844   6.345  0.7888  0.5038 -3.0846
 9311SOL    HW239570   3.479   2.718   6.419 -1.0796  1.6549  0.8000
 9312SOL     OW39571   3.460   0.576  13.955  0.1788  0.6987 -0.6018
 9312SOL    HW139572   3.507   0.599  14.035  0.9051 -0.0178 -0.8190
 9312SOL    HW239573   3.383   0.632  13.958 -1.0635 -1.1739  1.7418
 9313SOL     OW39574   4.154   1.573   5.807 -0.4970 -0.5699  0.7338
 9313SOL    HW139575   4.213   1.497   5.802  1.3035  0.9934 -1.3350
 9313SOL    HW239576   4.140   1.580   5.713 -0.6655  0.2207  0.8241
 9314SOL     OW39577   3.614   1.088   0.142 -0.8095  0.3303 -0.3656
 9314SOL    HW139578   3.549   1.027   0.176 -0.3548  0.0406 -0.0143
 9314SOL    HW239579   3.604   1.071   0.048 -0.9043  0.1726 -0.3268
 9315SOL     OW39580   0.113   2.724  12.576  0.1687 -0.0835 -0.0538
 9315SOL    HW139581   0.075   2.763  12.655  1.4919 -1.0680  1.0519
 9315SOL    HW239582   0.067   2.641  12.585  0.9752 -0.6508 -1.1537
 9316SOL     OW39583   0.359   0.650   3.041 -0.0763 -0.2136 -0.4157
 9316SOL    HW139584   0.350   0.605   3.125  2.2293 -0.6883 -0.4300
 9316SOL    HW239585   0.332   0.741   3.055  0.8205 -0.0516  0.2651
 9317SOL     OW39586   0.103   1.266  11.320  0.1165  0.5593  0.2455
 9317SOL    HW139587   0.058   1.292  11.400  0.1845  0.0019  0.4662
 9317SOL    HW239588   0.169   1.200  11.343 -1.0919 -1.2905 -1.6356
 9318SOL     OW39589   0.032   3.666   2.829  0.3019  0.2391 -0.4550
 9318SOL    HW139590   4.723   3.745   2.802 -0.8433  0.0009  0.7382
 9318SOL    HW239591   0.041   3.616   2.748 -1.6889  3.0628 -2.4068
 9319SOL     OW39592   4.692   2.995  13.819  0.2320  0.0511 -0.5051
 9319SOL    HW139593   4.668   2.916  13.866  1.2308  0.4650  0.6917
 9319SOL    HW239594   4.647   3.064  13.868 -0.6725 -0.9522  0.0514
 9320SOL     OW39595   1.066   3.210  11.018  0.0501 -0.5740  0.8207
 9320SOL    HW139596   1.004   3.170  10.957 -0.1694  1.9316 -0.5663
 9320SOL    HW239597   1.025   3.296  11.016 -1.7756 -1.4635 -0.3495
 9321SOL     OW39598   2.944   3.330   6.057 -0.3281 -0.6354  0.4169
 9321SOL    HW139599   3.035   3.299   6.068 -0.0956  0.7560  2.4877
 9321SOL    HW239600   2.944   3.402   6.120 -2.3049 -2.4263  2.4319
 9322SOL     OW39601   1.780   0.681   9.984  0.8353 -0.5671  0.4025
 9322SOL    HW139602   1.831   0.612   9.940 -1.4636 -0.9562 -1.6158
 9322SOL    HW239603   1.844   0.709  10.050  0.7447 -1.2753  0.7868
 9323SOL     OW39604   3.969   3.194   6.863 -0.0389 -0.2351 -0.5059
 9323SOL    HW139605   4.047   3.243   6.837 -0.6480  1.7527  1.3990
 9323SOL    HW239606   4.007   3.113   6.830 -3.2154 -2.0594  0.2909
 9324SOL     OW39607   1.362   0.138  15.076 -0.3942 -0.0321 -0.7260
 9324SOL    HW139608   1.339   0.196  15.148  0.6519 -0.2282 -0.2292
 9324SOL    HW239609   1.388   0.206  15.014 -0.5301  0.6780  0.0048
 9325SOL     OW39610   1.010   4.048   4.828  0.7385 -0.2573 -0.1758
 9325SOL    HW139611   1.070   4.123   4.830  0.7636 -0.2349 -1.7884
 9325SOL    HW239612   0.931   4.082   4.871  2.2192  3.6360 -0.4971
 9326SOL     OW39613   3.912   1.540   1.789  0.5333  0.9053 -0.0971
 9326SOL    HW139614   3.947   1.624   1.758 -1.4337  1.9302  0.4792
 9326SOL    HW239615   3.848   1.580   1.847 -0.1452  2.1266 -1.6742
 9327SOL     OW39616   1.641   3.054   9.148  0.2064 -0.0745 -0.1826
 9327SOL    HW139617   1.626   3.018   9.060 -0.8223  0.6146 -0.2751
 9327SOL    HW239618   1.717   3.002   9.174  0.0855 -0.2389 -0.1570
 9328SOL     OW39619   3.203   3.016   4.060  0.1472  0.0178  0.6277
 9328SOL    HW139620   3.185   2.931   4.020 -0.4266 -0.1115  1.1578
 9328SOL    HW239621   3.141   3.009   4.132 -0.2288  0.8239  0.3742
 9329SOL     OW39622   2.311   0.471   1.553 -0.4627  0.5575 -0.5733
 9329SOL    HW139623   2.225   0.485   1.592 -0.4886 -1.9546  0.3364
 9329SOL    HW239624   2.281   0.413   1.483 -0.8630 -1.1794  1.0104
 9330SOL     OW39625   0.123   2.139   9.055 -0.5568  0.0775  0.0132
 9330SOL    HW139626   0.082   2.214   9.100  0.6877  2.7886 -3.3751
 9330SOL    HW239627   0.149   2.190   8.978 -1.5096 -1.4711 -1.3118
 9331SOL     OW39628   4.736   0.738   2.061 -0.1514  0.1302  0.2126
 9331SOL    HW139629   0.010   0.788   2.142 -0.0988 -0.8489  0.8173
 9331SOL    HW239630   0.039   0.651   2.068 -2.4887 -0.9077  0.8961
 9332SOL     OW39631   4.693   2.340   7.523  0.2132  0.0549  0.0886
 9332SOL    HW139632   4.709   2.259   7.570 -0.4228  0.0667  0.3225
 9332SOL    HW239633   4.597   2.339   7.523  0.2209  0.1955  2.2495
 9333SOL     OW39634   2.838   2.488  17.702  0.3552  0.0725  0.0050
 9333SOL    HW139635   2.900   2.415  17.715 -1.3977 -1.3212  0.6282
 9333SOL    HW239636   2.765   2.450   0.007  1.2792  0.4787  1.7136
 9334SOL     OW39637   2.947   1.334  10.024 -0.1212 -0.2428  0.0045
 9334SOL    HW139638   2.930   1.411  10.079  0.9369  0.1055 -0.1537
 9334SOL    HW239639   2.879   1.282  10.066  0.6000  0.0131  1.4979
 9335SOL     OW39640   0.548   2.564   5.228 -0.0421  0.4279  0.0853
 9335SOL    HW139641   0.454   2.557   5.208 -0.2821 -1.2359  1.8370
 9335SOL    HW239642   0.555   2.659   5.243  0.8248  0.3587  0.1014
 9336SOL     OW39643   0.001   3.155  15.976 -0.2404  0.4294 -0.2432
 9336SOL    HW139644   4.716   3.151  16.069 -0.9419  2.0303 -0.3443
 9336SOL    HW239645   4.706   3.069  15.948 -0.7192  0.6938 -0.5260
 9337SOL     OW39646   1.081   2.199  16.359 -0.2322 -0.1044  0.2701
 9337SOL    HW139647   1.133   2.120  16.371 -0.0824  0.0111  0.3882
 9337SOL    HW239648   1.071   2.222  16.451 -3.1792 -0.4927  0.0341
 9338SOL     OW39649   3.787   3.743   1.237  0.3713  0.5252 -0.4460
 9338SOL    HW139650   3.825   3.820   1.279  1.0371 -0.3680  0.5751
 9338SOL    HW239651   3.703   3.780   1.208 -0.6077 -0.4236  1.1651
 9339SOL     OW39652   3.547   3.466   2.634  0.0883  0.5236 -0.2346
 9339SOL    HW139653   3.493   3.390   2.654  1.1027  0.1902  1.3301
 9339SOL    HW239654   3.484   3.537   2.621 -0.6697  0.2900  2.2106
 9340SOL     OW39655   3.306   4.046  11.656 -0.3132  0.6455 -0.1430
 9340SOL    HW139656   3.382   3.988  11.656 -0.1554  0.8848 -3.0950
 9340SOL    HW239657   3.249   3.996  11.598  1.1626 -3.3109  1.7787
 9341SOL     OW39658   2.466   2.868   9.126 -0.1441 -0.0863  0.0640
 9341SOL    HW139659   2.493   2.853   9.035 -0.2337 -0.0450  0.0313
 9341SOL    HW239660   2.520   2.945   9.147 -3.2806  1.7303  1.4847
 9342SOL     OW39661   4.535   0.991   9.364 -0.5314  0.2182 -0.3635
 9342SOL    HW139662   4.598   0.994   9.292 -0.6226 -2.4475 -0.5648
 9342SOL    HW239663   4.486   0.910   9.345 -0.8893  0.0365  1.3058
 9343SOL     OW39664   1.430   3.744   6.584  0.4030 -0.0725  0.2843
 9343SOL    HW139665   1.512   3.729   6.538  0.8676  1.5960  0.5593
 9343SOL    HW239666   1.372   3.682   6.540 -1.0094  0.7563  0.9623
 9344SOL     OW39667   0.898   4.711   7.286  0.2889  0.2327 -0.0418
 9344SOL    HW139668   0.819   4.671   7.321  2.0607 -2.1149  1.2811
 9344SOL    HW239669   0.962   4.678   7.348  0.0794  1.7226  0.9728
 9345SOL     OW39670   2.917   0.466   1.201 -0.0099  0.2845 -0.2162
 9345SOL    HW139671   2.951   0.436   1.117  0.4377 -0.1678  0.1235
 9345SOL    HW239672   2.955   0.551   1.221 -1.2382  1.5161 -3.1188
 9346SOL     OW39673   3.487   3.755   9.408  0.4457 -0.5286  0.3883
 9346SOL    HW139674   3.454   3.712   9.329 -2.7124 -1.1589  2.0380
 9346SOL    HW239675   3.504   3.847   9.386  2.5455 -0.8056  0.9059
 9347SOL     OW39676   0.962   0.266  15.779  0.2042 -0.0987  0.0364
 9347SOL    HW139677   1.026   0.236  15.843 -0.1096 -1.0427 -0.0922
 9347SOL    HW239678   1.026   0.297  15.716 -0.4217 -1.0137 -1.0443
 9348SOL     OW39679   4.273   1.802   3.636 -0.9952 -0.3202  0.1658
 9348SOL    HW139680   4.291   1.895   3.649  1.6181 -0.6585 -0.9555
 9348SOL    HW239681   4.198   1.782   3.691 -0.7018  1.4152  1.1644
 9349SOL     OW39682   3.638   4.629  14.640  0.2948  0.0746  0.5703
 9349SOL    HW139683   3.701   4.557  14.638  0.5948  0.3897 -1.6523
 9349SOL    HW239684   3.595   4.626  14.555  1.1045  1.7115  0.0986
 9350SOL     OW39685   3.745   4.559   8.796 -0.3740  0.2377 -0.0346
 9350SOL    HW139686   3.791   4.601   8.869 -0.5758  1.1429 -0.4288
 9350SOL    HW239687   3.664   4.610   8.804  0.0667  0.9882 -0.3313
 9351SOL     OW39688   3.964   0.691  12.784 -0.0327 -0.6045 -0.2373
 9351SOL    HW139689   3.904   0.663  12.853  2.9146 -1.0577  2.1837
 9351SOL    HW239690   4.027   0.734  12.842  0.6384  0.0099 -1.4232
 9352SOL     OW39691   3.302   3.816   3.985  0.6173 -0.4270  0.3322
 9352SOL    HW139692   3.236   3.835   3.919  0.1436 -0.7045  0.7254
 9352SOL    HW239693   3.350   3.898   3.983 -1.2368  0.6658  0.4219
 9353SOL     OW39694   2.047   1.245   5.774  0.7877 -0.2539  0.1787
 9353SOL    HW139695   2.062   1.193   5.695  0.4677  1.0963 -0.7677
 9353SOL    HW239696   1.952   1.247   5.761  0.6597  0.0604  1.2136
 9354SOL     OW39697   4.702   1.680  15.251 -0.0831 -0.3061  0.6154
 9354SOL    HW139698   0.007   1.688  15.165 -2.2181 -1.9164 -0.5708
 9354SOL    HW239699   0.043   1.699  15.305 -0.9831 -0.4236  1.9421
 9355SOL     OW39700   3.421   2.767   1.185  0.0647  0.1463  0.1923
 9355SOL    HW139701   3.447   2.846   1.137  0.3472  0.0193  0.1318
 9355SOL    HW239702   3.327   2.756   1.170  0.0517  1.6273 -0.8360
 9356SOL     OW39703   3.222   2.833   8.480 -0.5338 -0.2076  0.2916
 9356SOL    HW139704   3.148   2.884   8.515 -1.0102 -1.2374  0.7948
 9356SOL    HW239705   3.274   2.824   8.560 -0.3946  2.1132  0.4505
 9357SOL     OW39706   0.845   3.857   3.396  0.4756 -0.2408  0.0463
 9357SOL    HW139707   0.870   3.862   3.304  1.5032  1.0657  0.3987
 9357SOL    HW239708   0.786   3.782   3.394 -0.6652  0.6208  1.7832
 9358SOL     OW39709   3.652   2.630   4.655  0.0960 -0.7768  0.4041
 9358SOL    HW139710   3.561   2.656   4.666  0.3117 -0.5495  1.6314
 9358SOL    HW239711   3.664   2.647   4.562  1.4340 -2.5880  0.2417
 9359SOL     OW39712   2.741   0.620   0.575  0.2761 -0.1330  0.4403
 9359SOL    HW139713   2.752   0.595   0.483 -1.0611  0.4040  0.1360
 9359SOL    HW239714   2.647   0.637   0.582  0.2498 -0.4347  0.8427
 9360SOL     OW39715   4.340   2.181  10.415 -0.0865 -0.0205 -0.3344
 9360SOL    HW139716   4.268   2.119  10.417 -1.3449  1.4127 -0.8260
 9360SOL    HW239717   4.315   2.228  10.495 -0.8051  0.9393 -1.1222
 9361SOL     OW39718   3.013   0.872   3.892  0.1171  0.2529  0.1543
 9361SOL    HW139719   2.952   0.809   3.929 -0.6966 -1.2634 -3.7146
 9361SOL    HW239720   2.977   0.947   3.939 -0.3246  0.3092 -0.2756
 9362SOL     OW39721   1.528   2.624   6.331  0.2188  0.8839  0.1714
 9362SOL    HW139722   1.458   2.582   6.282  0.4895  1.6718 -0.9022
 9362SOL    HW239723   1.492   2.713   6.331  0.8650  1.1425 -1.2541
 9363SOL     OW39724   0.020   0.329   4.470 -0.0817 -0.5954  0.4139
 9363SOL    HW139725   0.075   0.275   4.526 -2.0938 -1.8347  1.1617
 9363SOL    HW239726   4.681   0.339   4.529  0.0565 -0.6455  0.5987
 9364SOL     OW39727   4.656   0.663  17.340 -0.2083 -0.1259 -0.3930
 9364SOL    HW139728   4.617   0.647  17.255 -1.2918 -0.0013  0.0825
 9364SOL    HW239729   4.720   0.731  17.318  2.4847 -2.4797  0.1873
 9365SOL     OW39730   1.013   2.163   8.267  0.0403 -0.2433 -0.1470
 9365SOL    HW139731   1.033   2.234   8.329 -0.6171  0.9312 -1.2752
 9365SOL    HW239732   0.974   2.099   8.326  0.4358 -2.8251 -2.6601
 9366SOL     OW39733   2.148   3.800   9.908  0.2294 -0.8991 -0.3506
 9366SOL    HW139734   2.217   3.734   9.911 -0.8759 -2.0362  0.0135
 9366SOL    HW239735   2.086   3.756   9.850 -1.4207 -0.2042  0.8920
 9367SOL     OW39736   3.287   3.708   9.605  0.9279  0.2798  0.0234
 9367SOL    HW139737   3.293   3.632   9.664  0.2140  3.4446  4.1418
 9367SOL    HW239738   3.366   3.707   9.551 -0.4006 -1.8926 -1.9134
 9368SOL     OW39739   2.406   1.549  15.928 -0.2805  0.6131 -0.0091
 9368SOL    HW139740   2.479   1.495  15.897  0.4354  1.4685  0.1688
 9368SOL    HW239741   2.444   1.613  15.987 -1.9138  0.9286  0.6966
 9369SOL     OW39742   2.967   4.727  13.931 -0.3606 -0.1276  0.3763
 9369SOL    HW139743   2.976   0.084  13.917  1.6793 -0.3664  0.0269
 9369SOL    HW239744   2.935   4.709  14.020 -0.9125  1.6105  0.5274
 9370SOL     OW39745   0.352   1.787   3.465 -0.9954  0.2146 -0.3555
 9370SOL    HW139746   0.346   1.726   3.539  1.8784  1.0213  0.5322
 9370SOL    HW239747   0.288   1.749   3.405  1.9096 -2.8840 -1.5291
 9371SOL     OW39748   4.289   1.249   5.225  0.5135  0.4188 -0.3300
 9371SOL    HW139749   4.350   1.176   5.213 -0.8269 -0.6104 -0.8362
 9371SOL    HW239750   4.344   1.304   5.280  0.9017 -0.9746  0.6695
 9372SOL     OW39751   1.393   1.368   0.298 -0.1107 -0.6511 -0.0663
 9372SOL    HW139752   1.384   1.447   0.245 -2.2918 -1.3189 -0.6630
 9372SOL    HW239753   1.374   1.313   0.223 -0.0060  2.8008 -2.5902
 9373SOL     OW39754   0.511   2.564  11.126  0.2991  1.1011  0.7570
 9373SOL    HW139755   0.456   2.641  11.113 -0.8784  0.1895  0.3640
 9373SOL    HW239756   0.448   2.508  11.171  0.7160 -1.8525 -2.3056
 9374SOL     OW39757   1.229   1.901   3.920 -0.5779 -0.0076  0.7986
 9374SOL    HW139758   1.246   1.857   4.003  1.5147 -0.6540  0.0292
 9374SOL    HW239759   1.153   1.952   3.949 -0.3427  0.1978  1.0620
 9375SOL     OW39760   2.247   1.867   6.125  0.0037 -0.1589  0.4815
 9375SOL    HW139761   2.317   1.822   6.077  1.6075  0.5797  2.1077
 9375SOL    HW239762   2.298   1.882   6.205 -1.5538  0.3651  1.3580
 9376SOL     OW39763   4.171   0.826   3.440  0.0205 -0.2049 -0.0467
 9376SOL    HW139764   4.263   0.838   3.465 -0.2551  1.2795  0.2873
 9376SOL    HW239765   4.154   0.886   3.368  3.2258  0.9997  0.2006
 9377SOL     OW39766   1.553   1.577   5.649  0.4621 -0.4170 -0.1689
 9377SOL    HW139767   1.628   1.576   5.707  0.8520 -0.3242 -0.6745
 9377SOL    HW239768   1.488   1.589   5.718 -0.8254 -2.0467 -1.0839
 9378SOL     OW39769   2.870   1.734   8.380 -0.0321 -0.0179 -0.6219
 9378SOL    HW139770   2.827   1.782   8.452  0.2345  0.7935 -1.0031
 9378SOL    HW239771   2.957   1.771   8.367  0.5379 -1.3798 -0.6490
 9379SOL     OW39772   2.973   4.467   9.987  0.4129  0.2713  0.0163
 9379SOL    HW139773   2.892   4.423   9.962  0.7852  0.6630 -1.8723
 9379SOL    HW239774   3.034   4.400   9.956 -3.2078 -3.0922  0.2633
 9380SOL     OW39775   0.528   0.228   6.539 -0.2313 -0.4510 -0.5296
 9380SOL    HW139776   0.554   0.146   6.580 -1.3011 -0.1849  0.6745
 9380SOL    HW239777   0.503   0.275   6.619 -0.1590  0.2935 -0.9418
 9381SOL     OW39778   3.662   3.782   2.654  0.3508  0.0807  0.0609
 9381SOL    HW139779   3.729   3.802   2.720  0.7424  1.6561 -0.8050
 9381SOL    HW239780   3.688   3.698   2.617  1.1148 -0.0571  0.9030
 9382SOL     OW39781   1.435   2.820   9.400  0.2605  0.1723 -0.3100
 9382SOL    HW139782   1.404   2.900   9.357  2.2618  0.9656 -0.2981
 9382SOL    HW239783   1.385   2.830   9.481 -0.5536 -0.1660 -0.7728
 9383SOL     OW39784   3.659   4.085  10.985 -0.1800  0.0871 -0.1545
 9383SOL    HW139785   3.747   4.088  10.949 -0.6351 -1.1719 -1.3375
 9383SOL    HW239786   3.673   4.004  11.034 -0.0313  0.2943  0.1470
 9384SOL     OW39787   2.580   3.875   7.073  0.4494 -0.1479  0.2673
 9384SOL    HW139788   2.655   3.835   7.031 -0.5150 -0.6631 -0.9507
 9384SOL    HW239789   2.542   3.926   7.001 -1.8199  0.0088  1.5653
 9385SOL     OW39790   0.187   1.049   5.424 -0.7833  0.1349 -0.4488
 9385SOL    HW139791   0.205   1.116   5.490  0.2943 -0.4914 -0.0854
 9385SOL    HW239792   0.131   0.992   5.478 -0.5950  0.8312  0.4774
 9386SOL     OW39793   2.538   1.836   4.885 -0.3022  0.0133 -0.3288
 9386SOL    HW139794   2.609   1.897   4.864 -0.2734  0.7557  1.9759
 9386SOL    HW239795   2.460   1.890   4.901 -1.4135 -1.0908 -2.0456
 9387SOL     OW39796   3.698   0.961   3.715 -0.1123 -0.2225 -0.1366
 9387SOL    HW139797   3.618   0.952   3.766 -0.6036  2.1604 -0.4835
 9387SOL    HW239798   3.764   0.934   3.779  2.2134 -0.4188 -2.6294
 9388SOL     OW39799   1.513   2.256   9.317  0.3728  0.0223 -0.5962
 9388SOL    HW139800   1.427   2.258   9.275  0.0413 -1.1067  0.0379
 9388SOL    HW239801   1.565   2.294   9.246  1.9399 -0.7170  0.1632
 9389SOL     OW39802   1.279   0.358   4.708  0.1359  0.6346  0.5498
 9389SOL    HW139803   1.192   0.319   4.711  1.6411 -2.6759  0.4492
 9389SOL    HW239804   1.337   0.288   4.680  1.9158  1.2990  2.5964
 9390SOL     OW39805   0.677   2.689   0.471  0.2825 -0.7853  0.4664
 9390SOL    HW139806   0.617   2.680   0.545 -1.2512 -0.7305 -0.7695
 9390SOL    HW239807   0.713   2.600   0.466  0.1462 -0.8963  1.4898
 9391SOL     OW39808   1.595   4.490  17.170 -0.2113  0.4764 -0.4503
 9391SOL    HW139809   1.552   4.537  17.242 -1.7332 -0.2036 -0.9191
 9391SOL    HW239810   1.675   4.541  17.157  0.4996  0.0925  2.5209
 9392SOL     OW39811   3.424   1.945   6.381 -0.2233  0.3681 -0.1549
 9392SOL    HW139812   3.385   1.984   6.459  0.4917  0.9261 -0.0859
 9392SOL    HW239813   3.503   1.998   6.375 -2.5608  3.5772 -2.5046
 9393SOL     OW39814   0.353   3.856   0.008  0.2442  0.2720  0.3378
 9393SOL    HW139815   0.335   3.775   0.055 -0.8866  0.1638 -0.2865
 9393SOL    HW239816   0.448   3.869   0.013  0.5687 -1.9889 -0.0515
 9394SOL     OW39817   4.432   2.748  15.283  0.3471  0.2388  0.7797
 9394SOL    HW139818   4.482   2.711  15.356 -1.8402 -0.2004  2.0764
 9394SOL    HW239819   4.370   2.809  15.324 -1.9116 -0.2714 -1.8812
 9395SOL     OW39820   0.299   3.506   4.921  0.9761  0.1715 -0.4508
 9395SOL    HW139821   0.309   3.424   4.970 -0.6342  0.4184  0.3235
 9395SOL    HW239822   0.288   3.479   4.830  1.2566 -0.1726 -0.3806
 9396SOL     OW39823   3.758   2.821  10.272 -0.3454  0.0536  0.8647
 9396SOL    HW139824   3.701   2.823  10.196  1.1361  1.3962 -0.2233
 9396SOL    HW239825   3.840   2.836  10.224 -1.2550  1.6709 -0.1621
 9397SOL     OW39826   4.340   0.612   6.360 -0.2384 -0.0005 -0.2548
 9397SOL    HW139827   4.369   0.653   6.441 -2.5487 -1.4887  1.3312
 9397SOL    HW239828   4.282   0.678   6.320  0.6026  0.8316 -0.0946
 9398SOL     OW39829   4.039   3.827   2.621  0.2782 -0.2679 -0.1160
 9398SOL    HW139830   3.971   3.873   2.669  1.0525  1.2402 -0.4350
 9398SOL    HW239831   4.113   3.817   2.681  0.7366 -0.7394 -0.7561
 9399SOL     OW39832   3.105   4.085   5.045  0.1177 -0.2407  0.7235
 9399SOL    HW139833   3.120   4.038   4.963 -1.2463  1.1297 -0.3255
 9399SOL    HW239834   3.020   4.121   5.019  1.0185  0.6196 -1.0109
 9400SOL     OW39835   4.040   3.646   8.492  0.0135 -0.4451  0.1082
 9400SOL    HW139836   4.019   3.727   8.538  0.6480 -0.3369  0.2126
 9400SOL    HW239837   4.005   3.574   8.544  1.3184 -0.7411  0.5965
 9401SOL     OW39838   4.262   0.726   7.753 -0.1031 -0.4522  0.3973
 9401SOL    HW139839   4.334   0.746   7.813  0.6638  1.3159 -1.0996
 9401SOL    HW239840   4.196   0.787   7.785  1.4197  0.8143  1.1295
 9402SOL     OW39841   1.154   2.695   2.794 -0.5405 -0.7498 -0.8904
 9402SOL    HW139842   1.233   2.650   2.764  0.6210  0.3459  0.5110
 9402SOL    HW239843   1.201   2.773   2.825 -1.0950 -1.7121  2.3639
 9403SOL     OW39844   0.987   2.658  16.456  0.2392 -0.0455  0.2325
 9403SOL    HW139845   0.957   2.636  16.367 -0.3740 -2.3637  0.9932
 9403SOL    HW239846   0.908   2.653  16.510  0.3218  0.1992  0.3745
 9404SOL     OW39847   2.330   1.373   4.363 -0.4808  0.0226  0.2240
 9404SOL    HW139848   2.272   1.445   4.386 -1.1679 -0.3323 -0.4031
 9404SOL    HW239849   2.408   1.377   4.419 -0.1538  1.5756 -0.3601
 9405SOL     OW39850   2.722   1.449   3.497 -0.0721 -0.6094 -0.2507
 9405SOL    HW139851   2.748   1.491   3.579 -0.2829  0.1515 -0.5723
 9405SOL    HW239852   2.627   1.449   3.508  0.0106  0.3243  0.4453
 9406SOL     OW39853   0.005   1.664  12.554 -0.7403  0.2554 -0.4894
 9406SOL    HW139854   0.075   1.728  12.567  0.0120 -0.7718  0.4844
 9406SOL    HW239855   4.670   1.692  12.612 -0.8967  1.2831 -1.1696
 9407SOL     OW39856   3.949   3.203   5.526 -0.2769 -0.1471  0.0815
 9407SOL    HW139857   4.012   3.192   5.454 -0.3571  0.7750 -0.1310
 9407SOL    HW239858   3.879   3.139   5.509 -1.6467  1.2130  0.6650
 9408SOL     OW39859   4.186   3.678   4.930 -0.3379  0.4587  0.6465
 9408SOL    HW139860   4.161   3.651   5.018 -1.2572 -1.2280 -0.1190
 9408SOL    HW239861   4.203   3.594   4.888 -1.4694  0.5998 -0.1079
 9409SOL     OW39862   3.584   1.894   6.753 -0.7196 -0.0486 -0.4693
 9409SOL    HW139863   3.613   1.849   6.674  0.4732  0.3009 -0.2467
 9409SOL    HW239864   3.660   1.941   6.789  0.0679 -0.8983 -1.0251
 9410SOL     OW39865   1.386   2.537   1.918  0.2710  0.2397  0.5092
 9410SOL    HW139866   1.372   2.630   1.930 -0.3642  0.2216 -0.0838
 9410SOL    HW239867   1.480   2.531   1.937  0.3768 -0.1205 -0.1039
 9411SOL     OW39868   3.877   3.029   1.074 -0.2573 -1.0836 -0.0060
 9411SOL    HW139869   3.868   3.059   0.984  0.6127  0.2000  0.3401
 9411SOL    HW239870   3.887   2.935   1.060  0.6416 -0.9635 -0.1260
 9412SOL     OW39871   2.344   3.822   6.665  0.0521  0.2097  0.4594
 9412SOL    HW139872   2.344   3.789   6.575  0.9520  0.7769  0.2605
 9412SOL    HW239873   2.249   3.824   6.679 -0.0809  2.1719 -0.7874
 9413SOL     OW39874   3.789   2.623   6.364  0.4216 -0.1037 -0.1313
 9413SOL    HW139875   3.704   2.655   6.334  0.7494  1.3370  0.4917
 9413SOL    HW239876   3.831   2.592   6.284  0.1213 -3.0828  0.8255
 9414SOL     OW39877   2.497   4.315   2.103  0.0287 -0.2600  0.3430
 9414SOL    HW139878   2.431   4.364   2.152  0.9617 -0.4362  1.7790
 9414SOL    HW239879   2.549   4.279   2.174  0.4951  0.6669  0.4647
 9415SOL     OW39880   2.506   0.559   3.012  0.2186  0.2767  0.0664
 9415SOL    HW139881   2.591   0.579   2.975 -0.0414  1.1689 -0.0363
 9415SOL    HW239882   2.522   0.491   3.079  0.4822 -0.6632 -0.9513
 9416SOL     OW39883   0.265   1.995   3.129 -0.4341 -0.0930 -0.5281
 9416SOL    HW139884   0.298   2.005   3.040 -0.1637 -0.1442 -0.4328
 9416SOL    HW239885   0.269   1.900   3.131  0.3985 -0.0423  0.4275
 9417SOL     OW39886   4.542   2.447  14.144 -0.3843 -0.1562 -0.2715
 9417SOL    HW139887   4.614   2.443  14.080 -0.8982 -0.4146 -0.8322
 9417SOL    HW239888   4.531   2.352  14.154 -0.6791  0.1052  1.8879
 9418SOL     OW39889   3.835   1.075   3.506  0.1739 -0.1675 -0.5046
 9418SOL    HW139890   3.908   1.101   3.563  0.1906  0.3603 -0.7661
 9418SOL    HW239891   3.794   1.026   3.578  1.4778  0.5649  0.7330
 9419SOL     OW39892   1.681   4.300   7.392 -0.1525 -0.7158  0.2163
 9419SOL    HW139893   1.642   4.214   7.407 -2.0550 -0.4308 -2.9088
 9419SOL    HW239894   1.632   4.343   7.322 -1.1182 -1.7231  0.2630
 9420SOL     OW39895   3.917   3.373   8.975  0.3929  0.3007  0.7878
 9420SOL    HW139896   3.846   3.436   8.988  0.1267 -0.4740  3.0341
 9420SOL    HW239897   3.876   3.286   8.974  0.2307  0.3970 -0.8029
 9421SOL     OW39898   4.258   3.364   5.810  0.0408 -0.4307  0.0858
 9421SOL    HW139899   4.187   3.301   5.824  2.6556 -3.2477  0.4666
 9421SOL    HW239900   4.338   3.315   5.828  0.2329 -0.3292 -0.4927
 9422SOL     OW39901   0.522   1.287   7.807 -0.1010  0.0456 -0.1095
 9422SOL    HW139902   0.586   1.247   7.866  1.8022 -0.7009 -2.6878
 9422SOL    HW239903   0.578   1.309   7.732  0.5934 -2.3410 -0.2845
 9423SOL     OW39904   2.486   2.299   9.096 -0.0512 -0.2326  0.1269
 9423SOL    HW139905   2.494   2.335   9.185 -2.1012 -1.8400  0.9652
 9423SOL    HW239906   2.496   2.378   9.044  0.6979 -1.6171 -1.8219
 9424SOL     OW39907   2.604   0.451   9.079  0.3381 -0.0520 -0.2934
 9424SOL    HW139908   2.670   0.520   9.076  1.8009 -1.4351  0.0650
 9424SOL    HW239909   2.604   0.446   9.175  1.1774 -1.1853 -0.3441
 9425SOL     OW39910   0.811   3.153   8.286 -0.1493  0.4144  0.7601
 9425SOL    HW139911   0.720   3.158   8.256 -0.4860  0.7221  1.8107
 9425SOL    HW239912   0.835   3.245   8.282  0.0572  0.3519  0.5663
 9426SOL     OW39913   0.090   3.241   3.261  0.6548 -0.7504  0.0033
 9426SOL    HW139914   0.012   3.296   3.274  0.1792 -1.1921 -0.9540
 9426SOL    HW239915   0.160   3.299   3.230 -0.4721  0.3528 -0.4767
 9427SOL     OW39916   3.036   1.216  12.009 -0.2792  0.1258 -0.3267
 9427SOL    HW139917   3.070   1.298  11.973 -0.1621  0.4476  0.5244
 9427SOL    HW239918   3.073   1.224  12.097  1.0138  0.4378 -0.9133
 9428SOL     OW39919   4.202   3.092  15.159  0.0520 -0.3606 -0.3641
 9428SOL    HW139920   4.195   3.188  15.166 -0.8940 -0.3238 -1.7621
 9428SOL    HW239921   4.119   3.075  15.204 -0.2575 -1.2610 -1.2718
 9429SOL     OW39922   1.829   3.880   5.318 -0.3213  0.5285 -0.1088
 9429SOL    HW139923   1.814   3.938   5.393 -0.2928  0.5190 -0.0959
 9429SOL    HW239924   1.899   3.925   5.271 -0.0651  0.1431 -0.0963
 9430SOL     OW39925   0.355   1.188  15.486 -0.0139  0.4584 -0.3209
 9430SOL    HW139926   0.424   1.141  15.439 -0.6690  0.7198 -1.5234
 9430SOL    HW239927   0.349   1.142  15.570  1.1791 -1.1259 -1.1075
 9431SOL     OW39928   1.982   0.081   3.958  0.6344  0.0738  0.1521
 9431SOL    HW139929   1.989   0.130   4.039 -2.3345 -4.1367  2.9673
 9431SOL    HW239930   1.973   0.142   3.885 -2.2122 -0.0847  0.3661
 9432SOL     OW39931   4.617   4.610   9.797 -0.7185 -0.2507 -0.2074
 9432SOL    HW139932   4.613   4.520   9.766 -2.2297 -0.6356  1.0912
 9432SOL    HW239933   4.531   4.650   9.781 -2.1514 -2.4919  1.8444
 9433SOL     OW39934   4.176   0.284  13.961 -0.4106 -0.5194 -0.2145
 9433SOL    HW139935   4.200   0.293  13.869  0.4103 -0.3377  0.0177
 9433SOL    HW239936   4.238   0.339  14.009  0.3886  0.3969 -2.2939
 9434SOL     OW39937   2.455   2.053  12.700 -0.3450 -0.6291 -0.1688
 9434SOL    HW139938   2.529   2.025  12.646 -0.4488 -0.6299 -0.3101
 9434SOL    HW239939   2.502   2.079  12.779 -0.8853  2.9905 -1.0136
 9435SOL     OW39940   1.770   0.604  11.943 -0.5027 -0.2914 -0.3842
 9435SOL    HW139941   1.813   0.566  12.020 -1.5946  0.1688  0.4555
 9435SOL    HW239942   1.744   0.525  11.897  0.6597  0.0004 -1.5363
 9436SOL     OW39943   0.675   1.350   8.104  0.5787  0.3411  0.1592
 9436SOL    HW139944   0.588   1.387   8.123 -0.0190 -0.4188 -1.0461
 9436SOL    HW239945   0.652   1.258   8.089 -0.6696  0.8716 -1.2963
 9437SOL     OW39946   3.703   2.878   6.108  0.1018  0.3074  0.0872
 9437SOL    HW139947   3.779   2.926   6.143  0.5157 -0.4648  0.2513
 9437SOL    HW239948   3.643   2.910   6.176 -0.4106  2.4761 -1.3928
 9438SOL     OW39949   3.944   0.346  14.160  0.5223 -0.4449 -0.0929
 9438SOL    HW139950   3.886   0.339  14.084  0.0197 -1.4725  0.3802
 9438SOL    HW239951   4.025   0.319  14.119  0.6022  1.7319 -1.3220
 9439SOL     OW39952   2.334   1.647   0.249  0.3843 -0.2691  0.1376
 9439SOL    HW139953   2.385   1.702   0.310 -2.1402 -0.6151  2.5635
 9439SOL    HW239954   2.267   1.713   0.233 -1.7876 -1.9794  2.1343
 9440SOL     OW39955   3.879   3.543   7.987  0.2197  0.2459 -0.2111
 9440SOL    HW139956   3.789   3.538   7.955  0.2075 -0.5282 -0.0551
 9440SOL    HW239957   3.932   3.536   7.908 -1.1475 -1.3993 -0.9689
 9441SOL     OW39958   4.363   4.173   5.400  0.1108  0.2383 -0.0357
 9441SOL    HW139959   4.413   4.092   5.393 -0.0430  0.0770  0.7367
 9441SOL    HW239960   4.309   4.164   5.322  1.4976 -0.3361 -0.9239
 9442SOL     OW39961   4.546   0.853   6.769 -0.0610  0.8307 -0.2401
 9442SOL    HW139962   4.611   0.922   6.758  1.3152 -0.5016 -0.3895
 9442SOL    HW239963   4.602   0.782   6.800  1.9435  3.8740  3.2614
 9443SOL     OW39964   3.128   4.300   1.701 -0.5593 -0.5259  0.2991
 9443SOL    HW139965   3.159   4.388   1.719  0.0650 -0.5700 -0.6024
 9443SOL    HW239966   3.119   4.301   1.606  1.2424 -0.8119  0.1243
 9444SOL     OW39967   3.833   2.666   8.340 -0.4196 -0.3394  0.1270
 9444SOL    HW139968   3.813   2.749   8.297  0.0512  0.0203  0.6062
 9444SOL    HW239969   3.856   2.705   8.424  0.8507  1.8418 -1.2322
 9445SOL     OW39970   3.926   4.555   8.594 -0.2360  0.3931  0.1810
 9445SOL    HW139971   3.870   4.553   8.671  1.8018 -1.9446  1.5994
 9445SOL    HW239972   4.005   4.595   8.631 -0.6492  0.2213  1.2416
 9446SOL     OW39973   2.685   4.003   4.251  0.2201 -0.6999 -0.0014
 9446SOL    HW139974   2.604   3.984   4.204 -0.3513  0.6935  0.4184
 9446SOL    HW239975   2.678   4.097   4.268  3.6913 -0.2992 -0.7739
 9447SOL     OW39976   4.597   0.751   9.103 -0.6208 -0.3120  0.0096
 9447SOL    HW139977   4.691   0.760   9.118 -0.5560 -0.8948 -0.0702
 9447SOL    HW239978   4.568   0.832   9.061  1.0653  0.6997  0.8017
 9448SOL     OW39979   0.312   4.274  14.172 -0.1865 -0.1687  0.0709
 9448SOL    HW139980   0.220   4.300  14.160  0.7672  2.1976 -2.0462
 9448SOL    HW239981   0.353   4.261  14.086  0.2238  1.7825 -0.0334
 9449SOL     OW39982   2.191   2.469  17.741  0.2671 -0.1445 -0.2259
 9449SOL    HW139983   2.131   2.528  17.695 -0.1525 -0.5367 -0.1894
 9449SOL    HW239984   2.140   2.449   0.075 -0.5516 -0.1467 -0.7548
 9450SOL     OW39985   0.837   0.215  14.998  0.6323  0.3957 -0.1848
 9450SOL    HW139986   0.806   0.181  15.081  0.0787  3.1037  0.7185
 9450SOL    HW239987   0.878   0.296  15.030 -1.2861  1.1430  0.3962
 9451SOL     OW39988   4.526   0.985  12.259  0.6953 -0.2526 -0.5742
 9451SOL    HW139989   4.446   0.933  12.256  0.9011 -0.4284 -2.7867
 9451SOL    HW239990   4.526   1.006  12.166  2.4439  1.2469 -0.2354
 9452SOL     OW39991   0.709   0.996   7.382  0.5742  0.2155 -0.0323
 9452SOL    HW139992   0.804   0.982   7.387  0.5513 -0.9778 -3.1567
 9452SOL    HW239993   0.715   1.092   7.373  2.4109  0.1993  1.0121
 9453SOL     OW39994   2.278   1.982  13.686 -0.3520  0.0707  0.0459
 9453SOL    HW139995   2.357   1.963  13.738 -0.7872  2.7692  1.7086
 9453SOL    HW239996   2.285   1.910  13.624  1.8822 -0.0564  0.4387
 9454SOL     OW39997   2.721   1.528   7.890  0.5760 -0.1830 -0.3683
 9454SOL    HW139998   2.628   1.512   7.875  0.2914  0.5365  0.5952
 9454SOL    HW239999   2.755   1.530   7.801 -0.2122  2.4544 -0.6098
 9455SOL     OW40000   1.551   3.037   2.525 -0.4090 -0.2845  0.5993
 9455SOL    HW140001   1.614   2.996   2.585 -0.2917 -0.2697  0.4848
 9455SOL    HW240002   1.602   3.113   2.496 -0.3095 -0.5940 -0.0373
 9456SOL     OW40003   1.497   3.662   3.152  0.2905  0.3198 -0.1625
 9456SOL    HW140004   1.484   3.667   3.247 -0.4848  1.7589 -0.3382
 9456SOL    HW240005   1.579   3.613   3.142  0.8631  1.5186 -1.3144
 9457SOL     OW40006   0.327   3.176   8.114  0.0336 -0.0838 -0.1590
 9457SOL    HW140007   0.235   3.170   8.142 -0.0160  1.3920  0.0450
 9457SOL    HW240008   0.383   3.153   8.188  0.8914 -0.5384 -0.9598
 9458SOL     OW40009   3.663   1.348   3.176  0.0986  0.0797 -0.1510
 9458SOL    HW140010   3.704   1.308   3.252 -1.5461 -2.2868 -0.5169
 9458SOL    HW240011   3.603   1.278   3.150 -1.7919  1.5655  0.1580
 9459SOL     OW40012   0.844   3.599   4.321  0.4243 -0.2579  0.1513
 9459SOL    HW140013   0.905   3.626   4.252  0.0398 -0.4156 -0.2436
 9459SOL    HW240014   0.888   3.520   4.353  0.9933  0.5777  1.4382
 9460SOL     OW40015   2.075   0.593   1.350 -0.0200 -0.4590  0.5063
 9460SOL    HW140016   2.122   0.510   1.346  0.0506 -0.3397 -1.0708
 9460SOL    HW240017   1.993   0.573   1.306 -0.5104  1.1596  0.6676
 9461SOL     OW40018   3.305   1.164   5.107  0.0086 -0.2872 -0.2630
 9461SOL    HW140019   3.244   1.091   5.100 -1.5688  0.9119  1.0065
 9461SOL    HW240020   3.394   1.129   5.099 -0.7772 -3.6706  5.6703
 9462SOL     OW40021   3.983   0.753   9.374  0.3024  0.9003  0.6056
 9462SOL    HW140022   4.068   0.782   9.341  1.1651  0.5382  2.5251
 9462SOL    HW240023   3.955   0.702   9.298  0.9596  0.4222  0.6874
 9463SOL     OW40024   3.729   0.313   8.413  0.1297  0.1148  0.7567
 9463SOL    HW140025   3.731   0.284   8.504  2.0189 -0.6809  0.4690
 9463SOL    HW240026   3.747   0.405   8.435 -0.5648  0.8468 -1.6855
 9464SOL     OW40027   4.370   0.198   6.071  0.9219 -0.1461  0.9694
 9464SOL    HW140028   4.324   0.258   6.130 -0.9872 -0.1408 -0.5239
 9464SOL    HW240029   4.353   0.115   6.116 -2.4210 -0.8373 -1.6135
 9465SOL     OW40030   2.811   2.352  11.278 -0.6620  0.2565 -0.3561
 9465SOL    HW140031   2.726   2.374  11.317 -0.5449  0.1517 -0.0412
 9465SOL    HW240032   2.832   2.406  11.202  0.0919 -1.1987 -1.1918
 9466SOL     OW40033   3.560   4.613   7.889 -0.0641  0.6845 -0.3449
 9466SOL    HW140034   3.472   4.629   7.855 -1.0888  1.2012  2.5638
 9466SOL    HW240035   3.603   4.698   7.879  1.2983 -0.2216 -2.3484
 9467SOL     OW40036   3.621   2.146  12.357 -0.0677  0.2899  0.0242
 9467SOL    HW140037   3.662   2.212  12.301 -2.3461  0.3109 -1.6176
 9467SOL    HW240038   3.621   2.082  12.286  0.2342  0.2588  0.0558
 9468SOL     OW40039   0.946   0.743   7.867  0.4594 -0.4161  0.0916
 9468SOL    HW140040   0.859   0.740   7.827  0.2327  0.0275  0.5499
 9468SOL    HW240041   0.923   0.710   7.955 -0.3980 -0.4739 -0.1480
 9469SOL     OW40042   0.601   2.681   3.558  0.6991  0.1692 -0.1704
 9469SOL    HW140043   0.592   2.586   3.551 -1.1090  0.4302 -1.1283
 9469SOL    HW240044   0.664   2.680   3.631 -0.8007 -1.2719  1.1137
 9470SOL     OW40045   2.994   2.221   3.113 -0.5562 -0.2234 -0.2284
 9470SOL    HW140046   3.029   2.186   3.031 -0.9756 -1.3267  0.0673
 9470SOL    HW240047   2.917   2.269   3.082 -0.8663 -1.7316 -1.7483
 9471SOL     OW40048   3.463   0.019  16.666  0.3451 -0.3810 -0.3296
 9471SOL    HW140049   3.508   0.104  16.666  0.6724 -0.5531  0.0469
 9471SOL    HW240050   3.536   4.693  16.667  0.8997  0.3063  1.2842
 9472SOL     OW40051   0.982   1.995  14.338  0.0871  0.3590 -0.2070
 9472SOL    HW140052   1.027   2.020  14.257 -1.5366  3.8938 -0.0104
 9472SOL    HW240053   1.050   2.034  14.392 -0.5027 -2.0663  2.3029
 9473SOL     OW40054   3.018   1.588  11.801 -0.3994  1.3533 -0.1952
 9473SOL    HW140055   3.066   1.539  11.868 -1.5809  0.3762 -0.0691
 9473SOL    HW240056   3.062   1.673  11.803  1.2402  0.4690  1.4764
 9474SOL     OW40057   2.775   2.590   7.232 -0.0932 -0.4824 -0.2305
 9474SOL    HW140058   2.838   2.576   7.162  0.7141  1.0220  0.1954
 9474SOL    HW240059   2.713   2.640   7.179 -0.3822  0.5211  1.0488
 9475SOL     OW40060   2.845   2.052  11.590 -0.2714  0.1022 -0.0136
 9475SOL    HW140061   2.849   1.971  11.539 -0.1374  0.0369  0.1009
 9475SOL    HW240062   2.766   2.043  11.643 -0.8090 -2.2859 -1.2217
 9476SOL     OW40063   4.381   3.157  10.776  0.0896  0.7611  0.4093
 9476SOL    HW140064   4.341   3.118  10.698 -0.2278  0.8726  0.5127
 9476SOL    HW240065   4.437   3.090  10.813 -1.6328 -0.6610  0.4619
 9477SOL     OW40066   1.199   0.896   4.604  0.4087 -0.1440 -0.3714
 9477SOL    HW140067   1.206   0.800   4.600 -0.9579 -0.3283  1.9173
 9477SOL    HW240068   1.204   0.918   4.511  0.3448 -0.4734 -0.4556
 9478SOL     OW40069   3.946   1.648   2.477  0.3432  0.1681  0.3485
 9478SOL    HW140070   3.955   1.742   2.492  0.0452  0.1210  0.8297
 9478SOL    HW240071   3.880   1.629   2.544 -0.9311 -2.5030 -1.6671
 9479SOL     OW40072   3.821   3.254   5.243  0.3595 -1.2079  0.3709
 9479SOL    HW140073   3.855   3.341   5.266 -1.4754 -0.3877  0.0311
 9479SOL    HW240074   3.865   3.247   5.159  0.3097 -1.9686  0.4133
 9480SOL     OW40075   1.910   4.272   4.173  1.0779  0.6826  0.0200
 9480SOL    HW140076   1.951   4.341   4.225  1.5056  1.4917 -1.3885
 9480SOL    HW240077   1.832   4.259   4.227 -0.1185 -0.2193 -1.9552
 9481SOL     OW40078   0.943   2.486  10.306 -0.3463 -0.3312 -0.1926
 9481SOL    HW140079   0.909   2.420  10.245  0.1915  0.7474 -1.6480
 9481SOL    HW240080   0.890   2.559  10.274 -0.3087  0.0593  0.6433
 9482SOL     OW40081   0.202   3.538   3.434  0.8758  0.2087 -0.5231
 9482SOL    HW140082   0.224   3.557   3.525 -1.0610 -1.4780  0.2922
 9482SOL    HW240083   0.106   3.542   3.435  0.8280 -1.3030  0.3330
 9483SOL     OW40084   3.901   4.550   3.721  0.5552 -0.3039  0.5174
 9483SOL    HW140085   3.910   4.535   3.627  0.9154  1.2236  0.3128
 9483SOL    HW240086   3.843   4.626   3.724 -1.4294 -1.8143  0.2817
 9484SOL     OW40087   2.760   1.245  11.640  0.2592  0.8144  0.4884
 9484SOL    HW140088   2.767   1.313  11.707  2.0663 -1.0423  2.2231
 9484SOL    HW240089   2.803   1.173  11.686  0.9533 -0.0960 -1.5717
 9485SOL     OW40090   3.504   1.752   4.200 -0.0067 -0.0438 -0.4078
 9485SOL    HW140091   3.464   1.838   4.213 -1.7717 -1.1721  1.7145
 9485SOL    HW240092   3.597   1.771   4.211  0.7810 -2.7452 -2.2381
 9486SOL     OW40093   2.084   3.850   2.797 -0.0930 -0.3521 -0.5727
 9486SOL    HW140094   2.005   3.901   2.814  1.1002  1.2967  0.0559
 9486SOL    HW240095   2.095   3.891   2.711  1.6156  0.0294 -0.1647
 9487SOL     OW40096   1.083   4.144   2.801 -0.1091 -0.2683  0.1019
 9487SOL    HW140097   1.037   4.165   2.719 -0.7089  0.9770  0.7518
 9487SOL    HW240098   1.101   4.231   2.836  0.6878 -0.8392  1.0993
 9488SOL     OW40099   3.741   2.222   5.404  0.4847 -0.1933 -0.4470
 9488SOL    HW140100   3.772   2.251   5.318  1.6643 -0.5385 -0.1337
 9488SOL    HW240101   3.710   2.304   5.444 -0.4806  0.8407 -3.2638
 9489SOL     OW40102   1.335   4.680  15.681  0.8054 -0.6586  0.0296
 9489SOL    HW140103   1.352   4.636  15.598  0.3641 -1.2024  0.2316
 9489SOL    HW240104   1.371   0.028  15.654 -1.9277  0.0596 -1.3889
 9490SOL     OW40105   0.027   4.121  16.889 -0.3543 -0.3409  0.4563
 9490SOL    HW140106   0.092   4.063  16.928  1.6647  0.7174 -1.3394
 9490SOL    HW240107   0.085   4.162  16.825 -1.6027 -0.0753 -0.4935
 9491SOL     OW40108   1.497   4.729   8.217  0.0414  0.2056 -0.0788
 9491SOL    HW140109   1.480   4.713   8.310 -0.3674  0.8558 -0.0433
 9491SOL    HW240110   1.430   0.061   8.209  0.1912  0.2646 -0.8057
 9492SOL     OW40111   0.515   3.948  14.448  0.3155  0.1939 -0.1885
 9492SOL    HW140112   0.445   3.941  14.382  0.5987  2.7595 -0.7746
 9492SOL    HW240113   0.542   4.038  14.427  0.6944  0.8577  3.1704
 9493SOL     OW40114   2.293   0.900  17.056 -0.1180 -0.2997  0.4696
 9493SOL    HW140115   2.214   0.949  17.032 -0.0213 -0.9082 -1.1114
 9493SOL    HW240116   2.308   0.945  17.139 -1.1306 -3.5500  2.4166
 9494SOL     OW40117   1.055   0.915   0.117 -0.1013  0.5348 -0.0407
 9494SOL    HW140118   0.977   0.924   0.064  0.7477  0.1595 -1.3562
 9494SOL    HW240119   1.093   0.828   0.106 -0.9266 -0.0990  2.0633
 9495SOL     OW40120   0.602   1.424   3.448 -0.2473  0.4342 -0.0040
 9495SOL    HW140121   0.545   1.415   3.371 -0.6296  0.4230  0.2820
 9495SOL    HW240122   0.558   1.379   3.520 -2.0609  2.6805  0.3338
 9496SOL     OW40123   1.269   0.326   9.897  0.3667 -0.0657 -0.3875
 9496SOL    HW140124   1.256   0.245   9.847 -1.0115 -0.4841  0.6214
 9496SOL    HW240125   1.237   0.299   9.984 -0.3789 -0.9455 -0.9272
 9497SOL     OW40126   1.807   0.823   5.375  0.0518 -0.7415  0.0561
 9497SOL    HW140127   1.715   0.808   5.397 -0.0700  1.6152  1.0968
 9497SOL    HW240128   1.796   0.792   5.285  0.5615  2.2947 -1.0708
 9498SOL     OW40129   4.248   0.917  14.296 -0.3364 -0.0530  0.0292
 9498SOL    HW140130   4.261   0.893  14.388  2.1656 -0.4453 -0.4425
 9498SOL    HW240131   4.307   0.853  14.258 -0.3101  0.6266 -1.0682
 9499SOL     OW40132   1.325   0.748  10.186  0.2398 -0.1557  0.1599
 9499SOL    HW140133   1.386   0.676  10.177 -2.1353 -2.2800  1.0835
 9499SOL    HW240134   1.268   0.733  10.111  0.8301  0.2526 -0.3659
 9500SOL     OW40135   4.715   0.166  11.785  0.1262 -0.2783  0.2907
 9500SOL    HW140136   0.068   0.133  11.794  0.4726  0.4837 -0.3390
 9500SOL    HW240137   4.725   0.233  11.718  2.2016  0.0607  0.9396
 9501SOL     OW40138   2.054   0.250   4.578 -0.6058  0.5698  0.0449
 9501SOL    HW140139   2.134   0.279   4.623  0.7641 -0.8566 -1.4262
 9501SOL    HW240140   2.068   0.278   4.487  0.2232  1.7646  0.5438
 9502SOL     OW40141   1.220   3.196   9.030  0.6622  0.0044  0.5505
 9502SOL    HW140142   1.178   3.242   9.103 -1.6989 -0.4099 -0.5662
 9502SOL    HW240143   1.191   3.249   8.956  0.8794  1.1640  1.2873
 9503SOL     OW40144   3.044   3.697   8.590  0.3620  0.3173  0.4650
 9503SOL    HW140145   3.132   3.704   8.628  0.5939 -2.3420  0.4119
 9503SOL    HW240146   3.028   3.786   8.559 -0.7928  0.0319  0.2343
 9504SOL     OW40147   0.170   2.045   8.453 -0.0799 -0.3194  0.6876
 9504SOL    HW140148   0.237   1.990   8.412  0.6598 -0.4956  2.1575
 9504SOL    HW240149   0.096   1.989   8.430  1.0080 -1.1509 -0.7785
 9505SOL     OW40150   3.313   4.583   3.055 -0.4405  0.3979  0.0113
 9505SOL    HW140151   3.402   4.557   3.079 -0.0234 -0.1440 -2.1214
 9505SOL    HW240152   3.321   4.605   2.962 -1.4033  1.3015  0.1407
 9506SOL     OW40153   0.471   2.985  10.293  0.1035 -0.4849  0.0850
 9506SOL    HW140154   0.487   2.891  10.300  0.4830 -0.3788  0.6609
 9506SOL    HW240155   0.421   2.976  10.212  0.4842 -1.9590  0.0106
 9507SOL     OW40156   1.022   3.599  11.328  0.2801 -0.0422  0.7717
 9507SOL    HW140157   0.948   3.559  11.283  1.2022 -2.2911  1.2214
 9507SOL    HW240158   0.971   3.655  11.386 -1.0564 -0.0384 -0.4160
 9508SOL     OW40159   4.296   0.363   6.271  0.5920  0.3515  0.0507
 9508SOL    HW140160   4.322   0.446   6.310 -1.9140 -0.2105  2.9233
 9508SOL    HW240161   4.202   0.372   6.287  0.6876  2.7639 -0.8231
 9509SOL     OW40162   2.164   2.470   4.507 -0.0341 -0.0358  0.2258
 9509SOL    HW140163   2.100   2.531   4.544 -0.1030  0.5783 -0.8963
 9509SOL    HW240164   2.193   2.525   4.435  0.8449  0.0145  0.6159
 9510SOL     OW40165   3.228   4.672  16.615 -0.1683 -0.2723 -0.7453
 9510SOL    HW140166   3.175   0.007  16.649 -1.4762 -0.9455 -1.3645
 9510SOL    HW240167   3.308   4.695  16.661 -1.1431  1.0353  0.2788
 9511SOL     OW40168   4.539   0.479   8.668  0.2283  0.0135 -0.8054
 9511SOL    HW140169   4.578   0.565   8.651 -1.6244  1.1834  0.7944
 9511SOL    HW240170   4.593   0.442   8.738 -0.7312  0.6844  0.2986
 9512SOL     OW40171   1.322   2.530   2.993 -0.3778  0.2971  0.1577
 9512SOL    HW140172   1.252   2.587   3.025 -2.3529 -2.9958  1.6793
 9512SOL    HW240173   1.291   2.445   3.024  1.6638 -0.2383  0.7302
 9513SOL     OW40174   1.509   0.332  14.932 -0.4788  0.2801  0.2899
 9513SOL    HW140175   1.500   0.406  14.873  0.0284 -1.3920 -1.8861
 9513SOL    HW240176   1.602   0.313  14.944 -0.8271 -1.6039  0.1015
 9514SOL     OW40177   0.920   1.937   7.322  0.5063  0.1410 -0.5185
 9514SOL    HW140178   0.907   2.032   7.327  1.9804  0.4459 -2.5698
 9514SOL    HW240179   0.943   1.930   7.230  1.7307 -1.8009 -0.0664
 9515SOL     OW40180   2.720   4.455   8.835  0.5912 -0.0945 -0.6004
 9515SOL    HW140181   2.713   4.380   8.776 -0.6276  0.0637 -0.6707
 9515SOL    HW240182   2.715   4.407   8.918  0.6234 -1.5547 -1.4420
 9516SOL     OW40183   2.435   1.394   7.277 -1.2123 -0.2009 -0.0627
 9516SOL    HW140184   2.421   1.302   7.255 -0.6954 -0.6235  1.3704
 9516SOL    HW240185   2.478   1.422   7.196 -1.1921 -0.4567 -0.1406
 9517SOL     OW40186   2.632   1.412   8.908 -0.1013  0.5425  0.5328
 9517SOL    HW140187   2.556   1.372   8.864 -0.0838  1.4499 -0.3284
 9517SOL    HW240188   2.663   1.343   8.966 -0.6522  0.4914  0.7669
 9518SOL     OW40189   2.986   2.508   2.846 -0.3672 -0.6149  0.7007
 9518SOL    HW140190   3.062   2.542   2.893  0.9386 -2.7129  0.0809
 9518SOL    HW240191   3.015   2.513   2.755 -0.4306 -0.0793  0.7083
 9519SOL     OW40192   1.393   2.898   1.052  0.3904  0.4767  0.2629
 9519SOL    HW140193   1.299   2.916   1.055  0.5877  1.4332  0.9333
 9519SOL    HW240194   1.393   2.844   1.131  1.4111 -0.9102 -0.6804
 9520SOL     OW40195   0.132   4.247   6.137  0.4233  0.1850 -0.4197
 9520SOL    HW140196   0.205   4.270   6.195  1.2149 -4.7685  0.5332
 9520SOL    HW240197   0.172   4.196   6.067  0.5748  0.1038 -0.2737
 9521SOL     OW40198   0.329   1.291   2.854 -0.2568  0.5105 -0.3850
 9521SOL    HW140199   0.256   1.267   2.911  0.6348 -0.3657  0.3808
 9521SOL    HW240200   0.298   1.277   2.765 -1.0568  0.5482 -0.1159
 9522SOL     OW40201   2.360   3.754   9.552  0.6860  0.0613 -0.2792
 9522SOL    HW140202   2.305   3.829   9.531  1.7868  0.4999 -1.6099
 9522SOL    HW240203   2.380   3.773   9.643  0.2648 -0.7669 -0.0076
 9523SOL     OW40204   4.277   3.250  15.442 -0.3322 -0.2088  0.2513
 9523SOL    HW140205   4.211   3.318  15.458  0.3695  0.8722 -1.5080
 9523SOL    HW240206   4.268   3.204  15.525 -1.9759 -0.1111  0.1402
 9524SOL     OW40207   3.502   1.163   1.947 -0.2664  0.1776  0.1822
 9524SOL    HW140208   3.586   1.156   1.993 -0.8494 -2.7085  0.8045
 9524SOL    HW240209   3.516   1.240   1.891 -0.4043 -0.3922 -0.6368
 9525SOL     OW40210   1.437   2.274   6.774  0.7885 -0.7385  0.2145
 9525SOL    HW140211   1.394   2.287   6.689  0.1622  0.7055  0.7573
 9525SOL    HW240212   1.411   2.186   6.802 -1.6087 -0.1645 -0.1862
 9526SOL     OW40213   1.050   3.182  12.559  0.0558  0.1418  0.4085
 9526SOL    HW140214   1.021   3.094  12.583 -2.3348  0.4831 -1.1914
 9526SOL    HW240215   1.009   3.231  12.630  0.4668  1.9244 -0.5940
 9527SOL     OW40216   4.622   2.831  12.441 -0.3275 -0.1362 -0.0391
 9527SOL    HW140217   4.653   2.906  12.493  0.7059 -0.2348 -0.5125
 9527SOL    HW240218   4.692   2.766  12.451 -1.5200 -1.2092  1.2624
 9528SOL     OW40219   4.476   4.227   4.173  0.3832 -0.2876 -0.1811
 9528SOL    HW140220   4.467   4.283   4.250 -0.6319 -0.7144  0.0132
 9528SOL    HW240221   4.548   4.171   4.204  1.6431  2.6602  2.1394
 9529SOL     OW40222   3.320   3.234   8.552 -0.4202  0.2928  0.2375
 9529SOL    HW140223   3.233   3.265   8.527  0.0602  3.6939  2.8196
 9529SOL    HW240224   3.357   3.316   8.583 -1.4134 -0.3750  3.2297
 9530SOL     OW40225   0.528   2.763   6.563  0.3639  0.0454 -0.1072
 9530SOL    HW140226   0.473   2.685   6.558 -1.7163  1.5950 -1.0173
 9530SOL    HW240227   0.590   2.765   6.490  0.7168 -1.8216  0.1381
 9531SOL     OW40228   0.555   0.013   3.039 -0.6462 -0.3884 -0.3251
 9531SOL    HW140229   0.604   0.022   3.120 -1.8521 -2.0347  0.5944
 9531SOL    HW240230   0.578   0.100   3.007  0.2717 -0.0310  1.3194
 9532SOL     OW40231   2.690   4.636   6.831  0.7999  0.1301 -0.1617
 9532SOL    HW140232   2.642   4.694   6.771 -0.3752 -0.0393  0.6245
 9532SOL    HW240233   2.633   4.562   6.849  2.7609 -1.2126  0.4220
 9533SOL     OW40234   3.675   4.385   3.037  0.3977  0.1612 -0.3939
 9533SOL    HW140235   3.731   4.330   3.092 -0.1817  2.6904  2.7082
 9533SOL    HW240236   3.644   4.450   3.100  0.0336  0.8526 -1.2879
 9534SOL     OW40237   0.050   3.075  14.458 -0.2223  0.4495 -0.1355
 9534SOL    HW140238   0.055   3.141  14.389  1.6102  1.1956  0.7010
 9534SOL    HW240239   4.693   3.071  14.476 -0.1961  0.5692  0.0320
 9535SOL     OW40240   1.442   3.668   3.416 -0.1432 -0.3169 -0.5765
 9535SOL    HW140241   1.394   3.587   3.395  1.4222 -1.2431 -0.5722
 9535SOL    HW240242   1.372   3.717   3.460  1.8102 -0.2681  2.4063
 9536SOL     OW40243   0.206   3.097  15.327 -0.4105  0.0216 -0.0580
 9536SOL    HW140244   0.194   3.026  15.264 -3.5135  1.5913 -1.2510
 9536SOL    HW240245   0.132   3.157  15.320  0.4586  0.8163 -2.5034
 9537SOL     OW40246   3.316   3.068   6.553  0.1458  0.1536 -0.2682
 9537SOL    HW140247   3.405   3.103   6.550  0.6961 -1.0419  1.6915
 9537SOL    HW240248   3.311   3.054   6.648  0.2984  2.1745  0.0201
 9538SOL     OW40249   1.893   4.401   3.283  0.6554  0.6336 -0.3877
 9538SOL    HW140250   1.891   4.407   3.187 -0.3594  4.3387 -0.1137
 9538SOL    HW240251   1.943   4.320   3.295 -0.0858 -0.0012 -1.5579
 9539SOL     OW40252   0.081   1.080   2.068  0.6797 -0.6464  0.0802
 9539SOL    HW140253   4.729   1.102   2.038  1.0980  1.0154  0.0955
 9539SOL    HW240254   0.122   1.033   1.995  1.2216 -0.2663  0.1371
 9540SOL     OW40255   2.432   4.041  12.213  0.0259  0.1150 -0.0771
 9540SOL    HW140256   2.520   4.066  12.241  1.0476 -3.4928 -0.1007
 9540SOL    HW240257   2.378   4.038  12.292 -1.0732  2.4901 -0.7599
 9541SOL     OW40258   3.648   0.454   7.209 -0.1714 -0.0561  0.0007
 9541SOL    HW140259   3.739   0.456   7.240  0.1348  1.5990 -1.0093
 9541SOL    HW240260   3.619   0.366   7.231 -1.2644  0.0622 -0.9711
 9542SOL     OW40261   1.128   4.603  12.614 -0.2055  0.0973 -0.2329
 9542SOL    HW140262   1.191   4.532  12.627 -1.7683 -0.7929  2.7614
 9542SOL    HW240263   1.176   4.677  12.579 -2.2979  1.7112  0.3227
 9543SOL     OW40264   0.222   2.737   6.890  0.8133 -0.0731 -0.2725
 9543SOL    HW140265   0.161   2.803   6.859 -1.9169 -2.0981  0.7850
 9543SOL    HW240266   0.184   2.660   6.848 -1.3283  0.3546  0.8855
 9544SOL     OW40267   3.216   3.461  15.918 -0.3772  0.1268 -0.0739
 9544SOL    HW140268   3.264   3.379  15.926  2.0166  1.3065 -2.2163
 9544SOL    HW240269   3.167   3.442  15.838 -0.0947 -0.5777 -0.0763
 9545SOL     OW40270   3.913   1.553  11.437 -0.0106 -0.6649 -0.2594
 9545SOL    HW140271   3.880   1.640  11.456 -0.5849 -1.0218  0.3376
 9545SOL    HW240272   3.853   1.514  11.373 -0.1055 -0.3344 -0.3674
 9546SOL     OW40273   3.040   1.573   8.808 -0.0092 -0.3483 -0.0128
 9546SOL    HW140274   2.971   1.558   8.743  0.1801  0.9367 -0.5201
 9546SOL    HW240275   2.982   1.555   8.883 -0.4822 -0.0157 -0.2961
 9547SOL     OW40276   0.382   1.036   6.321  0.4005  0.1244 -0.2032
 9547SOL    HW140277   0.412   1.012   6.409  2.3295  2.2826 -0.2769
 9547SOL    HW240278   0.302   0.987   6.303 -0.6965  1.0625  2.1090
 9548SOL     OW40279   1.265   4.635  11.173 -0.2909 -0.0911 -0.5595
 9548SOL    HW140280   1.350   4.603  11.202 -0.6532 -0.6763 -0.1293
 9548SOL    HW240281   1.210   4.584  11.232  0.3279 -0.6439 -0.4649
 9549SOL     OW40282   0.351   1.803   0.381 -0.0411  0.7485 -0.0886
 9549SOL    HW140283   0.311   1.850   0.307 -1.6282  1.9025  1.5069
 9549SOL    HW240284   0.283   1.736   0.392  0.3712  0.2110 -0.8243
 9550SOL     OW40285   0.721   0.368   7.400  0.0662  0.4822  0.4004
 9550SOL    HW140286   0.744   0.290   7.449  1.2808  0.5352 -0.0775
 9550SOL    HW240287   0.804   0.387   7.356 -0.9537 -0.3363 -1.8778
 9551SOL     OW40288   1.605   4.717  10.988 -0.4906  0.3924 -0.0034
 9551SOL    HW140289   1.667   0.016  11.051  0.3311 -3.6710  1.4494
 9551SOL    HW240290   1.556   4.653  11.040 -0.7495 -0.3551 -1.1653
 9552SOL     OW40291   2.829   1.280  10.255 -0.0869 -0.1717  0.1608
 9552SOL    HW140292   2.878   1.362  10.268 -0.2717  0.4066 -2.7578
 9552SOL    HW240293   2.851   1.219  10.325 -0.0062  1.7900  1.8719
 9553SOL     OW40294   4.590   0.127   5.876 -0.4188  0.0705  0.4261
 9553SOL    HW140295   4.588   0.031   5.881 -4.0191  0.1246 -0.4402
 9553SOL    HW240296   4.531   0.151   5.947 -1.4944  2.2900 -1.2364
 9554SOL     OW40297   4.511   1.250   7.431  0.2396 -0.1745  0.4574
 9554SOL    HW140298   4.441   1.311   7.407  2.0731  1.8931  0.4038
 9554SOL    HW240299   4.582   1.258   7.367  0.5615  2.0437  1.1053
 9555SOL     OW40300   2.560   4.538  15.558 -0.7766 -0.0325 -0.2850
 9555SOL    HW140301   2.473   4.510  15.586  0.2160 -0.9222  1.8524
 9555SOL    HW240302   2.593   4.468  15.501 -0.2843  0.9823 -1.2595
 9556SOL     OW40303   2.685   0.119  13.890 -0.5233  0.0183 -0.2580
 9556SOL    HW140304   2.756   0.158  13.839 -1.3728  2.3730  0.3653
 9556SOL    HW240305   2.730   0.076  13.963  0.5309  1.8483  0.1765
 9557SOL     OW40306   3.449   3.523   5.689 -0.2369 -0.0794 -0.5835
 9557SOL    HW140307   3.393   3.586   5.643 -1.0337 -2.1588 -2.4664
 9557SOL    HW240308   3.413   3.442   5.654  2.0420 -1.1429 -0.4270
 9558SOL     OW40309   4.582   0.560  17.084 -0.7492  0.7393  0.6601
 9558SOL    HW140310   4.622   0.529  17.002  1.0848  0.6162  1.6055
 9558SOL    HW240311   4.510   0.497  17.090 -1.1575  1.2123  0.6369
 9559SOL     OW40312   0.074   3.157   2.766  0.1218 -0.0464 -0.2598
 9559SOL    HW140313   0.077   3.072   2.723  0.4150 -0.8943  1.4088
 9559SOL    HW240314   0.084   3.128   2.857  1.9712 -0.4912 -0.6052
 9560SOL     OW40315   2.120   3.148   8.901  0.0083 -0.1245 -0.0857
 9560SOL    HW140316   2.211   3.177   8.894  0.0460 -0.0480  0.7361
 9560SOL    HW240317   2.115   3.055   8.922 -0.0763 -0.7120 -2.7150
 9561SOL     OW40318   1.193   1.388   7.048  0.0622  0.3644  0.7790
 9561SOL    HW140319   1.277   1.348   7.025  0.2438 -0.0843  2.2483
 9561SOL    HW240320   1.221   1.446   7.118  2.0174  1.5827 -1.0147
 9562SOL     OW40321   4.385   4.730  17.280 -0.3333  0.1126 -0.7977
 9562SOL    HW140322   4.380   4.722  17.375 -0.2176 -0.4592 -0.8426
 9562SOL    HW240323   4.462   0.051  17.281 -0.7689  0.6283  1.7315
 9563SOL     OW40324   0.394   1.357   4.425 -0.2841  0.0048 -0.0376
 9563SOL    HW140325   0.462   1.332   4.363  0.5973 -1.5351  1.5734
 9563SOL    HW240326   0.328   1.391   4.365  0.8025 -0.4709 -1.4831
 9564SOL     OW40327   0.783   1.500  15.224 -0.4090 -0.1703  0.7049
 9564SOL    HW140328   0.798   1.569  15.159  2.3240 -0.6818  0.7908
 9564SOL    HW240329   0.862   1.446  15.219  1.1422  2.1340 -0.1648
 9565SOL     OW40330   3.642   0.131   6.168 -0.2876  0.2507  0.5010
 9565SOL    HW140331   3.562   0.084   6.143 -0.2085  0.0323  0.6611
 9565SOL    HW240332   3.633   0.142   6.262 -1.4936  0.0559  0.4057
 9566SOL     OW40333   2.434   0.933  13.558  0.3649  0.2220 -0.5405
 9566SOL    HW140334   2.504   0.994  13.534  1.3993 -1.0132 -0.6624
 9566SOL    HW240335   2.356   0.989  13.556 -0.8151 -1.3398  1.4198
 9567SOL     OW40336   1.412   1.953   5.911  0.5746  0.2576  0.6798
 9567SOL    HW140337   1.338   1.896   5.892  0.4706 -0.1135  2.1996
 9567SOL    HW240338   1.486   1.895   5.893 -0.9099 -1.0901 -0.9981
 9568SOL     OW40339   0.046   2.473   5.883 -0.0020 -0.1763  0.2196
 9568SOL    HW140340   4.698   2.439   5.852  0.5302  0.4159 -1.8795
 9568SOL    HW240341   0.070   2.528   5.808 -1.9821  1.7814  1.0225
 9569SOL     OW40342   1.386   2.477  10.168  0.0016  0.5749 -0.2292
 9569SOL    HW140343   1.311   2.531  10.145  1.6815  3.2084  0.4226
 9569SOL    HW240344   1.443   2.545  10.206 -0.2981  1.3047 -1.0742
   4.73635   4.73635  17.74397
